<event>
12    1  0.8494789E-002  0.1889771E+03  0.7818608E-02  0.1159486E+00
         21   -1    0    0  501  502  0.00000000000E+00  0.00000000000E+00  0.10770925922E+04  0.10770925922E+04  0.00000000000E+00 0.  1.
         21   -1    0    0  502  503 -0.00000000000E+00 -0.00000000000E+00 -0.44949098508E+02  0.44949098508E+02  0.00000000000E+00 0.  1.
         -6    2    1    2    0  503 -0.45237713878E+02  0.63145336054E+02  0.22821908949E+03  0.29630442650E+03  0.17227471125E+03 0.  0.
        -24    2    3    3    0    0 -0.25032502934E+02  0.48757665634E+02  0.24677742143E+03  0.26497142004E+03  0.79415499423E+02 0.  0.
          6    2    1    2  501    0  0.45237713878E+02 -0.63145336054E+02  0.80392440418E+03  0.82573726418E+03  0.17179580204E+03 0.  0.
         24    2    5    5    0    0 -0.39902437109E+02 -0.16240485405E+02  0.34141763593E+03  0.35310261565E+03  0.79116984236E+02 0.  0.
          5    1    5    5  501    0  0.85140150988E+02 -0.46904850649E+02  0.46250676825E+03  0.47263464854E+03  0.47000000000E+01 0. -1.
        -11    1    6    6    0    0  0.11520830631E+02 -0.12801435474E+02  0.15610075757E+02  0.23243940151E+02  0.00000000000E+00 0.  1.
         12    1    6    6    0    0 -0.51423267740E+02 -0.34390499306E+01  0.32580756018E+03  0.32985867549E+03  0.00000000000E+00 0. -1.
         -5    1    3    3    0  503 -0.20205210944E+02  0.14387670420E+02 -0.18558331944E+02  0.31333006462E+02  0.47000000000E+01 0.  1.
         11    1    4    4    0    0  0.27611889006E+02  0.20105099742E+02  0.11953684728E+03  0.12432091260E+03  0.00000000000E+00 0. -1.
        -12    1    4    4    0    0 -0.52644391940E+02  0.28652565892E+02  0.12724057415E+03  0.14065050744E+03  0.00000000000E+00 0.  1.
</event>
<event>
12    1  0.8494789E-002  0.1791031E+03  0.7818608E-02  0.1169134E+00
         21   -1    0    0  501  502  0.00000000000E+00  0.00000000000E+00  0.15206622836E+03  0.15206622836E+03  0.00000000000E+00 0. -1.
         21   -1    0    0  502  503 -0.00000000000E+00 -0.00000000000E+00 -0.21724315857E+03  0.21724315857E+03  0.00000000000E+00 0. -1.
         -6    2    1    2    0  503  0.10212074266E+01 -0.41850705718E+02 -0.68954480205E+02  0.19016648854E+03  0.17220931621E+03 0.  0.
        -24    2    3    3    0    0 -0.41311385601E+02 -0.10897309459E+02  0.15390804114E+02  0.90736220715E+02  0.78554458592E+02 0.  0.
          6    2    1    2  501    0 -0.10212074266E+01  0.41850705718E+02  0.37775499934E+01  0.17914289840E+03  0.17414184944E+03 0.  0.
         24    2    5    5    0    0  0.10267035883E+02  0.28087725839E+01  0.66094436554E+02  0.10459639391E+03  0.80365601143E+02 0.  0.
          5    1    5    5  501    0 -0.11288243310E+02  0.39041933134E+02 -0.62316886560E+02  0.74546504482E+02  0.47000000000E+01 0. -1.
        -11    1    6    6    0    0 -0.23613649815E+02  0.29466991428E+02  0.34490896884E+02  0.51142252681E+02  0.00000000000E+00 0.  1.
         12    1    6    6    0    0  0.33880685698E+02 -0.26658218844E+02  0.31603539670E+02  0.53454141233E+02  0.00000000000E+00 0. -1.
         -5    1    3    3    0  503  0.42332593027E+02 -0.30953396259E+02 -0.84345284318E+02  0.99430267822E+02  0.47000000000E+01 0.  1.
         11    1    4    4    0    0 -0.39644179618E+02 -0.39632703718E+02 -0.37286730884E+01  0.56181092767E+02  0.00000000000E+00 0. -1.
        -12    1    4    4    0    0 -0.16672059829E+01  0.28735394258E+02  0.19119477202E+02  0.34555127947E+02  0.00000000000E+00 0.  1.
</event>
<event>
12    1  0.8494789E-002  0.1967367E+03  0.7818608E-02  0.1152929E+00
         21   -1    0    0  501  502  0.00000000000E+00  0.00000000000E+00  0.18277247787E+03  0.18277247787E+03  0.00000000000E+00 0. -1.
         21   -1    0    0  502  503 -0.00000000000E+00 -0.00000000000E+00 -0.40527332898E+03  0.40527332898E+03  0.00000000000E+00 0. -1.
         -6    2    1    2    0  503 -0.12044709901E+02 -0.94711531547E+02 -0.31575044927E+03  0.37202642381E+03  0.17201733796E+03 0.  0.
        -24    2    3    3    0    0 -0.36835542113E+02  0.67418978928E+00 -0.94087495139E+02  0.12939588899E+03  0.80830239708E+02 0.  0.
          6    2    1    2  501    0  0.12044709901E+02  0.94711531547E+02  0.93249598158E+02  0.21601938304E+03  0.16986328929E+03 0.  0.
         24    2    5    5    0    0 -0.23338209366E+02  0.10105181661E+03  0.11457188395E+03  0.17396132719E+03  0.79872931032E+02 0.  0.
          5    1    5    5  501    0  0.35382919267E+02 -0.63402850615E+01 -0.21322285788E+02  0.42058055848E+02  0.47000000000E+01 0. -1.
        -11    1    6    6    0    0  0.79057320609E+01 -0.87094632391E+01 -0.66145963430E+00  0.11781038926E+02  0.00000000000E+00 0.  1.
         12    1    6    6    0    0 -0.31243941427E+02  0.10976127985E+03  0.11523334358E+03  0.16218028827E+03  0.00000000000E+00 0. -1.
         -5    1    3    3    0  503  0.24790832212E+02 -0.95385721336E+02 -0.22166295413E+03  0.24263053482E+03  0.47000000000E+01 0.  1.
         13    1    4    4    0    0 -0.51606734796E+02 -0.25292020188E+02 -0.72614482945E+02  0.92605639649E+02  0.00000000000E+00 0. -1.
        -14    1    4    4    0    0  0.14771192683E+02  0.25966209977E+02 -0.21473012194E+02  0.36790249341E+02  0.00000000000E+00 0.  1.
</event>
<event>
12    1  0.8494789E-002  0.2026300E+03  0.7818608E-02  0.1147824E+00
         21   -1    0    0  503  502  0.00000000000E+00  0.00000000000E+00  0.15076994590E+03  0.15076994590E+03  0.00000000000E+00 0. -1.
         21   -1    0    0  501  503 -0.00000000000E+00 -0.00000000000E+00 -0.28554603402E+03  0.28554603402E+03  0.00000000000E+00 0. -1.
          6    2    1    2  501    0 -0.98067930172E+02  0.38423308277E+02 -0.11769665615E+03  0.23433186896E+03  0.17310474399E+03 0.  0.
         24    2    3    3    0    0  0.11690033780E+02 -0.12640808504E+02 -0.38660947712E+02  0.89683716940E+02  0.79069926500E+02 0.  0.
         -6    2    1    2    0  502  0.98067930172E+02 -0.38423308277E+02 -0.17079431977E+02  0.20198411096E+03  0.17149986745E+03 0.  0.
        -24    2    5    5    0    0  0.54295973191E+02 -0.64744857775E+02  0.41997534731E+02  0.12374737930E+03  0.80060424972E+02 0.  0.
          5    1    3    3  501    0 -0.10975796395E+03  0.51064116781E+02 -0.79035708440E+02  0.14464815202E+03  0.47000000000E+01 0. -1.
        -13    1    4    4    0    0  0.96157444573E+01 -0.44853256990E+02 -0.10997132993E+02  0.47172175466E+02  0.00000000000E+00 0.  1.
         14    1    4    4    0    0  0.20742893229E+01  0.32212448486E+02 -0.27663814719E+02  0.42511541474E+02  0.00000000000E+00 0. -1.
         -5    1    5    5    0  502  0.43771956981E+02  0.26321549497E+02 -0.59076966708E+02  0.78236731663E+02  0.47000000000E+01 0.  1.
         13    1    6    6    0    0  0.59606623533E+02 -0.91896152817E+01  0.26121438932E+02  0.65724638986E+02  0.00000000000E+00 0. -1.
        -14    1    6    6    0    0 -0.53106503413E+01 -0.55555242493E+02  0.15876095799E+02  0.58022740312E+02  0.00000000000E+00 0.  1.
</event>
<event>
12    1  0.8494789E-002  0.2088781E+03  0.7818608E-02  0.1142618E+00
         21   -1    0    0  503  502  0.00000000000E+00  0.00000000000E+00  0.15916268162E+03  0.15916268162E+03  0.00000000000E+00 0.  1.
         21   -1    0    0  501  503 -0.00000000000E+00 -0.00000000000E+00 -0.31479784191E+03  0.31479784191E+03  0.00000000000E+00 0.  1.
          6    2    1    2  501    0 -0.61386171976E+02 -0.10177599626E+03  0.83307154297E+01  0.20904420842E+03  0.17176572630E+03 0.  0.
         24    2    3    3    0    0  0.25474274895E+02 -0.60153857211E+02  0.29497013368E+02  0.11031608751E+03  0.83857856802E+02 0.  0.
         -6    2    1    2    0  502  0.61386171976E+02  0.10177599626E+03 -0.16396587572E+03  0.26491631511E+03  0.17079001753E+03 0.  0.
        -24    2    5    5    0    0  0.79501753420E+02  0.68444547797E+02 -0.41089361100E+02  0.13623108833E+03  0.76585827098E+02 0.  0.
          5    1    3    3  501    0 -0.86860446871E+02 -0.41622139049E+02 -0.21166297939E+02  0.98728120908E+02  0.47000000000E+01 0. -1.
        -11    1    4    4    0    0 -0.22237461251E+02 -0.45677331567E+02 -0.28503172673E+01  0.50882684781E+02  0.00000000000E+00 0.  1.
         12    1    4    4    0    0  0.47711736147E+02 -0.14476525643E+02  0.32347330635E+02  0.59433402730E+02  0.00000000000E+00 0. -1.
         -5    1    5    5    0  502 -0.18115581444E+02  0.33331448463E+02 -0.12287651462E+03  0.12868522678E+03  0.47000000000E+01 0.  1.
         11    1    6    6    0    0  0.28053358437E+02 -0.85768663208E+01  0.93173697337E+01  0.30779326410E+02  0.00000000000E+00 0. -1.
        -12    1    6    6    0    0  0.51448394983E+02  0.77021414118E+02 -0.50406730834E+02  0.10545176192E+03  0.00000000000E+00 0.  1.
</event>
<event>
12    1  0.8494789E-002  0.2956720E+03  0.7818608E-02  0.1087495E+00
         21   -1    0    0  501  502  0.00000000000E+00  0.00000000000E+00  0.38510792838E+03  0.38510792838E+03  0.00000000000E+00 0. -1.
         21   -1    0    0  502  503 -0.00000000000E+00 -0.00000000000E+00 -0.31018667821E+03  0.31018667821E+03  0.00000000000E+00 0. -1.
         -6    2    1    2    0  503 -0.16071800793E+03  0.17822548871E+03 -0.14299960630E+03  0.32843692614E+03  0.17270588916E+03 0.  0.
        -24    2    3    3    0    0 -0.11333012675E+03  0.14878550511E+03 -0.34682952872E+02  0.20650698180E+03  0.80382722970E+02 0.  0.
          6    2    1    2  501    0  0.16071800793E+03 -0.17822548871E+03  0.21792085647E+03  0.36685768044E+03  0.17175696526E+03 0.  0.
         24    2    5    5    0    0  0.66064816582E+02 -0.19183644252E+02  0.50592065025E+02  0.11730898907E+03  0.80431770313E+02 0.  0.
          5    1    5    5  501    0  0.94653191348E+02 -0.15904184446E+03  0.16732879145E+03  0.24954869138E+03  0.47000000000E+01 0. -1.
        -13    1    6    6    0    0 -0.52085254235E+01 -0.30350692615E+02  0.28240330293E+02  0.41782885664E+02  0.00000000000E+00 0.  1.
         14    1    6    6    0    0  0.71273342005E+02  0.11167048364E+02  0.22351734732E+02  0.75526103403E+02  0.00000000000E+00 0. -1.
         -5    1    3    3    0  503 -0.47387881177E+02  0.29439983599E+02 -0.10831665343E+03  0.12192994434E+03  0.47000000000E+01 0.  1.
         13    1    4    4    0    0 -0.62754358574E+02  0.13679483979E+03 -0.16336086421E+02  0.15138627888E+03  0.00000000000E+00 0. -1.
        -14    1    4    4    0    0 -0.50575768179E+02  0.11990665314E+02 -0.18346866451E+02  0.55120702918E+02  0.00000000000E+00 0.  1.
</event>
<event>
12    1  0.8494789E-002  0.1865060E+03  0.7818608E-02  0.1161753E+00
         21   -1    0    0  503  502  0.00000000000E+00  0.00000000000E+00  0.72021436819E+03  0.72021436819E+03  0.00000000000E+00 0. -1.
         21   -1    0    0  501  503 -0.00000000000E+00 -0.00000000000E+00 -0.51244651719E+02  0.51244651719E+02  0.00000000000E+00 0. -1.
          6    2    1    2  501    0 -0.56839890327E+02  0.42090898743E+02  0.42914562701E+03  0.46792141937E+03  0.17257482038E+03 0.  0.
         24    2    3    3    0    0 -0.42729703278E+02  0.56895003818E+02  0.43349629519E+03  0.44649066532E+03  0.79824853714E+02 0.  0.
         -6    2    1    2    0  502  0.56839890327E+02 -0.42090898743E+02  0.23982408946E+03  0.30353760054E+03  0.17209608993E+03 0.  0.
        -24    2    5    5    0    0  0.25777061220E+02 -0.54185732247E+02  0.24929694500E+03  0.26856605008E+03  0.79863671358E+02 0.  0.
          5    1    3    3  501    0 -0.14110187049E+02 -0.14804105075E+02 -0.43506681750E+01  0.21430754051E+02  0.47000000000E+01 0. -1.
        -11    1    4    4    0    0 -0.26180658086E+02  0.11363583099E+02  0.35468814495E+02  0.45525758427E+02  0.00000000000E+00 0.  1.
         12    1    4    4    0    0 -0.16549045193E+02  0.45531420718E+02  0.39802748069E+03  0.40096490689E+03  0.00000000000E+00 0. -1.
         -5    1    5    5    0  502  0.31062829107E+02  0.12094833504E+02 -0.94728555457E+01  0.34971550464E+02  0.47000000000E+01 0.  1.
         13    1    6    6    0    0  0.49267272072E+02 -0.31348372776E+02  0.10075486400E+03  0.11645397028E+03  0.00000000000E+00 0. -1.
        -14    1    6    6    0    0 -0.23490210853E+02 -0.22837359471E+02  0.14854208100E+03  0.15211207980E+03  0.00000000000E+00 0.  1.
</event>
<event>
12    1  0.8494789E-002  0.1895451E+03  0.7818608E-02  0.1159041E+00
         21   -1    0    0  503  502  0.00000000000E+00  0.00000000000E+00  0.32967458380E+03  0.32967458380E+03  0.00000000000E+00 0.  1.
         21   -1    0    0  501  503 -0.00000000000E+00 -0.00000000000E+00 -0.12376799665E+03  0.12376799665E+03  0.00000000000E+00 0.  1.
          6    2    1    2  501    0  0.64036079509E+02  0.36730808461E+02  0.23273708430E+02  0.19022758928E+03  0.17376736878E+03 0.  0.
         24    2    3    3    0    0  0.20673165696E+02  0.87036550885E+02  0.28917336987E+02  0.12340730375E+03  0.79940035469E+02 0.  0.
         -6    2    1    2    0  502 -0.64036079509E+02 -0.36730808461E+02  0.18263287872E+03  0.26321499116E+03  0.17457832459E+03 0.  0.
        -24    2    5    5    0    0  0.27207593127E+02 -0.64631828472E+01  0.42544302638E+02  0.93249006025E+02  0.78123834912E+02 0.  0.
          5    1    3    3  501    0  0.43362913814E+02 -0.50305742424E+02 -0.56436285570E+01  0.66820285532E+02  0.47000000000E+01 0. -1.
        -11    1    4    4    0    0  0.19454599302E+02 -0.10682540579E+02  0.39726320220E+01  0.22547281708E+02  0.00000000000E+00 0.  1.
         12    1    4    4    0    0  0.12185663932E+01  0.97719091464E+02  0.24944704965E+02  0.10086002204E+03  0.00000000000E+00 0. -1.
         -5    1    5    5    0  502 -0.91243672637E+02 -0.30267625614E+02  0.14008857608E+03  0.16996598514E+03  0.47000000000E+01 0.  1.
         11    1    6    6    0    0  0.28783183611E+02 -0.22291527499E+01 -0.17020415728E+02  0.33513211310E+02  0.00000000000E+00 0. -1.
        -12    1    6    6    0    0 -0.15755904833E+01 -0.42340300973E+01  0.59564718366E+02  0.59735794715E+02  0.00000000000E+00 0.  1.
</event>
<event>
12    1  0.8494789E-002  0.2311759E+03  0.7818608E-02  0.1126336E+00
         21   -1    0    0  503  502  0.00000000000E+00  0.00000000000E+00  0.14615916138E+03  0.14615916138E+03  0.00000000000E+00 0. -1.
         21   -1    0    0  501  503 -0.00000000000E+00 -0.00000000000E+00 -0.12150812138E+04  0.12150812138E+04  0.00000000000E+00 0. -1.
          6    2    1    2  501    0 -0.14501290335E+03 -0.35704066554E+02 -0.11040677901E+04  0.11274080841E+04  0.17256819072E+03 0.  0.
         24    2    3    3    0    0 -0.16868062152E+02 -0.29569744224E+02 -0.64109426603E+03  0.64696526313E+03  0.80020575224E+02 0.  0.
         -6    2    1    2    0  502  0.14501290335E+03  0.35704066554E+02  0.35145737655E+02  0.23383229110E+03  0.17646187968E+03 0.  0.
        -24    2    5    5    0    0  0.28029156447E+02  0.64906348648E+02 -0.61287887798E+01  0.10630328714E+03  0.79147704319E+02 0.  0.
          5    1    3    3  501    0 -0.12814484120E+03 -0.61343223294E+01 -0.46297352405E+03  0.48044282095E+03  0.47000000000E+01 0. -1.
        -13    1    4    4    0    0  0.84177026358E+01  0.22206483939E+01 -0.59993673450E+01  0.10572672580E+02  0.00000000000E+00 0.  1.
         14    1    4    4    0    0 -0.25285764788E+02 -0.31790392618E+02 -0.63509489869E+03  0.63639259055E+03  0.00000000000E+00 0. -1.
         -5    1    5    5    0  502  0.11698374690E+03 -0.29202282094E+02  0.41274526435E+02  0.12752900396E+03  0.47000000000E+01 0.  1.
         11    1    6    6    0    0  0.55562679948E+02  0.36572558346E+02 -0.60673416703E+01  0.66795030218E+02  0.00000000000E+00 0. -1.
        -12    1    6    6    0    0 -0.27533523501E+02  0.28333790302E+02 -0.61447109469E-01  0.39508256922E+02  0.00000000000E+00 0.  1.
</event>
<event>
12    1  0.8494789E-002  0.2788754E+03  0.7818608E-02  0.1096326E+00
         21   -1    0    0  503  502  0.00000000000E+00  0.00000000000E+00  0.16396496750E+04  0.16396496750E+04  0.00000000000E+00 0. -1.
         21   -1    0    0  501  503 -0.00000000000E+00 -0.00000000000E+00 -0.54994389551E+02  0.54994389551E+02  0.00000000000E+00 0.  1.
          6    2    1    2  501    0 -0.16132314324E+03 -0.14838094085E+03  0.47775826601E+03  0.55319477696E+03  0.17242227339E+03 0.  0.
         24    2    3    3    0    0 -0.14810490332E+03 -0.56107945244E+02  0.37191011170E+03  0.41207444053E+03  0.80031552790E+02 0.  0.
         -6    2    1    2    0  502  0.16132314324E+03  0.14838094085E+03  0.11068970194E+04  0.11414492876E+04  0.17217260043E+03 0.  0.
        -24    2    5    5    0    0  0.81730860580E+02  0.16509819374E+03  0.80232118278E+03  0.82616698824E+03  0.69966170241E+02 0.  0.
          5    1    3    3  501    0 -0.13218239926E+02 -0.92272995610E+02  0.10584815431E+03  0.14112033644E+03  0.47000000000E+01 0. -1.
        -13    1    4    4    0    0 -0.10961990581E+03 -0.75932590571E+02  0.26297965755E+03  0.29485688452E+03  0.00000000000E+00 0.  1.
         14    1    4    4    0    0 -0.38484997511E+02  0.19824645326E+02  0.10893045415E+03  0.11721755601E+03  0.00000000000E+00 0. -1.
         -5    1    5    5    0  502  0.79592282665E+02 -0.16717252888E+02  0.30457583665E+03  0.31528229934E+03  0.47000000000E+01 0.  1.
         11    1    6    6    0    0  0.93434373336E+02  0.14143157448E+03  0.72141885784E+03  0.74106547675E+03  0.00000000000E+00 0. -1.
        -12    1    6    6    0    0 -0.11703512757E+02  0.23666619262E+02  0.80902324938E+02  0.85101511493E+02  0.00000000000E+00 0.  1.
</event>
<event>
12    1  0.8494789E-002  0.2114295E+03  0.7818608E-02  0.1140490E+00
         21   -1    0    0  501  502  0.00000000000E+00  0.00000000000E+00  0.11331778918E+03  0.11331778918E+03  0.00000000000E+00 0.  1.
         21   -1    0    0  502  503 -0.00000000000E+00 -0.00000000000E+00 -0.40695425335E+03  0.40695425335E+03  0.00000000000E+00 0.  1.
         -6    2    1    2    0  503  0.93619534223E+02  0.77774827517E+02 -0.19331469182E+03  0.28648383684E+03  0.17288400075E+03 0.  0.
        -24    2    3    3    0    0  0.26563495728E+02  0.64898497386E+02 -0.32306163807E+02  0.11153199127E+03  0.80487654886E+02 0.  0.
          6    2    1    2  501    0 -0.93619534223E+02 -0.77774827517E+02 -0.10032177235E+03  0.23378820569E+03  0.17256571539E+03 0.  0.
         24    2    5    5    0    0 -0.70890249516E+02 -0.10891286405E+02 -0.11786612718E+03  0.16085040451E+03  0.82682411055E+02 0.  0.
          5    1    5    5  501    0 -0.22729284707E+02 -0.66883541112E+02  0.17544354830E+02  0.72937801183E+02  0.47000000000E+01 0. -1.
        -11    1    6    6    0    0 -0.54938508895E+02 -0.33085225193E+02 -0.33884181572E+02  0.72532817721E+02  0.00000000000E+00 0.  1.
         12    1    6    6    0    0 -0.15951740620E+02  0.22193938787E+02 -0.83981945609E+02  0.88317586788E+02  0.00000000000E+00 0. -1.
         -5    1    3    3    0  503  0.67056038495E+02  0.12876330132E+02 -0.16100852801E+03  0.17495184557E+03  0.47000000000E+01 0.  1.
         11    1    4    4    0    0 -0.27478379439E+02  0.89386527486E+01 -0.70940935670E+01  0.29753773090E+02  0.00000000000E+00 0. -1.
        -12    1    4    4    0    0  0.54041875167E+02  0.55959844637E+02 -0.25212070240E+02  0.81778218183E+02  0.00000000000E+00 0.  1.
</event>
<event>
12    1  0.8494789E-002  0.2256068E+03  0.7818608E-02  0.1130588E+00
         21   -1    0    0  503  502  0.00000000000E+00  0.00000000000E+00  0.35425776393E+03  0.35425776393E+03  0.00000000000E+00 0. -1.
         21   -1    0    0  501  503 -0.00000000000E+00 -0.00000000000E+00 -0.48178969959E+03  0.48178969959E+03  0.00000000000E+00 0. -1.
          6    2    1    2  501    0  0.10827062491E+03 -0.10129222012E+03 -0.41523167096E+03  0.47043894958E+03  0.16405128054E+03 0.  0.
         24    2    3    3    0    0  0.74756794845E+02  0.25119172066E+01 -0.17805407327E+03  0.20933786078E+03  0.80772512921E+02 0.  0.
         -6    2    1    2    0  502 -0.10827062491E+03  0.10129222012E+03  0.28769973530E+03  0.36560851394E+03  0.17004648100E+03 0.  0.
        -24    2    5    5    0    0  0.44964164742E+01  0.59358048153E+02  0.92868523698E+02  0.13657539098E+03  0.80527505145E+02 0.  0.
          5    1    3    3  501    0  0.33513830062E+02 -0.10380413732E+03 -0.23717759769E+03  0.26110108880E+03  0.47000000000E+01 0. -1.
        -11    1    4    4    0    0  0.34909421789E+01  0.25630282446E+02 -0.90396878361E+02  0.94024963031E+02  0.00000000000E+00 0.  1.
         12    1    4    4    0    0  0.71265852666E+02 -0.23118365240E+02 -0.87657194912E+02  0.11531289775E+03  0.00000000000E+00 0. -1.
         -5    1    5    5    0  502 -0.11276704138E+03  0.41934171964E+02  0.19483121160E+03  0.22903312296E+03  0.47000000000E+01 0.  1.
         11    1    6    6    0    0  0.77462186597E+01  0.10093040298E+02  0.85754776158E+02  0.86693454193E+02  0.00000000000E+00 0. -1.
        -12    1    6    6    0    0 -0.32498021854E+01  0.49265007856E+02  0.71137475406E+01  0.49881936784E+02  0.00000000000E+00 0.  1.
</event>
<event>
12    1  0.8494789E-002  0.1856494E+03  0.7818608E-02  0.1162616E+00
         21   -1    0    0  503  502  0.00000000000E+00  0.00000000000E+00  0.16975115690E+04  0.16975115690E+04  0.00000000000E+00 0.  1.
         21   -1    0    0  501  503 -0.00000000000E+00 -0.00000000000E+00 -0.20224585514E+02  0.20224585514E+02  0.00000000000E+00 0.  1.
          6    2    1    2  501    0  0.14959436896E+02 -0.67066389814E+02  0.83013029804E+03  0.85047601912E+03  0.17167254290E+03 0.  0.
         24    2    3    3    0    0 -0.16207542750E+02 -0.16513301942E+02  0.72540861359E+03  0.72999483176E+03  0.78354477529E+02 0.  0.
         -6    2    1    2    0  502 -0.14959436896E+02  0.67066389814E+02  0.84715668549E+03  0.86726013543E+03  0.17246451040E+03 0.  0.
        -24    2    5    5    0    0 -0.68464984809E+02  0.50558653113E+02  0.70198782913E+03  0.71159563760E+03  0.79610348942E+02 0.  0.
          5    1    3    3  501    0  0.31166979646E+02 -0.50553087872E+02  0.10472168445E+03  0.12048118736E+03  0.47000000000E+01 0. -1.
        -13    1    4    4    0    0  0.15061849391E+01 -0.43535490192E+02  0.27500346586E+03  0.27843224263E+03  0.00000000000E+00 0.  1.
         14    1    4    4    0    0 -0.17713727689E+02  0.27022188250E+02  0.45040514773E+03  0.45156258913E+03  0.00000000000E+00 0. -1.
         -5    1    5    5    0  502  0.53505547913E+02  0.16507736701E+02  0.14516885636E+03  0.15566449783E+03  0.47000000000E+01 0.  1.
         13    1    6    6    0    0 -0.45489717853E+02  0.34853526533E+02  0.18078795984E+03  0.18965328672E+03  0.00000000000E+00 0. -1.
        -14    1    6    6    0    0 -0.22975266956E+02  0.15705126581E+02  0.52119986929E+03  0.52194235088E+03  0.00000000000E+00 0.  1.
</event>
<event>
12    1  0.8494789E-002  0.1720748E+03  0.7818608E-02  0.1175900E+00
         21   -1    0    0  503  502  0.00000000000E+00  0.00000000000E+00  0.72934508719E+02  0.72934508719E+02  0.00000000000E+00 0. -1.
         21   -1    0    0  501  503 -0.00000000000E+00 -0.00000000000E+00 -0.53270568603E+03  0.53270568603E+03  0.00000000000E+00 0. -1.
          6    2    1    2  501    0 -0.12834223883E+02 -0.27012107777E+01 -0.37903621512E+03  0.41626698644E+03  0.17157429232E+03 0.  0.
         24    2    3    3    0    0  0.18351534001E+02  0.55728195580E+02 -0.18082411526E+03  0.20722949327E+03  0.82488130272E+02 0.  0.
         -6    2    1    2    0  502  0.12834223883E+02  0.27012107777E+01 -0.80734962191E+02  0.18937320831E+03  0.17079831400E+03 0.  0.
        -24    2    5    5    0    0  0.45427272518E+02  0.46745280769E+02 -0.15404173804E+02  0.10397772347E+03  0.79531880676E+02 0.  0.
          5    1    3    3  501    0 -0.31185757884E+02 -0.58429406357E+02 -0.19821209986E+03  0.20903749317E+03  0.47000000000E+01 0. -1.
        -11    1    4    4    0    0 -0.11699975468E+02 -0.76090300180E+01 -0.73456510344E+00  0.13975920351E+02  0.00000000000E+00 0.  1.
         12    1    4    4    0    0  0.30051509468E+02  0.63337225598E+02 -0.18008955016E+03  0.19325357291E+03  0.00000000000E+00 0. -1.
         -5    1    5    5    0  502 -0.32593048635E+02 -0.44044069991E+02 -0.65330788387E+02  0.85395484846E+02  0.47000000000E+01 0.  1.
         13    1    6    6    0    0 -0.51749418420E+01 -0.15731407361E+02  0.10381160654E+02  0.19545477665E+02  0.00000000000E+00 0. -1.
        -14    1    6    6    0    0  0.50602214360E+02  0.62476688130E+02 -0.25785334457E+02  0.84432245800E+02  0.00000000000E+00 0.  1.
</event>
<event>
12    1  0.8494789E-002  0.1816458E+03  0.7818608E-02  0.1166752E+00
         21   -1    0    0  503  502  0.00000000000E+00  0.00000000000E+00  0.15079267153E+03  0.15079267153E+03  0.00000000000E+00 0. -1.
         21   -1    0    0  501  503 -0.00000000000E+00 -0.00000000000E+00 -0.21686471820E+03  0.21686471820E+03  0.00000000000E+00 0. -1.
          6    2    1    2  501    0  0.13000295112E+02 -0.61275671061E+02 -0.22727831968E+02  0.18306214872E+03  0.17050360821E+03 0.  0.
         24    2    3    3    0    0 -0.11614445586E+02 -0.64926703770E+02 -0.71774909299E+02  0.12786322397E+03  0.82746566275E+02 0.  0.
         -6    2    1    2    0  502 -0.13000295112E+02  0.61275671061E+02 -0.43344214702E+02  0.18459524101E+03  0.16814567053E+03 0.  0.
        -24    2    5    5    0    0 -0.75138638580E+02  0.24783988735E+02 -0.30163963917E+02  0.11118798238E+03  0.72061373855E+02 0.  0.
          5    1    3    3  501    0  0.24614740698E+02  0.36510327088E+01  0.49047077330E+02  0.55198924755E+02  0.47000000000E+01 0. -1.
        -13    1    4    4    0    0 -0.19972421972E+02 -0.42516779789E+02  0.51970921270E+01  0.47260807966E+02  0.00000000000E+00 0.  1.
         14    1    4    4    0    0  0.83579763858E+01 -0.22409923981E+02 -0.76972001426E+02  0.80602416003E+02  0.00000000000E+00 0. -1.
         -5    1    5    5    0  502  0.62138343467E+02  0.36491682327E+02 -0.13180250785E+02  0.73407258624E+02  0.47000000000E+01 0.  1.
         11    1    6    6    0    0  0.13277744250E+02  0.40638232144E+01  0.35292137798E+01  0.14327194470E+02  0.00000000000E+00 0. -1.
        -12    1    6    6    0    0 -0.88416382829E+02  0.20720165520E+02 -0.33693177696E+02  0.96860787913E+02  0.00000000000E+00 0.  1.
</event>
<event>
12    1  0.8494789E-002  0.3195449E+03  0.7818608E-02  0.1076124E+00
         21   -1    0    0  501  502  0.00000000000E+00  0.00000000000E+00  0.11887738552E+04  0.11887738552E+04  0.00000000000E+00 0. -1.
         21   -1    0    0  502  503 -0.00000000000E+00 -0.00000000000E+00 -0.91612762588E+02  0.91612762588E+02  0.00000000000E+00 0.  1.
         -6    2    1    2    0  503 -0.25782180502E+03 -0.65195765318E+02  0.71506386372E+03  0.78228300316E+03  0.17299652272E+03 0.  0.
        -24    2    3    3    0    0 -0.83645914983E+02  0.26360191656E+02  0.30773859534E+03  0.32989412377E+03  0.80222135616E+02 0.  0.
          6    2    1    2  501    0  0.25782180502E+03  0.65195765318E+02  0.38209722890E+03  0.49810361463E+03  0.17716192485E+03 0.  0.
         24    2    5    5    0    0  0.42581895045E+02  0.26395778364E+02  0.66713217362E+02  0.11427706192E+03  0.78093780861E+02 0.  0.
          5    1    5    5  501    0  0.21523990998E+03  0.38799986954E+02  0.31538401154E+03  0.38382655271E+03  0.47000000000E+01 0. -1.
        -11    1    6    6    0    0  0.14656597486E+02 -0.24334277697E+02  0.36189799315E+01  0.28636863247E+02  0.00000000000E+00 0.  1.
         12    1    6    6    0    0  0.27925297560E+02  0.50730056061E+02  0.63094237430E+02  0.85640198673E+02  0.00000000000E+00 0. -1.
         -5    1    3    3    0  503 -0.17417589004E+03 -0.91555956973E+02  0.40732526838E+03  0.45238887938E+03  0.47000000000E+01 0.  1.
         11    1    4    4    0    0 -0.95916249895E+02  0.82951441062E+01  0.26400307494E+03  0.28100953718E+03  0.00000000000E+00 0. -1.
        -12    1    4    4    0    0  0.12270334911E+02  0.18065047549E+02  0.43735520396E+02  0.48884586591E+02  0.00000000000E+00 0.  1.
</event>
<event>
12    1  0.8494789E-002  0.1805500E+03  0.7818608E-02  0.1169248E+00
         21   -1    0    0  503  502  0.00000000000E+00  0.00000000000E+00  0.93672139846E+02  0.93672139846E+02  0.00000000000E+00 0.  1.
         21   -1    0    0  501  503 -0.00000000000E+00 -0.00000000000E+00 -0.35832142749E+03  0.35832142749E+03  0.00000000000E+00 0. -1.
          6    2    1    2  501    0 -0.16718532263E+02  0.16685464382E+02 -0.19547277200E+03  0.26609755845E+03  0.17899830161E+03 0.  0.
         24    2    3    3    0    0 -0.57832991998E+02  0.18382947677E+02 -0.44844921471E+02  0.10987937896E+03  0.79873795517E+02 0.  0.
         -6    2    1    2    0  502  0.16718532263E+02 -0.16685464382E+02 -0.69176515651E+02  0.18589600889E+03  0.17092109806E+03 0.  0.
        -24    2    5    5    0    0 -0.39785537005E+02 -0.54177604369E+02 -0.35290279491E+02  0.10994380414E+03  0.79524426896E+02 0.  0.
          5    1    3    3  501    0  0.41114459735E+02 -0.16974832954E+01 -0.15062785052E+03  0.15621817949E+03  0.47000000000E+01 0. -1.
        -11    1    4    4    0    0 -0.26704254245E+02 -0.11435212586E+02  0.17626808296E+02  0.33979194405E+02  0.00000000000E+00 0.  1.
         12    1    4    4    0    0 -0.31128737753E+02  0.29818160263E+02 -0.62471729767E+02  0.75900184556E+02  0.00000000000E+00 0. -1.
         -5    1    5    5    0  502  0.56504069268E+02  0.37492139987E+02 -0.33886236160E+02  0.75952204746E+02  0.47000000000E+01 0.  1.
         11    1    6    6    0    0 -0.63137231846E+02 -0.33519725288E+02 -0.32851510362E+02  0.78670857130E+02  0.00000000000E+00 0. -1.
        -12    1    6    6    0    0  0.23351694841E+02 -0.20657879081E+02 -0.24387691297E+01  0.31272947014E+02  0.00000000000E+00 0.  1.
</event>
<event>
12    1  0.8494789E-002  0.2053430E+03  0.7818608E-02  0.1145870E+00
         21   -1    0    0  503  502  0.00000000000E+00  0.00000000000E+00  0.81416750126E+03  0.81416750126E+03  0.00000000000E+00 0.  1.
         21   -1    0    0  501  503 -0.00000000000E+00 -0.00000000000E+00 -0.10608943631E+03  0.10608943631E+03  0.00000000000E+00 0. -1.
          6    2    1    2  501    0  0.42950015887E+02  0.10047829606E+03  0.23921440101E+02  0.20673171295E+03  0.17385388692E+03 0.  0.
         24    2    3    3    0    0  0.45660824372E+02  0.11924433109E+03  0.63054916400E+02  0.16299349715E+03  0.79289572147E+02 0.  0.
         -6    2    1    2    0  502 -0.42950015887E+02 -0.10047829606E+03  0.68415662485E+03  0.71352522462E+03  0.17060881279E+03 0.  0.
        -24    2    5    5    0    0  0.22799573002E+02 -0.95562981999E+02  0.32051239276E+03  0.34392221289E+03  0.76825715397E+02 0.  0.
          5    1    3    3  501    0 -0.27108084853E+01 -0.18766035036E+02 -0.39133476299E+02  0.43738215794E+02  0.47000000000E+01 0. -1.
        -11    1    4    4    0    0  0.23125693795E+02 -0.29648360920E+01  0.22165269759E+02  0.32169661951E+02  0.00000000000E+00 0.  1.
         12    1    4    4    0    0  0.22535130578E+02  0.12220916719E+03  0.40889646641E+02  0.13082383520E+03  0.00000000000E+00 0. -1.
         -5    1    5    5    0  502 -0.65749588889E+02 -0.49153140586E+01  0.36364423209E+03  0.36960301173E+03  0.47000000000E+01 0.  1.
         11    1    6    6    0    0 -0.11736339901E+02  0.40920736370E+01  0.84582342508E+02  0.85490697769E+02  0.00000000000E+00 0. -1.
        -12    1    6    6    0    0  0.34535912903E+02 -0.99655055636E+02  0.23593005025E+03  0.25843151512E+03  0.00000000000E+00 0.  1.
</event>
<event>
12    1  0.8494789E-002  0.4405116E+03  0.7818608E-02  0.1030624E+00
         21   -1    0    0  501  502  0.00000000000E+00  0.00000000000E+00  0.10292547154E+03  0.10292547154E+03  0.00000000000E+00 0.  1.
         21   -1    0    0  502  503 -0.00000000000E+00 -0.00000000000E+00 -0.20614596235E+04  0.20614596235E+04  0.00000000000E+00 0. -1.
         -6    2    1    2    0  503 -0.23893461147E+03 -0.32751037627E+03 -0.66169739902E+03  0.79491755897E+03  0.17233015569E+03 0.  0.
        -24    2    3    3    0    0 -0.62494020542E+02 -0.16896763971E+03 -0.37236365616E+03  0.42074756258E+03  0.76930183352E+02 0.  0.
          6    2    1    2  501    0  0.23893461147E+03  0.32751037627E+03 -0.12968367529E+04  0.13694675360E+04  0.17118111303E+03 0.  0.
         24    2    5    5    0    0  0.78695784697E+02  0.21980925191E+03 -0.73306726307E+03  0.77353621326E+03  0.80383625792E+02 0.  0.
          5    1    5    5  501    0  0.16023882677E+03  0.10770112436E+03 -0.56376948984E+03  0.59593132278E+03  0.47000000000E+01 0. -1.
        -13    1    6    6    0    0  0.25227230583E+02  0.17000267522E+03 -0.46713897088E+03  0.49775108323E+03  0.00000000000E+00 0.  1.
         14    1    6    6    0    0  0.53468554114E+02  0.49806576690E+02 -0.26592829219E+03  0.27578513003E+03  0.00000000000E+00 0. -1.
         -5    1    3    3    0  503 -0.17644059093E+03 -0.15854273656E+03 -0.28933374286E+03  0.37416999639E+03  0.47000000000E+01 0.  1.
         13    1    4    4    0    0 -0.34868857912E+02 -0.12638573454E+02 -0.74399472618E+02  0.83131536236E+02  0.00000000000E+00 0. -1.
        -14    1    4    4    0    0 -0.27625162630E+02 -0.15632906625E+03 -0.29796418355E+03  0.33761602634E+03  0.00000000000E+00 0.  1.
</event>
<event>
12    1  0.8494789E-002  0.2470970E+03  0.7818608E-02  0.1115155E+00
         21   -1    0    0  503  502  0.00000000000E+00  0.00000000000E+00  0.38722235486E+03  0.38722235486E+03  0.00000000000E+00 0.  1.
         21   -1    0    0  501  503 -0.00000000000E+00 -0.00000000000E+00 -0.16161702335E+03  0.16161702335E+03  0.00000000000E+00 0.  1.
          6    2    1    2  501    0 -0.11518401790E+03 -0.13615060599E+03  0.69919073605E+02  0.25678609453E+03  0.17101484145E+03 0.  0.
         24    2    3    3    0    0 -0.52883279634E+02 -0.65459893392E+02 -0.30044042058E+02  0.11933329052E+03  0.79095833361E+02 0.  0.
         -6    2    1    2    0  502  0.11518401790E+03  0.13615060599E+03  0.15568625790E+03  0.29205328368E+03  0.17103380986E+03 0.  0.
        -24    2    5    5    0    0  0.20395500191E+02  0.55996568014E+02  0.87338046057E+01  0.99630191447E+02  0.79361852596E+02 0.  0.
          5    1    3    3  501    0 -0.62300738267E+02 -0.70690712600E+02  0.99963115663E+02  0.13745280401E+03  0.47000000000E+01 0. -1.
        -13    1    4    4    0    0 -0.45458121402E+02 -0.69003009734E+02  0.55344280862E+01  0.82815977009E+02  0.00000000000E+00 0.  1.
         14    1    4    4    0    0 -0.74251582313E+01  0.35431163417E+01 -0.35578470144E+02  0.36517313509E+02  0.00000000000E+00 0. -1.
         -5    1    5    5    0  502  0.94788517709E+02  0.80154037978E+02  0.14695245330E+03  0.19242309223E+03  0.47000000000E+01 0.  1.
         11    1    6    6    0    0 -0.58116609629E+01  0.68774701936E+02  0.12784142413E+02  0.70193798350E+02  0.00000000000E+00 0. -1.
        -12    1    6    6    0    0  0.26207161154E+02 -0.12778133922E+02 -0.40503378068E+01  0.29436393098E+02  0.00000000000E+00 0.  1.
</event>
<event>
12    1  0.8494789E-002  0.2573570E+03  0.7818608E-02  0.1108852E+00
         21   -1    0    0  503  502  0.00000000000E+00  0.00000000000E+00  0.21008878921E+04  0.21008878921E+04  0.00000000000E+00 0. -1.
         21   -1    0    0  501  503 -0.00000000000E+00 -0.00000000000E+00 -0.12274295292E+03  0.12274295292E+03  0.00000000000E+00 0. -1.
          6    2    1    2  501    0  0.16519554381E+03  0.95072806226E+02  0.29791393120E+02  0.25835371812E+03  0.17184501849E+03 0.  0.
         24    2    3    3    0    0  0.81352047753E+02  0.29849963416E+02  0.76441346355E+02  0.14224144834E+03  0.82946815512E+02 0.  0.
         -6    2    1    2    0  502 -0.16519554381E+03 -0.95072806226E+02  0.19483535460E+04  0.19652771269E+04  0.17292842144E+03 0.  0.
        -24    2    5    5    0    0 -0.15894344950E+03 -0.73354013584E+02  0.11008501421E+04  0.11174593963E+04  0.78744114345E+02 0.  0.
          5    1    3    3  501    0  0.83843496060E+02  0.65222842810E+02 -0.46649953235E+02  0.11611226978E+03  0.47000000000E+01 0. -1.
        -11    1    4    4    0    0  0.74944356573E+02 -0.13176146748E+02  0.53881773268E+02  0.93239009625E+02  0.00000000000E+00 0.  1.
         12    1    4    4    0    0  0.64076911795E+01  0.43026110164E+02  0.22559573087E+02  0.49002438715E+02  0.00000000000E+00 0. -1.
         -5    1    5    5    0  502 -0.62520943116E+01 -0.21718792642E+02  0.84750340390E+03  0.84781773057E+03  0.47000000000E+01 0.  1.
         11    1    6    6    0    0 -0.21972334040E+02 -0.29226137157E+02  0.41882489050E+03  0.42041793427E+03  0.00000000000E+00 0. -1.
        -12    1    6    6    0    0 -0.13697111546E+03 -0.44127876427E+02  0.68202525162E+03  0.69704146203E+03  0.00000000000E+00 0.  1.
</event>
<event>
12    1  0.8494789E-002  0.1990561E+03  0.7818608E-02  0.1150881E+00
         21   -1    0    0  503  502  0.00000000000E+00  0.00000000000E+00  0.68990886972E+03  0.68990886972E+03  0.00000000000E+00 0. -1.
         21   -1    0    0  501  503 -0.00000000000E+00 -0.00000000000E+00 -0.12160912961E+03  0.12160912961E+03  0.00000000000E+00 0. -1.
          6    2    1    2  501    0  0.62116032745E+02 -0.78139712316E+02 -0.12213681266E+02  0.19782493542E+03  0.17035643487E+03 0.  0.
         24    2    3    3    0    0 -0.24662896332E+02 -0.34052965585E+02  0.14982754504E+02  0.96652014699E+02  0.85727860654E+02 0.  0.
         -6    2    1    2    0  502 -0.62116032745E+02  0.78139712316E+02  0.58051342138E+03  0.61369306391E+03  0.17221825724E+03 0.  0.
        -24    2    5    5    0    0  0.24229339218E+01  0.80492521229E+02  0.48660677088E+03  0.49962570251E+03  0.79716852450E+02 0.  0.
          5    1    3    3  501    0  0.86778929077E+02 -0.44086746731E+02 -0.27196435769E+02  0.10117292072E+03  0.47000000000E+01 0. -1.
        -11    1    4    4    0    0  0.22836445733E+02  0.31093205016E+00  0.28465646490E+02  0.36495108748E+02  0.00000000000E+00 0.  1.
         12    1    4    4    0    0 -0.47499342065E+02 -0.34363897635E+02 -0.13482891986E+02  0.60156905951E+02  0.00000000000E+00 0. -1.
         -5    1    5    5    0  502 -0.64538966667E+02 -0.23528089128E+01  0.93906650500E+02  0.11406736140E+03  0.47000000000E+01 0.  1.
         13    1    6    6    0    0 -0.15008560436E+02 -0.11566787866E+02  0.10412296838E+03  0.10583307617E+03  0.00000000000E+00 0. -1.
        -14    1    6    6    0    0  0.17431494357E+02  0.92059309095E+02  0.38248380250E+03  0.39379262634E+03  0.00000000000E+00 0.  1.
</event>
<event>
12    1  0.8494789E-002  0.1798804E+03  0.7818608E-02  0.1169319E+00
         21   -1    0    0  501  502  0.00000000000E+00  0.00000000000E+00  0.94334857901E+02  0.94334857901E+02  0.00000000000E+00 0. -1.
         21   -1    0    0  502  503 -0.00000000000E+00 -0.00000000000E+00 -0.33224874621E+03  0.33224874621E+03  0.00000000000E+00 0. -1.
         -6    2    1    2    0  503 -0.18417890810E+02 -0.27092538623E+02 -0.11696428429E+03  0.20982161679E+03  0.17108840616E+03 0.  0.
        -24    2    3    3    0    0 -0.50931445930E+02 -0.56385362529E+02 -0.12239918899E+03  0.16547267106E+03  0.81402224224E+02 0.  0.
          6    2    1    2  501    0  0.18417890810E+02  0.27092538623E+02 -0.12094960402E+03  0.21676198732E+03  0.17687206700E+03 0.  0.
         24    2    5    5    0    0 -0.35059922816E+01 -0.28847306641E+01 -0.14929563892E+03  0.16980582672E+03  0.80772627380E+02 0.  0.
          5    1    5    5  501    0  0.21923883092E+02  0.29977269287E+02  0.28346034903E+02  0.46956160602E+02  0.47000000000E+01 0. -1.
        -11    1    6    6    0    0 -0.23084568698E+02 -0.30403883073E+02 -0.11702384505E+03  0.12309294751E+03  0.00000000000E+00 0.  1.
         12    1    6    6    0    0  0.19578576416E+02  0.27519152409E+02 -0.32271793872E+02  0.46712879204E+02  0.00000000000E+00 0. -1.
         -5    1    3    3    0  503  0.32513555120E+02  0.29292823906E+02  0.54349046975E+01  0.44348945737E+02  0.47000000000E+01 0.  1.
         11    1    4    4    0    0 -0.65069228613E+02 -0.63413947538E+02 -0.83136602149E+02  0.12315448782E+03  0.00000000000E+00 0. -1.
        -12    1    4    4    0    0  0.14137782683E+02  0.70285850087E+01 -0.39262586844E+02  0.42318183232E+02  0.00000000000E+00 0.  1.
</event>
<event>
12    1  0.8494789E-002  0.1849755E+03  0.7818608E-02  0.1163306E+00
         21   -1    0    0  503  502  0.00000000000E+00  0.00000000000E+00  0.12924858579E+03  0.12924858579E+03  0.00000000000E+00 0. -1.
         21   -1    0    0  501  503 -0.00000000000E+00 -0.00000000000E+00 -0.54660260308E+03  0.54660260308E+03  0.00000000000E+00 0. -1.
          6    2    1    2  501    0 -0.63921402087E+02  0.23406931036E+02 -0.45222764710E+03  0.48859571821E+03  0.17199447954E+03 0.  0.
         24    2    3    3    0    0 -0.61018977137E+02 -0.46080977511E+02 -0.23790916626E+03  0.26322603362E+03  0.82706718746E+02 0.  0.
         -6    2    1    2    0  502  0.63921402087E+02 -0.23406931036E+02  0.34873629812E+02  0.18725547066E+03  0.17092282226E+03 0.  0.
        -24    2    5    5    0    0  0.37231785385E+02  0.46811092398E+02  0.48881434567E+02  0.11069689799E+03  0.79290127789E+02 0.  0.
          5    1    3    3  501    0 -0.29024249502E+01  0.69487908547E+02 -0.21431848084E+03  0.22536968459E+03  0.47000000000E+01 0. -1.
        -11    1    4    4    0    0  0.13111070251E+02 -0.19232979690E+02 -0.11405991488E+03  0.11641078925E+03  0.00000000000E+00 0.  1.
         12    1    4    4    0    0 -0.74130047388E+02 -0.26847997821E+02 -0.12384925138E+03  0.14681524437E+03  0.00000000000E+00 0. -1.
         -5    1    5    5    0  502  0.26689616702E+02 -0.70218023434E+02 -0.14007804755E+02  0.76558572666E+02  0.47000000000E+01 0.  1.
         11    1    6    6    0    0  0.33923003035E+02 -0.11472923641E+02  0.20732335891E+01  0.35870550725E+02  0.00000000000E+00 0. -1.
        -12    1    6    6    0    0  0.33087823502E+01  0.58284016038E+02  0.46808200978E+02  0.74826347265E+02  0.00000000000E+00 0.  1.
</event>
<event>
12    1  0.8494789E-002  0.1819288E+03  0.7818608E-02  0.1166163E+00
         21   -1    0    0  503  502  0.00000000000E+00  0.00000000000E+00  0.46592612546E+03  0.46592612546E+03  0.00000000000E+00 0.  1.
         21   -1    0    0  501  503 -0.00000000000E+00 -0.00000000000E+00 -0.14638689417E+03  0.14638689417E+03  0.00000000000E+00 0.  1.
          6    2    1    2  501    0 -0.68433329223E+01 -0.55814954409E+02 -0.60576534801E+02  0.19090338221E+03  0.17208266742E+03 0.  0.
         24    2    3    3    0    0  0.51693346663E+02 -0.59437395410E+02 -0.61449574453E+02  0.13206022514E+03  0.86364615442E+02 0.  0.
         -6    2    1    2    0  502  0.68433329223E+01  0.55814954409E+02  0.38011576609E+03  0.42140963742E+03  0.17302007555E+03 0.  0.
        -24    2    5    5    0    0  0.23093816433E+02 -0.17089381704E+02  0.98391844865E+02  0.12991422026E+03  0.79820913081E+02 0.  0.
          5    1    3    3  501    0 -0.58536679585E+02  0.36224410009E+01  0.87303965257E+00  0.58843157069E+02  0.47000000000E+01 0. -1.
        -11    1    4    4    0    0  0.58437147600E+02 -0.14417107519E+01 -0.32694960868E+02  0.66977154431E+02  0.00000000000E+00 0.  1.
         12    1    4    4    0    0 -0.67438009375E+01 -0.57995684658E+02 -0.28754613586E+02  0.65083070706E+02  0.00000000000E+00 0. -1.
         -5    1    5    5    0  502 -0.16250483511E+02  0.72904336113E+02  0.28172392122E+03  0.29149541716E+03  0.47000000000E+01 0.  1.
         13    1    6    6    0    0  0.25695899103E+02 -0.16184627101E+02  0.11199278266E+03  0.11603708352E+03  0.00000000000E+00 0. -1.
        -14    1    6    6    0    0 -0.26020826694E+01 -0.90475460308E+00 -0.13600937794E+02  0.13877136735E+02  0.00000000000E+00 0.  1.
</event>
<event>
12    1  0.8494789E-002  0.3036305E+03  0.7818608E-02  0.1083657E+00
         21   -1    0    0  501  502  0.00000000000E+00  0.00000000000E+00  0.13420726958E+04  0.13420726958E+04  0.00000000000E+00 0. -1.
         21   -1    0    0  502  503 -0.00000000000E+00 -0.00000000000E+00 -0.10191577674E+03  0.10191577674E+03  0.00000000000E+00 0. -1.
         -6    2    1    2    0  503 -0.50758205036E+02 -0.24244772040E+03  0.20661102179E+03  0.36725956179E+03  0.17559663691E+03 0.  0.
        -24    2    3    3    0    0 -0.24253733441E+02 -0.21109718296E+03  0.22692493392E+03  0.32121514586E+03  0.80833038159E+02 0.  0.
          6    2    1    2  501    0  0.50758205036E+02  0.24244772040E+03  0.10335458973E+04  0.10767289108E+04  0.17254197454E+03 0.  0.
         24    2    5    5    0    0 -0.22416671397E+02  0.89831223959E+02  0.57658636414E+03  0.58940923903E+03  0.79870268496E+02 0.  0.
          5    1    5    5  501    0  0.73174876433E+02  0.15261649644E+03  0.45695953314E+03  0.48731967173E+03  0.47000000000E+01 0. -1.
        -11    1    6    6    0    0 -0.21894095958E+02  0.33961898681E+02  0.79371949992E+02  0.89065528940E+02  0.00000000000E+00 0.  1.
         12    1    6    6    0    0 -0.52257543868E+00  0.55869325278E+02  0.49721441415E+03  0.50034371009E+03  0.00000000000E+00 0. -1.
         -5    1    3    3    0  503 -0.26504471595E+02 -0.31350537440E+02 -0.20313912123E+02  0.46044415927E+02  0.47000000000E+01 0.  1.
         11    1    4    4    0    0  0.28276874496E+02 -0.47905422706E+02  0.62532971492E+02  0.83695183132E+02  0.00000000000E+00 0. -1.
        -12    1    4    4    0    0 -0.52530607937E+02 -0.16319176025E+03  0.16439196243E+03  0.23751996273E+03  0.00000000000E+00 0.  1.
</event>
<event>
12    1  0.8494789E-002  0.2188203E+03  0.7818608E-02  0.1135121E+00
         21   -1    0    0  501  502  0.00000000000E+00  0.00000000000E+00  0.58043228583E+03  0.58043228583E+03  0.00000000000E+00 0.  1.
         21   -1    0    0  502  503 -0.00000000000E+00 -0.00000000000E+00 -0.20823889141E+03  0.20823889141E+03  0.00000000000E+00 0. -1.
         -6    2    1    2    0  503  0.12779228439E+03  0.31322217514E+02 -0.12087782843E+03  0.24998755131E+03  0.17484386504E+03 0.  0.
        -24    2    3    3    0    0  0.33381645177E+02 -0.13598790087E+01 -0.97228454105E+00  0.93843650738E+02  0.87689805229E+02 0.  0.
          6    2    1    2  501    0 -0.12779228439E+03 -0.31322217514E+02  0.49307122285E+03  0.53868362593E+03  0.17247860383E+03 0.  0.
         24    2    5    5    0    0 -0.82623667415E+02  0.15325637781E+02  0.15162789962E+03  0.19108923681E+03  0.80389868097E+02 0.  0.
          5    1    5    5  501    0 -0.45168616976E+02 -0.46647855295E+02  0.34144332323E+03  0.34759438912E+03  0.47000000000E+01 0. -1.
        -11    1    6    6    0    0 -0.46031032604E+02 -0.21946574332E+02  0.11909521215E+03  0.12955376353E+03  0.00000000000E+00 0.  1.
         12    1    6    6    0    0 -0.36592634811E+02  0.37272212112E+02  0.32532687464E+02  0.61535473280E+02  0.00000000000E+00 0. -1.
         -5    1    3    3    0  503  0.94410639213E+02  0.32682096523E+02 -0.11990554389E+03  0.15614390057E+03  0.47000000000E+01 0.  1.
         11    1    4    4    0    0  0.39098614061E+02 -0.92694427693E+01 -0.38148991469E+02  0.55407307649E+02  0.00000000000E+00 0. -1.
        -12    1    4    4    0    0 -0.57169688836E+01  0.79095637606E+01  0.37176706928E+02  0.38436343090E+02  0.00000000000E+00 0.  1.
</event>
<event>
12    1  0.8494789E-002  0.1970809E+03  0.7818608E-02  0.1152374E+00
         21   -1    0    0  501  502  0.00000000000E+00  0.00000000000E+00  0.34669658903E+03  0.34669658903E+03  0.00000000000E+00 0.  1.
         21   -1    0    0  502  503 -0.00000000000E+00 -0.00000000000E+00 -0.18139144781E+03  0.18139144781E+03  0.00000000000E+00 0. -1.
         -6    2    1    2    0  503 -0.11833709886E+02 -0.94318366140E+02 -0.80995634772E+02  0.21307547805E+03  0.17264088627E+03 0.  0.
        -24    2    3    3    0    0 -0.16494820084E+02  0.18996452041E+02 -0.37583239879E+02  0.91548937742E+02  0.79597511282E+02 0.  0.
          6    2    1    2  501    0  0.11833709886E+02  0.94318366140E+02  0.24630077599E+03  0.31501255880E+03  0.17185124109E+03 0.  0.
         24    2    5    5    0    0 -0.43135336206E+02  0.63638476741E+02  0.85651407356E+02  0.14240560272E+03  0.83861070548E+02 0.  0.
          5    1    5    5  501    0  0.54969046092E+02  0.30679889399E+02  0.16064936864E+03  0.17260695607E+03  0.47000000000E+01 0. -1.
        -11    1    6    6    0    0 -0.55770222481E+02  0.66934671952E+02  0.92989736559E+02  0.12742707377E+03  0.00000000000E+00 0.  1.
         12    1    6    6    0    0  0.12634886275E+02 -0.32961952109E+01 -0.73383292027E+01  0.14978528951E+02  0.00000000000E+00 0. -1.
         -5    1    3    3    0  503  0.46611101977E+01 -0.11331481818E+03 -0.43412394893E+02  0.12152654030E+03  0.47000000000E+01 0.  1.
         11    1    4    4    0    0  0.41101316101E+01  0.36348471910E+02 -0.49946544087E+02  0.61909303487E+02  0.00000000000E+00 0. -1.
        -12    1    4    4    0    0 -0.20604951694E+02 -0.17352019869E+02  0.12363304208E+02  0.29639634255E+02  0.00000000000E+00 0.  1.
</event>
<event>
12    1  0.8494789E-002  0.2853831E+03  0.7818608E-02  0.1092979E+00
         21   -1    0    0  503  502  0.00000000000E+00  0.00000000000E+00  0.10457514817E+03  0.10457514817E+03  0.00000000000E+00 0.  1.
         21   -1    0    0  501  503 -0.00000000000E+00 -0.00000000000E+00 -0.78044636460E+03  0.78044636460E+03  0.00000000000E+00 0. -1.
          6    2    1    2  501    0 -0.13261082690E+03  0.18387028864E+03 -0.29959193001E+03  0.41276139190E+03  0.17094656376E+03 0.  0.
         24    2    3    3    0    0 -0.10343005669E+03  0.20422301305E+03 -0.28390165082E+03  0.37359475300E+03  0.81043670004E+02 0.  0.
         -6    2    1    2    0  502  0.13261082690E+03 -0.18387028864E+03 -0.37627928642E+03  0.47226012088E+03  0.17334822157E+03 0.  0.
        -24    2    5    5    0    0  0.45741106407E+02 -0.12646720574E+03 -0.12499077214E+03  0.20021330565E+03  0.79852812694E+02 0.  0.
          5    1    3    3  501    0 -0.29180770211E+02 -0.20352724413E+02 -0.15690279188E+02  0.39166638893E+02  0.47000000000E+01 0. -1.
        -13    1    4    4    0    0 -0.51790596663E+02  0.47539332700E+02 -0.45725815382E+02  0.83863605030E+02  0.00000000000E+00 0.  1.
         14    1    4    4    0    0 -0.51639460028E+02  0.15668368035E+03 -0.23817583544E+03  0.28973114798E+03  0.00000000000E+00 0. -1.
         -5    1    5    5    0  502  0.86869720495E+02 -0.57403082901E+02 -0.25128851429E+03  0.27204681523E+03  0.47000000000E+01 0.  1.
         11    1    6    6    0    0  0.49526497545E+01  0.58153110378E+00 -0.43662478935E+02  0.43946319354E+02  0.00000000000E+00 0. -1.
        -12    1    6    6    0    0  0.40788456653E+02 -0.12704873684E+03 -0.81328293203E+02  0.15626698629E+03  0.00000000000E+00 0.  1.
</event>
<event>
12    1  0.8494789E-002  0.2095455E+03  0.7818608E-02  0.1142149E+00
         21   -1    0    0  501  502  0.00000000000E+00  0.00000000000E+00  0.15121375933E+03  0.15121375933E+03  0.00000000000E+00 0. -1.
         21   -1    0    0  502  503 -0.00000000000E+00 -0.00000000000E+00 -0.10111218051E+04  0.10111218051E+04  0.00000000000E+00 0. -1.
         -6    2    1    2    0  503 -0.10813895087E+03  0.44606831629E+02 -0.92082216291E+03  0.94411585608E+03  0.17250359960E+03 0.  0.
        -24    2    3    3    0    0 -0.30703016239E+02 -0.22237104953E+02 -0.22897863980E+03  0.24473471085E+03  0.77631805139E+02 0.  0.
          6    2    1    2  501    0  0.10813895087E+03 -0.44606831629E+02  0.60914117189E+02  0.21821970830E+03  0.17385485123E+03 0.  0.
         24    2    5    5    0    0  0.58575305906E+02  0.22148773210E+02  0.83258432332E+02  0.13199776157E+03  0.81054351439E+02 0.  0.
          5    1    5    5  501    0  0.49563644964E+02 -0.66755604839E+02 -0.22344315143E+02  0.86221946735E+02  0.47000000000E+01 0. -1.
        -11    1    6    6    0    0 -0.95736828469E+01 -0.19550212280E+02  0.11552487481E+02  0.24643988525E+02  0.00000000000E+00 0.  1.
         12    1    6    6    0    0  0.68148988753E+02  0.41698985490E+02  0.71705944851E+02  0.10735377304E+03  0.00000000000E+00 0. -1.
         -5    1    3    3    0  503 -0.77435934631E+02  0.66843936582E+02 -0.69184352311E+03  0.69938114523E+03  0.47000000000E+01 0.  1.
         13    1    4    4    0    0 -0.50678008801E+02 -0.25118372841E+01 -0.93524244988E+02  0.10640185291E+03  0.00000000000E+00 0. -1.
        -14    1    4    4    0    0  0.19974992562E+02 -0.19725267669E+02 -0.13545439481E+03  0.13833285794E+03  0.00000000000E+00 0.  1.
</event>
<event>
12    1  0.8494789E-002  0.1863977E+03  0.7818608E-02  0.1161792E+00
         21   -1    0    0  501  502  0.00000000000E+00  0.00000000000E+00  0.47702702922E+03  0.47702702922E+03  0.00000000000E+00 0.  1.
         21   -1    0    0  502  503 -0.00000000000E+00 -0.00000000000E+00 -0.39043147864E+03  0.39043147864E+03  0.00000000000E+00 0.  1.
         -6    2    1    2    0  503 -0.70257380338E+02  0.85660424533E+01 -0.34792763005E+03  0.39471222503E+03  0.17243731690E+03 0.  0.
        -24    2    3    3    0    0 -0.27503794381E+02 -0.45435348816E+02 -0.10077651744E+03  0.13810010171E+03  0.78069853317E+02 0.  0.
          6    2    1    2  501    0  0.70257380338E+02 -0.85660424533E+01  0.43452318062E+03  0.47274628283E+03  0.17224742918E+03 0.  0.
         24    2    5    5    0    0  0.47872466871E+02  0.47491498068E+02  0.36844147136E+03  0.38312254435E+03  0.80539125284E+02 0.  0.
          5    1    5    5  501    0  0.22384913466E+02 -0.56057540521E+02  0.66081709265E+02  0.89623738482E+02  0.47000000000E+01 0. -1.
        -11    1    6    6    0    0  0.45383226822E+02 -0.10623167009E+02  0.17748717423E+03  0.18350527505E+03  0.00000000000E+00 0.  1.
         12    1    6    6    0    0  0.24892400496E+01  0.58114665078E+02  0.19095429712E+03  0.19961726930E+03  0.00000000000E+00 0. -1.
         -5    1    3    3    0  503 -0.42753585957E+02  0.54001391269E+02 -0.24715111261E+03  0.25661212332E+03  0.47000000000E+01 0.  1.
         13    1    4    4    0    0  0.81475609426E+01  0.19060856227E+02 -0.22224793658E+02  0.30391453446E+02  0.00000000000E+00 0. -1.
        -14    1    4    4    0    0 -0.35651355323E+02 -0.64496205042E+02 -0.78551723785E+02  0.10770864826E+03  0.00000000000E+00 0.  1.
</event>
<event>
12    1  0.8494789E-002  0.2103640E+03  0.7818608E-02  0.1141821E+00
         21   -1    0    0  503  502  0.00000000000E+00  0.00000000000E+00  0.68671693788E+03  0.68671693788E+03  0.00000000000E+00 0. -1.
         21   -1    0    0  501  503 -0.00000000000E+00 -0.00000000000E+00 -0.75462776908E+02  0.75462776908E+02  0.00000000000E+00 0.  1.
          6    2    1    2  501    0  0.96550834163E+02 -0.72961232719E+02  0.15626543766E+03  0.26205322891E+03  0.17206859888E+03 0.  0.
         24    2    3    3    0    0  0.84822845000E+02  0.17355464525E+02  0.10228395810E+03  0.15607803528E+03  0.80013860229E+02 0.  0.
         -6    2    1    2    0  502 -0.96550834163E+02  0.72961232719E+02  0.45498872332E+03  0.50012648588E+03  0.16871976314E+03 0.  0.
        -24    2    5    5    0    0 -0.55886489401E+02  0.64053943375E+02  0.14182496582E+03  0.18417307516E+03  0.81112226716E+02 0.  0.
          5    1    3    3  501    0  0.11727989163E+02 -0.90316697244E+02  0.53981479557E+02  0.10597519363E+03  0.47000000000E+01 0. -1.
        -11    1    4    4    0    0  0.97370489426E+02  0.23419253153E+02  0.73913607466E+02  0.12446965493E+03  0.00000000000E+00 0.  1.
         12    1    4    4    0    0 -0.12547644426E+02 -0.60637886286E+01  0.28370350635E+02  0.31608380349E+02  0.00000000000E+00 0. -1.
         -5    1    5    5    0  502 -0.40664344762E+02  0.89072893432E+01  0.31316375749E+03  0.31595341072E+03  0.47000000000E+01 0.  1.
         11    1    6    6    0    0  0.13577325586E+02  0.18422451417E+02  0.72238651396E+02  0.75776996785E+02  0.00000000000E+00 0. -1.
        -12    1    6    6    0    0 -0.69463814988E+02  0.45631491959E+02  0.69586314429E+02  0.10839607837E+03  0.00000000000E+00 0.  1.
</event>
<event>
12    1  0.8494789E-002  0.2264898E+03  0.7818608E-02  0.1129397E+00
         21   -1    0    0  501  502  0.00000000000E+00  0.00000000000E+00  0.73889117186E+03  0.73889117186E+03  0.00000000000E+00 0.  1.
         21   -1    0    0  502  503 -0.00000000000E+00 -0.00000000000E+00 -0.34520936192E+03  0.34520936192E+03  0.00000000000E+00 0.  1.
         -6    2    1    2    0  503 -0.13905530947E+03 -0.46061745267E+02 -0.28816301006E+03  0.36562298978E+03  0.17083379881E+03 0.  0.
        -24    2    3    3    0    0 -0.15942528534E+02 -0.58377001233E+02 -0.14722147923E+03  0.17801961168E+03  0.79716872162E+02 0.  0.
          6    2    1    2  501    0  0.13905530947E+03  0.46061745267E+02  0.68184482001E+03  0.71847754400E+03  0.17274130716E+03 0.  0.
         24    2    5    5    0    0  0.71581666795E+02  0.75041111259E+02  0.25833953288E+03  0.28862720454E+03  0.76231525985E+02 0.  0.
          5    1    5    5  501    0  0.67473642673E+02 -0.28979365993E+02  0.42350528713E+03  0.42985033946E+03  0.47000000000E+01 0. -1.
        -13    1    6    6    0    0  0.41407939168E+02 -0.39756654866E+01  0.11371904085E+03  0.12108857748E+03  0.00000000000E+00 0.  1.
         14    1    6    6    0    0  0.30173727627E+02  0.79016776746E+02  0.14462049203E+03  0.16753862707E+03  0.00000000000E+00 0. -1.
         -5    1    3    3    0  503 -0.12311278093E+03  0.12315255966E+02 -0.14094153083E+03  0.18760337810E+03  0.47000000000E+01 0.  1.
         11    1    4    4    0    0  0.30305279280E+02 -0.18278436315E+02 -0.32793398432E+02  0.48248504299E+02  0.00000000000E+00 0. -1.
        -12    1    4    4    0    0 -0.46247807814E+02 -0.40098564918E+02 -0.11442808080E+03  0.12977110738E+03  0.00000000000E+00 0.  1.
</event>
<event>
12    1  0.8494789E-002  0.1951898E+03  0.7818608E-02  0.1154256E+00
         21   -1    0    0  501  502  0.00000000000E+00  0.00000000000E+00  0.11478169017E+03  0.11478169017E+03  0.00000000000E+00 0. -1.
         21   -1    0    0  502  503 -0.00000000000E+00 -0.00000000000E+00 -0.33743027673E+03  0.33743027673E+03  0.00000000000E+00 0. -1.
         -6    2    1    2    0  503 -0.75787202943E+02  0.43216168783E+02 -0.14783580079E+03  0.24485600651E+03  0.17460728093E+03 0.  0.
        -24    2    3    3    0    0  0.23197088669E+02  0.40153160500E+02 -0.46901296865E+02  0.10337407802E+03  0.79599542328E+02 0.  0.
          6    2    1    2  501    0  0.75787202943E+02 -0.43216168783E+02 -0.74812785778E+02  0.20735596039E+03  0.17259259549E+03 0.  0.
         24    2    5    5    0    0  0.39662035174E+02 -0.78828984849E+02 -0.95967540335E+02  0.15219334574E+03  0.78523625762E+02 0.  0.
          5    1    5    5  501    0  0.36125167770E+02  0.35612816066E+02  0.21154754557E+02  0.55162614649E+02  0.47000000000E+01 0. -1.
        -13    1    6    6    0    0  0.43822158097E+02 -0.59857021357E+02 -0.24486648230E+02  0.78120679001E+02  0.00000000000E+00 0.  1.
         14    1    6    6    0    0 -0.41601229237E+01 -0.18971963491E+02 -0.71480892105E+02  0.74072666737E+02  0.00000000000E+00 0. -1.
         -5    1    3    3    0  503 -0.98984291613E+02  0.30630082824E+01 -0.10093450392E+03  0.14148192849E+03  0.47000000000E+01 0.  1.
         13    1    4    4    0    0 -0.24369610669E+02 -0.49359662754E+01 -0.43780543791E+01  0.25246961151E+02  0.00000000000E+00 0. -1.
        -14    1    4    4    0    0  0.47566699339E+02  0.45089126776E+02 -0.42523242486E+02  0.78127116873E+02  0.00000000000E+00 0.  1.
</event>
<event>
12    1  0.8494789E-002  0.1923531E+03  0.7818608E-02  0.1157164E+00
         21   -1    0    0  503  502  0.00000000000E+00  0.00000000000E+00  0.13219249604E+03  0.13219249604E+03  0.00000000000E+00 0.  1.
         21   -1    0    0  501  503 -0.00000000000E+00 -0.00000000000E+00 -0.62061138850E+03  0.62061138850E+03  0.00000000000E+00 0.  1.
          6    2    1    2  501    0  0.48972184309E+02  0.58174154570E+02 -0.52420527332E+03  0.55715012313E+03  0.17275006232E+03 0.  0.
         24    2    3    3    0    0  0.30304873141E+02  0.94604857545E+02 -0.48231843369E+03  0.49839417058E+03  0.76793316042E+02 0.  0.
         -6    2    1    2    0  502 -0.48972184309E+02 -0.58174154570E+02  0.35786380862E+02  0.19565376141E+03  0.17668396136E+03 0.  0.
        -24    2    5    5    0    0 -0.58547450864E+02 -0.13924115618E+02 -0.41155835450E+02  0.10625607504E+03  0.77297255402E+02 0.  0.
          5    1    3    3  501    0  0.18667311168E+02 -0.36430702975E+02 -0.41886839637E+02  0.58755952552E+02  0.47000000000E+01 0. -1.
        -13    1    4    4    0    0 -0.12834108991E+02  0.62180585080E+02 -0.34609755665E+03  0.35187307120E+03  0.00000000000E+00 0.  1.
         14    1    4    4    0    0  0.43138982132E+02  0.32424272465E+02 -0.13622087703E+03  0.14652109938E+03  0.00000000000E+00 0. -1.
         -5    1    5    5    0  502  0.95752665543E+01 -0.44250038953E+02  0.76942216312E+02  0.89397686368E+02  0.47000000000E+01 0.  1.
         13    1    6    6    0    0  0.24963426477E+01 -0.32605717647E+02 -0.55793128204E+01  0.33173683568E+02  0.00000000000E+00 0. -1.
        -14    1    6    6    0    0 -0.61043793511E+02  0.18681602030E+02 -0.35576522630E+02  0.73082391471E+02  0.00000000000E+00 0.  1.
</event>
<event>
12    1  0.8494789E-002  0.1860877E+03  0.7818608E-02  0.1163642E+00
         21   -1    0    0  501  502  0.00000000000E+00  0.00000000000E+00  0.38560948438E+03  0.38560948438E+03  0.00000000000E+00 0.  1.
         21   -1    0    0  502  503 -0.00000000000E+00 -0.00000000000E+00 -0.95601645200E+02  0.95601645200E+02  0.00000000000E+00 0.  1.
         -6    2    1    2    0  503 -0.32872394248E+02 -0.63008314247E+02  0.73450902201E+02  0.20005914318E+03  0.17198251007E+03 0.  0.
        -24    2    3    3    0    0 -0.55921602846E+02  0.19721454219E+02  0.46031294800E+02  0.10978508557E+03  0.80110695241E+02 0.  0.
          6    2    1    2  501    0  0.32872394248E+02  0.63008314247E+02  0.21655693697E+03  0.28115198639E+03  0.16461740653E+03 0.  0.
         24    2    5    5    0    0 -0.12847703222E+02  0.22728935051E+02  0.20243925102E+03  0.21842914559E+03  0.77768716864E+02 0.  0.
          5    1    5    5  501    0  0.45720097470E+02  0.40279379196E+02  0.14117685951E+02  0.62722840797E+02  0.47000000000E+01 0. -1.
        -11    1    6    6    0    0  0.12900404488E+02  0.41778333214E+02  0.15602910852E+03  0.16203990949E+03  0.00000000000E+00 0.  1.
         12    1    6    6    0    0 -0.25748107710E+02 -0.19049398162E+02  0.46410142505E+02  0.56389236103E+02  0.00000000000E+00 0. -1.
         -5    1    3    3    0  503  0.23049208598E+02 -0.82729768467E+02  0.27419607400E+02  0.90274057611E+02  0.47000000000E+01 0.  1.
         13    1    4    4    0    0 -0.23576636121E+02  0.21045900230E+02  0.64992272954E+02  0.72268826136E+02  0.00000000000E+00 0. -1.
        -14    1    4    4    0    0 -0.32344966725E+02 -0.13244460103E+01 -0.18960978154E+02  0.37516259438E+02  0.00000000000E+00 0.  1.
</event>
<event>
12    1  0.8494789E-002  0.2261138E+03  0.7818608E-02  0.1129483E+00
         21   -1    0    0  501  502  0.00000000000E+00  0.00000000000E+00  0.67175299290E+03  0.67175299290E+03  0.00000000000E+00 0. -1.
         21   -1    0    0  502  503 -0.00000000000E+00 -0.00000000000E+00 -0.76027903897E+02  0.76027903897E+02  0.00000000000E+00 0. -1.
         -6    2    1    2    0  503 -0.10127066365E+03  0.10651665585E+03  0.28679540127E+03  0.36494280831E+03  0.17126034526E+03 0.  0.
        -24    2    3    3    0    0 -0.13042414103E+03  0.11686971171E+03  0.26510902829E+03  0.32687051153E+03  0.76762936043E+02 0.  0.
          6    2    1    2  501    0  0.10127066365E+03 -0.10651665585E+03  0.30892968773E+03  0.38283808848E+03  0.17183103545E+03 0.  0.
         24    2    5    5    0    0  0.61386155157E+02 -0.61116948884E+02  0.72408388865E+02  0.13867354924E+03  0.80522276382E+02 0.  0.
          5    1    5    5  501    0  0.39884508488E+02 -0.45399706966E+02  0.23652129886E+03  0.24416453925E+03  0.47000000000E+01 0. -1.
        -11    1    6    6    0    0 -0.94387876750E+01 -0.35051213664E+02  0.46261958474E+02  0.58803461581E+02  0.00000000000E+00 0.  1.
         12    1    6    6    0    0  0.70824942832E+02 -0.26065735221E+02  0.26146430391E+02  0.79870087655E+02  0.00000000000E+00 0. -1.
         -5    1    3    3    0  503  0.29153477380E+02 -0.10353055862E+02  0.21686372983E+02  0.38072296781E+02  0.47000000000E+01 0.  1.
         13    1    4    4    0    0 -0.13433429809E+03  0.12023535731E+03  0.23430137455E+03  0.29563385955E+03  0.00000000000E+00 0. -1.
        -14    1    4    4    0    0  0.39101570673E+01 -0.33656455994E+01  0.30807653734E+02  0.31236651984E+02  0.00000000000E+00 0.  1.
</event>
<event>
12    1  0.8494789E-002  0.2660412E+03  0.7818608E-02  0.1103578E+00
         21   -1    0    0  501  502  0.00000000000E+00  0.00000000000E+00  0.55919814827E+03  0.55919814827E+03  0.00000000000E+00 0.  1.
         21   -1    0    0  502  503 -0.00000000000E+00 -0.00000000000E+00 -0.13345622005E+03  0.13345622005E+03  0.00000000000E+00 0. -1.
         -6    2    1    2    0  503 -0.18341714978E+03  0.86736735976E+02  0.13396598875E+03  0.29779856574E+03  0.17196507615E+03 0.  0.
        -24    2    3    3    0    0 -0.52714844050E+02  0.90371332871E+02  0.39874230810E+02  0.13664133838E+03  0.78326677986E+02 0.  0.
          6    2    1    2  501    0  0.18341714978E+03 -0.86736735976E+02  0.29177593947E+03  0.39485580257E+03  0.17208368246E+03 0.  0.
         24    2    5    5    0    0  0.19769958103E+03 -0.10457515479E+03  0.28430223559E+03  0.37035798067E+03  0.79474432047E+02 0.  0.
          5    1    5    5  501    0 -0.14282431248E+02  0.17838418812E+02  0.74737038830E+01  0.24497821900E+02  0.47000000000E+01 0. -1.
        -11    1    6    6    0    0  0.11327639221E+03 -0.18969185563E+02  0.16450029346E+03  0.20062830703E+03  0.00000000000E+00 0.  1.
         12    1    6    6    0    0  0.84423188813E+02 -0.85605969225E+02  0.11980194213E+03  0.16972967364E+03  0.00000000000E+00 0. -1.
         -5    1    3    3    0  503 -0.13070230573E+03 -0.36345968956E+01  0.94091757938E+02  0.16115722736E+03  0.47000000000E+01 0.  1.
         11    1    4    4    0    0 -0.68163810955E+02  0.92400447986E+02  0.38002514561E+02  0.12094767061E+03  0.00000000000E+00 0. -1.
        -12    1    4    4    0    0  0.15448966906E+02 -0.20291151147E+01  0.18717162490E+01  0.15693667778E+02  0.00000000000E+00 0.  1.
</event>
<event>
12    1  0.8494789E-002  0.1896605E+03  0.7818608E-02  0.1158949E+00
         21   -1    0    0  501  502  0.00000000000E+00  0.00000000000E+00  0.17906468357E+03  0.17906468357E+03  0.00000000000E+00 0.  1.
         21   -1    0    0  502  503 -0.00000000000E+00 -0.00000000000E+00 -0.36392604230E+03  0.36392604230E+03  0.00000000000E+00 0.  1.
         -6    2    1    2    0  503  0.34801319834E+02  0.71618641056E+02 -0.27472957053E+03  0.33383742555E+03  0.17213578410E+03 0.  0.
        -24    2    3    3    0    0  0.53915149900E+02  0.12838511565E+02 -0.24790494272E+03  0.26629415957E+03  0.79900237958E+02 0.  0.
          6    2    1    2  501    0 -0.34801319834E+02 -0.71618641056E+02  0.89868211807E+02  0.20915330032E+03  0.17125549898E+03 0.  0.
         24    2    5    5    0    0 -0.66705113224E+02 -0.77702953749E+02  0.18971739328E+02  0.13102986783E+03  0.79508353136E+02 0.  0.
          5    1    5    5  501    0  0.31903793390E+02  0.60843126931E+01  0.70896472479E+02  0.78123432487E+02  0.47000000000E+01 0. -1.
        -11    1    6    6    0    0 -0.32899589509E+02 -0.55113710963E+02  0.48777139926E+02  0.80617079489E+02  0.00000000000E+00 0.  1.
         12    1    6    6    0    0 -0.33805523715E+02 -0.22589242786E+02 -0.29805400598E+02  0.50412788339E+02  0.00000000000E+00 0. -1.
         -5    1    3    3    0  503 -0.19113830066E+02  0.58780129491E+02 -0.26824627809E+02  0.67543265985E+02  0.47000000000E+01 0.  1.
         11    1    4    4    0    0  0.16501449700E+02 -0.33678957346E+02 -0.91964584075E+02  0.99317947694E+02  0.00000000000E+00 0. -1.
        -12    1    4    4    0    0  0.37413700200E+02  0.46517468911E+02 -0.15594035865E+03  0.16697621187E+03  0.00000000000E+00 0.  1.
</event>
<event>
12    1  0.8494789E-002  0.2995343E+03  0.7818608E-02  0.1085663E+00
         21   -1    0    0  501  502  0.00000000000E+00  0.00000000000E+00  0.38254128586E+03  0.38254128586E+03  0.00000000000E+00 0. -1.
         21   -1    0    0  502  503 -0.00000000000E+00 -0.00000000000E+00 -0.23767596251E+03  0.23767596251E+03  0.00000000000E+00 0.  1.
         -6    2    1    2    0  503 -0.62659084453E+02  0.23699222692E+03  0.11439360812E+03  0.32063480341E+03  0.17213164466E+03 0.  0.
        -24    2    3    3    0    0 -0.75177289226E+02  0.22438201521E+03  0.51166893192E+02  0.25479081833E+03  0.79381336491E+02 0.  0.
          6    2    1    2  501    0  0.62659084453E+02 -0.23699222692E+03  0.30471715234E+02  0.29958244496E+03  0.16949819885E+03 0.  0.
         24    2    5    5    0    0  0.90259984159E+02 -0.19569259040E+03  0.65058940769E+02  0.23887136021E+03  0.79902479782E+02 0.  0.
          5    1    5    5  501    0 -0.27600899707E+02 -0.41299636522E+02 -0.34587225535E+02  0.60711084751E+02  0.47000000000E+01 0. -1.
        -13    1    6    6    0    0  0.56110507016E+02 -0.18458696372E+03  0.62799661974E+02  0.20289044758E+03  0.00000000000E+00 0.  1.
         14    1    6    6    0    0  0.34149477143E+02 -0.11105626679E+02  0.22592787949E+01  0.35980912631E+02  0.00000000000E+00 0. -1.
         -5    1    3    3    0  503  0.12518204773E+02  0.12610211716E+02  0.63226714928E+02  0.65843985078E+02  0.47000000000E+01 0.  1.
         13    1    4    4    0    0 -0.39650344149E+02  0.38975082745E+02  0.34141721594E+02  0.65244647440E+02  0.00000000000E+00 0. -1.
        -14    1    4    4    0    0 -0.35526945077E+02  0.18540693246E+03  0.17025171598E+02  0.18954617089E+03  0.00000000000E+00 0.  1.
</event>
<event>
12    1  0.8494789E-002  0.2128482E+03  0.7818608E-02  0.1139380E+00
         21   -1    0    0  503  502  0.00000000000E+00  0.00000000000E+00  0.23729213147E+03  0.23729213147E+03  0.00000000000E+00 0. -1.
         21   -1    0    0  501  503 -0.00000000000E+00 -0.00000000000E+00 -0.19824565458E+03  0.19824565458E+03  0.00000000000E+00 0. -1.
          6    2    1    2  501    0 -0.91161493186E+02 -0.84403435656E+02 -0.22968373323E+02  0.21408383555E+03  0.17282935133E+03 0.  0.
         24    2    3    3    0    0 -0.66732745344E+02 -0.48400900235E+02  0.52394774726E+02  0.12693660174E+03  0.81066528216E+02 0.  0.
         -6    2    1    2    0  502  0.91161493186E+02  0.84403435656E+02  0.62014850209E+02  0.22145395050E+03  0.17251565945E+03 0.  0.
        -24    2    5    5    0    0  0.81290680913E+02  0.84526122680E+02  0.10626083181E+03  0.17587714856E+03  0.76736997546E+02 0.  0.
          5    1    3    3  501    0 -0.24428747842E+02 -0.36002535421E+02 -0.75363148048E+02  0.87147233815E+02  0.47000000000E+01 0. -1.
        -13    1    4    4    0    0 -0.30897619327E+02  0.16350342921E+02 -0.21173656703E+01  0.35021134064E+02  0.00000000000E+00 0.  1.
         14    1    4    4    0    0 -0.35835126017E+02 -0.64751243156E+02  0.54512140396E+02  0.91915467673E+02  0.00000000000E+00 0. -1.
         -5    1    5    5    0  502  0.98708122731E+01 -0.12268702364E+00 -0.44245981597E+02  0.45576801934E+02  0.47000000000E+01 0.  1.
         11    1    6    6    0    0  0.35450925614E+02  0.46284839792E+01  0.67478213386E+00  0.35758164407E+02  0.00000000000E+00 0. -1.
        -12    1    6    6    0    0  0.45839755299E+02  0.79897638701E+02  0.10558604967E+03  0.14011898416E+03  0.00000000000E+00 0.  1.
</event>
<event>
12    1  0.8494789E-002  0.2528025E+03  0.7818608E-02  0.1111553E+00
         21   -1    0    0  503  502  0.00000000000E+00  0.00000000000E+00  0.34673159684E+03  0.34673159684E+03  0.00000000000E+00 0.  1.
         21   -1    0    0  501  503 -0.00000000000E+00 -0.00000000000E+00 -0.18736847017E+03  0.18736847017E+03  0.00000000000E+00 0. -1.
          6    2    1    2  501    0  0.23284594687E+02  0.18489183930E+03  0.45450694747E+02  0.25685578303E+03  0.17082729007E+03 0.  0.
         24    2    3    3    0    0 -0.39910404381E+02  0.12212691722E+03 -0.62186187464E+01  0.15377886366E+03  0.84270062302E+02 0.  0.
         -6    2    1    2    0  502 -0.23284594687E+02 -0.18489183930E+03  0.11391243192E+03  0.27724428399E+03  0.17076646705E+03 0.  0.
        -24    2    5    5    0    0 -0.10650603717E+02 -0.17980878783E+02  0.42214462843E+02  0.95086178930E+02  0.82598869176E+02 0.  0.
          5    1    3    3  501    0  0.63194999067E+02  0.62764922072E+02  0.51669313493E+02  0.10307691937E+03  0.47000000000E+01 0. -1.
        -13    1    4    4    0    0 -0.14523961706E+02 -0.82452344105E+01  0.10774975018E+02  0.19875347564E+02  0.00000000000E+00 0.  1.
         14    1    4    4    0    0 -0.25386442674E+02  0.13037215163E+03 -0.16993593764E+02  0.13390351609E+03  0.00000000000E+00 0. -1.
         -5    1    5    5    0  502 -0.12633990969E+02 -0.16691096051E+03  0.71697969081E+02  0.18215810506E+03  0.47000000000E+01 0.  1.
         11    1    6    6    0    0 -0.13800308792E+02 -0.10093116201E+02 -0.23368658657E+02  0.28955374714E+02  0.00000000000E+00 0. -1.
        -12    1    6    6    0    0  0.31497050750E+01 -0.78877625814E+01  0.65583121500E+02  0.66130804216E+02  0.00000000000E+00 0.  1.
</event>
<event>
12    1  0.8494789E-002  0.1744905E+03  0.7818608E-02  0.1173626E+00
         21   -1    0    0  501  502  0.00000000000E+00  0.00000000000E+00  0.33561543801E+03  0.33561543801E+03  0.00000000000E+00 0.  1.
         21   -1    0    0  502  503 -0.00000000000E+00 -0.00000000000E+00 -0.91324565860E+02  0.91324565860E+02  0.00000000000E+00 0.  1.
         -6    2    1    2    0  503  0.13913816249E+02 -0.18852173506E+02  0.96354607998E+02  0.19932673961E+03  0.17291020766E+03 0.  0.
        -24    2    3    3    0    0  0.51626401946E+02  0.13468198697E+02  0.11541992233E+03  0.14591867103E+03  0.71580879631E+02 0.  0.
          6    2    1    2  501    0 -0.13913816249E+02  0.18852173506E+02  0.14793626416E+03  0.22761326426E+03  0.17138745896E+03 0.  0.
         24    2    5    5    0    0 -0.37098917250E+02 -0.18539472634E+02  0.15776935870E+03  0.18228707031E+03  0.81347180364E+02 0.  0.
          5    1    5    5  501    0  0.23185101001E+02  0.37391646140E+02 -0.98330945428E+01  0.45326193948E+02  0.47000000000E+01 0. -1.
        -13    1    6    6    0    0  0.30851604775E-01 -0.45102160582E+02  0.68384978505E+02  0.81918930206E+02  0.00000000000E+00 0.  1.
         14    1    6    6    0    0 -0.37129768855E+02  0.26562687948E+02  0.89384380193E+02  0.10036814011E+03  0.00000000000E+00 0. -1.
         -5    1    3    3    0  503 -0.37712585698E+02 -0.32320372204E+02 -0.19065314333E+02  0.53408068585E+02  0.47000000000E+01 0.  1.
         11    1    4    4    0    0  0.24881007757E+02  0.20181904357E+02  0.11387994825E+03  0.11830053434E+03  0.00000000000E+00 0. -1.
        -12    1    4    4    0    0  0.26745394189E+02 -0.67137056601E+01  0.15399740800E+01  0.27618136689E+02  0.00000000000E+00 0.  1.
</event>
<event>
12    1  0.8494789E-002  0.1944612E+03  0.7818608E-02  0.1155499E+00
         21   -1    0    0  503  502  0.00000000000E+00  0.00000000000E+00  0.19429426513E+04  0.19429426513E+04  0.00000000000E+00 0.  1.
         21   -1    0    0  501  503 -0.00000000000E+00 -0.00000000000E+00 -0.19016284981E+02  0.19016284981E+02  0.00000000000E+00 0.  1.
          6    2    1    2  501    0 -0.79791939109E+02  0.12224771075E+01  0.98597827171E+03  0.10049718002E+04  0.17733279139E+03 0.  0.
         24    2    3    3    0    0 -0.86743899280E+02  0.63709356889E+02  0.66742473442E+03  0.68023900848E+03  0.75405214161E+02 0.  0.
         -6    2    1    2    0  502  0.79791939109E+02 -0.12224771075E+01  0.93794809459E+03  0.95698713607E+03  0.17236444661E+03 0.  0.
        -24    2    5    5    0    0  0.88035372124E+02  0.66824412605E+00  0.93965766472E+03  0.94716157528E+03  0.80049044498E+02 0.  0.
          5    1    3    3  501    0  0.69519601713E+01 -0.62486879782E+02  0.31855353729E+03  0.32473279171E+03  0.47000000000E+01 0. -1.
        -11    1    4    4    0    0 -0.79039823247E+02  0.13006814029E+02  0.41341052021E+03  0.42109942898E+03  0.00000000000E+00 0.  1.
         12    1    4    4    0    0 -0.77040760336E+01  0.50702542861E+02  0.25401421422E+03  0.25913957950E+03  0.00000000000E+00 0. -1.
         -5    1    5    5    0  502 -0.82434330147E+01 -0.18907212335E+01 -0.17095701345E+01  0.98255607828E+01  0.47000000000E+01 0.  1.
         13    1    6    6    0    0  0.22999488817E+02  0.30395612609E+02  0.17160094951E+03  0.17578326321E+03  0.00000000000E+00 0. -1.
        -14    1    6    6    0    0  0.65035883307E+02 -0.29727368483E+02  0.76805671521E+03  0.77137831207E+03  0.00000000000E+00 0.  1.
</event>
<event>
12    1  0.8494789E-002  0.2208615E+03  0.7818608E-02  0.1133774E+00
         21   -1    0    0  501  502  0.00000000000E+00  0.00000000000E+00  0.86105382674E+02  0.86105382674E+02  0.00000000000E+00 0.  1.
         21   -1    0    0  502  503 -0.00000000000E+00 -0.00000000000E+00 -0.61093996192E+03  0.61093996192E+03  0.00000000000E+00 0. -1.
         -6    2    1    2    0  503 -0.78617193413E+02  0.10879698977E+03 -0.16258820684E+03  0.27425306353E+03  0.17539204592E+03 0.  0.
        -24    2    3    3    0    0 -0.30907174981E+02  0.12662907236E+03 -0.68496272455E+02  0.16715679308E+03  0.79116867353E+02 0.  0.
          6    2    1    2  501    0  0.78617193413E+02 -0.10879698977E+03 -0.36224637241E+03  0.42279228106E+03  0.17179473368E+03 0.  0.
         24    2    5    5    0    0 -0.22575354785E+01 -0.74687232179E+02 -0.12278581133E+03  0.16770867193E+03  0.86409282254E+02 0.  0.
          5    1    5    5  501    0  0.80874728891E+02 -0.34109757589E+02 -0.23946056108E+03  0.25508360913E+03  0.47000000000E+01 0. -1.
        -13    1    6    6    0    0 -0.34699754292E+02 -0.56677164235E+02 -0.10989694648E+03  0.12842785032E+03  0.00000000000E+00 0.  1.
         14    1    6    6    0    0  0.32442218814E+02 -0.18010067944E+02 -0.12888864852E+02  0.39280821607E+02  0.00000000000E+00 0. -1.
         -5    1    3    3    0  503 -0.47710018432E+02 -0.17832082597E+02 -0.94091934385E+02  0.10709627045E+03  0.47000000000E+01 0.  1.
         13    1    4    4    0    0 -0.49851099119E+02  0.43691712514E+02 -0.40080781337E+02  0.77463325893E+02  0.00000000000E+00 0. -1.
        -14    1    4    4    0    0  0.18943924139E+02  0.82937359851E+02 -0.28415491119E+02  0.89693467189E+02  0.00000000000E+00 0.  1.
</event>
<event>
12    1  0.8494789E-002  0.1751310E+03  0.7818608E-02  0.1173228E+00
         21   -1    0    0  501  502  0.00000000000E+00  0.00000000000E+00  0.15018951732E+03  0.15018951732E+03  0.00000000000E+00 0.  1.
         21   -1    0    0  502  503 -0.00000000000E+00 -0.00000000000E+00 -0.21717834000E+03  0.21717834000E+03  0.00000000000E+00 0.  1.
         -6    2    1    2    0  503 -0.45846685049E+01  0.28204252914E+02  0.15904235965E+02  0.17585170407E+03  0.17278419498E+03 0.  0.
        -24    2    3    3    0    0 -0.34626193227E+02 -0.33589206388E+02 -0.24091807752E+02  0.96210644729E+02  0.79679764779E+02 0.  0.
          6    2    1    2  501    0  0.45846685049E+01 -0.28204252914E+02 -0.82893058650E+02  0.19151615325E+03  0.17026649323E+03 0.  0.
         24    2    5    5    0    0 -0.50092866047E+02  0.21858337161E+02 -0.45797579316E+02  0.10848567513E+03  0.81759655730E+02 0.  0.
          5    1    5    5  501    0  0.54677534552E+02 -0.50062590075E+02 -0.37095479334E+02  0.83030478119E+02  0.47000000000E+01 0. -1.
        -11    1    6    6    0    0 -0.39195887005E+02  0.44800610554E+02 -0.41075064287E+01  0.59668114376E+02  0.00000000000E+00 0.  1.
         12    1    6    6    0    0 -0.10896979042E+02 -0.22942273393E+02 -0.41690072887E+02  0.48817560754E+02  0.00000000000E+00 0. -1.
         -5    1    3    3    0  503  0.30041524722E+02  0.61793459302E+02  0.39996043717E+02  0.79641059342E+02  0.47000000000E+01 0.  1.
         13    1    4    4    0    0  0.15351049116E+02 -0.26949794610E+02 -0.32694925248E+02  0.45065555311E+02  0.00000000000E+00 0. -1.
        -14    1    4    4    0    0 -0.49977242343E+02 -0.66394117784E+01  0.86031174964E+01  0.51145089418E+02  0.00000000000E+00 0.  1.
</event>
<event>
12    1  0.8494789E-002  0.2027493E+03  0.7818608E-02  0.1148392E+00
         21   -1    0    0  501  502  0.00000000000E+00  0.00000000000E+00  0.26187058063E+04  0.26187058063E+04  0.00000000000E+00 0. -1.
         21   -1    0    0  502  503 -0.00000000000E+00 -0.00000000000E+00 -0.23390999035E+02  0.23390999035E+02  0.00000000000E+00 0.  1.
         -6    2    1    2    0  503  0.69106887723E+02 -0.70275450285E+02  0.53269042010E+03  0.56997049289E+03  0.17718035515E+03 0.  0.
        -24    2    3    3    0    0  0.67824285105E+02 -0.67944166328E+02  0.54362984712E+03  0.55777045118E+03  0.79736579673E+02 0.  0.
          6    2    1    2  501    0 -0.69106887723E+02  0.70275450285E+02  0.20626243872E+04  0.20721263125E+04  0.17197003043E+03 0.  0.
         24    2    5    5    0    0  0.97429834394E+01 -0.17645032893E+02  0.10072532510E+04  0.10101575565E+04  0.73843783798E+02 0.  0.
          5    1    5    5  501    0 -0.78849871163E+02  0.87920483178E+02  0.10553711361E+04  0.10619687559E+04  0.47000000000E+01 0. -1.
        -13    1    6    6    0    0  0.11454892052E+01  0.21066416031E+02  0.10862866022E+03  0.11065844681E+03  0.00000000000E+00 0.  1.
         14    1    6    6    0    0  0.85974942342E+01 -0.38711448924E+02  0.89862459082E+03  0.89949910974E+03  0.00000000000E+00 0. -1.
         -5    1    3    3    0  503  0.12826026180E+01 -0.23312839570E+01 -0.10939427017E+02  0.12200041714E+02  0.47000000000E+01 0.  1.
         13    1    4    4    0    0  0.13154259281E+02  0.12761167705E+02  0.19220009947E+03  0.19307190415E+03  0.00000000000E+00 0. -1.
        -14    1    4    4    0    0  0.54670025824E+02 -0.80705334034E+02  0.35142974766E+03  0.36469854702E+03  0.00000000000E+00 0.  1.
</event>
<event>
12    1  0.8494789E-002  0.1927030E+03  0.7818608E-02  0.1156105E+00
         21   -1    0    0  503  502  0.00000000000E+00  0.00000000000E+00  0.13916747488E+03  0.13916747488E+03  0.00000000000E+00 0. -1.
         21   -1    0    0  501  503 -0.00000000000E+00 -0.00000000000E+00 -0.33823650299E+03  0.33823650299E+03  0.00000000000E+00 0.  1.
          6    2    1    2  501    0  0.77278413181E+02 -0.40865116520E+02 -0.20954504176E+03  0.28468155339E+03  0.17173395536E+03 0.  0.
         24    2    3    3    0    0  0.18358772694E+02  0.33400993634E+02 -0.14366039806E+03  0.16913997894E+03  0.80730115781E+02 0.  0.
         -6    2    1    2    0  502 -0.77278413181E+02  0.40865116520E+02  0.10476013639E+02  0.19272242448E+03  0.17143592139E+03 0.  0.
        -24    2    5    5    0    0  0.25933957402E+02  0.30256079076E+01  0.10116818966E+02  0.82691333991E+02  0.77806055301E+02 0.  0.
          5    1    3    3  501    0  0.58919640487E+02 -0.74266110154E+02 -0.65884643699E+02  0.11554157446E+03  0.47000000000E+01 0. -1.
        -11    1    4    4    0    0 -0.10090443092E+00 -0.20780749913E+02 -0.83713217937E+02  0.86254000521E+02  0.00000000000E+00 0.  1.
         12    1    4    4    0    0  0.18459677125E+02  0.54181743547E+02 -0.59947180120E+02  0.82885978414E+02  0.00000000000E+00 0. -1.
         -5    1    5    5    0  502 -0.10321237058E+03  0.37839508613E+02  0.35919467221E+00  0.11003109049E+03  0.47000000000E+01 0.  1.
         11    1    6    6    0    0  0.28703466660E+02 -0.28754730020E+02  0.24771823610E+02  0.47585362684E+02  0.00000000000E+00 0. -1.
        -12    1    6    6    0    0 -0.27695092581E+01  0.31780337928E+02 -0.14655004643E+02  0.35105971307E+02  0.00000000000E+00 0.  1.
</event>
<event>
12    1  0.8494789E-002  0.2369396E+03  0.7818608E-02  0.1123736E+00
         21   -1    0    0  503  502  0.00000000000E+00  0.00000000000E+00  0.21061898262E+03  0.21061898262E+03  0.00000000000E+00 0.  1.
         21   -1    0    0  501  503 -0.00000000000E+00 -0.00000000000E+00 -0.40633560869E+03  0.40633560869E+03  0.00000000000E+00 0.  1.
          6    2    1    2  501    0  0.59078215722E+02 -0.13636311429E+03 -0.28497978622E+03  0.36375844711E+03  0.17035725631E+03 0.  0.
         24    2    3    3    0    0  0.53061512517E+02 -0.14519387830E+03 -0.29884702048E+03  0.34563185624E+03  0.79088886669E+02 0.  0.
         -6    2    1    2    0  502 -0.59078215722E+02  0.13636311429E+03  0.89263160157E+02  0.25319614420E+03  0.18454062199E+03 0.  0.
        -24    2    5    5    0    0 -0.95288901641E+01  0.44901454831E+02 -0.28434192762E+02  0.96049309366E+02  0.79435672829E+02 0.  0.
          5    1    3    3  501    0  0.60167032053E+01  0.88307640106E+01  0.13867234258E+02  0.18126590867E+02  0.47000000000E+01 0. -1.
        -11    1    4    4    0    0  0.71490024403E+01 -0.87852915197E+02 -0.22419426386E+03  0.24089896407E+03  0.00000000000E+00 0.  1.
         12    1    4    4    0    0  0.45912510077E+02 -0.57340963105E+02 -0.74652756619E+02  0.10473289217E+03  0.00000000000E+00 0. -1.
         -5    1    5    5    0  502 -0.49549325558E+02  0.91461659460E+02  0.11769735292E+03  0.15714683483E+03  0.47000000000E+01 0.  1.
         11    1    6    6    0    0 -0.11733610119E+02 -0.20298386719E+02 -0.18908705796E+02  0.30120445958E+02  0.00000000000E+00 0. -1.
        -12    1    6    6    0    0  0.22047199552E+01  0.65199841550E+02 -0.95254869660E+01  0.65928863407E+02  0.00000000000E+00 0.  1.
</event>
<event>
12    1  0.8494789E-002  0.2176006E+03  0.7818608E-02  0.1135782E+00
         21   -1    0    0  503  502  0.00000000000E+00  0.00000000000E+00  0.74300354202E+03  0.74300354202E+03  0.00000000000E+00 0.  1.
         21   -1    0    0  501  503 -0.00000000000E+00 -0.00000000000E+00 -0.10524911177E+03  0.10524911177E+03  0.00000000000E+00 0. -1.
          6    2    1    2  501    0 -0.77110852527E+02 -0.10819090436E+03  0.51774850418E+02  0.22317500170E+03  0.17168311182E+03 0.  0.
         24    2    3    3    0    0 -0.90611481805E+02 -0.37120782943E+02 -0.12181022016E+02  0.12650198185E+03  0.79157949398E+02 0.  0.
         -6    2    1    2    0  502  0.77110852527E+02  0.10819090436E+03  0.58597957983E+03  0.62507765209E+03  0.17233295623E+03 0.  0.
        -24    2    5    5    0    0  0.26042543546E+02  0.35696407814E+02  0.12273253183E+03  0.15339625359E+03  0.80713621161E+02 0.  0.
          5    1    3    3  501    0  0.13500629278E+02 -0.71070121416E+02  0.63955872434E+02  0.96673019855E+02  0.47000000000E+01 0. -1.
        -13    1    4    4    0    0 -0.16204976281E+02  0.14080186557E+02  0.21237021623E+02  0.30197085905E+02  0.00000000000E+00 0.  1.
         14    1    4    4    0    0 -0.74406505524E+02 -0.51200969499E+02 -0.33418043639E+02  0.96304895943E+02  0.00000000000E+00 0. -1.
         -5    1    5    5    0  502  0.51068308981E+02  0.72494496545E+02  0.46324704800E+03  0.47168139851E+03  0.47000000000E+01 0.  1.
         13    1    6    6    0    0 -0.11295766532E+02 -0.86145367443E+01  0.80374199063E+02  0.81619951359E+02  0.00000000000E+00 0. -1.
        -14    1    6    6    0    0  0.37338310078E+02  0.44310944558E+02  0.42358332764E+02  0.71776302229E+02  0.00000000000E+00 0.  1.
</event>
<event>
12    1  0.8494789E-002  0.1796515E+03  0.7818608E-02  0.1168909E+00
         21   -1    0    0  501  502  0.00000000000E+00  0.00000000000E+00  0.58307037591E+02  0.58307037591E+02  0.00000000000E+00 0. -1.
         21   -1    0    0  502  503 -0.00000000000E+00 -0.00000000000E+00 -0.54406126947E+03  0.54406126947E+03  0.00000000000E+00 0. -1.
         -6    2    1    2    0  503  0.17751215643E+01 -0.42389041474E+02 -0.23571486750E+03  0.29448142689E+03  0.17134126803E+03 0.  0.
        -24    2    3    3    0    0  0.32213435550E+01 -0.17532713988E+02 -0.25149521221E+03  0.26463116972E+03  0.80386821753E+02 0.  0.
          6    2    1    2  501    0 -0.17751215643E+01  0.42389041474E+02 -0.25003936438E+03  0.30788688017E+03  0.17456994399E+03 0.  0.
         24    2    5    5    0    0  0.42662603095E+02 -0.26119651959E+02 -0.16632122539E+03  0.19084428431E+03  0.79097768096E+02 0.  0.
          5    1    5    5  501    0 -0.44437724660E+02  0.68508693433E+02 -0.83718138990E+02  0.11704259586E+03  0.47000000000E+01 0. -1.
        -13    1    6    6    0    0  0.39349875468E+02 -0.64290485581E+01 -0.16615946038E+03  0.17087630508E+03  0.00000000000E+00 0.  1.
         14    1    6    6    0    0  0.33127276269E+01 -0.19690603401E+02 -0.16176501100E+00  0.19967979230E+02  0.00000000000E+00 0. -1.
         -5    1    3    3    0  503 -0.14462219907E+01 -0.24856327486E+02  0.15780344707E+02  0.29850257172E+02  0.47000000000E+01 0.  1.
         13    1    4    4    0    0  0.10380410365E+02 -0.35104346525E+02 -0.48567501541E+02  0.60818338273E+02  0.00000000000E+00 0. -1.
        -14    1    4    4    0    0 -0.71590668098E+01  0.17571632537E+02 -0.20292771066E+03  0.20381283145E+03  0.00000000000E+00 0.  1.
</event>
<event>
12    1  0.8494789E-002  0.2018148E+03  0.7818608E-02  0.1148688E+00
         21   -1    0    0  501  502  0.00000000000E+00  0.00000000000E+00  0.31148445595E+02  0.31148445595E+02  0.00000000000E+00 0. -1.
         21   -1    0    0  502  503 -0.00000000000E+00 -0.00000000000E+00 -0.17123276052E+04  0.17123276052E+04  0.00000000000E+00 0.  1.
         -6    2    1    2    0  503  0.42057249663E+02  0.91252403302E+02 -0.12683857253E+04  0.12839898003E+04  0.17242866824E+03 0.  0.
        -24    2    3    3    0    0  0.25981074049E+02 -0.39241543384E+01 -0.34103035793E+03  0.35161268344E+03  0.81482261454E+02 0.  0.
          6    2    1    2  501    0 -0.42057249663E+02 -0.91252403302E+02 -0.41279343423E+03  0.45948625048E+03  0.17502394601E+03 0.  0.
         24    2    5    5    0    0  0.34683911945E+02 -0.47144145566E+02 -0.30116387261E+03  0.31694505182E+03  0.79554657328E+02 0.  0.
          5    1    5    5  501    0 -0.76741161608E+02 -0.44108257737E+02 -0.11162956163E+03  0.14254119866E+03  0.47000000000E+01 0. -1.
        -13    1    6    6    0    0  0.28186008427E+02 -0.69755464340E+02 -0.23055972529E+03  0.24252435507E+03  0.00000000000E+00 0.  1.
         14    1    6    6    0    0  0.64979035179E+01  0.22611318775E+02 -0.70604147323E+02  0.74420696758E+02  0.00000000000E+00 0. -1.
         -5    1    3    3    0  503  0.16076175614E+02  0.95176557641E+02 -0.92735536741E+03  0.93237711684E+03  0.47000000000E+01 0.  1.
         13    1    4    4    0    0 -0.18834831085E+02 -0.14155606253E+02 -0.23327235113E+03  0.23445921148E+03  0.00000000000E+00 0. -1.
        -14    1    4    4    0    0  0.44815905134E+02  0.10231451914E+02 -0.10775800681E+03  0.11715347196E+03  0.00000000000E+00 0.  1.
</event>
<event>
12    1  0.8494789E-002  0.2019368E+03  0.7818608E-02  0.1148286E+00
         21   -1    0    0  503  502  0.00000000000E+00  0.00000000000E+00  0.16970945308E+03  0.16970945308E+03  0.00000000000E+00 0. -1.
         21   -1    0    0  501  503 -0.00000000000E+00 -0.00000000000E+00 -0.23954120590E+03  0.23954120590E+03  0.00000000000E+00 0. -1.
          6    2    1    2  501    0 -0.97179347865E+02  0.41690716872E+02 -0.28537357020E+02  0.20313492997E+03  0.17107740208E+03 0.  0.
         24    2    3    3    0    0 -0.12877891364E+02  0.42804808704E+02  0.36116288436E+02  0.96785690954E+02  0.77878058199E+02 0.  0.
         -6    2    1    2    0  502  0.97179347865E+02 -0.41690716872E+02 -0.41294395793E+02  0.20611572901E+03  0.17203640631E+03 0.  0.
        -24    2    5    5    0    0  0.22370684380E+02 -0.79228800853E+02 -0.42249884704E+02  0.12227989633E+03  0.79935410712E+02 0.  0.
          5    1    3    3  501    0 -0.84301456501E+02 -0.11140918326E+01 -0.64653645455E+02  0.10634923902E+03  0.47000000000E+01 0. -1.
        -11    1    4    4    0    0  0.17878874592E+02  0.83088929605E+01 -0.17244653365E+02  0.26192936617E+02  0.00000000000E+00 0.  1.
         12    1    4    4    0    0 -0.30756765956E+02  0.34495915744E+02  0.53360941801E+02  0.70592754338E+02  0.00000000000E+00 0. -1.
         -5    1    5    5    0  502  0.74808663485E+02  0.37538083982E+02  0.95548891142E+00  0.83835832676E+02  0.47000000000E+01 0.  1.
         13    1    6    6    0    0  0.51888862903E+02 -0.39354276223E+02 -0.23073934675E+02  0.69091385945E+02  0.00000000000E+00 0. -1.
        -14    1    6    6    0    0 -0.29518178524E+02 -0.39874524630E+02 -0.19175950029E+02  0.53188510389E+02  0.00000000000E+00 0.  1.
</event>
<event>
12    1  0.8494789E-002  0.2552492E+03  0.7818608E-02  0.1110541E+00
         21   -1    0    0  503  502  0.00000000000E+00  0.00000000000E+00  0.94004366647E+02  0.94004366647E+02  0.00000000000E+00 0.  1.
         21   -1    0    0  501  503 -0.00000000000E+00 -0.00000000000E+00 -0.68429421591E+03  0.68429421591E+03  0.00000000000E+00 0.  1.
          6    2    1    2  501    0  0.11968725438E+03  0.14540551972E+03 -0.28811176344E+03  0.38274360380E+03  0.16738122354E+03 0.  0.
         24    2    3    3    0    0  0.14216961889E+03  0.98819567674E+02 -0.26437823127E+03  0.32563775304E+03  0.78527635535E+02 0.  0.
         -6    2    1    2    0  502 -0.11968725438E+03 -0.14540551972E+03 -0.30217808583E+03  0.39555497876E+03  0.17229144391E+03 0.  0.
        -24    2    5    5    0    0 -0.78951999587E+01 -0.20116872955E+02 -0.10342193033E+03  0.13532275980E+03  0.84552533293E+02 0.  0.
          5    1    3    3  501    0 -0.22482364517E+02  0.46585952043E+02 -0.23733532169E+02  0.57105850762E+02  0.47000000000E+01 0. -1.
        -13    1    4    4    0    0  0.39347249866E+02  0.18615470638E+01 -0.10749236481E+03  0.11448266210E+03  0.00000000000E+00 0.  1.
         14    1    4    4    0    0  0.10282236903E+03  0.96958020610E+02 -0.15688586645E+03  0.21115509093E+03  0.00000000000E+00 0. -1.
         -5    1    5    5    0  502 -0.11179205442E+03 -0.12528864676E+03 -0.19875615550E+03  0.26023221897E+03  0.47000000000E+01 0.  1.
         11    1    6    6    0    0 -0.32612370607E+02  0.12548603044E+02 -0.15301436918E+02  0.38146665998E+02  0.00000000000E+00 0. -1.
        -12    1    6    6    0    0  0.24717170649E+02 -0.32665475999E+02 -0.88120493410E+02  0.97176093798E+02  0.00000000000E+00 0.  1.
</event>
<event>
12    1  0.8494789E-002  0.1971507E+03  0.7818608E-02  0.1153083E+00
         21   -1    0    0  503  502  0.00000000000E+00  0.00000000000E+00  0.13231429149E+03  0.13231429149E+03  0.00000000000E+00 0.  1.
         21   -1    0    0  501  503 -0.00000000000E+00 -0.00000000000E+00 -0.53907037863E+03  0.53907037863E+03  0.00000000000E+00 0. -1.
          6    2    1    2  501    0  0.94729924724E+02  0.16286362005E+02 -0.43386439390E+03  0.47655716312E+03  0.17213196451E+03 0.  0.
         24    2    3    3    0    0 -0.44039370952E+01 -0.31272677547E+02 -0.23525388043E+03  0.24949415234E+03  0.76847698573E+02 0.  0.
         -6    2    1    2    0  502 -0.94729924724E+02 -0.16286362005E+02  0.27108306760E+02  0.19482750700E+03  0.16728386941E+03 0.  0.
        -24    2    5    5    0    0 -0.26188473064E+01 -0.39211070859E+02  0.42849777313E+02  0.98495390061E+02  0.79503911906E+02 0.  0.
          5    1    3    3  501    0  0.99133861819E+02  0.47559039551E+02 -0.19861051347E+03  0.22706301078E+03  0.47000000000E+01 0. -1.
        -13    1    4    4    0    0 -0.20601142476E+00  0.21253480941E+02 -0.25369935141E+02  0.33096623723E+02  0.00000000000E+00 0.  1.
         14    1    4    4    0    0 -0.41979256704E+01 -0.52526158487E+02 -0.20988394528E+03  0.21639752862E+03  0.00000000000E+00 0. -1.
         -5    1    5    5    0  502 -0.92111077417E+02  0.22924708854E+02 -0.15741470553E+02  0.96332116940E+02  0.47000000000E+01 0.  1.
         11    1    6    6    0    0 -0.51043158288E+01  0.15945058737E+02 -0.12055067804E+02  0.20630647056E+02  0.00000000000E+00 0. -1.
        -12    1    6    6    0    0  0.24854685224E+01 -0.55156129596E+02  0.54904845117E+02  0.77864743004E+02  0.00000000000E+00 0.  1.
</event>
<event>
12    1  0.8494789E-002  0.1769048E+03  0.7818608E-02  0.1171180E+00
         21   -1    0    0  501  502  0.00000000000E+00  0.00000000000E+00  0.13294569207E+03  0.13294569207E+03  0.00000000000E+00 0.  1.
         21   -1    0    0  502  503 -0.00000000000E+00 -0.00000000000E+00 -0.23906264009E+03  0.23906264009E+03  0.00000000000E+00 0. -1.
         -6    2    1    2    0  503  0.65837854314E+01 -0.36381311093E+02 -0.81121653597E+02  0.19334639921E+03  0.17156678401E+03 0.  0.
        -24    2    3    3    0    0  0.64013121925E+01 -0.44181065917E+02 -0.12232189656E+03  0.15115138183E+03  0.76753830315E+02 0.  0.
          6    2    1    2  501    0 -0.65837854314E+01  0.36381311093E+02 -0.24995294417E+02  0.17866193295E+03  0.17299819512E+03 0.  0.
         24    2    5    5    0    0 -0.37460576109E+02 -0.29335725535E+02  0.16704109034E+02  0.94798738677E+02  0.80273868981E+02 0.  0.
          5    1    5    5  501    0  0.30876790677E+02  0.65717036628E+02 -0.41699403451E+02  0.83863194274E+02  0.47000000000E+01 0. -1.
        -11    1    6    6    0    0 -0.25131235672E+02 -0.34045246689E+02  0.46099402995E+02  0.62576455516E+02  0.00000000000E+00 0.  1.
         12    1    6    6    0    0 -0.12329340436E+02  0.47095211537E+01 -0.29395293960E+02  0.32222283161E+02  0.00000000000E+00 0. -1.
         -5    1    3    3    0  503  0.18247323886E+00  0.77997548237E+01  0.41200242959E+02  0.42195017380E+02  0.47000000000E+01 0.  1.
         11    1    4    4    0    0 -0.11586308778E+02  0.19482022725E+01 -0.92727163916E+02  0.93468523959E+02  0.00000000000E+00 0. -1.
        -12    1    4    4    0    0  0.17987620970E+02 -0.46129268189E+02 -0.29594732641E+02  0.57682857869E+02  0.00000000000E+00 0.  1.
</event>
<event>
12    1  0.8494789E-002  0.2132394E+03  0.7818608E-02  0.1140261E+00
         21   -1    0    0  501  502  0.00000000000E+00  0.00000000000E+00  0.89872315045E+03  0.89872315045E+03  0.00000000000E+00 0. -1.
         21   -1    0    0  502  503 -0.00000000000E+00 -0.00000000000E+00 -0.57315185156E+02  0.57315185156E+02  0.00000000000E+00 0. -1.
         -6    2    1    2    0  503 -0.10416121456E+03 -0.50128391708E+02  0.24534645930E+03  0.32506298205E+03  0.17918884713E+03 0.  0.
        -24    2    3    3    0    0  0.20302478591E+02 -0.25204914522E+02  0.99697634600E+02  0.13180651835E+03  0.79911586021E+02 0.  0.
          6    2    1    2  501    0  0.10416121456E+03  0.50128391708E+02  0.59606150599E+03  0.63097535355E+03  0.17169206036E+03 0.  0.
         24    2    5    5    0    0  0.11072559162E+03  0.83162736104E+02  0.55453673597E+03  0.57730268377E+03  0.81186204694E+02 0.  0.
          5    1    5    5  501    0 -0.65643770634E+01 -0.33034344396E+02  0.41524770017E+02  0.53672669776E+02  0.47000000000E+01 0. -1.
        -11    1    6    6    0    0  0.41774736020E+02  0.59463816415E+02  0.15528489329E+03  0.17144816160E+03  0.00000000000E+00 0.  1.
         12    1    6    6    0    0  0.68950855604E+02  0.23698919689E+02  0.39925184268E+03  0.40585452217E+03  0.00000000000E+00 0. -1.
         -5    1    3    3    0  503 -0.12446369315E+03 -0.24923477187E+02  0.14564882470E+03  0.19325646371E+03  0.47000000000E+01 0.  1.
         11    1    4    4    0    0 -0.14366701806E+02 -0.69915898077E+01 -0.75212597685E+01  0.17659382699E+02  0.00000000000E+00 0. -1.
        -12    1    4    4    0    0  0.34669180397E+02 -0.18213324714E+02  0.10721889437E+03  0.11414713565E+03  0.00000000000E+00 0.  1.
</event>
<event>
12    1  0.8494789E-002  0.2650364E+03  0.7818608E-02  0.1104188E+00
         21   -1    0    0  503  502  0.00000000000E+00  0.00000000000E+00  0.28196793288E+03  0.28196793288E+03  0.00000000000E+00 0. -1.
         21   -1    0    0  501  503 -0.00000000000E+00 -0.00000000000E+00 -0.71389840674E+03  0.71389840674E+03  0.00000000000E+00 0.  1.
          6    2    1    2  501    0 -0.18060785001E+03 -0.90931631965E+02 -0.61779374407E+03  0.67215437705E+03  0.17098140015E+03 0.  0.
         24    2    3    3    0    0 -0.59158620940E+02  0.79354274576E+01 -0.16515780544E+03  0.19317004159E+03  0.80466457784E+02 0.  0.
         -6    2    1    2    0  502  0.18060785001E+03  0.90931631965E+02  0.18586327020E+03  0.32371196257E+03  0.17133745160E+03 0.  0.
        -24    2    5    5    0    0  0.14478723942E+03  0.40431787975E+02  0.19708128848E+03  0.26061454328E+03  0.80503613102E+02 0.  0.
          5    1    3    3  501    0 -0.12144922907E+03 -0.98867059423E+02 -0.45263593863E+03  0.47898433547E+03  0.47000000000E+01 0. -1.
        -13    1    4    4    0    0 -0.60834579882E+02  0.34449312706E+02 -0.14045806387E+03  0.15689508903E+03  0.00000000000E+00 0.  1.
         14    1    4    4    0    0  0.16759589420E+01 -0.26513885249E+02 -0.24699741568E+02  0.36274952555E+02  0.00000000000E+00 0. -1.
         -5    1    5    5    0  502  0.35820610590E+02  0.50499843990E+02 -0.11218018279E+02  0.63097419283E+02  0.47000000000E+01 0.  1.
         13    1    6    6    0    0  0.49332979285E+01 -0.18211847127E+02  0.22475434906E+02  0.29345425170E+02  0.00000000000E+00 0. -1.
        -14    1    6    6    0    0  0.13985394150E+03  0.58643635102E+02  0.17460585358E+03  0.23126911811E+03  0.00000000000E+00 0.  1.
</event>
<event>
12    1  0.8494789E-002  0.3069003E+03  0.7818608E-02  0.1081980E+00
         21   -1    0    0  503  502  0.00000000000E+00  0.00000000000E+00  0.18035298190E+04  0.18035298190E+04  0.00000000000E+00 0. -1.
         21   -1    0    0  501  503 -0.00000000000E+00 -0.00000000000E+00 -0.52892232866E+02  0.52892232866E+02  0.00000000000E+00 0.  1.
          6    2    1    2  501    0  0.43389292886E+02  0.24919789201E+03  0.99222366645E+03  0.10382659186E+04  0.17177337801E+03 0.  0.
         24    2    3    3    0    0 -0.34005139566E+01  0.22267752284E+03  0.90593873319E+03  0.93648283696E+03  0.81720700884E+02 0.  0.
         -6    2    1    2    0  502 -0.43389292886E+02 -0.24919789201E+03  0.75841391971E+03  0.81815613327E+03  0.17379748179E+03 0.  0.
        -24    2    5    5    0    0  0.65901439580E+01 -0.35428985945E+02  0.24036504627E+03  0.25549121116E+03  0.78751256914E+02 0.  0.
          5    1    3    3  501    0  0.46789806842E+02  0.26520369173E+02  0.86284933260E+02  0.10178308166E+03  0.47000000000E+01 0. -1.
        -13    1    4    4    0    0  0.29071339291E+02  0.18590147205E+03  0.71673963267E+03  0.74102645102E+03  0.00000000000E+00 0.  1.
         14    1    4    4    0    0 -0.32471853247E+02  0.36776050782E+02  0.18919910052E+03  0.19545638593E+03  0.00000000000E+00 0. -1.
         -5    1    5    5    0  502 -0.49979436844E+02 -0.21376890606E+03  0.51804887344E+03  0.56266492211E+03  0.47000000000E+01 0.  1.
         11    1    6    6    0    0 -0.28769083521E+02 -0.41730205451E+02  0.14164912306E+03  0.15044448903E+03  0.00000000000E+00 0. -1.
        -12    1    6    6    0    0  0.35359227479E+02  0.63012195054E+01  0.98715923210E+02  0.10504672213E+03  0.00000000000E+00 0.  1.
</event>
<event>
12    1  0.8494789E-002  0.1875384E+03  0.7818608E-02  0.1160843E+00
         21   -1    0    0  501  502  0.00000000000E+00  0.00000000000E+00  0.47701307685E+02  0.47701307685E+02  0.00000000000E+00 0. -1.
         21   -1    0    0  502  503 -0.00000000000E+00 -0.00000000000E+00 -0.81112185952E+03  0.81112185952E+03  0.00000000000E+00 0. -1.
         -6    2    1    2    0  503 -0.62853200850E+02 -0.43957224402E+02 -0.51393998983E+03  0.54708771312E+03  0.17113705113E+03 0.  0.
        -24    2    3    3    0    0 -0.10641779849E+03 -0.47756645194E+02 -0.35286064449E+03  0.38011180091E+03  0.79805399331E+02 0.  0.
          6    2    1    2  501    0  0.62853200850E+02  0.43957224402E+02 -0.24948056200E+03  0.31173545408E+03  0.17045726760E+03 0.  0.
         24    2    5    5    0    0  0.90297256162E+02 -0.13006703405E+02 -0.17488227775E+03  0.21383213822E+03  0.82568780176E+02 0.  0.
          5    1    5    5  501    0 -0.27444055312E+02  0.56963927807E+02 -0.74598284253E+02  0.97903315861E+02  0.47000000000E+01 0. -1.
        -11    1    6    6    0    0  0.10773508117E+02 -0.37832043302E+02 -0.48234795693E+02  0.62240882811E+02  0.00000000000E+00 0.  1.
         12    1    6    6    0    0  0.79523748045E+02  0.24825339898E+02 -0.12664748206E+03  0.15159125541E+03  0.00000000000E+00 0. -1.
         -5    1    3    3    0  503  0.43564597639E+02  0.37994207919E+01 -0.16107934533E+03  0.16697591221E+03  0.47000000000E+01 0.  1.
         11    1    4    4    0    0 -0.51513571488E+02  0.96932850502E+01 -0.77866624655E+02  0.93865963255E+02  0.00000000000E+00 0. -1.
        -12    1    4    4    0    0 -0.54904227001E+02 -0.57449930244E+02 -0.27499401984E+03  0.28624583765E+03  0.00000000000E+00 0.  1.
</event>
<event>
12    1  0.8494789E-002  0.1731011E+03  0.7818608E-02  0.1175180E+00
         21   -1    0    0  501  502  0.00000000000E+00  0.00000000000E+00  0.20001385454E+03  0.20001385454E+03  0.00000000000E+00 0. -1.
         21   -1    0    0  502  503 -0.00000000000E+00 -0.00000000000E+00 -0.19605113120E+03  0.19605113120E+03  0.00000000000E+00 0. -1.
         -6    2    1    2    0  503  0.12842394169E+02 -0.21184486587E+02 -0.96033572366E+02  0.19615689366E+03  0.16923761505E+03 0.  0.
        -24    2    3    3    0    0  0.69980543094E+02 -0.35104212361E+02 -0.20291407200E+02  0.10014912099E+03  0.59063720604E+02 0.  0.
          6    2    1    2  501    0 -0.12842394169E+02  0.21184486587E+02  0.99996295706E+02  0.19990809209E+03  0.17131922416E+03 0.  0.
         24    2    5    5    0    0  0.47644688447E+02 -0.17440450289E+02  0.29179115866E+02  0.98973777443E+02  0.79813546314E+02 0.  0.
          5    1    5    5  501    0 -0.60487082616E+02  0.38624936876E+02  0.70817179840E+02  0.10093431464E+03  0.47000000000E+01 0. -1.
        -11    1    6    6    0    0  0.37733761311E+02  0.27344955411E+02  0.43159599640E+01  0.46799688455E+02  0.00000000000E+00 0.  1.
         12    1    6    6    0    0  0.99109271358E+01 -0.44785405699E+02  0.24863155902E+02  0.52174088988E+02  0.00000000000E+00 0. -1.
         -5    1    3    3    0  503 -0.57138148925E+02  0.13919725774E+02 -0.75742165167E+02  0.96007772666E+02  0.47000000000E+01 0.  1.
         13    1    4    4    0    0  0.54980645516E+02  0.50324652775E+01 -0.10601035528E+02  0.56219027406E+02  0.00000000000E+00 0. -1.
        -14    1    4    4    0    0  0.14999897578E+02 -0.40136677638E+02 -0.96903716715E+01  0.43930093584E+02  0.00000000000E+00 0.  1.
</event>
<event>
12    1  0.8494789E-002  0.2294762E+03  0.7818608E-02  0.1127085E+00
         21   -1    0    0  501  502  0.00000000000E+00  0.00000000000E+00  0.41705077576E+02  0.41705077576E+02  0.00000000000E+00 0. -1.
         21   -1    0    0  502  503 -0.00000000000E+00 -0.00000000000E+00 -0.12786509171E+04  0.12786509171E+04  0.00000000000E+00 0. -1.
         -6    2    1    2    0  503  0.13719176063E+03 -0.65440942399E+02 -0.69700914110E+03  0.73367808159E+03  0.17134085473E+03 0.  0.
        -24    2    3    3    0    0  0.18958377844E+02 -0.60376447836E+02 -0.42640048012E+03  0.43828695222E+03  0.79204466408E+02 0.  0.
          6    2    1    2  501    0 -0.13719176063E+03  0.65440942399E+02 -0.53993669843E+03  0.58667791309E+03  0.17191637290E+03 0.  0.
         24    2    5    5    0    0 -0.45623027486E+02  0.86375271992E+02 -0.34241299475E+03  0.36790683968E+03  0.92556120608E+02 0.  0.
          5    1    5    5  501    0 -0.91568733148E+02 -0.20934329594E+02 -0.19752370368E+03  0.21877107341E+03  0.47000000000E+01 0. -1.
        -11    1    6    6    0    0  0.16728129694E+02  0.20484713000E+02 -0.20516421460E+02  0.33472038171E+02  0.00000000000E+00 0.  1.
         12    1    6    6    0    0 -0.62351157180E+02  0.65890558993E+02 -0.32189657329E+03  0.33443480151E+03  0.00000000000E+00 0. -1.
         -5    1    3    3    0  503  0.11823338279E+03 -0.50644945624E+01 -0.27060866098E+03  0.29539112937E+03  0.47000000000E+01 0.  1.
         13    1    4    4    0    0  0.27658823993E+02 -0.46883129343E+02 -0.12353297606E+03  0.13499420186E+03  0.00000000000E+00 0. -1.
        -14    1    4    4    0    0 -0.87004461490E+01 -0.13493318493E+02 -0.30286750406E+03  0.30329275036E+03  0.00000000000E+00 0.  1.
</event>
<event>
12    1  0.8494789E-002  0.1769808E+03  0.7818608E-02  0.1171252E+00
         21   -1    0    0  503  502  0.00000000000E+00  0.00000000000E+00  0.16550480085E+03  0.16550480085E+03  0.00000000000E+00 0. -1.
         21   -1    0    0  501  503 -0.00000000000E+00 -0.00000000000E+00 -0.22356640339E+03  0.22356640339E+03  0.00000000000E+00 0. -1.
          6    2    1    2  501    0  0.25216392238E+02  0.25886521203E+02  0.49363177721E+02  0.18373598234E+03  0.17325186716E+03 0.  0.
         24    2    3    3    0    0  0.58332573104E+02  0.59990736311E+02  0.67701524072E+02  0.13256798580E+03  0.77389902241E+02 0.  0.
         -6    2    1    2    0  502 -0.25216392238E+02 -0.25886521203E+02 -0.10742478026E+03  0.20533522190E+03  0.17122059316E+03 0.  0.
        -24    2    5    5    0    0 -0.22983362616E+02  0.15973946109E+02  0.44641126439E+01  0.85758888539E+02  0.80939834138E+02 0.  0.
          5    1    3    3  501    0 -0.33116180866E+02 -0.34104215108E+02 -0.18338346351E+02  0.51167996543E+02  0.47000000000E+01 0. -1.
        -13    1    4    4    0    0  0.22346462564E+02 -0.22544788757E+01 -0.11804780557E+02  0.25373212413E+02  0.00000000000E+00 0.  1.
         14    1    4    4    0    0  0.35986110540E+02  0.62245215187E+02  0.79506304629E+02  0.10719477339E+03  0.00000000000E+00 0. -1.
         -5    1    5    5    0  502 -0.22330296215E+01 -0.41860467313E+02 -0.11188889291E+03  0.11957633336E+03  0.47000000000E+01 0.  1.
         13    1    6    6    0    0  0.26927803888E+02 -0.31787889162E+01  0.15413145195E+02  0.31189363027E+02  0.00000000000E+00 0. -1.
        -14    1    6    6    0    0 -0.49911166505E+02  0.19152735026E+02 -0.10949032551E+02  0.54569525512E+02  0.00000000000E+00 0.  1.
</event>
<event>
12    1  0.8494789E-002  0.1722710E+03  0.7818608E-02  0.1175619E+00
         21   -1    0    0  503  502  0.00000000000E+00  0.00000000000E+00  0.16942751085E+03  0.16942751085E+03  0.00000000000E+00 0. -1.
         21   -1    0    0  501  503 -0.00000000000E+00 -0.00000000000E+00 -0.32417030700E+03  0.32417030700E+03  0.00000000000E+00 0. -1.
          6    2    1    2  501    0  0.93853762850E+01  0.60645983806E+01 -0.24501698935E+03  0.29951733109E+03  0.17190823689E+03 0.  0.
         24    2    3    3    0    0 -0.34815905028E+02  0.38790941517E+02 -0.75276680444E+02  0.12102747347E+03  0.79146612878E+02 0.  0.
         -6    2    1    2    0  502 -0.93853762850E+01 -0.60645983806E+01  0.90274193202E+02  0.19408048676E+03  0.17144369554E+03 0.  0.
        -24    2    5    5    0    0  0.49141528990E+02 -0.12894923714E+02  0.96381476078E+02  0.13465455900E+03  0.79128328682E+02 0.  0.
          5    1    3    3  501    0  0.44201281313E+02 -0.32726343137E+02 -0.16974030891E+03  0.17848985762E+03  0.47000000000E+01 0. -1.
        -11    1    4    4    0    0 -0.25838615161E+02 -0.17632734315E+02 -0.49017163956E+02  0.58148342325E+02  0.00000000000E+00 0.  1.
         12    1    4    4    0    0 -0.89772898664E+01  0.56423675832E+02 -0.26259516488E+02  0.62879131148E+02  0.00000000000E+00 0. -1.
         -5    1    5    5    0  502 -0.58526905275E+02  0.68303253339E+01 -0.61072828763E+01  0.59425927753E+02  0.47000000000E+01 0.  1.
         11    1    6    6    0    0 -0.40735672263E+01 -0.14396653858E+02  0.76305683925E+02  0.77758697209E+02  0.00000000000E+00 0. -1.
        -12    1    6    6    0    0  0.53215096216E+02  0.15017301436E+01  0.20075792153E+02  0.56895861794E+02  0.00000000000E+00 0.  1.
</event>
<event>
12    1  0.8494789E-002  0.2421603E+03  0.7818608E-02  0.1118470E+00
         21   -1    0    0  503  502  0.00000000000E+00  0.00000000000E+00  0.18118228605E+03  0.18118228605E+03  0.00000000000E+00 0. -1.
         21   -1    0    0  501  503 -0.00000000000E+00 -0.00000000000E+00 -0.38162102979E+03  0.38162102979E+03  0.00000000000E+00 0.  1.
          6    2    1    2  501    0 -0.13074378934E+03  0.10872991813E+03 -0.21059790543E+03  0.32043004793E+03  0.17148703829E+03 0.  0.
         24    2    3    3    0    0  0.82338263057E+01  0.41494752141E+02 -0.81331741360E+02  0.11901709808E+03  0.75898663576E+02 0.  0.
         -6    2    1    2    0  502  0.13074378934E+03 -0.10872991813E+03  0.10159161684E+02  0.24237326791E+03  0.17241072729E+03 0.  0.
        -24    2    5    5    0    0  0.67085826143E+02 -0.13125735156E+03 -0.19465869339E+02  0.16848447311E+03  0.79240754666E+02 0.  0.
          5    1    3    3  501    0 -0.13897761564E+03  0.67235165988E+02 -0.12926616407E+03  0.20141294985E+03  0.47000000000E+01 0. -1.
        -13    1    4    4    0    0 -0.40037156053E+01  0.26308680155E+02 -0.92698915217E+02  0.96443067520E+02  0.00000000000E+00 0.  1.
         14    1    4    4    0    0  0.12237541911E+02  0.15186071986E+02  0.11367173857E+02  0.22574030564E+02  0.00000000000E+00 0. -1.
         -5    1    5    5    0  502  0.63657963192E+02  0.22527433433E+02  0.29625031023E+02  0.73888794806E+02  0.47000000000E+01 0.  1.
         11    1    6    6    0    0  0.54335747496E+01 -0.53293905994E+02  0.25573584771E+02  0.59361371182E+02  0.00000000000E+00 0. -1.
        -12    1    6    6    0    0  0.61652251394E+02 -0.77963445569E+02 -0.45039454110E+02  0.10912310192E+03  0.00000000000E+00 0.  1.
</event>
<event>
12    1  0.8494789E-002  0.1751234E+03  0.7818608E-02  0.1173360E+00
         21   -1    0    0  501  502  0.00000000000E+00  0.00000000000E+00  0.18366940965E+03  0.18366940965E+03  0.00000000000E+00 0.  1.
         21   -1    0    0  502  503 -0.00000000000E+00 -0.00000000000E+00 -0.19031766802E+04  0.19031766802E+04  0.00000000000E+00 0.  1.
         -6    2    1    2    0  503  0.12781164853E+02 -0.35713265253E+02 -0.18577942984E+04  0.18660299749E+04  0.17096612668E+03 0.  0.
        -24    2    3    3    0    0  0.52489462215E+02 -0.63774706787E+02 -0.93575541583E+03  0.94269797372E+03  0.78860094702E+02 0.  0.
          6    2    1    2  501    0 -0.12781164853E+02  0.35713265253E+02  0.13828702785E+03  0.22081611497E+03  0.16792158606E+03 0.  0.
         24    2    5    5    0    0 -0.53718519030E+02 -0.24284034358E+02  0.57385144893E+02  0.11199172618E+03  0.75984855514E+02 0.  0.
          5    1    5    5  501    0  0.40937354178E+02  0.59997299611E+02  0.80901882960E+02  0.10882438878E+03  0.47000000000E+01 0. -1.
        -11    1    6    6    0    0  0.57987586572E+01  0.68263319033E+01 -0.12298101674E+02  0.15214063034E+02  0.00000000000E+00 0.  1.
         12    1    6    6    0    0 -0.59517277687E+02 -0.31110366262E+02  0.69683246568E+02  0.96777663148E+02  0.00000000000E+00 0. -1.
         -5    1    3    3    0  503 -0.39708297362E+02  0.28061441534E+02 -0.92203888258E+03  0.92333200116E+03  0.47000000000E+01 0.  1.
         11    1    4    4    0    0  0.28577542239E+02  0.96902639859E+01 -0.14080713350E+03  0.14400425682E+03  0.00000000000E+00 0. -1.
        -12    1    4    4    0    0  0.23911919976E+02 -0.73464970773E+02 -0.79494828232E+03  0.79869371690E+03  0.00000000000E+00 0.  1.
</event>
<event>
12    1  0.8494789E-002  0.1735973E+03  0.7818608E-02  0.1175714E+00
         21   -1    0    0  501  502  0.00000000000E+00  0.00000000000E+00  0.21125416510E+03  0.21125416510E+03  0.00000000000E+00 0.  1.
         21   -1    0    0  502  503 -0.00000000000E+00 -0.00000000000E+00 -0.15960069303E+03  0.15960069303E+03  0.00000000000E+00 0.  1.
         -6    2    1    2    0  503 -0.10120434295E+02  0.26735197660E+02 -0.42429673210E+02  0.17870726282E+03  0.17122737699E+03 0.  0.
        -24    2    3    3    0    0 -0.66601447292E+02  0.52986085698E+02 -0.19771966251E+02  0.11226423733E+03  0.70491490793E+02 0.  0.
          6    2    1    2  501    0  0.10120434295E+02 -0.26735197660E+02  0.94083145279E+02  0.19214759531E+03  0.16508139257E+03 0.  0.
         24    2    5    5    0    0  0.65000806240E+02 -0.20959798404E+02  0.87155115797E+02  0.13633274018E+03  0.79537311201E+02 0.  0.
          5    1    5    5  501    0 -0.54880371945E+02 -0.57753992559E+01  0.69280294820E+01  0.55814855136E+02  0.47000000000E+01 0. -1.
        -13    1    6    6    0    0  0.42469254378E+02 -0.94456469354E+01  0.99190936084E+02  0.10831297067E+03  0.00000000000E+00 0.  1.
         14    1    6    6    0    0  0.22531551862E+02 -0.11514151469E+02 -0.12035820287E+02  0.28019769509E+02  0.00000000000E+00 0. -1.
         -5    1    3    3    0  503  0.56481012997E+02 -0.26250888038E+02 -0.22657706959E+02  0.66443025492E+02  0.47000000000E+01 0.  1.
         11    1    4    4    0    0 -0.14627354876E+02  0.34882942886E+02  0.21465987239E+02  0.43492158181E+02  0.00000000000E+00 0. -1.
        -12    1    4    4    0    0 -0.51974092415E+02  0.18103142812E+02 -0.41237953489E+02  0.68772079146E+02  0.00000000000E+00 0.  1.
</event>
<event>
12    1  0.8494789E-002  0.2225171E+03  0.7818608E-02  0.1132341E+00
         21   -1    0    0  503  502  0.00000000000E+00  0.00000000000E+00  0.11707893858E+04  0.11707893858E+04  0.00000000000E+00 0. -1.
         21   -1    0    0  501  503 -0.00000000000E+00 -0.00000000000E+00 -0.44331348247E+02  0.44331348247E+02  0.00000000000E+00 0.  1.
          6    2    1    2  501    0 -0.86853041754E+02 -0.10689335782E+03  0.70580595613E+03  0.74005129626E+03  0.17476908360E+03 0.  0.
         24    2    3    3    0    0 -0.94273547275E+02 -0.67909359797E+01  0.41102241260E+03  0.42861111533E+03  0.76383545349E+02 0.  0.
         -6    2    1    2    0  502  0.86853041754E+02  0.10689335782E+03  0.42065208144E+03  0.47506943781E+03  0.17254899683E+03 0.  0.
        -24    2    5    5    0    0  0.33640565331E+02 -0.12743625218E+02  0.23781135931E+03  0.25013079055E+03  0.68681017372E+02 0.  0.
          5    1    3    3  501    0  0.74205055210E+01 -0.10010242184E+03  0.29478354354E+03  0.31144018093E+03  0.47000000000E+01 0. -1.
        -13    1    4    4    0    0 -0.41535467113E+02 -0.37512818578E+02  0.13939568894E+03  0.15021173283E+03  0.00000000000E+00 0.  1.
         14    1    4    4    0    0 -0.52738080162E+02  0.30721882598E+02  0.27162672366E+03  0.27839938250E+03  0.00000000000E+00 0. -1.
         -5    1    5    5    0  502  0.53212476424E+02  0.11963698304E+03  0.18284072214E+03  0.22493864725E+03  0.47000000000E+01 0.  1.
         13    1    6    6    0    0 -0.12065869057E+02 -0.24858099252E+02  0.58624131141E+02  0.64809714138E+02  0.00000000000E+00 0. -1.
        -14    1    6    6    0    0  0.45706434388E+02  0.12114474035E+02  0.17918722817E+03  0.18532107641E+03  0.00000000000E+00 0.  1.
</event>
<event>
12    1  0.8494789E-002  0.2048905E+03  0.7818608E-02  0.1145916E+00
         21   -1    0    0  501  502  0.00000000000E+00  0.00000000000E+00  0.11273740556E+04  0.11273740556E+04  0.00000000000E+00 0.  1.
         21   -1    0    0  502  503 -0.00000000000E+00 -0.00000000000E+00 -0.10751875129E+03  0.10751875129E+03  0.00000000000E+00 0.  1.
         -6    2    1    2    0  503 -0.10599976291E+03  0.18108702429E+02  0.10474773560E+02  0.20515805235E+03  0.17440249632E+03 0.  0.
        -24    2    3    3    0    0 -0.64035339226E+02  0.76757786666E+02 -0.13535910719E+02  0.12900471430E+03  0.80415874980E+02 0.  0.
          6    2    1    2  501    0  0.10599976291E+03 -0.18108702429E+02  0.10093805308E+04  0.10297347546E+04  0.17303390996E+03 0.  0.
         24    2    5    5    0    0 -0.99106022253E+01 -0.71771644686E+01  0.52469273990E+03  0.53123795829E+03  0.82228737659E+02 0.  0.
          5    1    5    5  501    0  0.11591036513E+03 -0.10931537960E+02  0.48468779090E+03  0.49849679629E+03  0.47000000000E+01 0. -1.
        -13    1    6    6    0    0  0.26627306997E+02  0.23182803445E+02  0.24716391783E+03  0.24967270202E+03  0.00000000000E+00 0.  1.
         14    1    6    6    0    0 -0.36537909222E+02 -0.30359967914E+02  0.27752882206E+03  0.28156525627E+03  0.00000000000E+00 0. -1.
         -5    1    3    3    0  503 -0.41964423679E+02 -0.58649084238E+02  0.24010684278E+02  0.76153338050E+02  0.47000000000E+01 0.  1.
         11    1    4    4    0    0  0.98247605958E+01 -0.33738322641E+01  0.13196990487E+02  0.16794916577E+02  0.00000000000E+00 0. -1.
        -12    1    4    4    0    0 -0.73860099822E+02  0.80131618930E+02 -0.26732901206E+02  0.11220979772E+03  0.00000000000E+00 0.  1.
</event>
<event>
12    1  0.8494789E-002  0.1816217E+03  0.7818608E-02  0.1167409E+00
         21   -1    0    0  503  502  0.00000000000E+00  0.00000000000E+00  0.52434709088E+03  0.52434709088E+03  0.00000000000E+00 0. -1.
         21   -1    0    0  501  503 -0.00000000000E+00 -0.00000000000E+00 -0.61271665134E+02  0.61271665134E+02  0.00000000000E+00 0. -1.
          6    2    1    2  501    0  0.29785597832E+02 -0.31561108011E+02  0.23946127628E+03  0.30054638913E+03  0.17636083410E+03 0.  0.
         24    2    3    3    0    0 -0.18724947095E+02  0.21132128831E+02  0.45303346832E+02  0.93545805208E+02  0.76819489227E+02 0.  0.
         -6    2    1    2    0  502 -0.29785597832E+02  0.31561108011E+02  0.22361414947E+03  0.28507236688E+03  0.17140502075E+03 0.  0.
        -24    2    5    5    0    0 -0.27670346226E+02  0.12747123080E+02  0.24265157082E+03  0.25781518929E+03  0.81613416814E+02 0.  0.
          5    1    3    3  501    0  0.48510544928E+02 -0.52693236842E+02  0.19415792944E+03  0.20700058392E+03  0.47000000000E+01 0. -1.
        -11    1    4    4    0    0 -0.34629870031E+01  0.28855730767E+02  0.62724946409E+02  0.69130777365E+02  0.00000000000E+00 0.  1.
         12    1    4    4    0    0 -0.15261960092E+02 -0.77236019359E+01 -0.17421599577E+02  0.24415027843E+02  0.00000000000E+00 0. -1.
         -5    1    5    5    0  502 -0.21152516069E+01  0.18813984931E+02 -0.19037421349E+02  0.27257177586E+02  0.47000000000E+01 0.  1.
         11    1    6    6    0    0 -0.79649178791E+01  0.18880292359E+02  0.75941592307E+01  0.21853526278E+02  0.00000000000E+00 0. -1.
        -12    1    6    6    0    0 -0.19705428346E+02 -0.61331692788E+01  0.23505741158E+03  0.23596166301E+03  0.00000000000E+00 0.  1.
</event>
<event>
12    1  0.8494789E-002  0.2088839E+03  0.7818608E-02  0.1143243E+00
         21   -1    0    0  501  502  0.00000000000E+00  0.00000000000E+00  0.91197852142E+02  0.91197852142E+02  0.00000000000E+00 0. -1.
         21   -1    0    0  502  503 -0.00000000000E+00 -0.00000000000E+00 -0.56808167176E+03  0.56808167176E+03  0.00000000000E+00 0.  1.
         -6    2    1    2    0  503 -0.77197105131E+02 -0.89362863511E+02 -0.37762734504E+03  0.43154940297E+03  0.17230020621E+03 0.  0.
        -24    2    3    3    0    0 -0.39486390609E+02 -0.12022883318E+03 -0.33387904071E+03  0.36589264242E+03  0.79925368807E+02 0.  0.
          6    2    1    2  501    0  0.77197105131E+02  0.89362863511E+02 -0.99256474576E+02  0.22773012094E+03  0.16752326949E+03 0.  0.
         24    2    5    5    0    0  0.79026911228E+02 -0.25140409459E+01 -0.51263054089E+02  0.12395068091E+03  0.80525135719E+02 0.  0.
          5    1    5    5  501    0 -0.18298060968E+01  0.91876904457E+02 -0.47993420486E+02  0.10377944003E+03  0.47000000000E+01 0. -1.
        -13    1    6    6    0    0  0.60650047221E+02 -0.38776603983E+01 -0.73304591415E+02  0.95220940978E+02  0.00000000000E+00 0.  1.
         14    1    6    6    0    0  0.18376864006E+02  0.13636194524E+01  0.22041537326E+02  0.28729739929E+02  0.00000000000E+00 0. -1.
         -5    1    3    3    0  503 -0.37710714521E+02  0.30865969672E+02 -0.43748304327E+02  0.65656760543E+02  0.47000000000E+01 0.  1.
         11    1    4    4    0    0 -0.25624157510E+02 -0.30878621769E+02 -0.33728127853E+02  0.52418253871E+02  0.00000000000E+00 0. -1.
        -12    1    4    4    0    0 -0.13862233099E+02 -0.89350211414E+02 -0.30015091286E+03  0.31347438855E+03  0.00000000000E+00 0.  1.
</event>
<event>
12    1  0.8494789E-002  0.1893241E+03  0.7818608E-02  0.1161661E+00
         21   -1    0    0  503  502  0.00000000000E+00  0.00000000000E+00  0.14174833352E+04  0.14174833352E+04  0.00000000000E+00 0. -1.
         21   -1    0    0  501  503 -0.00000000000E+00 -0.00000000000E+00 -0.43844078148E+02  0.43844078148E+02  0.00000000000E+00 0. -1.
          6    2    1    2  501    0  0.54181283499E+02  0.48863396497E+01  0.18205006017E+03  0.25479169667E+03  0.16975599101E+03 0.  0.
         24    2    3    3    0    0  0.23403092511E+02  0.16926835144E+02  0.19975034691E+03  0.21700729879E+03  0.79735463567E+02 0.  0.
         -6    2    1    2    0  502 -0.54181283499E+02 -0.48863396497E+01  0.11915891968E+04  0.12065357166E+04  0.18133982935E+03 0.  0.
        -24    2    5    5    0    0 -0.10292881893E+03 -0.25569655598E+02  0.73428732412E+03  0.74615411996E+03  0.79498096317E+02 0.  0.
          5    1    3    3  501    0  0.30778190988E+02 -0.12040495495E+02 -0.17700286739E+02  0.37784397876E+02  0.47000000000E+01 0. -1.
        -11    1    4    4    0    0  0.76659241206E+01  0.32559539415E+02  0.27411383579E+02  0.43246664025E+02  0.00000000000E+00 0.  1.
         12    1    4    4    0    0  0.15737168390E+02 -0.15632704271E+02  0.17233896333E+03  0.17376063477E+03  0.00000000000E+00 0. -1.
         -5    1    5    5    0  502  0.48747535427E+02  0.20683315948E+02  0.45730187271E+03  0.46038159668E+03  0.47000000000E+01 0.  1.
         11    1    6    6    0    0 -0.91050064487E+02 -0.24038646465E+02  0.72475363962E+03  0.73084595429E+03  0.00000000000E+00 0. -1.
        -12    1    6    6    0    0 -0.11878754438E+02 -0.15310091331E+01  0.95336845070E+01  0.15308165672E+02  0.00000000000E+00 0.  1.
</event>
<event>
12    1  0.8494789E-002  0.1830053E+03  0.7818608E-02  0.1165374E+00
         21   -1    0    0  501  502  0.00000000000E+00  0.00000000000E+00  0.38985274740E+02  0.38985274740E+02  0.00000000000E+00 0. -1.
         21   -1    0    0  502  503 -0.00000000000E+00 -0.00000000000E+00 -0.89403563740E+03  0.89403563740E+03  0.00000000000E+00 0. -1.
         -6    2    1    2    0  503  0.21893141752E+02 -0.52010360950E+02 -0.32638568065E+03  0.37419054359E+03  0.17408780279E+03 0.  0.
        -24    2    3    3    0    0  0.56323506486E+02 -0.79712766551E+01 -0.29333881854E+03  0.30908235627E+03  0.79046580316E+02 0.  0.
          6    2    1    2  501    0 -0.21893141752E+02  0.52010360950E+02 -0.52866468201E+03  0.55883036855E+03  0.17210650047E+03 0.  0.
         24    2    5    5    0    0 -0.70976976852E+02  0.64542553695E+02 -0.29909555493E+03  0.32369136109E+03  0.78195100745E+02 0.  0.
          5    1    5    5  501    0  0.49083835100E+02 -0.12532192745E+02 -0.22956912708E+03  0.23513900746E+03  0.47000000000E+01 0. -1.
        -13    1    6    6    0    0 -0.34923388918E+02  0.65890349256E+02 -0.12222587144E+03  0.14317941496E+03  0.00000000000E+00 0.  1.
         14    1    6    6    0    0 -0.36053587934E+02 -0.13477955602E+01 -0.17686968350E+03  0.18051194613E+03  0.00000000000E+00 0. -1.
         -5    1    3    3    0  503 -0.34430364734E+02 -0.44039084295E+02 -0.33046862109E+02  0.65108187323E+02  0.47000000000E+01 0.  1.
         13    1    4    4    0    0  0.38630824054E+02 -0.28822750020E+02 -0.75763956620E+02  0.89795704845E+02  0.00000000000E+00 0. -1.
        -14    1    4    4    0    0  0.17692682431E+02  0.20851473365E+02 -0.21757486192E+03  0.21928665142E+03  0.00000000000E+00 0.  1.
</event>
<event>
12    1  0.8494789E-002  0.1845444E+03  0.7818608E-02  0.1163699E+00
         21   -1    0    0  503  502  0.00000000000E+00  0.00000000000E+00  0.20763686670E+03  0.20763686670E+03  0.00000000000E+00 0. -1.
         21   -1    0    0  501  503 -0.00000000000E+00 -0.00000000000E+00 -0.29737167243E+03  0.29737167243E+03  0.00000000000E+00 0. -1.
          6    2    1    2  501    0  0.58594912579E+02  0.27003097113E+02 -0.21442669735E+03  0.28228738000E+03  0.17188608243E+03 0.  0.
         24    2    3    3    0    0  0.76897801843E+02 -0.35943999844E+02 -0.10277825513E+03  0.15273122452E+03  0.74553431593E+02 0.  0.
         -6    2    1    2    0  502 -0.58594912579E+02 -0.27003097113E+02  0.12469189163E+03  0.22272115914E+03  0.17289914938E+03 0.  0.
        -24    2    5    5    0    0 -0.62258599957E+02 -0.57180733605E+01  0.15479204666E+03  0.18537702741E+03  0.80593020484E+02 0.  0.
          5    1    3    3  501    0 -0.18302889264E+02  0.62947096957E+02 -0.11164844223E+03  0.12955615548E+03  0.47000000000E+01 0. -1.
        -11    1    4    4    0    0  0.41862618316E+02 -0.15371262303E+02 -0.26501669875E+01  0.44674130122E+02  0.00000000000E+00 0.  1.
         12    1    4    4    0    0  0.35035183527E+02 -0.20572737541E+02 -0.10012808814E+03  0.10805709439E+03  0.00000000000E+00 0. -1.
         -5    1    5    5    0  502  0.36636873773E+01 -0.21285023753E+02 -0.30100155034E+02  0.37344131727E+02  0.47000000000E+01 0.  1.
         13    1    6    6    0    0 -0.56813177506E+02 -0.38262199869E+02  0.95540981301E+02  0.11755769726E+03  0.00000000000E+00 0. -1.
        -14    1    6    6    0    0 -0.54454224507E+01  0.32544126508E+02  0.59251065361E+02  0.67819330152E+02  0.00000000000E+00 0.  1.
</event>
<event>
12    1  0.8494789E-002  0.1877813E+03  0.7818608E-02  0.1160745E+00
         21   -1    0    0  501  502  0.00000000000E+00  0.00000000000E+00  0.14580595067E+03  0.14580595067E+03  0.00000000000E+00 0.  1.
         21   -1    0    0  502  503 -0.00000000000E+00 -0.00000000000E+00 -0.29840472996E+03  0.29840472996E+03  0.00000000000E+00 0. -1.
         -6    2    1    2    0  503 -0.68564649918E+02 -0.11622132659E+02 -0.17445941822E+03  0.25631603479E+03  0.17442945824E+03 0.  0.
        -24    2    3    3    0    0  0.45155312636E+01  0.47081542659E+02 -0.94755975991E+02  0.13318373570E+03  0.80759833995E+02 0.  0.
          6    2    1    2  501    0  0.68564649918E+02  0.11622132659E+02  0.21860638920E+02  0.18789464584E+03  0.17317714981E+03 0.  0.
         24    2    5    5    0    0  0.10657428190E+03 -0.15417869993E+02 -0.44269604238E+01  0.13414502495E+03  0.79871781394E+02 0.  0.
          5    1    5    5  501    0 -0.38009631979E+02  0.27040002652E+02  0.26287599344E+02  0.53749620890E+02  0.47000000000E+01 0. -1.
        -11    1    6    6    0    0  0.49749984811E+02  0.56866742175E+01  0.35658370741E+02  0.61472909938E+02  0.00000000000E+00 0.  1.
         12    1    6    6    0    0  0.56824297085E+02 -0.21104544210E+02 -0.40085331165E+02  0.72672115011E+02  0.00000000000E+00 0. -1.
         -5    1    3    3    0  503 -0.73080181181E+02 -0.58703675318E+02 -0.79703442227E+02  0.12313229909E+03  0.47000000000E+01 0.  1.
         13    1    4    4    0    0 -0.18859147656E+02 -0.11120979435E+02 -0.54298992771E+02  0.58546769765E+02  0.00000000000E+00 0. -1.
        -14    1    4    4    0    0  0.23374678919E+02  0.58202522094E+02 -0.40456983220E+02  0.74636965934E+02  0.00000000000E+00 0.  1.
</event>
<event>
12    1  0.8494789E-002  0.1935439E+03  0.7818608E-02  0.1155412E+00
         21   -1    0    0  503  502  0.00000000000E+00  0.00000000000E+00  0.26199964363E+03  0.26199964363E+03  0.00000000000E+00 0. -1.
         21   -1    0    0  501  503 -0.00000000000E+00 -0.00000000000E+00 -0.15085730435E+03  0.15085730435E+03  0.00000000000E+00 0. -1.
          6    2    1    2  501    0  0.31139178489E+02  0.81485353803E+02  0.72424539513E+01  0.19318806720E+03  0.17221981549E+03 0.  0.
         24    2    3    3    0    0 -0.15480045242E+02 -0.70824092355E+01  0.33626457168E+02  0.89574331156E+02  0.81259029400E+02 0.  0.
         -6    2    1    2    0  502 -0.31139178489E+02 -0.81485353803E+02  0.10389988533E+03  0.21966888078E+03  0.17277071421E+03 0.  0.
        -24    2    5    5    0    0  0.43641351953E+02 -0.65128128581E+02  0.85371217045E+02  0.14076965329E+03  0.79884978898E+02 0.  0.
          5    1    3    3  501    0  0.46619223731E+02  0.88567763038E+02 -0.26384003216E+02  0.10361373604E+03  0.47000000000E+01 0. -1.
        -13    1    4    4    0    0  0.20892725149E+02  0.82911356581E+01 -0.14932734906E+02  0.26985838257E+02  0.00000000000E+00 0.  1.
         14    1    4    4    0    0 -0.36372770392E+02 -0.15373544894E+02  0.48559192073E+02  0.62588492899E+02  0.00000000000E+00 0. -1.
         -5    1    5    5    0  502 -0.74780530442E+02 -0.16357225222E+02  0.18528668286E+02  0.78899227490E+02  0.47000000000E+01 0.  1.
         13    1    6    6    0    0  0.31797848439E+02 -0.76643158830E+02  0.39274977545E+02  0.91803054535E+02  0.00000000000E+00 0. -1.
        -14    1    6    6    0    0  0.11843503514E+02  0.11515030249E+02  0.46096239500E+02  0.48966598750E+02  0.00000000000E+00 0.  1.
</event>
<event>
12    1  0.8494789E-002  0.1747021E+03  0.7818608E-02  0.1173144E+00
         21   -1    0    0  503  502  0.00000000000E+00  0.00000000000E+00  0.35494904507E+02  0.35494904507E+02  0.00000000000E+00 0. -1.
         21   -1    0    0  501  503 -0.00000000000E+00 -0.00000000000E+00 -0.22880087506E+04  0.22880087506E+04  0.00000000000E+00 0. -1.
          6    2    1    2  501    0  0.19547297725E+02  0.12407811908E+02 -0.20442698359E+04  0.20516831615E+04  0.17270953271E+03 0.  0.
         24    2    3    3    0    0 -0.12764437483E+02  0.54020570483E+02 -0.73553232048E+03  0.74187720484E+03  0.79327420811E+02 0.  0.
         -6    2    1    2    0  502 -0.19547297725E+02 -0.12407811908E+02 -0.20824401017E+03  0.27182049356E+03  0.17316108772E+03 0.  0.
        -24    2    5    5    0    0  0.34140228476E+02 -0.43637506566E+02 -0.17665486049E+03  0.20198061472E+03  0.80743060436E+02 0.  0.
          5    1    3    3  501    0  0.32311735208E+02 -0.41612758575E+02 -0.13087375154E+04  0.13098059567E+04  0.47000000000E+01 0. -1.
        -13    1    4    4    0    0 -0.37187417122E+02  0.18878434132E+02 -0.18309072300E+03  0.18778048918E+03  0.00000000000E+00 0.  1.
         14    1    4    4    0    0  0.24422979639E+02  0.35142136350E+02 -0.55244159748E+03  0.55409671566E+03  0.00000000000E+00 0. -1.
         -5    1    5    5    0  502 -0.53687526201E+02  0.31229694658E+02 -0.31589149679E+02  0.69839878834E+02  0.47000000000E+01 0.  1.
         13    1    6    6    0    0  0.22031627984E+02 -0.23008437690E+02 -0.17513890940E+03  0.17801241086E+03  0.00000000000E+00 0. -1.
        -14    1    6    6    0    0  0.12108600492E+02 -0.20629068876E+02 -0.15159510958E+01  0.23968203860E+02  0.00000000000E+00 0.  1.
</event>
<event>
12    1  0.8494789E-002  0.2045762E+03  0.7818608E-02  0.1146967E+00
         21   -1    0    0  501  502  0.00000000000E+00  0.00000000000E+00  0.49265193458E+03  0.49265193458E+03  0.00000000000E+00 0. -1.
         21   -1    0    0  502  503 -0.00000000000E+00 -0.00000000000E+00 -0.90705507665E+02  0.90705507665E+02  0.00000000000E+00 0.  1.
         -6    2    1    2    0  503  0.55082756621E+02 -0.77048026698E+02  0.11314387443E+03  0.22943887418E+03  0.17569903861E+03 0.  0.
        -24    2    3    3    0    0  0.10550371041E+03 -0.63882508904E+02  0.85925839196E+02  0.17045993827E+03  0.80382416357E+02 0.  0.
          6    2    1    2  501    0 -0.55082756621E+02  0.77048026698E+02  0.28880255249E+03  0.35391856806E+03  0.18133099570E+03 0.  0.
         24    2    5    5    0    0 -0.66242789743E+01  0.59686845442E+02  0.54394306440E+02  0.11387909113E+03  0.80020661290E+02 0.  0.
          5    1    5    5  501    0 -0.48458477647E+02  0.17361181256E+02  0.23440824604E+03  0.24003947693E+03  0.47000000000E+01 0. -1.
        -11    1    6    6    0    0  0.28025025733E+02 -0.12780702854E+01  0.60308608553E+01  0.28695066015E+02  0.00000000000E+00 0.  1.
         12    1    6    6    0    0 -0.34649304707E+02  0.60964915727E+02  0.48363445585E+02  0.85184025117E+02  0.00000000000E+00 0. -1.
         -5    1    3    3    0  503 -0.50420953786E+02 -0.13165517794E+02  0.27218035232E+02  0.58978935912E+02  0.47000000000E+01 0.  1.
         13    1    4    4    0    0  0.27920495512E+02 -0.62084780982E+02  0.52483037462E+02  0.85956636279E+02  0.00000000000E+00 0. -1.
        -14    1    4    4    0    0  0.77583214896E+02 -0.17977279214E+01  0.33442801734E+02  0.84503301989E+02  0.00000000000E+00 0.  1.
</event>
<event>
12    1  0.8494789E-002  0.2499819E+03  0.7818608E-02  0.1113539E+00
         21   -1    0    0  501  502  0.00000000000E+00  0.00000000000E+00  0.58729926683E+03  0.58729926683E+03  0.00000000000E+00 0. -1.
         21   -1    0    0  502  503 -0.00000000000E+00 -0.00000000000E+00 -0.10605099459E+03  0.10605099459E+03  0.00000000000E+00 0. -1.
         -6    2    1    2    0  503  0.13992196827E+03  0.11575514298E+03  0.22464966619E+03  0.33609286598E+03  0.17179502819E+03 0.  0.
        -24    2    3    3    0    0  0.44462215548E+02  0.12472650310E+03  0.13588259286E+03  0.20534603810E+03  0.78545064351E+02 0.  0.
          6    2    1    2  501    0 -0.13992196827E+03 -0.11575514298E+03  0.25659860605E+03  0.35725739544E+03  0.16974272192E+03 0.  0.
         24    2    5    5    0    0 -0.92515334706E+02  0.18668181056E+00  0.14817417899E+03  0.19152314423E+03  0.78526463385E+02 0.  0.
          5    1    5    5  501    0 -0.47406633566E+02 -0.11594182479E+03  0.10842442705E+03  0.16573425121E+03  0.47000000000E+01 0. -1.
        -13    1    6    6    0    0 -0.19672255681E+02  0.58466857475E+01  0.10429881565E+03  0.10629875034E+03  0.00000000000E+00 0.  1.
         14    1    6    6    0    0 -0.72843079024E+02 -0.56600039369E+01  0.43875363342E+02  0.85224393895E+02  0.00000000000E+00 0. -1.
         -5    1    3    3    0  503  0.95459752723E+02 -0.89713601184E+01  0.88767073332E+02  0.13074682788E+03  0.47000000000E+01 0.  1.
         11    1    4    4    0    0  0.33566545720E+02  0.36755121444E+02  0.90267433666E+01  0.50587884318E+02  0.00000000000E+00 0. -1.
        -12    1    4    4    0    0  0.10895669829E+02  0.87971381656E+02  0.12685584949E+03  0.15475815378E+03  0.00000000000E+00 0.  1.
</event>
<event>
12    1  0.8494789E-002  0.1743187E+03  0.7818608E-02  0.1173745E+00
         21   -1    0    0  503  502  0.00000000000E+00  0.00000000000E+00  0.78609301206E+03  0.78609301206E+03  0.00000000000E+00 0.  1.
         21   -1    0    0  501  503 -0.00000000000E+00 -0.00000000000E+00 -0.48712481653E+02  0.48712481653E+02  0.00000000000E+00 0.  1.
          6    2    1    2  501    0 -0.51413661227E+01  0.30152791764E+02  0.17743770964E+03  0.24873914959E+03  0.17161409977E+03 0.  0.
         24    2    3    3    0    0 -0.64613367395E+01  0.74652083846E+02  0.60388179333E+02  0.12342110674E+03  0.77274542322E+02 0.  0.
         -6    2    1    2    0  502  0.51413661227E+01 -0.30152791764E+02  0.55994282077E+03  0.58606634413E+03  0.17030024278E+03 0.  0.
        -24    2    5    5    0    0 -0.51153836891E+00 -0.16326203577E+02  0.11363153414E+03  0.13948042357E+03  0.79220303031E+02 0.  0.
          5    1    3    3  501    0  0.13199706169E+01 -0.44499292081E+02  0.11704953031E+03  0.12531804285E+03  0.47000000000E+01 0. -1.
        -11    1    4    4    0    0  0.18574590598E+02  0.31956662085E+02 -0.91395527553E+01  0.38075912229E+02  0.00000000000E+00 0.  1.
         12    1    4    4    0    0 -0.25035927337E+02  0.42695421761E+02  0.69527732088E+02  0.85345194512E+02  0.00000000000E+00 0. -1.
         -5    1    5    5    0  502  0.56529044916E+01 -0.13826588187E+02  0.44631128663E+03  0.44658592056E+03  0.47000000000E+01 0.  1.
         11    1    6    6    0    0 -0.11497947219E+02  0.24303472728E+02  0.83488908780E+02  0.87711227708E+02  0.00000000000E+00 0. -1.
        -12    1    6    6    0    0  0.10986408850E+02 -0.40629676306E+02  0.30142625359E+02  0.51769195857E+02  0.00000000000E+00 0.  1.
</event>
<event>
12    1  0.8494789E-002  0.3331947E+03  0.7818608E-02  0.1070177E+00
         21   -1    0    0  503  502  0.00000000000E+00  0.00000000000E+00  0.28856333970E+03  0.28856333970E+03  0.00000000000E+00 0. -1.
         21   -1    0    0  501  503 -0.00000000000E+00 -0.00000000000E+00 -0.38080409560E+03  0.38080409560E+03  0.00000000000E+00 0.  1.
          6    2    1    2  501    0  0.75985975774E+02 -0.27009567073E+03 -0.31744603101E+02  0.33470349804E+03  0.17970301029E+03 0.  0.
         24    2    3    3    0    0 -0.29953202549E+02 -0.10611922708E+03  0.45017849652E+01  0.13609011927E+03  0.79635229614E+02 0.  0.
         -6    2    1    2    0  502 -0.75985975774E+02  0.27009567073E+03 -0.60496152807E+02  0.33466393726E+03  0.17208900760E+03 0.  0.
        -24    2    5    5    0    0 -0.11461278638E+03  0.19618526598E+03 -0.19852425372E+02  0.24177270513E+03  0.80219528557E+02 0.  0.
          5    1    3    3  501    0  0.10593917832E+03 -0.16397644365E+03 -0.36246388066E+02  0.19861337876E+03  0.47000000000E+01 0. -1.
        -11    1    4    4    0    0 -0.57007119642E+01 -0.10962236109E+03  0.12098953830E+02  0.11043525185E+03  0.00000000000E+00 0.  1.
         12    1    4    4    0    0 -0.24252490585E+02  0.35031340081E+01 -0.75971688649E+01  0.25654867418E+02  0.00000000000E+00 0. -1.
         -5    1    5    5    0  502  0.38626810603E+02  0.73910404754E+02 -0.40643727435E+02  0.92891232138E+02  0.47000000000E+01 0.  1.
         11    1    6    6    0    0 -0.50275342568E+02  0.84503461006E+02 -0.48651999203E+02  0.10970625333E+03  0.00000000000E+00 0. -1.
        -12    1    6    6    0    0 -0.64337443810E+02  0.11168180498E+03  0.28799573831E+02  0.13206645180E+03  0.00000000000E+00 0.  1.
</event>
<event>
12    1  0.8494789E-002  0.2551765E+03  0.7818608E-02  0.1110970E+00
         21   -1    0    0  501  502  0.00000000000E+00  0.00000000000E+00  0.94531366310E+02  0.94531366310E+02  0.00000000000E+00 0. -1.
         21   -1    0    0  502  503 -0.00000000000E+00 -0.00000000000E+00 -0.70853000087E+03  0.70853000087E+03  0.00000000000E+00 0.  1.
         -6    2    1    2    0  503 -0.37039577111E+02 -0.17831751431E+03 -0.39306055679E+03  0.46552814978E+03  0.17044292521E+03 0.  0.
        -24    2    3    3    0    0  0.58359539166E+01 -0.72248513319E+02 -0.85847535341E+02  0.13767013984E+03  0.79557287822E+02 0.  0.
          6    2    1    2  501    0  0.37039577111E+02  0.17831751431E+03 -0.22093807777E+03  0.33753321740E+03  0.17873436284E+03 0.  0.
         24    2    5    5    0    0  0.62935675583E+01  0.48906321029E+02 -0.24591624172E+02  0.10032741248E+03  0.83841543913E+02 0.  0.
          5    1    5    5  501    0  0.30746009553E+02  0.12941119328E+03 -0.19634645360E+03  0.23720580493E+03  0.47000000000E+01 0. -1.
        -13    1    6    6    0    0 -0.36244501252E+02  0.26208132917E+02 -0.26656337741E+02  0.52068132709E+02  0.00000000000E+00 0.  1.
         14    1    6    6    0    0  0.42538068810E+02  0.22698188112E+02  0.20647135691E+01  0.48259279768E+02  0.00000000000E+00 0. -1.
         -5    1    3    3    0  503 -0.42875531028E+02 -0.10606900099E+03 -0.30721302145E+03  0.32785800994E+03  0.47000000000E+01 0.  1.
         13    1    4    4    0    0  0.31094312865E+02 -0.18882785363E+02 -0.37846490471E+01  0.36575120561E+02  0.00000000000E+00 0. -1.
        -14    1    4    4    0    0 -0.25258358948E+02 -0.53365727955E+02 -0.82062886294E+02  0.10109501928E+03  0.00000000000E+00 0.  1.
</event>
<event>
12    1  0.8494789E-002  0.1854339E+03  0.7818608E-02  0.1162677E+00
         21   -1    0    0  501  502  0.00000000000E+00  0.00000000000E+00  0.24268640108E+04  0.24268640108E+04  0.00000000000E+00 0.  1.
         21   -1    0    0  502  503 -0.00000000000E+00 -0.00000000000E+00 -0.17980211463E+02  0.17980211463E+02  0.00000000000E+00 0.  1.
         -6    2    1    2    0  503 -0.68054235095E+02  0.91492314143E+01  0.64120171350E+03  0.66747686806E+03  0.17225168982E+03 0.  0.
        -24    2    3    3    0    0 -0.50723139275E+02 -0.21233159928E+02  0.61757333201E+03  0.62500514808E+03  0.78809458693E+02 0.  0.
          6    2    1    2  501    0  0.68054235095E+02 -0.91492314143E+01  0.17676820859E+04  0.17773673542E+04  0.17210365441E+03 0.  0.
         24    2    5    5    0    0 -0.59926357761E+01 -0.24913244919E+02  0.47748441528E+03  0.48494189705E+03  0.80750821784E+02 0.  0.
          5    1    5    5  501    0  0.74046870871E+02  0.15764013505E+02  0.12901976706E+04  0.12924254572E+04  0.47000000000E+01 0. -1.
        -13    1    6    6    0    0  0.22254492186E+02  0.18077497272E+02  0.25403500100E+03  0.25564788296E+03  0.00000000000E+00 0.  1.
         14    1    6    6    0    0 -0.28247127962E+02 -0.42990742191E+02  0.22344941429E+03  0.22929401409E+03  0.00000000000E+00 0. -1.
         -5    1    3    3    0  503 -0.17331095819E+02  0.30382391342E+02  0.23628381494E+02  0.42471719979E+02  0.47000000000E+01 0.  1.
         13    1    4    4    0    0 -0.19386351706E+02  0.25477266670E+02  0.35685900800E+03  0.35829216199E+03  0.00000000000E+00 0. -1.
        -14    1    4    4    0    0 -0.31336787570E+02 -0.46710426597E+02  0.26071432401E+03  0.26671298609E+03  0.00000000000E+00 0.  1.
</event>
<event>
12    1  0.8494789E-002  0.2315946E+03  0.7818608E-02  0.1125620E+00
         21   -1    0    0  503  502  0.00000000000E+00  0.00000000000E+00  0.34491008162E+03  0.34491008162E+03  0.00000000000E+00 0. -1.
         21   -1    0    0  501  503 -0.00000000000E+00 -0.00000000000E+00 -0.15515253057E+03  0.15515253057E+03  0.00000000000E+00 0.  1.
          6    2    1    2  501    0 -0.14052193949E+03 -0.64899908387E+02  0.92028104927E+02  0.24920920344E+03  0.17227199829E+03 0.  0.
         24    2    3    3    0    0 -0.11445720366E+03  0.18973950439E+02  0.77468258567E+02  0.16005611166E+03  0.78461235831E+02 0.  0.
         -6    2    1    2    0  502  0.14052193949E+03  0.64899908387E+02  0.97729446118E+02  0.25085340876E+03  0.17151668857E+03 0.  0.
        -24    2    5    5    0    0  0.15492679700E+03  0.35497602092E+02  0.11707649165E+03  0.21253378315E+03  0.78748408874E+02 0.  0.
          5    1    3    3  501    0 -0.26064735824E+02 -0.83873858826E+02  0.14559846360E+02  0.89153091780E+02  0.47000000000E+01 0. -1.
        -11    1    4    4    0    0 -0.10228237987E+03 -0.31681056290E+01  0.30597401279E+02  0.10680787935E+03  0.00000000000E+00 0.  1.
         12    1    4    4    0    0 -0.12174823790E+02  0.22142056068E+02  0.46870857289E+02  0.53248232311E+02  0.00000000000E+00 0. -1.
         -5    1    5    5    0  502 -0.14404857514E+02  0.29402306294E+02 -0.19347045534E+02  0.38319625603E+02  0.47000000000E+01 0.  1.
         13    1    6    6    0    0  0.52021207462E+01  0.12377765472E+02  0.40727626745E+02  0.42883688258E+02  0.00000000000E+00 0. -1.
        -14    1    6    6    0    0  0.14972467626E+03  0.23119836621E+02  0.76348864907E+02  0.16965009489E+03  0.00000000000E+00 0.  1.
</event>
<event>
12    1  0.8494789E-002  0.2125263E+03  0.7818608E-02  0.1139965E+00
         21   -1    0    0  503  502  0.00000000000E+00  0.00000000000E+00  0.20733387719E+04  0.20733387719E+04  0.00000000000E+00 0.  1.
         21   -1    0    0  501  503 -0.00000000000E+00 -0.00000000000E+00 -0.30840448948E+02  0.30840448948E+02  0.00000000000E+00 0.  1.
          6    2    1    2  501    0 -0.10439924535E+03  0.67521409741E+02  0.16009209760E+04  0.16149660628E+04  0.17236319083E+03 0.  0.
         24    2    3    3    0    0 -0.82929609647E+02  0.67320998196E+02  0.63063546955E+03  0.64443165365E+03  0.78623303226E+02 0.  0.
         -6    2    1    2    0  502  0.10439924535E+03 -0.67521409741E+02  0.44157734696E+03  0.48921315801E+03  0.16994298284E+03 0.  0.
        -24    2    5    5    0    0  0.86098130238E+02  0.11109247108E+02  0.16050281852E+03  0.19673633577E+03  0.73537253526E+02 0.  0.
          5    1    3    3  501    0 -0.21469635704E+02  0.20041154514E+00  0.97028550642E+03  0.97053440917E+03  0.47000000000E+01 0. -1.
        -11    1    4    4    0    0 -0.26474580879E+02  0.27390302860E+02  0.43993569644E+03  0.44158187138E+03  0.00000000000E+00 0.  1.
         12    1    4    4    0    0 -0.56455028768E+02  0.39930695336E+02  0.19069977311E+03  0.20284978227E+03  0.00000000000E+00 0. -1.
         -5    1    5    5    0  502  0.18301115112E+02 -0.78630656849E+02  0.28107452844E+03  0.29247682224E+03  0.47000000000E+01 0.  1.
         11    1    6    6    0    0  0.58479318821E+02  0.11356052297E+02  0.15817198620E+03  0.16901824716E+03  0.00000000000E+00 0. -1.
        -12    1    6    6    0    0  0.27618811417E+02 -0.24680518925E+00  0.23308323208E+01  0.27718088610E+02  0.00000000000E+00 0.  1.
</event>
<event>
12    1  0.8494789E-002  0.1831397E+03  0.7818608E-02  0.1165477E+00
         21   -1    0    0  501  502  0.00000000000E+00  0.00000000000E+00  0.21559277531E+03  0.21559277531E+03  0.00000000000E+00 0. -1.
         21   -1    0    0  502  503 -0.00000000000E+00 -0.00000000000E+00 -0.16191781437E+03  0.16191781437E+03  0.00000000000E+00 0.  1.
         -6    2    1    2    0  503  0.38661630706E+02  0.49594452855E+02  0.70521777427E+02  0.19359763638E+03  0.16897453145E+03 0.  0.
        -24    2    3    3    0    0  0.54796146235E+02 -0.10882158518E+02 -0.85866031462E+00  0.98545019342E+02  0.81174777630E+02 0.  0.
          6    2    1    2  501    0 -0.38661630706E+02 -0.49594452855E+02 -0.16846816485E+02  0.18391295330E+03  0.17200531307E+03 0.  0.
         24    2    5    5    0    0 -0.27434901429E+02  0.31462540044E+02  0.18779509865E+02  0.94539575400E+02  0.82719381548E+02 0.  0.
          5    1    5    5  501    0 -0.11226729277E+02 -0.81056992899E+02 -0.35626326351E+02  0.89373377901E+02  0.47000000000E+01 0. -1.
        -13    1    6    6    0    0 -0.39947393110E+02  0.46719614814E+02  0.33422189573E+02  0.69968274100E+02  0.00000000000E+00 0.  1.
         14    1    6    6    0    0  0.12512491681E+02 -0.15257074769E+02 -0.14642679708E+02  0.24571301301E+02  0.00000000000E+00 0. -1.
         -5    1    3    3    0  503 -0.16134515529E+02  0.60476611373E+02  0.71380437742E+02  0.95052617043E+02  0.47000000000E+01 0.  1.
         11    1    4    4    0    0  0.27889801696E+02 -0.61207482961E+01  0.40149388524E+02  0.49267413137E+02  0.00000000000E+00 0. -1.
        -12    1    4    4    0    0  0.26906344539E+02 -0.47614102222E+01 -0.41008048839E+02  0.49277606205E+02  0.00000000000E+00 0.  1.
</event>
<event>
12    1  0.8494789E-002  0.1800996E+03  0.7818608E-02  0.1169258E+00
         21   -1    0    0  503  502  0.00000000000E+00  0.00000000000E+00  0.60538459391E+03  0.60538459391E+03  0.00000000000E+00 0.  1.
         21   -1    0    0  501  503 -0.00000000000E+00 -0.00000000000E+00 -0.53326972237E+02  0.53326972237E+02  0.00000000000E+00 0.  1.
          6    2    1    2  501    0 -0.18549824182E+02  0.13144202627E+02  0.22367482657E+03  0.28716945439E+03  0.17865889693E+03 0.  0.
         24    2    3    3    0    0 -0.78417545049E+02  0.26448968588E+02  0.15396607676E+03  0.19420408127E+03  0.84621587533E+02 0.  0.
         -6    2    1    2    0  502  0.18549824182E+02 -0.13144202627E+02  0.32838279510E+03  0.37154211176E+03  0.17231196898E+03 0.  0.
        -24    2    5    5    0    0  0.10286696841E+02  0.52950841111E+02  0.25304276538E+03  0.27086915532E+03  0.80186348500E+02 0.  0.
          5    1    3    3  501    0  0.59867720867E+02 -0.13304765961E+02  0.69708749811E+02  0.92965373120E+02  0.47000000000E+01 0. -1.
        -11    1    4    4    0    0 -0.17617533087E+02  0.50025248913E+02  0.73321700560E+02  0.90492954277E+02  0.00000000000E+00 0.  1.
         12    1    4    4    0    0 -0.60800011962E+02 -0.23576280325E+02  0.80644376203E+02  0.10371112699E+03  0.00000000000E+00 0. -1.
         -5    1    5    5    0  502  0.82631273404E+01 -0.66095043737E+02  0.75340029718E+02  0.10067295644E+03  0.47000000000E+01 0.  1.
         13    1    6    6    0    0 -0.26446257699E+02  0.21128196077E+02  0.17986745600E+03  0.18302488066E+03  0.00000000000E+00 0. -1.
        -14    1    6    6    0    0  0.36732954540E+02  0.31822645034E+02  0.73175309387E+02  0.87844274657E+02  0.00000000000E+00 0.  1.
</event>
<event>
12    1  0.8494789E-002  0.2968102E+03  0.7818608E-02  0.1086962E+00
         21   -1    0    0  503  502  0.00000000000E+00  0.00000000000E+00  0.71065322770E+03  0.71065322770E+03  0.00000000000E+00 0. -1.
         21   -1    0    0  501  503 -0.00000000000E+00 -0.00000000000E+00 -0.21919438474E+03  0.21919438474E+03  0.00000000000E+00 0.  1.
          6    2    1    2  501    0  0.14057939614E+03  0.19692897666E+03  0.55299637706E+03  0.62761554325E+03  0.17190895443E+03 0.  0.
         24    2    3    3    0    0  0.16918785221E+03  0.15876834359E+03  0.41925176431E+03  0.48554376873E+03  0.78414241116E+02 0.  0.
         -6    2    1    2    0  502 -0.14057939614E+03 -0.19692897666E+03 -0.61537534106E+02  0.30223206920E+03  0.17033428042E+03 0.  0.
        -24    2    5    5    0    0 -0.13013816842E+03 -0.74694437458E+02 -0.57780086647E+02  0.17940491332E+03  0.79576269354E+02 0.  0.
          5    1    3    3  501    0 -0.28608456072E+02  0.38160633062E+02  0.13374461275E+03  0.14207177452E+03  0.47000000000E+01 0. -1.
        -11    1    4    4    0    0 -0.31233389256E+01  0.21556504249E+02  0.20049369697E+02  0.29604312974E+02  0.00000000000E+00 0.  1.
         12    1    4    4    0    0  0.17231119113E+03  0.13721183935E+03  0.39920239462E+03  0.45593945575E+03  0.00000000000E+00 0. -1.
         -5    1    5    5    0  502 -0.10441227713E+02 -0.12223453920E+03 -0.37574474588E+01  0.12282715588E+03  0.47000000000E+01 0.  1.
         13    1    6    6    0    0 -0.67965100940E+02  0.52103866927E+01 -0.16966017540E+02  0.70244208490E+02  0.00000000000E+00 0. -1.
        -14    1    6    6    0    0 -0.62173067484E+02 -0.79904824151E+02 -0.40814069107E+02  0.10916070483E+03  0.00000000000E+00 0.  1.
</event>
<event>
12    1  0.8494789E-002  0.2105585E+03  0.7818608E-02  0.1141805E+00
         21   -1    0    0  503  502  0.00000000000E+00  0.00000000000E+00  0.28840351047E+03  0.28840351047E+03  0.00000000000E+00 0.  1.
         21   -1    0    0  501  503 -0.00000000000E+00 -0.00000000000E+00 -0.30236192941E+03  0.30236192941E+03  0.00000000000E+00 0. -1.
          6    2    1    2  501    0 -0.39781246076E+02  0.11199779883E+03 -0.21577422692E+03  0.29910722272E+03  0.16964833980E+03 0.  0.
         24    2    3    3    0    0  0.35610428126E+02  0.54148439811E+02 -0.64329270204E+02  0.12025499938E+03  0.78248666100E+02 0.  0.
         -6    2    1    2    0  502  0.39781246076E+02 -0.11199779883E+03  0.20181580798E+03  0.29165821716E+03  0.17380690667E+03 0.  0.
        -24    2    5    5    0    0  0.15381613919E+02 -0.14654253243E+03  0.17001474671E+03  0.23853498151E+03  0.79262951281E+02 0.  0.
          5    1    3    3  501    0 -0.75391674202E+02  0.57849359019E+02 -0.15144495671E+03  0.17885222333E+03  0.47000000000E+01 0. -1.
        -13    1    4    4    0    0 -0.19688686410E+02  0.12160230882E+02  0.32442641175E+01  0.23367516713E+02  0.00000000000E+00 0.  1.
         14    1    4    4    0    0  0.55299114536E+02  0.41988208929E+02 -0.67573534322E+02  0.96887482671E+02  0.00000000000E+00 0. -1.
         -5    1    5    5    0  502  0.24399632157E+02  0.34544733600E+02  0.31801061266E+02  0.53123235656E+02  0.47000000000E+01 0.  1.
         13    1    6    6    0    0  0.21862596947E+02 -0.62620665505E+02  0.25039535690E+02  0.70896397942E+02  0.00000000000E+00 0. -1.
        -14    1    6    6    0    0 -0.64809830281E+01 -0.83921866925E+02  0.14497521102E+03  0.16763858357E+03  0.00000000000E+00 0.  1.
</event>
<event>
12    1  0.8494789E-002  0.1890244E+03  0.7818608E-02  0.1159506E+00
         21   -1    0    0  503  502  0.00000000000E+00  0.00000000000E+00  0.20899304052E+03  0.20899304052E+03  0.00000000000E+00 0. -1.
         21   -1    0    0  501  503 -0.00000000000E+00 -0.00000000000E+00 -0.17183600611E+03  0.17183600611E+03  0.00000000000E+00 0. -1.
          6    2    1    2  501    0  0.95673618659E+01  0.82791615372E+02  0.67308513439E+00  0.18831589096E+03  0.16886810165E+03 0.  0.
         24    2    3    3    0    0  0.39288080898E+02  0.10691822881E+03 -0.25297603020E+02  0.14181878073E+03  0.80607300520E+02 0.  0.
         -6    2    1    2    0  502 -0.95673618659E+01 -0.82791615372E+02  0.36483949274E+02  0.19251315568E+03  0.16965921893E+03 0.  0.
        -24    2    5    5    0    0  0.54178243283E+00 -0.93921677897E+02 -0.27416653969E+02  0.12669940191E+03  0.80495281991E+02 0.  0.
          5    1    3    3  501    0 -0.29720719032E+02 -0.24126613440E+02  0.25970688155E+02  0.46497110223E+02  0.47000000000E+01 0. -1.
        -11    1    4    4    0    0  0.13455570443E+02 -0.39019336702E+01  0.15538735088E+02  0.20921992029E+02  0.00000000000E+00 0.  1.
         12    1    4    4    0    0  0.25832510454E+02  0.11082016248E+03 -0.40836338108E+02  0.12089678870E+03  0.00000000000E+00 0. -1.
         -5    1    5    5    0  502 -0.10109144299E+02  0.11130062526E+02  0.63900603243E+02  0.65813753768E+02  0.47000000000E+01 0.  1.
         13    1    6    6    0    0  0.27225506072E+02 -0.64825622256E+02 -0.45003757359E+02  0.83480103366E+02  0.00000000000E+00 0. -1.
        -14    1    6    6    0    0 -0.26683723639E+02 -0.29096055642E+02  0.17587103390E+02  0.43219298546E+02  0.00000000000E+00 0.  1.
</event>
<event>
12    1  0.8494789E-002  0.2037964E+03  0.7818608E-02  0.1146697E+00
         21   -1    0    0  501  502  0.00000000000E+00  0.00000000000E+00  0.10116877413E+03  0.10116877413E+03  0.00000000000E+00 0. -1.
         21   -1    0    0  502  503 -0.00000000000E+00 -0.00000000000E+00 -0.41191749220E+03  0.41191749220E+03  0.00000000000E+00 0. -1.
         -6    2    1    2    0  503 -0.37168679710E+02  0.10213510852E+03 -0.17591277289E+03  0.26921791026E+03  0.17239457182E+03 0.  0.
        -24    2    3    3    0    0 -0.55210319406E+02  0.24037861892E+02 -0.15673442444E+03  0.18666744240E+03  0.81566268000E+02 0.  0.
          6    2    1    2  501    0  0.37168679710E+02 -0.10213510852E+03 -0.13483594518E+03  0.24386835607E+03  0.17169144369E+03 0.  0.
         24    2    5    5    0    0  0.38683597625E+02 -0.48490345055E+02 -0.15612033948E+03  0.18594451759E+03  0.79712413924E+02 0.  0.
          5    1    5    5  501    0 -0.15149179156E+01 -0.53644763467E+02  0.21284394300E+02  0.57923838482E+02  0.47000000000E+01 0. -1.
        -11    1    6    6    0    0  0.10918378171E+02  0.48627551985E+01 -0.10869621975E+03  0.10935138572E+03  0.00000000000E+00 0.  1.
         12    1    6    6    0    0  0.27765219454E+02 -0.53353100253E+02 -0.47424119728E+02  0.76593131872E+02  0.00000000000E+00 0. -1.
         -5    1    3    3    0  503  0.18041639696E+02  0.78097246630E+02 -0.19178348453E+02  0.82550467857E+02  0.47000000000E+01 0.  1.
         11    1    4    4    0    0 -0.40984560534E+02  0.52385438636E+02 -0.12612845083E+03  0.14259156529E+03  0.00000000000E+00 0. -1.
        -12    1    4    4    0    0 -0.14225758871E+02 -0.28347576743E+02 -0.30605973615E+02  0.44075877117E+02  0.00000000000E+00 0.  1.
</event>
<event>
12    1  0.8494789E-002  0.3558824E+03  0.7818608E-02  0.1060325E+00
         21   -1    0    0  503  502  0.00000000000E+00  0.00000000000E+00  0.11973480779E+03  0.11973480779E+03  0.00000000000E+00 0. -1.
         21   -1    0    0  501  503 -0.00000000000E+00 -0.00000000000E+00 -0.12552654113E+04  0.12552654113E+04  0.00000000000E+00 0.  1.
          6    2    1    2  501    0 -0.50307048116E+02 -0.30660350775E+03 -0.29371955181E+03  0.46143631750E+03  0.17353901561E+03 0.  0.
         24    2    3    3    0    0  0.12079861678E+02 -0.23811429943E+03 -0.26213860251E+03  0.36344476415E+03  0.80815264706E+02 0.  0.
         -6    2    1    2    0  502  0.50307048116E+02  0.30660350775E+03 -0.84181105169E+03  0.91356390158E+03  0.17151281432E+03 0.  0.
        -24    2    5    5    0    0 -0.64744475247E+01  0.17968152412E+03 -0.33635409601E+03  0.38931000105E+03  0.78107812910E+02 0.  0.
          5    1    3    3  501    0 -0.62386909794E+02 -0.68489208317E+02 -0.31580949300E+02  0.97991553351E+02  0.47000000000E+01 0. -1.
        -11    1    4    4    0    0  0.41645930318E+02 -0.11429517800E+03 -0.15517245036E+03  0.19717063822E+03  0.00000000000E+00 0.  1.
         12    1    4    4    0    0 -0.29566068640E+02 -0.12381912144E+03 -0.10696615215E+03  0.16627412593E+03  0.00000000000E+00 0. -1.
         -5    1    5    5    0  502  0.56781495641E+02  0.12692198363E+03 -0.50545695568E+03  0.52425390053E+03  0.47000000000E+01 0.  1.
         13    1    6    6    0    0  0.29254065013E+02  0.89876945224E+02 -0.12331044377E+03  0.15536772878E+03  0.00000000000E+00 0. -1.
        -14    1    6    6    0    0 -0.35728512538E+02  0.89804578892E+02 -0.21304365223E+03  0.23394227227E+03  0.00000000000E+00 0.  1.
</event>
<event>
12    1  0.8494789E-002  0.2027622E+03  0.7818608E-02  0.1147585E+00
         21   -1    0    0  501  502  0.00000000000E+00  0.00000000000E+00  0.63125325399E+02  0.63125325399E+02  0.00000000000E+00 0.  1.
         21   -1    0    0  502  503 -0.00000000000E+00 -0.00000000000E+00 -0.82460950545E+03  0.82460950545E+03  0.00000000000E+00 0.  1.
         -6    2    1    2    0  503 -0.89275881460E+02  0.58455104354E+02 -0.58620459344E+03  0.62028083696E+03  0.17241029289E+03 0.  0.
        -24    2    3    3    0    0 -0.94260683161E+02 -0.17544117549E+02 -0.37489145572E+03  0.39561205375E+03  0.82294720646E+02 0.  0.
          6    2    1    2  501    0  0.89275881460E+02 -0.58455104354E+02 -0.17527958661E+03  0.26745399389E+03  0.17152703323E+03 0.  0.
         24    2    5    5    0    0  0.12662325840E+03 -0.57968386450E+02 -0.11432508453E+03  0.19581179415E+03  0.76669748801E+02 0.  0.
          5    1    5    5  501    0 -0.37347376943E+02 -0.48671790399E+00 -0.60954502081E+02  0.71642199735E+02  0.47000000000E+01 0. -1.
        -11    1    6    6    0    0  0.10608703971E+02 -0.37587523888E+02 -0.15370196286E+02  0.41971531850E+02  0.00000000000E+00 0.  1.
         12    1    6    6    0    0  0.11601455443E+03 -0.20380862562E+02 -0.98954888242E+02  0.15384026230E+03  0.00000000000E+00 0. -1.
         -5    1    3    3    0  503  0.49848017012E+01  0.75999221903E+02 -0.21131313772E+03  0.22466878321E+03  0.47000000000E+01 0.  1.
         13    1    4    4    0    0 -0.14074812434E+02  0.10571187940E+02 -0.85947856825E+01  0.19588790173E+02  0.00000000000E+00 0. -1.
        -14    1    4    4    0    0 -0.80185870727E+02 -0.28115305489E+02 -0.36629667004E+03  0.37602326358E+03  0.00000000000E+00 0.  1.
</event>
<event>
12    1  0.8494789E-002  0.1799770E+03  0.7818608E-02  0.1169143E+00
         21   -1    0    0  503  502  0.00000000000E+00  0.00000000000E+00  0.66480247732E+03  0.66480247732E+03  0.00000000000E+00 0. -1.
         21   -1    0    0  501  503 -0.00000000000E+00 -0.00000000000E+00 -0.61340536252E+02  0.61340536252E+02  0.00000000000E+00 0. -1.
          6    2    1    2  501    0  0.16704567160E+02 -0.27806115857E+02  0.12442837911E+03  0.21441566527E+03  0.17157923342E+03 0.  0.
         24    2    3    3    0    0  0.27885304214E+02  0.47716661443E+02  0.58004117530E+02  0.11310934119E+03  0.79842190876E+02 0.  0.
         -6    2    1    2    0  502 -0.16704567160E+02  0.27806115857E+02  0.47903356196E+03  0.51172734830E+03  0.17702966665E+03 0.  0.
        -24    2    5    5    0    0 -0.28199259438E+02  0.25805520807E+02  0.48840395887E+03  0.49604217476E+03  0.77835011159E+02 0.  0.
          5    1    3    3  501    0 -0.11180737053E+02 -0.75522777300E+02  0.66424261577E+02  0.10130632408E+03  0.47000000000E+01 0. -1.
        -13    1    4    4    0    0 -0.16909285339E+02  0.49366239521E+02  0.33723060835E+02  0.62130462474E+02  0.00000000000E+00 0.  1.
         14    1    4    4    0    0  0.44794589553E+02 -0.16495780776E+01  0.24281056694E+02  0.50978878717E+02  0.00000000000E+00 0. -1.
         -5    1    5    5    0  502  0.11494692277E+02  0.20005950501E+01 -0.93703969044E+01  0.15685173549E+02  0.47000000000E+01 0.  1.
         11    1    6    6    0    0 -0.53260576599E+02  0.10812822596E+02  0.37595926387E+03  0.37986704812E+03  0.00000000000E+00 0. -1.
        -12    1    6    6    0    0  0.25061317161E+02  0.14992698211E+02  0.11244469499E+03  0.11617512664E+03  0.00000000000E+00 0.  1.
</event>
<event>
12    1  0.8494789E-002  0.1756511E+03  0.7818608E-02  0.1172436E+00
         21   -1    0    0  501  502  0.00000000000E+00  0.00000000000E+00  0.72215837885E+03  0.72215837885E+03  0.00000000000E+00 0. -1.
         21   -1    0    0  502  503 -0.00000000000E+00 -0.00000000000E+00 -0.65594259287E+02  0.65594259287E+02  0.00000000000E+00 0. -1.
         -6    2    1    2    0  503 -0.25694525462E+02 -0.20377107995E+02  0.93100886210E+02  0.19754580248E+03  0.17111731033E+03 0.  0.
        -24    2    3    3    0    0 -0.36876649136E+02  0.20809916667E+01 -0.12939241523E+02  0.88476994746E+02  0.79350720540E+02 0.  0.
          6    2    1    2  501    0  0.25694525462E+02  0.20377107995E+02  0.56346323335E+03  0.59020683566E+03  0.17256262153E+03 0.  0.
         24    2    5    5    0    0  0.14457506110E+01 -0.49124284288E+02  0.33423487407E+03  0.34940364359E+03  0.89188954518E+02 0.  0.
          5    1    5    5  501    0  0.24248774851E+02  0.69501392283E+02  0.22922835928E+03  0.24080319207E+03  0.47000000000E+01 0. -1.
        -13    1    6    6    0    0 -0.26327593967E+02 -0.40185183934E+01  0.28083969549E+02  0.38704005475E+02  0.00000000000E+00 0.  1.
         14    1    6    6    0    0  0.27773344578E+02 -0.45105765895E+02  0.30615090452E+03  0.31069963811E+03  0.00000000000E+00 0. -1.
         -5    1    3    3    0  503  0.11182123674E+02 -0.22458099661E+02  0.10604012773E+03  0.10906880773E+03  0.47000000000E+01 0.  1.
         11    1    4    4    0    0 -0.13458112300E+02  0.39001539022E+02  0.42957540980E+01  0.41481252826E+02  0.00000000000E+00 0. -1.
        -12    1    4    4    0    0 -0.23418536836E+02 -0.36920547355E+02 -0.17234995621E+02  0.46995741920E+02  0.00000000000E+00 0.  1.
</event>
<event>
12    1  0.8494789E-002  0.2590374E+03  0.7818608E-02  0.1107827E+00
         21   -1    0    0  501  502  0.00000000000E+00  0.00000000000E+00  0.70550281586E+03  0.70550281586E+03  0.00000000000E+00 0.  1.
         21   -1    0    0  502  503 -0.00000000000E+00 -0.00000000000E+00 -0.10523417101E+03  0.10523417101E+03  0.00000000000E+00 0.  1.
         -6    2    1    2    0  503 -0.19235138004E+03 -0.22909789398E+02  0.17320716000E+03  0.31161047899E+03  0.17197807560E+03 0.  0.
        -24    2    3    3    0    0 -0.22325639979E+02 -0.31237940814E+02  0.62091386499E+02  0.10827106936E+03  0.79956494644E+02 0.  0.
          6    2    1    2  501    0  0.19235138004E+03  0.22909789398E+02  0.42706148486E+03  0.49912650788E+03  0.17094398840E+03 0.  0.
         24    2    5    5    0    0  0.14103175517E+03  0.44414043258E+02  0.40655097191E+03  0.43963778650E+03  0.78327053759E+02 0.  0.
          5    1    5    5  501    0  0.51319624864E+02 -0.21504253860E+02  0.20510512943E+02  0.59488721380E+02  0.47000000000E+01 0. -1.
        -13    1    6    6    0    0  0.10341140455E+03  0.20081057533E+02  0.17882745437E+03  0.20754861093E+03  0.00000000000E+00 0.  1.
         14    1    6    6    0    0  0.37620350625E+02  0.24332985725E+02  0.22772351754E+03  0.23208917557E+03  0.00000000000E+00 0. -1.
         -5    1    3    3    0  503 -0.17002574006E+03  0.83281514151E+01  0.11111577350E+03  0.20333940963E+03  0.47000000000E+01 0.  1.
         13    1    4    4    0    0  0.19791394871E+02 -0.24319414680E+02 -0.18316738817E+01  0.31408410824E+02  0.00000000000E+00 0. -1.
        -14    1    4    4    0    0 -0.42117034850E+02 -0.69185261336E+01  0.63923060380E+02  0.76862658533E+02  0.00000000000E+00 0.  1.
</event>
<event>
12    1  0.8494789E-002  0.2227662E+03  0.7818608E-02  0.1132187E+00
         21   -1    0    0  501  502  0.00000000000E+00  0.00000000000E+00  0.22415826639E+04  0.22415826639E+04  0.00000000000E+00 0. -1.
         21   -1    0    0  502  503 -0.00000000000E+00 -0.00000000000E+00 -0.21974714552E+02  0.21974714552E+02  0.00000000000E+00 0.  1.
         -6    2    1    2    0  503  0.67949293210E+02  0.12167317567E+03  0.10671225965E+04  0.10897399939E+04  0.17135095649E+03 0.  0.
        -24    2    3    3    0    0  0.97870745826E+02  0.13413105869E+03  0.96397366383E+03  0.98151668550E+03  0.80993552679E+02 0.  0.
          6    2    1    2  501    0 -0.67949293210E+02 -0.12167317567E+03  0.11524853529E+04  0.11738173845E+04  0.17379095356E+03 0.  0.
         24    2    5    5    0    0  0.34465557432E+01 -0.13032648385E+03  0.72040801939E+03  0.73577040179E+03  0.73304151356E+02 0.  0.
          5    1    5    5  501    0 -0.71395848953E+02  0.86533081771E+01  0.43207733346E+03  0.43804698274E+03  0.47000000000E+01 0. -1.
        -13    1    6    6    0    0 -0.13355583947E+02 -0.16234263330E+02  0.35788693797E+02  0.41506066209E+02  0.00000000000E+00 0.  1.
         14    1    6    6    0    0  0.16802139690E+02 -0.11409222052E+03  0.68461932560E+03  0.69426433558E+03  0.00000000000E+00 0. -1.
         -5    1    3    3    0  503 -0.29921452616E+02 -0.12457883016E+02  0.10314893265E+03  0.10822330841E+03  0.47000000000E+01 0.  1.
         13    1    4    4    0    0  0.51236883268E+02  0.90605008815E+02  0.77743848600E+03  0.78437560221E+03  0.00000000000E+00 0. -1.
        -14    1    4    4    0    0  0.46633862558E+02  0.43526049876E+02  0.18653517783E+03  0.19714108329E+03  0.00000000000E+00 0.  1.
</event>
<event>
12    1  0.8494789E-002  0.1857951E+03  0.7818608E-02  0.1165821E+00
         21   -1    0    0  501  502  0.00000000000E+00  0.00000000000E+00  0.17406671742E+03  0.17406671742E+03  0.00000000000E+00 0. -1.
         21   -1    0    0  502  503 -0.00000000000E+00 -0.00000000000E+00 -0.33584842533E+03  0.33584842533E+03  0.00000000000E+00 0. -1.
         -6    2    1    2    0  503  0.62816137438E+02  0.32275623004E+02 -0.25093692324E+03  0.30383638643E+03  0.15607571019E+03 0.  0.
        -24    2    3    3    0    0  0.47056202045E+02  0.73335803426E+02 -0.13320715357E+03  0.17807191352E+03  0.79831287144E+02 0.  0.
          6    2    1    2  501    0 -0.62816137438E+02 -0.32275623004E+02  0.89155215323E+02  0.20607875633E+03  0.17184940625E+03 0.  0.
         24    2    5    5    0    0  0.27352540075E+02  0.88696584535E+01  0.26850055432E+02  0.88914992566E+02  0.79737808702E+02 0.  0.
          5    1    5    5  501    0 -0.90168677513E+02 -0.41145281458E+02  0.62305159891E+02  0.11716376377E+03  0.47000000000E+01 0. -1.
        -13    1    6    6    0    0 -0.16407675020E+02  0.28416225214E+02 -0.21731625923E+01  0.32884894566E+02  0.00000000000E+00 0.  1.
         14    1    6    6    0    0  0.43760215095E+02 -0.19546566761E+02  0.29023218024E+02  0.56030097999E+02  0.00000000000E+00 0. -1.
         -5    1    3    3    0  503  0.15759935393E+02 -0.41060180422E+02 -0.11772976967E+03  0.12576447291E+03  0.47000000000E+01 0.  1.
         11    1    4    4    0    0  0.22553139782E+01  0.57219191102E+02 -0.11233064259E+03  0.12608447777E+03  0.00000000000E+00 0. -1.
        -12    1    4    4    0    0  0.44800888067E+02  0.16116612324E+02 -0.20876510978E+02  0.51987435742E+02  0.00000000000E+00 0.  1.
</event>
<event>
12    1  0.8494789E-002  0.1788440E+03  0.7818608E-02  0.1169250E+00
         21   -1    0    0  501  502  0.00000000000E+00  0.00000000000E+00  0.35671365188E+03  0.35671365188E+03  0.00000000000E+00 0.  1.
         21   -1    0    0  502  503 -0.00000000000E+00 -0.00000000000E+00 -0.38956129863E+03  0.38956129863E+03  0.00000000000E+00 0.  1.
         -6    2    1    2    0  503 -0.30979301179E+00 -0.50511301203E+02 -0.34415979179E+03  0.38724790353E+03  0.17018662988E+03 0.  0.
        -24    2    3    3    0    0 -0.19623792333E+02  0.32948461116E+02 -0.13048046340E+03  0.15698825037E+03  0.78418525298E+02 0.  0.
          6    2    1    2  501    0  0.30979301179E+00  0.50511301203E+02  0.31131214504E+03  0.35902704698E+03  0.17156247052E+03 0.  0.
         24    2    5    5    0    0  0.55204818606E+02  0.22192168131E+02  0.26109468188E+03  0.27928169765E+03  0.79295456440E+02 0.  0.
          5    1    5    5  501    0 -0.54895025594E+02  0.28319133072E+02  0.50217463156E+02  0.79745349324E+02  0.47000000000E+01 0. -1.
        -13    1    6    6    0    0 -0.86677709767E+01  0.16595944852E+02  0.14878551610E+03  0.14995894584E+03  0.00000000000E+00 0.  1.
         14    1    6    6    0    0  0.63872589582E+02  0.55962232792E+01  0.11230916579E+03  0.12932275181E+03  0.00000000000E+00 0. -1.
         -5    1    3    3    0  503  0.19313999322E+02 -0.83459762318E+02 -0.21367932839E+03  0.23025965316E+03  0.47000000000E+01 0.  1.
         13    1    4    4    0    0  0.24812670351E+02  0.87675248081E+01 -0.84929618161E+02  0.88913318137E+02  0.00000000000E+00 0. -1.
        -14    1    4    4    0    0 -0.44436462684E+02  0.24180936307E+02 -0.45550845240E+02  0.68074932234E+02  0.00000000000E+00 0.  1.
</event>
<event>
12    1  0.8494789E-002  0.2379934E+03  0.7818608E-02  0.1121346E+00
         21   -1    0    0  503  502  0.00000000000E+00  0.00000000000E+00  0.60764499401E+02  0.60764499401E+02  0.00000000000E+00 0. -1.
         21   -1    0    0  501  503 -0.00000000000E+00 -0.00000000000E+00 -0.14575723877E+04  0.14575723877E+04  0.00000000000E+00 0. -1.
          6    2    1    2  501    0 -0.11790406022E+03  0.11143134620E+03 -0.11574620081E+04  0.11816764172E+04  0.17413369087E+03 0.  0.
         24    2    3    3    0    0 -0.52328375669E+02  0.67061533864E+02 -0.98491513437E+03  0.99177285139E+03  0.79498796328E+02 0.  0.
         -6    2    1    2    0  502  0.11790406022E+03 -0.11143134620E+03 -0.23934588017E+03  0.33666046993E+03  0.17243987163E+03 0.  0.
        -24    2    5    5    0    0 -0.33768038379E+01 -0.10804037511E+02 -0.89047500544E+02  0.11883807403E+03  0.77877470776E+02 0.  0.
          5    1    3    3  501    0 -0.65575684555E+02  0.44369812332E+02 -0.17254687375E+03  0.18990356577E+03  0.47000000000E+01 0. -1.
        -11    1    4    4    0    0 -0.15468117348E+02 -0.14682131631E+02 -0.33806389360E+03  0.33873592045E+03  0.00000000000E+00 0.  1.
         12    1    4    4    0    0 -0.36860258321E+02  0.81743665494E+02 -0.64685124077E+03  0.65303693094E+03  0.00000000000E+00 0. -1.
         -5    1    5    5    0  502  0.12128086406E+03 -0.10062730868E+03 -0.15029837963E+03  0.21782239591E+03  0.47000000000E+01 0.  1.
         13    1    6    6    0    0 -0.18282388642E+02 -0.33671935969E+02 -0.17235706405E+02  0.42013266733E+02  0.00000000000E+00 0. -1.
        -14    1    6    6    0    0  0.14905584804E+02  0.22867898457E+02 -0.71811794138E+02  0.76824807293E+02  0.00000000000E+00 0.  1.
</event>
<event>
12    1  0.8494789E-002  0.5270266E+03  0.7818608E-02  0.1007013E+00
         21   -1    0    0  503  502  0.00000000000E+00  0.00000000000E+00  0.15071399964E+04  0.15071399964E+04  0.00000000000E+00 0. -1.
         21   -1    0    0  501  503 -0.00000000000E+00 -0.00000000000E+00 -0.19537425632E+03  0.19537425632E+03  0.00000000000E+00 0.  1.
          6    2    1    2  501    0  0.47154245045E+03 -0.16104512047E+03  0.86214714877E+03  0.10104725333E+04  0.17166601597E+03 0.  0.
         24    2    3    3    0    0  0.38190400911E+03 -0.74136716192E+02  0.71219395492E+03  0.81529012825E+03  0.78299673880E+02 0.  0.
         -6    2    1    2    0  502 -0.47154245045E+03  0.16104512047E+03  0.44961859130E+03  0.69204171940E+03  0.16875144542E+03 0.  0.
        -24    2    5    5    0    0 -0.18079843557E+03  0.11694853556E+03  0.14558629430E+03  0.26903543267E+03  0.69423775958E+02 0.  0.
          5    1    3    3  501    0  0.89638441342E+02 -0.86908404283E+02  0.14995319385E+03  0.19518240506E+03  0.47000000000E+01 0. -1.
        -13    1    4    4    0    0  0.14066886762E+03 -0.75107653325E+01  0.19317062371E+03  0.23907955115E+03  0.00000000000E+00 0.  1.
         14    1    4    4    0    0  0.24123514149E+03 -0.66625950860E+02  0.51902333121E+03  0.57621057710E+03  0.00000000000E+00 0. -1.
         -5    1    5    5    0  502 -0.29074401488E+03  0.44096584917E+02  0.30403229701E+03  0.42300628673E+03  0.47000000000E+01 0.  1.
         13    1    6    6    0    0 -0.18323227561E+03  0.12232862972E+03  0.14118659344E+03  0.26167157782E+03  0.00000000000E+00 0. -1.
        -14    1    6    6    0    0  0.24338400364E+01 -0.53800941613E+01  0.43997008578E+01  0.73638548428E+01  0.00000000000E+00 0.  1.
</event>
<event>
12    1  0.8494789E-002  0.2286862E+03  0.7818608E-02  0.1127711E+00
         21   -1    0    0  503  502  0.00000000000E+00  0.00000000000E+00  0.25433091266E+03  0.25433091266E+03  0.00000000000E+00 0. -1.
         21   -1    0    0  501  503 -0.00000000000E+00 -0.00000000000E+00 -0.29687293757E+03  0.29687293757E+03  0.00000000000E+00 0. -1.
          6    2    1    2  501    0 -0.92767064939E+02  0.11829053587E+03  0.13210071358E+03  0.26409843487E+03  0.17233399421E+03 0.  0.
         24    2    3    3    0    0 -0.12659421748E+03  0.60885230963E+02  0.98403783455E+02  0.18928387492E+03  0.80074799141E+02 0.  0.
         -6    2    1    2    0  502  0.92767064939E+02 -0.11829053587E+03 -0.17464273849E+03  0.28710541536E+03  0.17126311397E+03 0.  0.
        -24    2    5    5    0    0  0.95449514201E+02 -0.19878903308E+02 -0.76090941304E+02  0.14772610668E+03  0.80792268750E+02 0.  0.
          5    1    3    3  501    0  0.33827152545E+02  0.57405304909E+02  0.33696930126E+02  0.74814559952E+02  0.47000000000E+01 0. -1.
        -11    1    4    4    0    0 -0.81242547076E+02  0.53576965553E+02  0.21437671590E+02  0.99651474933E+02  0.00000000000E+00 0.  1.
         12    1    4    4    0    0 -0.45351670408E+02  0.73082654098E+01  0.76966111865E+02  0.89632399989E+02  0.00000000000E+00 0. -1.
         -5    1    5    5    0  502 -0.26824492615E+01 -0.98411632563E+02 -0.98551797186E+02  0.13937930867E+03  0.47000000000E+01 0.  1.
         11    1    6    6    0    0  0.62908947431E+02  0.24492987972E+01 -0.86431394654E+02  0.10692951283E+03  0.00000000000E+00 0. -1.
        -12    1    6    6    0    0  0.32540566770E+02 -0.22328202105E+02  0.10340453350E+02  0.40796593858E+02  0.00000000000E+00 0.  1.
</event>
<event>
12    1  0.8494789E-002  0.2218563E+03  0.7818608E-02  0.1133377E+00
         21   -1    0    0  501  502  0.00000000000E+00  0.00000000000E+00  0.21546398619E+03  0.21546398619E+03  0.00000000000E+00 0. -1.
         21   -1    0    0  502  503 -0.00000000000E+00 -0.00000000000E+00 -0.22405649716E+03  0.22405649716E+03  0.00000000000E+00 0.  1.
         -6    2    1    2    0  503 -0.10224055069E+03 -0.84704236267E+02  0.49321094602E+01  0.22191115427E+03  0.17774222019E+03 0.  0.
        -24    2    3    3    0    0 -0.62598714367E+02  0.23970335413E+02  0.15786641883E+02  0.10562896048E+03  0.80094214590E+02 0.  0.
          6    2    1    2  501    0  0.10224055069E+03  0.84704236267E+02 -0.13524620432E+02  0.21760932908E+03  0.17188067633E+03 0.  0.
         24    2    5    5    0    0  0.57357869068E+01  0.25500370133E+02 -0.52304141173E+02  0.97842019567E+02  0.78448514841E+02 0.  0.
          5    1    5    5  501    0  0.96504763786E+02  0.59203866134E+02  0.38779520741E+02  0.11976730951E+03  0.47000000000E+01 0. -1.
        -13    1    6    6    0    0  0.84491937110E+01  0.53396438213E+02 -0.39907998839E+02  0.67195363378E+02  0.00000000000E+00 0.  1.
         14    1    6    6    0    0 -0.27134068042E+01 -0.27896068080E+02 -0.12396142334E+02  0.30646656189E+02  0.00000000000E+00 0. -1.
         -5    1    3    3    0  503 -0.39641836325E+02 -0.10867457168E+03 -0.10854532422E+02  0.11628219378E+03  0.47000000000E+01 0.  1.
         13    1    4    4    0    0 -0.35257676015E+02  0.38453100529E+02  0.40488010038E+02  0.66038046724E+02  0.00000000000E+00 0. -1.
        -14    1    4    4    0    0 -0.27341038353E+02 -0.14482765117E+02 -0.24701368156E+02  0.39590913761E+02  0.00000000000E+00 0.  1.
</event>
<event>
12    1  0.8494789E-002  0.1800449E+03  0.7818608E-02  0.1168960E+00
         21   -1    0    0  503  502  0.00000000000E+00  0.00000000000E+00  0.33736647526E+03  0.33736647526E+03  0.00000000000E+00 0. -1.
         21   -1    0    0  501  503 -0.00000000000E+00 -0.00000000000E+00 -0.11869561279E+03  0.11869561279E+03  0.00000000000E+00 0. -1.
          6    2    1    2  501    0  0.20104672771E+01  0.43222163209E+02  0.30840128606E+01  0.17518161553E+03  0.16972592587E+03 0.  0.
         24    2    3    3    0    0 -0.57354708103E+02  0.39018546677E+00 -0.16032454896E+02  0.99377052971E+02  0.79555290591E+02 0.  0.
         -6    2    1    2    0  502 -0.20104672771E+01 -0.43222163209E+02  0.21558684961E+03  0.28088047252E+03  0.17476828301E+03 0.  0.
        -24    2    5    5    0    0  0.54684634312E+02 -0.67579865542E+02  0.13375177663E+03  0.17828075821E+03  0.79605549673E+02 0.  0.
          5    1    3    3  501    0  0.59365175380E+02  0.42831977742E+02  0.19116467756E+02  0.75804562558E+02  0.47000000000E+01 0. -1.
        -11    1    4    4    0    0 -0.57496781913E+02  0.16151731512E+02 -0.39140275901E+02  0.71405318840E+02  0.00000000000E+00 0.  1.
         12    1    4    4    0    0  0.14207380981E+00 -0.15761546045E+02  0.23107821005E+02  0.27971734131E+02  0.00000000000E+00 0. -1.
         -5    1    5    5    0  502 -0.56695101589E+02  0.24357702334E+02  0.81835072982E+02  0.10259971431E+03  0.47000000000E+01 0.  1.
         11    1    6    6    0    0 -0.44218675533E+01 -0.46279575147E+02  0.25257991021E+02  0.52908582469E+02  0.00000000000E+00 0. -1.
        -12    1    6    6    0    0  0.59106501865E+02 -0.21300290396E+02  0.10849378561E+03  0.12537217574E+03  0.00000000000E+00 0.  1.
</event>
<event>
12    1  0.8494789E-002  0.2550255E+03  0.7818608E-02  0.1110333E+00
         21   -1    0    0  501  502  0.00000000000E+00  0.00000000000E+00  0.10103146416E+03  0.10103146416E+03  0.00000000000E+00 0.  1.
         21   -1    0    0  502  503 -0.00000000000E+00 -0.00000000000E+00 -0.67984929487E+03  0.67984929487E+03  0.00000000000E+00 0. -1.
         -6    2    1    2    0  503 -0.18419031922E+03 -0.38216747219E+02 -0.19558347215E+03  0.32054764235E+03  0.17062034748E+03 0.  0.
        -24    2    3    3    0    0 -0.58476115068E+02 -0.51537400500E+02 -0.14872744183E+03  0.18564368204E+03  0.79171743972E+02 0.  0.
          6    2    1    2  501    0  0.18419031922E+03  0.38216747219E+02 -0.38323435856E+03  0.46033311668E+03  0.17219585148E+03 0.  0.
         24    2    5    5    0    0  0.20719305572E+03  0.16872260236E+02 -0.34475828991E+03  0.41046117197E+03  0.80040363095E+02 0.  0.
          5    1    5    5  501    0 -0.23002736498E+02  0.21344486982E+02 -0.38476068651E+02  0.49871944716E+02  0.47000000000E+01 0. -1.
        -11    1    6    6    0    0  0.93253796080E+02  0.47509417775E+02 -0.15561214516E+03  0.18753281042E+03  0.00000000000E+00 0.  1.
         12    1    6    6    0    0  0.11393925964E+03 -0.30637157539E+02 -0.18914614475E+03  0.22292836155E+03  0.00000000000E+00 0. -1.
         -5    1    3    3    0  503 -0.12571420416E+03  0.13320653281E+02 -0.46856030323E+02  0.13490396031E+03  0.47000000000E+01 0.  1.
         13    1    4    4    0    0 -0.76884537513E+02 -0.39179236522E+02 -0.99838525265E+02  0.13196202412E+03  0.00000000000E+00 0. -1.
        -14    1    4    4    0    0  0.18408422445E+02 -0.12358163978E+02 -0.48888916564E+02  0.53681657916E+02  0.00000000000E+00 0.  1.
</event>
<event>
12    1  0.8494789E-002  0.2182020E+03  0.7818608E-02  0.1136149E+00
         21   -1    0    0  501  502  0.00000000000E+00  0.00000000000E+00  0.35827969375E+02  0.35827969375E+02  0.00000000000E+00 0. -1.
         21   -1    0    0  502  503 -0.00000000000E+00 -0.00000000000E+00 -0.16885392810E+04  0.16885392810E+04  0.00000000000E+00 0.  1.
         -6    2    1    2    0  503  0.12167995388E+03 -0.34125548197E+02 -0.12471560658E+04  0.12661004591E+04  0.17788073501E+03 0.  0.
        -24    2    3    3    0    0  0.45973981668E+02 -0.17044838032E+02 -0.10507295970E+04  0.10548456544E+04  0.79136180102E+02 0.  0.
          6    2    1    2  501    0 -0.12167995388E+03  0.34125548197E+02 -0.40555524581E+03  0.45826679125E+03  0.17193844928E+03 0.  0.
         24    2    5    5    0    0 -0.15602221638E+03  0.25159024854E+02 -0.35388224424E+03  0.39540202666E+03  0.78321206374E+02 0.  0.
          5    1    5    5  501    0  0.34342262501E+02  0.89665233430E+01 -0.51673001574E+02  0.62864764584E+02  0.47000000000E+01 0. -1.
        -11    1    6    6    0    0 -0.53021803308E+02 -0.24052359833E+02 -0.16183936863E+03  0.17199363034E+03  0.00000000000E+00 0.  1.
         12    1    6    6    0    0 -0.10300041307E+03  0.49211384687E+02 -0.19204287561E+03  0.22340839632E+03  0.00000000000E+00 0. -1.
         -5    1    3    3    0  503  0.75705972213E+02 -0.17080710165E+02 -0.19642646879E+03  0.21125480475E+03  0.47000000000E+01 0.  1.
         13    1    4    4    0    0  0.50172662753E+01  0.85856316438E+01 -0.15042929892E+02  0.18032630738E+02  0.00000000000E+00 0. -1.
        -14    1    4    4    0    0  0.40956715393E+02 -0.25630469676E+02 -0.10356866671E+04  0.10368130236E+04  0.00000000000E+00 0.  1.
</event>
<event>
12    1  0.8494789E-002  0.1943072E+03  0.7818608E-02  0.1155027E+00
         21   -1    0    0  503  502  0.00000000000E+00  0.00000000000E+00  0.47381482147E+03  0.47381482147E+03  0.00000000000E+00 0.  1.
         21   -1    0    0  501  503 -0.00000000000E+00 -0.00000000000E+00 -0.79865337476E+02  0.79865337476E+02  0.00000000000E+00 0.  1.
          6    2    1    2  501    0 -0.90174153858E+02  0.28501772207E+01  0.16826510647E+03  0.25703783018E+03  0.17209241283E+03 0.  0.
         24    2    3    3    0    0 -0.11603420159E+03  0.31346753175E+02  0.16305099064E+03  0.21792167094E+03  0.80359655573E+02 0.  0.
         -6    2    1    2    0  502  0.90174153858E+02 -0.28501772207E+01  0.22568437753E+03  0.29664232877E+03  0.17006978398E+03 0.  0.
        -24    2    5    5    0    0  0.17601663251E+02  0.10131771913E+02  0.20243389018E+03  0.21919575003E+03  0.81577114369E+02 0.  0.
          5    1    3    3  501    0  0.25860047727E+02 -0.28496575954E+02  0.52141158233E+01  0.39116159236E+02  0.47000000000E+01 0. -1.
        -13    1    4    4    0    0 -0.53012781921E+02  0.28201066679E+02  0.22980333808E+02  0.64294252859E+02  0.00000000000E+00 0.  1.
         14    1    4    4    0    0 -0.63021419664E+02  0.31456864956E+01  0.14007065684E+03  0.15362741808E+03  0.00000000000E+00 0. -1.
         -5    1    5    5    0  502  0.72572490607E+02 -0.12981949133E+02  0.23250487354E+02  0.77446578740E+02  0.47000000000E+01 0.  1.
         13    1    6    6    0    0  0.63508733072E+01 -0.35958720941E+02  0.93586832897E+02  0.10045824254E+03  0.00000000000E+00 0. -1.
        -14    1    6    6    0    0  0.11250789943E+02  0.46090492854E+02  0.10884705728E+03  0.11873750749E+03  0.00000000000E+00 0.  1.
</event>
<event>
12    1  0.8494789E-002  0.1949774E+03  0.7818608E-02  0.1154421E+00
         21   -1    0    0  503  502  0.00000000000E+00  0.00000000000E+00  0.38441861778E+03  0.38441861778E+03  0.00000000000E+00 0.  1.
         21   -1    0    0  501  503 -0.00000000000E+00 -0.00000000000E+00 -0.10709804245E+03  0.10709804245E+03  0.00000000000E+00 0.  1.
          6    2    1    2  501    0 -0.16937864348E+02  0.86877535546E+02  0.66586612177E+02  0.20441915284E+03  0.17181040625E+03 0.  0.
         24    2    3    3    0    0 -0.56757591371E+02  0.39118272730E+02 -0.11193452920E+02  0.10472769698E+03  0.78044434054E+02 0.  0.
         -6    2    1    2    0  502  0.16937864348E+02 -0.86877535546E+02  0.21073396315E+03  0.28709750739E+03  0.17372846081E+03 0.  0.
        -24    2    5    5    0    0 -0.28127293130E+02 -0.11447569855E+03  0.14286784538E+03  0.20095560725E+03  0.77949372422E+02 0.  0.
          5    1    3    3  501    0  0.39819727023E+02  0.47759262816E+02  0.77780065097E+02  0.99691455860E+02  0.47000000000E+01 0. -1.
        -13    1    4    4    0    0 -0.49722672025E+02  0.46292800606E+02  0.20915515885E+02  0.71083235056E+02  0.00000000000E+00 0.  1.
         14    1    4    4    0    0 -0.70349193461E+01 -0.71745278764E+01 -0.32108968805E+02  0.33644461924E+02  0.00000000000E+00 0. -1.
         -5    1    5    5    0  502  0.45065157478E+02  0.27598163009E+02  0.67866117766E+02  0.86141900145E+02  0.47000000000E+01 0.  1.
         11    1    6    6    0    0 -0.33121797968E+02 -0.34323719724E+02  0.97933460631E+02  0.10893178575E+03  0.00000000000E+00 0. -1.
        -12    1    6    6    0    0  0.49945048377E+01 -0.80151978831E+02  0.44934384751E+02  0.92023821492E+02  0.00000000000E+00 0.  1.
</event>
<event>
12    1  0.8494789E-002  0.1865783E+03  0.7818608E-02  0.1162310E+00
         21   -1    0    0  503  502  0.00000000000E+00  0.00000000000E+00  0.11216276939E+04  0.11216276939E+04  0.00000000000E+00 0. -1.
         21   -1    0    0  501  503 -0.00000000000E+00 -0.00000000000E+00 -0.32526854310E+02  0.32526854310E+02  0.00000000000E+00 0.  1.
          6    2    1    2  501    0  0.57828079114E+02  0.43304616886E+02  0.40553661516E+03  0.44639826976E+03  0.17202352291E+03 0.  0.
         24    2    3    3    0    0  0.93990307332E+02  0.50936611321E+02  0.37567882618E+03  0.39865382871E+03  0.79759503882E+02 0.  0.
         -6    2    1    2    0  502 -0.57828079114E+02 -0.43304616886E+02  0.68356422444E+03  0.70775627846E+03  0.16864022114E+03 0.  0.
        -24    2    5    5    0    0  0.22239760043E+02 -0.59093866184E+02  0.41139993055E+03  0.42358088873E+03  0.78639522446E+02 0.  0.
          5    1    3    3  501    0 -0.36162228218E+02 -0.76319944355E+01  0.29857788985E+02  0.47744441056E+02  0.47000000000E+01 0. -1.
        -13    1    4    4    0    0  0.40012676883E+02 -0.10207618979E+02  0.61619612023E+02  0.74176723994E+02  0.00000000000E+00 0.  1.
         14    1    4    4    0    0  0.53977630449E+02  0.61144230300E+02  0.31405921415E+03  0.32447710471E+03  0.00000000000E+00 0. -1.
         -5    1    5    5    0  502 -0.80067839156E+02  0.15789249298E+02  0.27216429389E+03  0.28417538973E+03  0.47000000000E+01 0.  1.
         11    1    6    6    0    0 -0.27723851525E+02 -0.36448618780E+02  0.20055034554E+03  0.20571231088E+03  0.00000000000E+00 0. -1.
        -12    1    6    6    0    0  0.49963611568E+02 -0.22645247404E+02  0.21084958502E+03  0.21786857785E+03  0.00000000000E+00 0.  1.
</event>
<event>
12    1  0.8494789E-002  0.1731164E+03  0.7818608E-02  0.1174895E+00
         21   -1    0    0  503  502  0.00000000000E+00  0.00000000000E+00  0.18140426434E+04  0.18140426434E+04  0.00000000000E+00 0. -1.
         21   -1    0    0  501  503 -0.00000000000E+00 -0.00000000000E+00 -0.13513627547E+03  0.13513627547E+03  0.00000000000E+00 0. -1.
          6    2    1    2  501    0 -0.36574456986E+01 -0.12456366975E+02 -0.74292580824E+02  0.18745367002E+03  0.17161279921E+03 0.  0.
         24    2    3    3    0    0  0.28154540289E+02  0.49990309400E+02 -0.61309135185E+02  0.11602363640E+03  0.80068501752E+02 0.  0.
         -6    2    1    2    0  502  0.36574456986E+01  0.12456366975E+02  0.17531989487E+04  0.17617252488E+04  0.17262896791E+03 0.  0.
        -24    2    5    5    0    0 -0.72703710885E+01 -0.26197849166E+02  0.59767702742E+03  0.60549578794E+03  0.93102816891E+02 0.  0.
          5    1    3    3  501    0 -0.31811985988E+02 -0.62446676375E+02 -0.12983445639E+02  0.71430033623E+02  0.47000000000E+01 0. -1.
        -13    1    4    4    0    0  0.14279841564E+02 -0.18979066386E+02 -0.16956205552E+01  0.23811635077E+02  0.00000000000E+00 0.  1.
         14    1    4    4    0    0  0.13874698725E+02  0.68969375785E+02 -0.59613514630E+02  0.92212001320E+02  0.00000000000E+00 0. -1.
         -5    1    5    5    0  502  0.10927816787E+02  0.38654216141E+02  0.11555219213E+04  0.11562294609E+04  0.47000000000E+01 0.  1.
         13    1    6    6    0    0 -0.76126551694E+00 -0.51687476668E+02  0.53540645292E+03  0.53789612807E+03  0.00000000000E+00 0. -1.
        -14    1    6    6    0    0 -0.65091055716E+01  0.25489627503E+02  0.62270574499E+02  0.67599659866E+02  0.00000000000E+00 0.  1.
</event>
<event>
12    1  0.8494789E-002  0.2156857E+03  0.7818608E-02  0.1137262E+00
         21   -1    0    0  501  502  0.00000000000E+00  0.00000000000E+00  0.42504454612E+03  0.42504454612E+03  0.00000000000E+00 0. -1.
         21   -1    0    0  502  503 -0.00000000000E+00 -0.00000000000E+00 -0.11032275449E+03  0.11032275449E+03  0.00000000000E+00 0.  1.
         -6    2    1    2    0  503  0.12476428224E+03  0.37141348007E+02  0.12973114588E+03  0.25169527021E+03  0.17197305888E+03 0.  0.
        -24    2    3    3    0    0  0.13593671385E+03 -0.95944090361E+01  0.12804213150E+03  0.20338381211E+03  0.79995904464E+02 0.  0.
          6    2    1    2  501    0 -0.12476428224E+03 -0.37141348007E+02  0.18499064575E+03  0.28367203040E+03  0.17118024407E+03 0.  0.
         24    2    5    5    0    0  0.35856994800E+01 -0.35275410265E+02  0.54089652752E+02  0.10027530333E+03  0.76630503804E+02 0.  0.
          5    1    5    5  501    0 -0.12834998172E+03 -0.18659377428E+01  0.13090099300E+03  0.18339672707E+03  0.47000000000E+01 0. -1.
        -13    1    6    6    0    0 -0.43810125209E+01 -0.25511927788E+02 -0.15086424487E+02  0.29960840008E+02  0.00000000000E+00 0.  1.
         14    1    6    6    0    0  0.79667120009E+01 -0.97634824764E+01  0.69176077239E+02  0.70314463323E+02  0.00000000000E+00 0. -1.
         -5    1    3    3    0  503 -0.11172431609E+02  0.46735757043E+02  0.16890143822E+01  0.48311458103E+02  0.47000000000E+01 0.  1.
         11    1    4    4    0    0  0.28695856603E+02 -0.26602608427E+02  0.70170048105E+02  0.80342931315E+02  0.00000000000E+00 0. -1.
        -12    1    4    4    0    0  0.10724085725E+03  0.17008199391E+02  0.57872083395E+02  0.12304088079E+03  0.00000000000E+00 0.  1.
</event>
<event>
12    1  0.8494789E-002  0.2077407E+03  0.7818608E-02  0.1143786E+00
         21   -1    0    0  501  502  0.00000000000E+00  0.00000000000E+00  0.44390431062E+03  0.44390431062E+03  0.00000000000E+00 0.  1.
         21   -1    0    0  502  503 -0.00000000000E+00 -0.00000000000E+00 -0.76698035727E+03  0.76698035727E+03  0.00000000000E+00 0. -1.
         -6    2    1    2    0  503 -0.28152815975E+02  0.11096857708E+03 -0.72781831458E+03  0.75688552397E+03  0.17334817914E+03 0.  0.
        -24    2    3    3    0    0  0.48581583631E+02  0.46359150453E+02 -0.30204397613E+03  0.31942875653E+03  0.79339938785E+02 0.  0.
          6    2    1    2  501    0  0.28152815975E+02 -0.11096857708E+03  0.40474226793E+03  0.45399914392E+03  0.17085758128E+03 0.  0.
         24    2    5    5    0    0  0.72700811873E+02 -0.10577306765E+03  0.36162171442E+03  0.39160531897E+03  0.78173599228E+02 0.  0.
          5    1    5    5  501    0 -0.44547995898E+02 -0.51955094297E+01  0.43120553509E+02  0.62393824948E+02  0.47000000000E+01 0. -1.
        -13    1    6    6    0    0 -0.12411721678E+02 -0.41989322572E+02  0.11315466498E+03  0.12133067317E+03  0.00000000000E+00 0.  1.
         14    1    6    6    0    0  0.85112533551E+02 -0.63783745078E+02  0.24846704944E+03  0.27027464580E+03  0.00000000000E+00 0. -1.
         -5    1    3    3    0  503 -0.76734399606E+02  0.64609426627E+02 -0.42577433845E+03  0.43745676744E+03  0.47000000000E+01 0.  1.
         13    1    4    4    0    0  0.44103752947E+01  0.47363540381E+02 -0.80349893090E+02  0.93374845046E+02  0.00000000000E+00 0. -1.
        -14    1    4    4    0    0  0.44171208337E+02 -0.10043899277E+01 -0.22169408304E+03  0.22605391149E+03  0.00000000000E+00 0.  1.
</event>
<event>
12    1  0.8494789E-002  0.2744911E+03  0.7818608E-02  0.1098959E+00
         21   -1    0    0  503  502  0.00000000000E+00  0.00000000000E+00  0.17559197511E+04  0.17559197511E+04  0.00000000000E+00 0. -1.
         21   -1    0    0  501  503 -0.00000000000E+00 -0.00000000000E+00 -0.43587978561E+02  0.43587978561E+02  0.00000000000E+00 0. -1.
          6    2    1    2  501    0  0.12413231568E+03 -0.17266826520E+03  0.98977264647E+03  0.10271296268E+04  0.17355753181E+03 0.  0.
         24    2    3    3    0    0  0.11761574789E+01 -0.40505757805E+02  0.23548051137E+03  0.25152414697E+03  0.78557148051E+02 0.  0.
         -6    2    1    2    0  502 -0.12413231568E+03  0.17266826520E+03  0.72255912606E+03  0.77237810290E+03  0.17103532264E+03 0.  0.
        -24    2    5    5    0    0 -0.52978352998E+02  0.15338951840E+03  0.36586592073E+03  0.40811626135E+03  0.79786970017E+02 0.  0.
          5    1    3    3  501    0  0.12295615820E+03 -0.13216250739E+03  0.75429213510E+03  0.77560547978E+03  0.47000000000E+01 0. -1.
        -13    1    4    4    0    0 -0.25123051588E+02 -0.27795795814E+02  0.43834120894E+02  0.57664583070E+02  0.00000000000E+00 0.  1.
         14    1    4    4    0    0  0.26299209067E+02 -0.12709961991E+02  0.19164639048E+03  0.19385956390E+03  0.00000000000E+00 0. -1.
         -5    1    5    5    0  502 -0.71153962678E+02  0.19278746795E+02  0.35669320533E+03  0.36426184156E+03  0.47000000000E+01 0.  1.
         11    1    6    6    0    0 -0.48922416332E+02  0.12993945983E+03  0.35642580829E+03  0.38251408191E+03  0.00000000000E+00 0. -1.
        -12    1    6    6    0    0 -0.40559366662E+01  0.23450058571E+02  0.94401124333E+01  0.25602179438E+02  0.00000000000E+00 0.  1.
</event>
<event>
12    1  0.8494789E-002  0.3503494E+03  0.7818608E-02  0.1062637E+00
         21   -1    0    0  501  502  0.00000000000E+00  0.00000000000E+00  0.84431310766E+03  0.84431310766E+03  0.00000000000E+00 0. -1.
         21   -1    0    0  502  503 -0.00000000000E+00 -0.00000000000E+00 -0.30643860125E+03  0.30643860125E+03  0.00000000000E+00 0.  1.
         -6    2    1    2    0  503  0.29597918732E+03  0.78362311822E+02 -0.14935054468E+03  0.37937440865E+03  0.16695815493E+03 0.  0.
        -24    2    3    3    0    0  0.23737033032E+03  0.10741770827E+03 -0.80433263876E+02  0.28423821272E+03  0.80240973750E+02 0.  0.
          6    2    1    2  501    0 -0.29597918732E+03 -0.78362311822E+02  0.68722505109E+03  0.77137730026E+03  0.17029485391E+03 0.  0.
         24    2    5    5    0    0 -0.22116371035E+03 -0.10770522581E+03  0.43273494212E+03  0.50445845911E+03  0.81884091227E+02 0.  0.
          5    1    5    5  501    0 -0.74815476975E+02  0.29342913992E+02  0.25449010897E+03  0.26691884115E+03  0.47000000000E+01 0. -1.
        -13    1    6    6    0    0 -0.44397942561E+02 -0.19218544844E+01  0.35095315973E+02  0.56626425205E+02  0.00000000000E+00 0.  1.
         14    1    6    6    0    0 -0.17676576779E+03 -0.10578337133E+03  0.39763962615E+03  0.44783203391E+03  0.00000000000E+00 0. -1.
         -5    1    3    3    0  503  0.58608857006E+02 -0.29055396447E+02 -0.68917280803E+02  0.95136195928E+02  0.47000000000E+01 0.  1.
         11    1    4    4    0    0  0.16638515780E+01  0.21195872556E+02 -0.23485257817E+01  0.21390394779E+02  0.00000000000E+00 0. -1.
        -12    1    4    4    0    0  0.23570647874E+03  0.86221835714E+02 -0.78084738095E+02  0.26284781794E+03  0.00000000000E+00 0.  1.
</event>
<event>
12    1  0.8494789E-002  0.2028557E+03  0.7818608E-02  0.1147483E+00
         21   -1    0    0  503  502  0.00000000000E+00  0.00000000000E+00  0.96573332139E+02  0.96573332139E+02  0.00000000000E+00 0.  1.
         21   -1    0    0  501  503 -0.00000000000E+00 -0.00000000000E+00 -0.54922940365E+03  0.54922940365E+03  0.00000000000E+00 0. -1.
          6    2    1    2  501    0 -0.84937992324E+02 -0.64910059653E+02 -0.72345524773E+02  0.21477311344E+03  0.17165615898E+03 0.  0.
         24    2    3    3    0    0 -0.10962981001E+03 -0.16402316376E+02 -0.18659048047E+02  0.13817667226E+03  0.80354847117E+02 0.  0.
         -6    2    1    2    0  502  0.84937992324E+02  0.64910059653E+02 -0.38031054674E+03  0.43102962235E+03  0.17240256668E+03 0.  0.
        -24    2    5    5    0    0  0.66305766409E+02  0.21861234325E+02 -0.88957233309E+02  0.13588693745E+03  0.75349201629E+02 0.  0.
          5    1    3    3  501    0  0.24691817691E+02 -0.48507743277E+02 -0.53686476726E+02  0.76596441184E+02  0.47000000000E+01 0. -1.
        -11    1    4    4    0    0  0.83443292988E+01 -0.13510533558E+02  0.70901288306E+01  0.17390580074E+02  0.00000000000E+00 0.  1.
         12    1    4    4    0    0 -0.11797413931E+03 -0.28917828185E+01 -0.25749176878E+02  0.12078609218E+03  0.00000000000E+00 0. -1.
         -5    1    5    5    0  502  0.18632225915E+02  0.43048825329E+02 -0.29135331343E+03  0.29514268490E+03  0.47000000000E+01 0.  1.
         11    1    6    6    0    0  0.57671665764E+02  0.30102148870E+02 -0.10021552242E+03  0.11947933433E+03  0.00000000000E+00 0. -1.
        -12    1    6    6    0    0  0.86341006448E+01 -0.82409145455E+01  0.11258289108E+02  0.16407603120E+02  0.00000000000E+00 0.  1.
</event>
<event>
12    1  0.8494789E-002  0.4025322E+03  0.7818608E-02  0.1042917E+00
         21   -1    0    0  501  502  0.00000000000E+00  0.00000000000E+00  0.13813742721E+04  0.13813742721E+04  0.00000000000E+00 0. -1.
         21   -1    0    0  502  503 -0.00000000000E+00 -0.00000000000E+00 -0.15559648202E+03  0.15559648202E+03  0.00000000000E+00 0.  1.
         -6    2    1    2    0  503 -0.12472130164E+01 -0.36402211428E+03  0.23136728224E+03  0.46417793932E+03  0.17151292908E+03 0.  0.
        -24    2    3    3    0    0  0.41107761824E+02 -0.26776117248E+03  0.22097310699E+03  0.35839400061E+03  0.78938280284E+02 0.  0.
          6    2    1    2  501    0  0.12472130164E+01  0.36402211428E+03  0.99441050781E+03  0.10727928148E+04  0.17180951701E+03 0.  0.
         24    2    5    5    0    0 -0.16114123820E+02  0.34507191551E+03  0.77828768280E+03  0.85509648603E+03  0.78255935057E+02 0.  0.
          5    1    5    5  501    0  0.17361336837E+02  0.18950198768E+02  0.21612282501E+03  0.21769632873E+03  0.47000000000E+01 0. -1.
        -13    1    6    6    0    0  0.82292339725E+01  0.12755427867E+02  0.11512071396E+02  0.19051220950E+02  0.00000000000E+00 0.  1.
         14    1    6    6    0    0 -0.24343357793E+02  0.33231648764E+03  0.76677561140E+03  0.83604526508E+03  0.00000000000E+00 0. -1.
         -5    1    3    3    0  503 -0.42354974840E+02 -0.96260941799E+02  0.10394175245E+02  0.10578393871E+03  0.47000000000E+01 0.  1.
         13    1    4    4    0    0 -0.22417600239E+02 -0.10663810608E+03  0.86039810883E+02  0.13884193720E+03  0.00000000000E+00 0. -1.
        -14    1    4    4    0    0  0.63525362063E+02 -0.16112306639E+03  0.13493329611E+03  0.21955206341E+03  0.00000000000E+00 0.  1.
</event>
<event>
12    1  0.8494789E-002  0.1936007E+03  0.7818608E-02  0.1156046E+00
         21   -1    0    0  501  502  0.00000000000E+00  0.00000000000E+00  0.61106495219E+03  0.61106495219E+03  0.00000000000E+00 0. -1.
         21   -1    0    0  502  503 -0.00000000000E+00 -0.00000000000E+00 -0.18710663795E+03  0.18710663795E+03  0.00000000000E+00 0. -1.
         -6    2    1    2    0  503  0.76598822549E+02  0.29478172852E+02 -0.11730675210E+03  0.22332455133E+03  0.17139614595E+03 0.  0.
        -24    2    3    3    0    0  0.66712458742E+02  0.83717677581E+02 -0.81547059715E+02  0.15744200689E+03  0.81724298063E+02 0.  0.
          6    2    1    2  501    0 -0.76598822549E+02 -0.29478172852E+02  0.54126506634E+03  0.57484703881E+03  0.17534224731E+03 0.  0.
         24    2    5    5    0    0 -0.46631811213E+02 -0.69203440640E+02  0.20705989892E+03  0.23692500253E+03  0.79347420060E+02 0.  0.
          5    1    5    5  501    0 -0.29967011336E+02  0.39725267788E+02  0.33420516742E+03  0.33792203628E+03  0.47000000000E+01 0. -1.
        -13    1    6    6    0    0  0.10641014434E+02  0.11825949561E+02  0.29960735664E+02  0.33922410774E+02  0.00000000000E+00 0.  1.
         14    1    6    6    0    0 -0.57272825647E+02 -0.81029390201E+02  0.17709916326E+03  0.20300259176E+03  0.00000000000E+00 0. -1.
         -5    1    3    3    0  503  0.98863638068E+01 -0.54239504729E+02 -0.35759692384E+02  0.65882544441E+02  0.47000000000E+01 0.  1.
         11    1    4    4    0    0  0.48643640089E+02  0.41739206252E+01 -0.50282862250E+02  0.70085601735E+02  0.00000000000E+00 0. -1.
        -12    1    4    4    0    0  0.18068818653E+02  0.79543756956E+02 -0.31264197465E+02  0.87356405153E+02  0.00000000000E+00 0.  1.
</event>
<event>
12    1  0.8494789E-002  0.2156307E+03  0.7818608E-02  0.1137233E+00
         21   -1    0    0  503  502  0.00000000000E+00  0.00000000000E+00  0.34256982835E+03  0.34256982835E+03  0.00000000000E+00 0.  1.
         21   -1    0    0  501  503 -0.00000000000E+00 -0.00000000000E+00 -0.13566020676E+03  0.13566020676E+03  0.00000000000E+00 0.  1.
          6    2    1    2  501    0  0.12895695406E+03  0.94628487326E+01  0.10971860460E+03  0.24170795882E+03  0.17223566313E+03 0.  0.
         24    2    3    3    0    0  0.11343910801E+03  0.65035133310E+02  0.10080604284E+03  0.18313658256E+03  0.79241086624E+02 0.  0.
         -6    2    1    2    0  502 -0.12895695406E+03 -0.94628487326E+01  0.97191016985E+02  0.23652207629E+03  0.17256059018E+03 0.  0.
        -24    2    5    5    0    0  0.58631720040E+01  0.38860898275E+01  0.25977169825E+02  0.83394147484E+02  0.78932198768E+02 0.  0.
          5    1    3    3  501    0  0.15517846054E+02 -0.55572284577E+02  0.89125617665E+01  0.58571376256E+02  0.47000000000E+01 0. -1.
        -13    1    4    4    0    0  0.84352689512E+02  0.45301559895E+01  0.67857175541E+02  0.10835356392E+03  0.00000000000E+00 0.  1.
         14    1    4    4    0    0  0.29086418498E+02  0.60504977320E+02  0.32948867297E+02  0.74783018645E+02  0.00000000000E+00 0. -1.
         -5    1    5    5    0  502 -0.13482012607E+03 -0.13348938560E+02  0.71213847160E+02  0.15312792881E+03  0.47000000000E+01 0.  1.
         11    1    6    6    0    0 -0.24531360176E+02 -0.20146983512E+02 -0.70070275477E+01  0.32508260670E+02  0.00000000000E+00 0. -1.
        -12    1    6    6    0    0  0.30394532180E+02  0.24033073340E+02  0.32984197373E+02  0.50885886814E+02  0.00000000000E+00 0.  1.
</event>
<event>
12    1  0.8494789E-002  0.1893705E+03  0.7818608E-02  0.1161703E+00
         21   -1    0    0  501  502  0.00000000000E+00  0.00000000000E+00  0.47224444025E+02  0.47224444025E+02  0.00000000000E+00 0.  1.
         21   -1    0    0  502  503 -0.00000000000E+00 -0.00000000000E+00 -0.79116297764E+03  0.79116297764E+03  0.00000000000E+00 0.  1.
         -6    2    1    2    0  503 -0.42756059319E+02 -0.64219882673E+01 -0.51301690200E+03  0.54685236872E+03  0.18436878503E+03 0.  0.
        -24    2    3    3    0    0 -0.30185125316E+02 -0.18168172668E+02 -0.52033415767E+03  0.52757457164E+03  0.79662216370E+02 0.  0.
          6    2    1    2  501    0  0.42756059319E+02  0.64219882673E+01 -0.23092163162E+03  0.29153505295E+03  0.17262260746E+03 0.  0.
         24    2    5    5    0    0  0.25223522770E+02 -0.13959069515E+02 -0.33671440051E+02  0.92405684379E+02  0.81079978465E+02 0.  0.
          5    1    5    5  501    0  0.17532536549E+02  0.20381057782E+02 -0.19725019157E+03  0.19912936857E+03  0.47000000000E+01 0. -1.
        -11    1    6    6    0    0  0.46229635591E+02 -0.25512776987E+02 -0.22065978561E+01  0.52848368665E+02  0.00000000000E+00 0.  1.
         12    1    6    6    0    0 -0.21006112821E+02  0.11553707472E+02 -0.31464842195E+02  0.39557315714E+02  0.00000000000E+00 0. -1.
         -5    1    3    3    0  503 -0.12570934003E+02  0.11746184401E+02  0.73172556677E+01  0.19277797078E+02  0.47000000000E+01 0.  1.
         13    1    4    4    0    0  0.51591514855E+01  0.24439795635E+02 -0.80934491148E+02  0.84701312340E+02  0.00000000000E+00 0. -1.
        -14    1    4    4    0    0 -0.35344276801E+02 -0.42607968303E+02 -0.43939966652E+03  0.44287325930E+03  0.00000000000E+00 0.  1.
</event>
<event>
12    1  0.8494789E-002  0.1999992E+03  0.7818608E-02  0.1149954E+00
         21   -1    0    0  501  502  0.00000000000E+00  0.00000000000E+00  0.73703580677E+03  0.73703580677E+03  0.00000000000E+00 0.  1.
         21   -1    0    0  502  503 -0.00000000000E+00 -0.00000000000E+00 -0.64425353827E+02  0.64425353827E+02  0.00000000000E+00 0.  1.
         -6    2    1    2    0  503 -0.59003052392E+02  0.82501797900E+02  0.17435834392E+03  0.26456744542E+03  0.17119344097E+03 0.  0.
        -24    2    3    3    0    0 -0.54054820263E+02  0.21040341369E+02  0.16480689713E+03  0.20199496124E+03  0.10137076239E+03 0.  0.
          6    2    1    2  501    0  0.59003052392E+02 -0.82501797900E+02  0.49825210903E+03  0.53689371518E+03  0.17237108344E+03 0.  0.
         24    2    5    5    0    0  0.49551264984E+01 -0.10672724776E+03  0.40905576577E+03  0.42972035859E+03  0.76926642839E+02 0.  0.
          5    1    5    5  501    0  0.54047925893E+02  0.24225449861E+02  0.89196343255E+02  0.10717335660E+03  0.47000000000E+01 0. -1.
        -11    1    6    6    0    0  0.32226986636E+02 -0.82364337944E+02  0.34297929084E+03  0.35419945903E+03  0.00000000000E+00 0.  1.
         12    1    6    6    0    0 -0.27271860138E+02 -0.24362909817E+02  0.66076474931E+02  0.75520899554E+02  0.00000000000E+00 0. -1.
         -5    1    3    3    0  503 -0.49482321289E+01  0.61461456530E+02  0.95514467939E+01  0.62572484176E+02  0.47000000000E+01 0.  1.
         11    1    4    4    0    0 -0.34196987964E+02  0.45815735071E+02  0.15996759597E+03  0.16987685930E+03  0.00000000000E+00 0. -1.
        -12    1    4    4    0    0 -0.19857832299E+02 -0.24775393701E+02  0.48393011593E+01  0.32118101942E+02  0.00000000000E+00 0.  1.
</event>
<event>
12    1  0.8494789E-002  0.4873675E+03  0.7818608E-02  0.1017167E+00
         21   -1    0    0  503  502  0.00000000000E+00  0.00000000000E+00  0.28084262784E+03  0.28084262784E+03  0.00000000000E+00 0.  1.
         21   -1    0    0  501  503 -0.00000000000E+00 -0.00000000000E+00 -0.27144493286E+04  0.27144493286E+04  0.00000000000E+00 0.  1.
          6    2    1    2  501    0  0.25455707793E+03  0.37760482294E+03 -0.24599489401E+04  0.25077631259E+04  0.17361566647E+03 0.  0.
         24    2    3    3    0    0  0.18134336761E+03  0.33167509257E+03 -0.17267127911E+04  0.17694358762E+04  0.80451681092E+02 0.  0.
         -6    2    1    2    0  502 -0.25455707793E+03 -0.37760482294E+03  0.26342239349E+02  0.48752883051E+03  0.17206318252E+03 0.  0.
        -24    2    5    5    0    0 -0.46617127330E+02 -0.11843577133E+03  0.40373521470E+02  0.15492307704E+03  0.78555394927E+02 0.  0.
          5    1    3    3  501    0  0.73213710319E+02  0.45929730369E+02 -0.73323614895E+03  0.73832724969E+03  0.47000000000E+01 0. -1.
        -11    1    4    4    0    0  0.14702676133E+03  0.19803799914E+03 -0.11880937577E+04  0.12134260153E+04  0.00000000000E+00 0.  1.
         12    1    4    4    0    0  0.34316606281E+02  0.13363709343E+03 -0.53861903345E+03  0.55600986088E+03  0.00000000000E+00 0. -1.
         -5    1    5    5    0  502 -0.20793995060E+03 -0.25916905161E+03 -0.14031282120E+02  0.33260575347E+03  0.47000000000E+01 0.  1.
         13    1    6    6    0    0 -0.36784529982E+02 -0.12854010201E+02 -0.55652711795E+01  0.39361141594E+02  0.00000000000E+00 0. -1.
        -14    1    6    6    0    0 -0.98325973481E+01 -0.10558176113E+03  0.45938792649E+02  0.11556193544E+03  0.00000000000E+00 0.  1.
</event>
<event>
12    1  0.8494789E-002  0.2483933E+03  0.7818608E-02  0.1114555E+00
         21   -1    0    0  503  502  0.00000000000E+00  0.00000000000E+00  0.29223153757E+03  0.29223153757E+03  0.00000000000E+00 0.  1.
         21   -1    0    0  501  503 -0.00000000000E+00 -0.00000000000E+00 -0.32288125341E+03  0.32288125341E+03  0.00000000000E+00 0. -1.
          6    2    1    2  501    0  0.33013154617E+02  0.17598788371E+03 -0.19727931203E+03  0.31720393209E+03  0.17215575502E+03 0.  0.
         24    2    3    3    0    0 -0.33883646720E+02  0.43647587085E+02 -0.10195314844E+03  0.14085682096E+03  0.79956151483E+02 0.  0.
         -6    2    1    2    0  502 -0.33013154617E+02 -0.17598788371E+03  0.16662959619E+03  0.29790885889E+03  0.17006664073E+03 0.  0.
        -24    2    5    5    0    0 -0.74162492357E+02 -0.17126383077E+03  0.11912581115E+03  0.23470850869E+03  0.77882926021E+02 0.  0.
          5    1    3    3  501    0  0.66896801338E+02  0.13234029663E+03 -0.95326163593E+02  0.17634711114E+03  0.47000000000E+01 0. -1.
        -13    1    4    4    0    0 -0.56213045258E+01  0.33530692163E+02  0.59656831428E+00  0.34003856770E+02  0.00000000000E+00 0.  1.
         14    1    4    4    0    0 -0.28262342194E+02  0.10116894922E+02 -0.10254971675E+03  0.10685296419E+03  0.00000000000E+00 0. -1.
         -5    1    5    5    0  502  0.41149337740E+02 -0.47240529398E+01  0.47503785036E+02  0.63200350199E+02  0.47000000000E+01 0.  1.
         13    1    6    6    0    0 -0.56723294892E+02 -0.56785112453E+02  0.21099721581E+02  0.82989634476E+02  0.00000000000E+00 0. -1.
        -14    1    6    6    0    0 -0.17439197465E+02 -0.11447871832E+03  0.98026089571E+02  0.15171887422E+03  0.00000000000E+00 0.  1.
</event>
<event>
12    1  0.8494789E-002  0.2147875E+03  0.7818608E-02  0.1137841E+00
         21   -1    0    0  503  502  0.00000000000E+00  0.00000000000E+00  0.20007638726E+03  0.20007638726E+03  0.00000000000E+00 0.  1.
         21   -1    0    0  501  503 -0.00000000000E+00 -0.00000000000E+00 -0.25878869761E+03  0.25878869761E+03  0.00000000000E+00 0.  1.
          6    2    1    2  501    0  0.12664776605E+03 -0.23292354832E+02 -0.10518131871E+03  0.23910828336E+03  0.17183559273E+03 0.  0.
         24    2    3    3    0    0  0.85620984090E+02 -0.77047659731E+02 -0.89315459141E+02  0.16949043262E+03  0.86501218026E+02 0.  0.
         -6    2    1    2    0  502 -0.12664776605E+03  0.23292354832E+02  0.46469008359E+02  0.21975680150E+03  0.17190547585E+03 0.  0.
        -24    2    5    5    0    0 -0.15555515290E+03  0.39541207401E+02  0.26865801244E+02  0.18094909668E+03  0.79119476979E+02 0.  0.
          5    1    3    3  501    0  0.41026781963E+02  0.53755304898E+02 -0.15865859565E+02  0.69617850748E+02  0.47000000000E+01 0. -1.
        -13    1    4    4    0    0 -0.82363525565E+01 -0.42060444299E+02 -0.17771852084E+02  0.46397814653E+02  0.00000000000E+00 0.  1.
         14    1    4    4    0    0  0.93857336647E+02 -0.34987215432E+02 -0.71543607057E+02  0.12309261796E+03  0.00000000000E+00 0. -1.
         -5    1    5    5    0  502  0.28907386846E+02 -0.16248852569E+02  0.19603207115E+02  0.38807704818E+02  0.47000000000E+01 0.  1.
         11    1    6    6    0    0 -0.10967717005E+03  0.77308132939E+01  0.49664669444E+02  0.12064587227E+03  0.00000000000E+00 0. -1.
        -12    1    6    6    0    0 -0.45877982853E+02  0.31810394107E+02 -0.22798868201E+02  0.60303224417E+02  0.00000000000E+00 0.  1.
</event>
<event>
12    1  0.8494789E-002  0.1982233E+03  0.7818608E-02  0.1151506E+00
         21   -1    0    0  503  502  0.00000000000E+00  0.00000000000E+00  0.28079531408E+02  0.28079531408E+02  0.00000000000E+00 0.  1.
         21   -1    0    0  501  503 -0.00000000000E+00 -0.00000000000E+00 -0.17551548539E+04  0.17551548539E+04  0.00000000000E+00 0. -1.
          6    2    1    2  501    0  0.86973003173E+02 -0.39327287568E+02 -0.12676852423E+04  0.12829027766E+04  0.17234477662E+03 0.  0.
         24    2    3    3    0    0 -0.18439129229E+02 -0.20369536684E+02 -0.40571082424E+03  0.41428715318E+03  0.79231640651E+02 0.  0.
         -6    2    1    2    0  502 -0.86973003173E+02  0.39327287568E+02 -0.45939008023E+03  0.50033160867E+03  0.17372833388E+03 0.  0.
        -24    2    5    5    0    0 -0.43483523450E+02  0.28887149724E+01 -0.94770222603E+02  0.13129389380E+03  0.79734120498E+02 0.  0.
          5    1    3    3  501    0  0.10541213240E+03 -0.18957750884E+02 -0.86197441803E+03  0.86861562346E+03  0.47000000000E+01 0. -1.
        -11    1    4    4    0    0 -0.21336133664E+02 -0.46052813146E+02 -0.33839169661E+03  0.34217690240E+03  0.00000000000E+00 0.  1.
         12    1    4    4    0    0  0.28970044355E+01  0.25683276462E+02 -0.67319127624E+02  0.72110250787E+02  0.00000000000E+00 0. -1.
         -5    1    5    5    0  502 -0.43489479723E+02  0.36438572596E+02 -0.36461985763E+03  0.36903771487E+03  0.47000000000E+01 0.  1.
         11    1    6    6    0    0  0.37136952457E+01  0.11126855510E+02 -0.80433044000E+02  0.81283903776E+02  0.00000000000E+00 0. -1.
        -12    1    6    6    0    0 -0.47197218696E+02 -0.82381405376E+01 -0.14337178603E+02  0.50009990026E+02  0.00000000000E+00 0.  1.
</event>
<event>
12    1  0.8494789E-002  0.1738493E+03  0.7818608E-02  0.1176281E+00
         21   -1    0    0  503  502  0.00000000000E+00  0.00000000000E+00  0.56464083049E+03  0.56464083049E+03  0.00000000000E+00 0.  1.
         21   -1    0    0  501  503 -0.00000000000E+00 -0.00000000000E+00 -0.21663920324E+03  0.21663920324E+03  0.00000000000E+00 0.  1.
          6    2    1    2  501    0  0.23063457571E+02  0.59521913472E+01 -0.16670983072E+03  0.24086461223E+03  0.17220987808E+03 0.  0.
         24    2    3    3    0    0  0.36260556795E+02  0.43415624823E+02 -0.45158896723E+02  0.11290214964E+03  0.86647706154E+02 0.  0.
         -6    2    1    2    0  502 -0.23063457571E+02 -0.59521913472E+01  0.51471145797E+03  0.54041542149E+03  0.16295272678E+03 0.  0.
        -24    2    5    5    0    0 -0.24743122533E+02 -0.61121839031E+02  0.25691875886E+03  0.27673820023E+03  0.78921996250E+02 0.  0.
          5    1    3    3  501    0 -0.13197099224E+02 -0.37463433476E+02 -0.12155093400E+03  0.12796246259E+03  0.47000000000E+01 0. -1.
        -11    1    4    4    0    0 -0.16417915566E+02  0.16807656458E+02 -0.48394436518E+02  0.53796531051E+02  0.00000000000E+00 0.  1.
         12    1    4    4    0    0  0.52678472361E+02  0.26607968366E+02  0.32355397954E+01  0.59105618588E+02  0.00000000000E+00 0. -1.
         -5    1    5    5    0  502  0.16796649618E+01  0.55169647684E+02  0.25779269911E+03  0.26367722127E+03  0.47000000000E+01 0.  1.
         13    1    6    6    0    0 -0.87512651337E+01  0.54411822896E+01 -0.55431931421E+00  0.10319805039E+02  0.00000000000E+00 0. -1.
        -14    1    6    6    0    0 -0.15991857399E+02 -0.66563021321E+02  0.25747307817E+03  0.26641839519E+03  0.00000000000E+00 0.  1.
</event>
<event>
12    1  0.8494789E-002  0.1968398E+03  0.7818608E-02  0.1152804E+00
         21   -1    0    0  503  502  0.00000000000E+00  0.00000000000E+00  0.29356373981E+03  0.29356373981E+03  0.00000000000E+00 0. -1.
         21   -1    0    0  501  503 -0.00000000000E+00 -0.00000000000E+00 -0.14049717559E+03  0.14049717559E+03  0.00000000000E+00 0. -1.
          6    2    1    2  501    0 -0.95479465796E+02  0.15338378476E+01  0.19311261020E+02  0.19607690037E+03  0.17016035088E+03 0.  0.
         24    2    3    3    0    0 -0.45235379303E+02 -0.64010958339E+02  0.23894109035E+02  0.11322956469E+03  0.78143224556E+02 0.  0.
         -6    2    1    2    0  502  0.95479465796E+02 -0.15338378476E+01  0.13375530319E+03  0.23798401503E+03  0.17212562049E+03 0.  0.
        -24    2    5    5    0    0  0.28432698918E+01 -0.42175978489E+02  0.95772265572E+02  0.12982649317E+03  0.76783423542E+02 0.  0.
          5    1    3    3  501    0 -0.50244086492E+02  0.65544796187E+02 -0.45828480150E+01  0.82847335687E+02  0.47000000000E+01 0. -1.
        -13    1    4    4    0    0 -0.35568680973E+02  0.83273916887E+01  0.30881116081E+00  0.36531792767E+02  0.00000000000E+00 0.  1.
         14    1    4    4    0    0 -0.96666983307E+01 -0.72338350028E+02  0.23585297874E+02  0.76697771918E+02  0.00000000000E+00 0. -1.
         -5    1    5    5    0  502  0.92636195904E+02  0.40642140641E+02  0.37983037620E+02  0.10815752186E+03  0.47000000000E+01 0.  1.
         11    1    6    6    0    0 -0.92690526457E+00 -0.62186877041E+02  0.50248775223E+02  0.79956277058E+02  0.00000000000E+00 0. -1.
        -12    1    6    6    0    0  0.37701751564E+01  0.20010898552E+02  0.45523490348E+02  0.49870216112E+02  0.00000000000E+00 0.  1.
</event>
<event>
12    1  0.8494789E-002  0.2014414E+03  0.7818608E-02  0.1149064E+00
         21   -1    0    0  501  502  0.00000000000E+00  0.00000000000E+00  0.18393425213E+03  0.18393425213E+03  0.00000000000E+00 0.  1.
         21   -1    0    0  502  503 -0.00000000000E+00 -0.00000000000E+00 -0.47749099266E+03  0.47749099266E+03  0.00000000000E+00 0.  1.
         -6    2    1    2    0  503 -0.91778299607E+02  0.44932144005E+02 -0.39107520561E+03  0.43990731796E+03  0.17359861204E+03 0.  0.
        -24    2    3    3    0    0 -0.44328852088E+02 -0.37836339201E+02 -0.25190747971E+03  0.27111212308E+03  0.81533853417E+02 0.  0.
          6    2    1    2  501    0  0.91778299607E+02 -0.44932144005E+02  0.97518465084E+02  0.22151792683E+03  0.17064051989E+03 0.  0.
         24    2    5    5    0    0  0.28874246718E+02  0.13576329858E+02  0.10508177763E+03  0.13514978988E+03  0.78773389278E+02 0.  0.
          5    1    5    5  501    0  0.62904052889E+02 -0.58508473863E+02 -0.75633125427E+01  0.86368136950E+02  0.47000000000E+01 0. -1.
        -11    1    6    6    0    0  0.42721611076E+02  0.36455411667E+02  0.56324758888E+02  0.79539999727E+02  0.00000000000E+00 0.  1.
         12    1    6    6    0    0 -0.13847364358E+02 -0.22879081809E+02  0.48757018739E+02  0.55609790149E+02  0.00000000000E+00 0. -1.
         -5    1    3    3    0  503 -0.47449447519E+02  0.82768483205E+02 -0.13916772590E+03  0.16879519488E+03  0.47000000000E+01 0.  1.
         13    1    4    4    0    0 -0.62843488379E+01 -0.34231665673E+02 -0.30032222929E+02  0.45969929183E+02  0.00000000000E+00 0. -1.
        -14    1    4    4    0    0 -0.38044503250E+02 -0.36046735281E+01 -0.22187525678E+03  0.22514219390E+03  0.00000000000E+00 0.  1.
</event>
<event>
12    1  0.8494789E-002  0.2194641E+03  0.7818608E-02  0.1134512E+00
         21   -1    0    0  501  502  0.00000000000E+00  0.00000000000E+00  0.32560971918E+03  0.32560971918E+03  0.00000000000E+00 0.  1.
         21   -1    0    0  502  503 -0.00000000000E+00 -0.00000000000E+00 -0.17832602708E+03  0.17832602708E+03  0.00000000000E+00 0.  1.
         -6    2    1    2    0  503  0.12475743357E+03  0.53396278273E+02 -0.31967981521E+02  0.22057083184E+03  0.17092091812E+03 0.  0.
        -24    2    3    3    0    0  0.10851143460E+03 -0.18627731852E+01 -0.61989337478E+02  0.15544889188E+03  0.92430939969E+02 0.  0.
          6    2    1    2  501    0 -0.12475743357E+03 -0.53396278273E+02  0.17925167362E+03  0.28336491442E+03  0.17247878844E+03 0.  0.
         24    2    5    5    0    0 -0.10594960155E+03 -0.38206589558E+02  0.42991890472E+02  0.14489730198E+03  0.80385719636E+02 0.  0.
          5    1    5    5  501    0 -0.18807832019E+02 -0.15189688715E+02  0.13625978315E+03  0.13846761244E+03  0.47000000000E+01 0. -1.
        -13    1    6    6    0    0 -0.63450040861E+02 -0.30689366513E+02  0.65502622927E+02  0.96220260406E+02  0.00000000000E+00 0.  1.
         14    1    6    6    0    0 -0.42499560688E+02 -0.75172230450E+01 -0.22510732456E+02  0.48677041577E+02  0.00000000000E+00 0. -1.
         -5    1    3    3    0  503  0.16245998971E+02  0.55259051458E+02  0.30021355957E+02  0.65121939959E+02  0.47000000000E+01 0.  1.
         13    1    4    4    0    0  0.77228354656E+01  0.25230330365E+02  0.10478136521E+02  0.28390193781E+02  0.00000000000E+00 0. -1.
        -14    1    4    4    0    0  0.10078859913E+03 -0.27093103550E+02 -0.72467473998E+02  0.12705869810E+03  0.00000000000E+00 0.  1.
</event>
<event>
12    1  0.8494789E-002  0.2679005E+03  0.7818608E-02  0.1102530E+00
         21   -1    0    0  501  502  0.00000000000E+00  0.00000000000E+00  0.78006230929E+03  0.78006230929E+03  0.00000000000E+00 0.  1.
         21   -1    0    0  502  503 -0.00000000000E+00 -0.00000000000E+00 -0.11896634772E+03  0.11896634772E+03  0.00000000000E+00 0. -1.
         -6    2    1    2    0  503  0.20089606517E+03  0.42292857990E+02  0.11629482592E+03  0.29205337472E+03  0.17211267330E+03 0.  0.
        -24    2    3    3    0    0  0.26655350752E+02  0.10859832999E+02  0.12683809626E+02  0.86857872043E+02  0.80962752008E+02 0.  0.
          6    2    1    2  501    0 -0.20089606517E+03 -0.42292857990E+02  0.54480113565E+03  0.60697528229E+03  0.17164731594E+03 0.  0.
         24    2    5    5    0    0 -0.94139309013E+02  0.41936166396E+02  0.23587799778E+03  0.26941472677E+03  0.79529954162E+02 0.  0.
          5    1    5    5  501    0 -0.10675675616E+03 -0.84229024386E+02  0.30892313787E+03  0.33756055552E+03  0.47000000000E+01 0. -1.
        -13    1    6    6    0    0 -0.23486249967E+02 -0.23905530523E+02  0.65164714626E+02  0.73276997478E+02  0.00000000000E+00 0.  1.
         14    1    6    6    0    0 -0.70653059046E+02  0.65841696918E+02  0.17071328316E+03  0.19613772929E+03  0.00000000000E+00 0. -1.
         -5    1    3    3    0  503  0.17424071442E+03  0.31433024991E+02  0.10361101629E+03  0.20519550268E+03  0.47000000000E+01 0.  1.
         13    1    4    4    0    0  0.17444847818E+02 -0.34781021007E+02  0.13339443394E+01  0.38933552948E+02  0.00000000000E+00 0. -1.
        -14    1    4    4    0    0  0.92105029340E+01  0.45640854006E+02  0.11349865287E+02  0.47924319095E+02  0.00000000000E+00 0.  1.
</event>
<event>
12    1  0.8494789E-002  0.1716310E+03  0.7818608E-02  0.1177024E+00
         21   -1    0    0  501  502  0.00000000000E+00  0.00000000000E+00  0.12752611892E+03  0.12752611892E+03  0.00000000000E+00 0.  1.
         21   -1    0    0  502  503 -0.00000000000E+00 -0.00000000000E+00 -0.23953092219E+03  0.23953092219E+03  0.00000000000E+00 0.  1.
         -6    2    1    2    0  503  0.13514993246E+02  0.13489057912E+02 -0.98239367279E+02  0.19487486984E+03  0.16721432919E+03 0.  0.
        -24    2    3    3    0    0  0.16589007350E+02 -0.55467466211E+02 -0.52020974716E+02  0.11167221608E+03  0.80079129994E+02 0.  0.
          6    2    1    2  501    0 -0.13514993246E+02 -0.13489057912E+02 -0.13765435995E+02  0.17218217127E+03  0.17056553916E+03 0.  0.
         24    2    5    5    0    0 -0.63016860117E+02 -0.22401275492E+02  0.26606830530E+02  0.10751477337E+03  0.79865895474E+02 0.  0.
          5    1    5    5  501    0  0.49501866871E+02  0.89122175798E+01 -0.40372266524E+02  0.64667397893E+02  0.47000000000E+01 0. -1.
        -13    1    6    6    0    0 -0.45225499480E+02 -0.52442742436E+02  0.17149243471E+02  0.71342018398E+02  0.00000000000E+00 0.  1.
         14    1    6    6    0    0 -0.17791360637E+02  0.30041466945E+02  0.94575870590E+01  0.36172754975E+02  0.00000000000E+00 0. -1.
         -5    1    3    3    0  503 -0.30740141041E+01  0.68956524123E+02 -0.46218392562E+02  0.83202653761E+02  0.47000000000E+01 0.  1.
         13    1    4    4    0    0 -0.10046092581E+02 -0.19126602894E+02  0.18193567949E+02  0.28244589378E+02  0.00000000000E+00 0. -1.
        -14    1    4    4    0    0  0.26635099931E+02 -0.36340863317E+02 -0.70214542666E+02  0.83427626700E+02  0.00000000000E+00 0.  1.
</event>
<event>
12    1  0.8494789E-002  0.2149119E+03  0.7818608E-02  0.1138425E+00
         21   -1    0    0  503  502  0.00000000000E+00  0.00000000000E+00  0.19122611333E+04  0.19122611333E+04  0.00000000000E+00 0. -1.
         21   -1    0    0  501  503 -0.00000000000E+00 -0.00000000000E+00 -0.30230621477E+02  0.30230621477E+02  0.00000000000E+00 0. -1.
          6    2    1    2  501    0  0.34662299701E+02 -0.12596704807E+03  0.49767098000E+03  0.54209180645E+03  0.17063982556E+03 0.  0.
         24    2    3    3    0    0 -0.38884087509E+02 -0.36200463039E+02  0.18356075333E+03  0.20719714337E+03  0.80085331193E+02 0.  0.
         -6    2    1    2    0  502 -0.34662299701E+02  0.12596704807E+03  0.13843595319E+04  0.14003999484E+04  0.16613106183E+03 0.  0.
        -24    2    5    5    0    0 -0.71990455556E+01  0.43969035636E+02  0.10734117541E+04  0.10776174908E+04  0.84033091343E+02 0.  0.
          5    1    3    3  501    0  0.73546387210E+02 -0.89766585031E+02  0.31411022668E+03  0.33489466309E+03  0.47000000000E+01 0. -1.
        -13    1    4    4    0    0 -0.34122213123E+02  0.16595346431E+02  0.11120996046E+03  0.11750483504E+03  0.00000000000E+00 0.  1.
         14    1    4    4    0    0 -0.47618743857E+01 -0.52795809469E+02  0.72350792863E+02  0.89692308328E+02  0.00000000000E+00 0. -1.
         -5    1    5    5    0  502 -0.27463254146E+02  0.81998012434E+02  0.31094777779E+03  0.32278245752E+03  0.47000000000E+01 0.  1.
         13    1    6    6    0    0 -0.35969626790E+02  0.48043086147E+02  0.87896366910E+03  0.88101026315E+03  0.00000000000E+00 0. -1.
        -14    1    6    6    0    0  0.28770581234E+02 -0.40740505118E+01  0.19444808497E+03  0.19660722769E+03  0.00000000000E+00 0.  1.
</event>
<event>
12    1  0.8494789E-002  0.1908913E+03  0.7818608E-02  0.1158191E+00
         21   -1    0    0  501  502  0.00000000000E+00  0.00000000000E+00  0.63822627908E+02  0.63822627908E+02  0.00000000000E+00 0. -1.
         21   -1    0    0  502  503 -0.00000000000E+00 -0.00000000000E+00 -0.56397775309E+03  0.56397775309E+03  0.00000000000E+00 0. -1.
         -6    2    1    2    0  503 -0.73525432298E+02 -0.23455355053E+02 -0.25158285024E+03  0.31438742762E+03  0.17201564241E+03 0.  0.
        -24    2    3    3    0    0  0.15727590324E+01 -0.52776757348E+02 -0.19142764827E+03  0.21368876180E+03  0.78933406811E+02 0.  0.
          6    2    1    2  501    0  0.73525432298E+02  0.23455355053E+02 -0.24857227494E+03  0.31341295337E+03  0.17459484700E+03 0.  0.
         24    2    5    5    0    0  0.52062739164E+02  0.36729418358E+02 -0.50990976148E+02  0.11417112146E+03  0.79846016463E+02 0.  0.
          5    1    5    5  501    0  0.21462693134E+02 -0.13274063306E+02 -0.19758129879E+03  0.19924183191E+03  0.47000000000E+01 0. -1.
        -11    1    6    6    0    0  0.49186089130E+01  0.36054640926E+02 -0.55971000557E+02  0.66759888775E+02  0.00000000000E+00 0.  1.
         12    1    6    6    0    0  0.47144130251E+02  0.67477743236E+00  0.49800244090E+01  0.47411232686E+02  0.00000000000E+00 0. -1.
         -5    1    3    3    0  503 -0.75098191331E+02  0.29321402296E+02 -0.60155201977E+02  0.10069866582E+03  0.47000000000E+01 0.  1.
         11    1    4    4    0    0 -0.98074277706E+01 -0.23475449377E+02 -0.17748918834E+03  0.17930335842E+03  0.00000000000E+00 0. -1.
        -12    1    4    4    0    0  0.11380186803E+02 -0.29301307971E+02 -0.13938459930E+02  0.34385403382E+02  0.00000000000E+00 0.  1.
</event>
<event>
12    1  0.8494789E-002  0.3405622E+03  0.7818608E-02  0.1066611E+00
         21   -1    0    0  501  502  0.00000000000E+00  0.00000000000E+00  0.27088706542E+03  0.27088706542E+03  0.00000000000E+00 0. -1.
         21   -1    0    0  502  503 -0.00000000000E+00 -0.00000000000E+00 -0.44429441370E+03  0.44429441370E+03  0.00000000000E+00 0.  1.
         -6    2    1    2    0  503  0.28577103007E+03  0.76980024383E+02 -0.15613945654E+03  0.37418175765E+03  0.16745582131E+03 0.  0.
        -24    2    3    3    0    0  0.10049816057E+03  0.81116023268E+02 -0.39149845103E+02  0.15497454554E+03  0.76188646686E+02 0.  0.
          6    2    1    2  501    0 -0.28577103007E+03 -0.76980024383E+02 -0.17267891741E+02  0.34099972147E+03  0.16849814294E+03 0.  0.
         24    2    5    5    0    0 -0.21281297064E+03 -0.56643645196E+02 -0.74920590657E+02  0.24569825009E+03  0.79099128812E+02 0.  0.
          5    1    5    5  501    0 -0.72958059431E+02 -0.20336379187E+02  0.57652698916E+02  0.95301471378E+02  0.47000000000E+01 0. -1.
        -11    1    6    6    0    0 -0.10162688145E+03  0.38588317243E+00 -0.33246982757E+01  0.10168198246E+03  0.00000000000E+00 0.  1.
         12    1    6    6    0    0 -0.11118608919E+03 -0.57029528369E+02 -0.71595892381E+02  0.14401626763E+03  0.00000000000E+00 0. -1.
         -5    1    3    3    0  503  0.18527286950E+03 -0.41359988849E+01 -0.11698961144E+03  0.21920721211E+03  0.47000000000E+01 0.  1.
         13    1    4    4    0    0  0.81907320174E+02  0.84363446248E+02 -0.55482127943E+02  0.13001640928E+03  0.00000000000E+00 0. -1.
        -14    1    4    4    0    0  0.18590840401E+02 -0.32474229794E+01  0.16332282840E+02  0.24958136260E+02  0.00000000000E+00 0.  1.
</event>
<event>
12    1  0.8494789E-002  0.3014107E+03  0.7818608E-02  0.1084599E+00
         21   -1    0    0  503  502  0.00000000000E+00  0.00000000000E+00  0.92375295320E+03  0.92375295320E+03  0.00000000000E+00 0.  1.
         21   -1    0    0  501  503 -0.00000000000E+00 -0.00000000000E+00 -0.14512372942E+03  0.14512372942E+03  0.00000000000E+00 0.  1.
          6    2    1    2  501    0  0.18795944054E+03  0.16008116137E+03  0.85587145067E+02  0.31332666252E+03  0.17289797145E+03 0.  0.
         24    2    3    3    0    0  0.21178583343E+03  0.12508270103E+03  0.69636126292E+02  0.26783914529E+03  0.79935576072E+02 0.  0.
         -6    2    1    2    0  502 -0.18795944054E+03 -0.16008116137E+03  0.69304207872E+03  0.75555002010E+03  0.17202842930E+03 0.  0.
        -24    2    5    5    0    0 -0.19829985845E+02 -0.77538874435E+02  0.29689496251E+03  0.31733161525E+03  0.78404272124E+02 0.  0.
          5    1    3    3  501    0 -0.23826392893E+02  0.34998460332E+02  0.15951018776E+02  0.45487517232E+02  0.47000000000E+01 0. -1.
        -11    1    4    4    0    0  0.99840899516E+02  0.16694122274E+02  0.41968767704E+02  0.10958228140E+03  0.00000000000E+00 0.  1.
         12    1    4    4    0    0  0.11194493392E+03  0.10838857876E+03  0.27667358588E+02  0.15825686389E+03  0.00000000000E+00 0. -1.
         -5    1    5    5    0  502 -0.16812945470E+03 -0.82542286931E+02  0.39614711621E+03  0.43821840485E+03  0.47000000000E+01 0.  1.
         11    1    6    6    0    0  0.29719166406E+01 -0.34385111549E+02  0.29155312189E+02  0.45179646009E+02  0.00000000000E+00 0. -1.
        -12    1    6    6    0    0 -0.22801902485E+02 -0.43153762887E+02  0.26773965032E+03  0.27215196924E+03  0.00000000000E+00 0.  1.
</event>
<event>
12    1  0.8494789E-002  0.2309120E+03  0.7818608E-02  0.1126050E+00
         21   -1    0    0  501  502  0.00000000000E+00  0.00000000000E+00  0.33214537152E+03  0.33214537152E+03  0.00000000000E+00 0. -1.
         21   -1    0    0  502  503 -0.00000000000E+00 -0.00000000000E+00 -0.16034476578E+03  0.16034476578E+03  0.00000000000E+00 0.  1.
         -6    2    1    2    0  503 -0.13933420413E+03 -0.66359486799E+02  0.87987519836E+02  0.24683797333E+03  0.17137555106E+03 0.  0.
        -24    2    3    3    0    0 -0.45809382776E+02 -0.82890321784E+02  0.10559736150E+02  0.12421125356E+03  0.79671968013E+02 0.  0.
          6    2    1    2  501    0  0.13933420413E+03  0.66359486799E+02  0.83813085904E+02  0.24565216398E+03  0.17176364682E+03 0.  0.
         24    2    5    5    0    0  0.15502616895E+03  0.22088453791E+02  0.91227404605E+02  0.19786906817E+03  0.79427425581E+02 0.  0.
          5    1    5    5  501    0 -0.15691964822E+02  0.44271033009E+02 -0.74143187018E+01  0.47783095813E+02  0.47000000000E+01 0. -1.
        -13    1    6    6    0    0  0.26603140338E+02  0.18043134766E+02 -0.10683015116E+02  0.33873420258E+02  0.00000000000E+00 0.  1.
         14    1    6    6    0    0  0.12842302862E+03  0.40453190250E+01  0.10191041972E+03  0.16399564791E+03  0.00000000000E+00 0. -1.
         -5    1    3    3    0  503 -0.93524821356E+02  0.16530834985E+02  0.77427783685E+02  0.12262671977E+03  0.47000000000E+01 0.  1.
         13    1    4    4    0    0  0.10141983670E+02 -0.63520366926E+02  0.17389159000E+01  0.64348431805E+02  0.00000000000E+00 0. -1.
        -14    1    4    4    0    0 -0.55951366446E+02 -0.19369954858E+02  0.88208202504E+01  0.59862821753E+02  0.00000000000E+00 0.  1.
</event>
<event>
12    1  0.8494789E-002  0.2509005E+03  0.7818608E-02  0.1112839E+00
         21   -1    0    0  503  502  0.00000000000E+00  0.00000000000E+00  0.47607272233E+03  0.47607272233E+03  0.00000000000E+00 0.  1.
         21   -1    0    0  501  503 -0.00000000000E+00 -0.00000000000E+00 -0.13266185555E+03  0.13266185555E+03  0.00000000000E+00 0. -1.
          6    2    1    2  501    0 -0.13663292684E+02  0.17967264162E+03  0.19514157201E+03  0.31785423974E+03  0.17459135396E+03 0.  0.
         24    2    3    3    0    0  0.36789155532E+02  0.83355694247E+02  0.16578205988E+03  0.20513123927E+03  0.79331710041E+02 0.  0.
         -6    2    1    2    0  502  0.13663292684E+02 -0.17967264162E+03  0.14826929477E+03  0.29088033814E+03  0.17366244162E+03 0.  0.
        -24    2    5    5    0    0  0.18872338074E+02 -0.31012197143E+02  0.90663913933E+02  0.13129483815E+03  0.87752308903E+02 0.  0.
          5    1    3    3  501    0 -0.50452448216E+02  0.96316947377E+02  0.29359512139E+02  0.11272300047E+03  0.47000000000E+01 0. -1.
        -13    1    4    4    0    0  0.17752621149E+02  0.93290641544E+02  0.10978767861E+03  0.14516071691E+03  0.00000000000E+00 0.  1.
         14    1    4    4    0    0  0.19036534383E+02 -0.99349472976E+01  0.55994381262E+02  0.59970522359E+02  0.00000000000E+00 0. -1.
         -5    1    5    5    0  502 -0.52090453904E+01 -0.14866044448E+03  0.57605380838E+02  0.15958549999E+03  0.47000000000E+01 0.  1.
         11    1    6    6    0    0  0.30838716390E+02 -0.30548678728E+02  0.37608473105E+01  0.43570542492E+02  0.00000000000E+00 0. -1.
        -12    1    6    6    0    0 -0.11966378315E+02 -0.46351841536E+00  0.86903066623E+02  0.87724295653E+02  0.00000000000E+00 0.  1.
</event>
<event>
12    1  0.8494789E-002  0.3047357E+03  0.7818608E-02  0.1082927E+00
         21   -1    0    0  503  502  0.00000000000E+00  0.00000000000E+00  0.12270225167E+04  0.12270225167E+04  0.00000000000E+00 0. -1.
         21   -1    0    0  501  503 -0.00000000000E+00 -0.00000000000E+00 -0.78737248428E+02  0.78737248428E+02  0.00000000000E+00 0. -1.
          6    2    1    2  501    0 -0.18738914020E+03 -0.16795941632E+03  0.44406435556E+03  0.53843261897E+03  0.17143942923E+03 0.  0.
         24    2    3    3    0    0 -0.16713643498E+03 -0.72195218403E+02  0.23814245290E+03  0.31038246293E+03  0.80490421594E+02 0.  0.
         -6    2    1    2    0  502  0.18738914020E+03  0.16795941632E+03  0.70422091272E+03  0.76732714617E+03  0.17186855423E+03 0.  0.
        -24    2    5    5    0    0  0.79139497538E+02  0.73461635759E+02  0.49650726909E+03  0.51471110666E+03  0.82148542624E+02 0.  0.
          5    1    3    3  501    0 -0.20252705229E+02 -0.95764197919E+02  0.20592190266E+03  0.22805015604E+03  0.47000000000E+01 0. -1.
        -13    1    4    4    0    0 -0.17400141363E+02  0.93824447643E+01  0.31124604064E+01  0.20012061338E+02  0.00000000000E+00 0.  1.
         14    1    4    4    0    0 -0.14973629361E+03 -0.81577663168E+02  0.23502999249E+03  0.29037040160E+03  0.00000000000E+00 0. -1.
         -5    1    5    5    0  502  0.10824964267E+03  0.94497780563E+02  0.20771364363E+03  0.25261603951E+03  0.47000000000E+01 0.  1.
         13    1    6    6    0    0  0.33792348460E+02  0.46465315835E+02  0.10524821641E+03  0.11990886309E+03  0.00000000000E+00 0. -1.
        -14    1    6    6    0    0  0.45347149078E+02  0.26996319925E+02  0.39125905269E+03  0.39480224357E+03  0.00000000000E+00 0.  1.
</event>
<event>
12    1  0.8494789E-002  0.2342307E+03  0.7818608E-02  0.1123735E+00
         21   -1    0    0  503  502  0.00000000000E+00  0.00000000000E+00  0.66333705572E+03  0.66333705572E+03  0.00000000000E+00 0. -1.
         21   -1    0    0  501  503 -0.00000000000E+00 -0.00000000000E+00 -0.89054708910E+02  0.89054708910E+02  0.00000000000E+00 0.  1.
          6    2    1    2  501    0 -0.64412252528E+02  0.14512265780E+03  0.18598032257E+03  0.29891354006E+03  0.17190433376E+03 0.  0.
         24    2    3    3    0    0 -0.96899137503E+02  0.15346431971E+03  0.14283557701E+03  0.24406337973E+03  0.78893542134E+02 0.  0.
         -6    2    1    2    0  502  0.64412252528E+02 -0.14512265780E+03  0.38830202424E+03  0.45347822457E+03  0.17220486071E+03 0.  0.
        -24    2    5    5    0    0  0.76112893875E+02 -0.97784468199E+02  0.15652187925E+03  0.21657753903E+03  0.83974739603E+02 0.  0.
          5    1    3    3  501    0  0.32486884975E+02 -0.83416619137E+01  0.43144745563E+02  0.54850160333E+02  0.47000000000E+01 0. -1.
        -11    1    4    4    0    0  0.24942592563E+01  0.27266332343E+02 -0.24236576708E+01  0.27487239316E+02  0.00000000000E+00 0.  1.
         12    1    4    4    0    0 -0.99393396760E+02  0.12619798737E+03  0.14525923468E+03  0.21657614041E+03  0.00000000000E+00 0. -1.
         -5    1    5    5    0  502 -0.11700641347E+02 -0.47338189598E+02  0.23178014499E+03  0.23690068555E+03  0.47000000000E+01 0.  1.
         13    1    6    6    0    0  0.49125676354E+02 -0.10887320571E+03  0.13542268552E+03  0.18057134532E+03  0.00000000000E+00 0. -1.
        -14    1    6    6    0    0  0.26987217522E+02  0.11088737507E+02  0.21099193735E+02  0.36006193708E+02  0.00000000000E+00 0.  1.
</event>
<event>
12    1  0.8494789E-002  0.1944469E+03  0.7818608E-02  0.1154519E+00
         21   -1    0    0  501  502  0.00000000000E+00  0.00000000000E+00  0.47239549719E+03  0.47239549719E+03  0.00000000000E+00 0. -1.
         21   -1    0    0  502  503 -0.00000000000E+00 -0.00000000000E+00 -0.13995056743E+03  0.13995056743E+03  0.00000000000E+00 0. -1.
         -6    2    1    2    0  503  0.80005475519E+02 -0.41945975196E+02 -0.34120723462E+02  0.19741791563E+03  0.17218963004E+03 0.  0.
        -24    2    3    3    0    0  0.11502038212E+03 -0.63391820148E+02 -0.28450703953E+02  0.15570212640E+03  0.78647939862E+02 0.  0.
          6    2    1    2  501    0 -0.80005475519E+02  0.41945975196E+02  0.36656565322E+03  0.41492814899E+03  0.17214717470E+03 0.  0.
         24    2    5    5    0    0 -0.40495152950E+02  0.58586730221E+02  0.35399872266E+03  0.37000601568E+03  0.80728518053E+02 0.  0.
          5    1    5    5  501    0 -0.39510322570E+02 -0.16640755025E+02  0.12566930563E+02  0.44922133310E+02  0.47000000000E+01 0. -1.
        -13    1    6    6    0    0  0.20463025885E+02  0.85601352645E+01  0.35255669479E+02  0.41653013991E+02  0.00000000000E+00 0.  1.
         14    1    6    6    0    0 -0.60958178834E+02  0.50026594957E+02  0.31874305318E+03  0.32835300169E+03  0.00000000000E+00 0. -1.
         -5    1    3    3    0  503 -0.35014906599E+02  0.21445844952E+02 -0.56700195093E+01  0.41715789230E+02  0.47000000000E+01 0.  1.
         13    1    4    4    0    0  0.80808643074E+02 -0.93949443474E+01 -0.40144439008E+02  0.90718673701E+02  0.00000000000E+00 0. -1.
        -14    1    4    4    0    0  0.34211739044E+02 -0.53996875801E+02  0.11693735055E+02  0.64983452695E+02  0.00000000000E+00 0.  1.
</event>
<event>
12    1  0.8494789E-002  0.1967952E+03  0.7818608E-02  0.1153107E+00
         21   -1    0    0  501  502  0.00000000000E+00  0.00000000000E+00  0.15054050227E+03  0.15054050227E+03  0.00000000000E+00 0.  1.
         21   -1    0    0  502  503 -0.00000000000E+00 -0.00000000000E+00 -0.27849646341E+03  0.27849646341E+03  0.00000000000E+00 0. -1.
         -6    2    1    2    0  503  0.32985162425E+02 -0.83389156287E+02 -0.85632384122E-01  0.19679517214E+03  0.17517579775E+03 0.  0.
        -24    2    3    3    0    0  0.42591545719E+02 -0.57059341211E+01 -0.47099542704E+02  0.10536561800E+03  0.83886525040E+02 0.  0.
          6    2    1    2  501    0 -0.32985162425E+02  0.83389156287E+02 -0.12787032876E+03  0.23224179354E+03  0.17188268488E+03 0.  0.
         24    2    5    5    0    0 -0.15455982145E+02  0.71715467569E+01  0.61779446252E+01  0.76976131649E+02  0.74812026954E+02 0.  0.
          5    1    5    5  501    0 -0.17529180280E+02  0.76217609530E+02 -0.13404827339E+03  0.15526566189E+03  0.47000000000E+01 0. -1.
        -11    1    6    6    0    0  0.24502227690E+02  0.14091309145E+02 -0.14154726074E+02  0.31611397081E+02  0.00000000000E+00 0.  1.
         12    1    6    6    0    0 -0.39958209835E+02 -0.69197623877E+01  0.20332670699E+02  0.45364734568E+02  0.00000000000E+00 0. -1.
         -5    1    3    3    0  503 -0.96063832942E+01 -0.77683222166E+02  0.47013910319E+02  0.91429554136E+02  0.47000000000E+01 0.  1.
         13    1    4    4    0    0 -0.19943814089E+02 -0.14775075354E+02 -0.31818930944E+02  0.40354713957E+02  0.00000000000E+00 0. -1.
        -14    1    4    4    0    0  0.62535359808E+02  0.90691412331E+01 -0.15280611760E+02  0.65010904045E+02  0.00000000000E+00 0.  1.
</event>
<event>
12    1  0.8494789E-002  0.3629512E+03  0.7818608E-02  0.1057505E+00
         21   -1    0    0  501  502  0.00000000000E+00  0.00000000000E+00  0.22484482077E+03  0.22484482077E+03  0.00000000000E+00 0. -1.
         21   -1    0    0  502  503 -0.00000000000E+00 -0.00000000000E+00 -0.91939093106E+03  0.91939093106E+03  0.00000000000E+00 0.  1.
         -6    2    1    2    0  503 -0.20471420397E+03 -0.24454870226E+03 -0.69229968062E+03  0.78127755795E+03  0.17147536762E+03 0.  0.
        -24    2    3    3    0    0 -0.16398780954E+02 -0.52241058566E+02 -0.15612367147E+03  0.18131778335E+03  0.74185507658E+02 0.  0.
          6    2    1    2  501    0  0.20471420397E+03  0.24454870226E+03 -0.22464296777E+01  0.36295819388E+03  0.17326751275E+03 0.  0.
         24    2    5    5    0    0  0.15104301327E+03  0.95836551800E+02 -0.40413044772E+02  0.20024777346E+03  0.80419649762E+02 0.  0.
          5    1    5    5  501    0  0.53671190691E+02  0.14871215046E+03  0.38166615094E+02  0.16271042042E+03  0.47000000000E+01 0. -1.
        -11    1    6    6    0    0  0.77279394168E+02  0.92079018567E+02 -0.10877663737E+02  0.12070200492E+03  0.00000000000E+00 0.  1.
         12    1    6    6    0    0  0.73763619106E+02  0.37575332325E+01 -0.29535381035E+02  0.79545768539E+02  0.00000000000E+00 0. -1.
         -5    1    3    3    0  503 -0.18831542301E+03 -0.19230764370E+03 -0.53617600914E+03  0.59995977461E+03  0.47000000000E+01 0.  1.
         11    1    4    4    0    0  0.14068499963E+02 -0.52047618442E+02 -0.13156712249E+03  0.14218574119E+03  0.00000000000E+00 0. -1.
        -12    1    4    4    0    0 -0.30467280917E+02 -0.19344012438E+00 -0.24556548982E+02  0.39132042158E+02  0.00000000000E+00 0.  1.
</event>
<event>
12    1  0.8494789E-002  0.2569085E+03  0.7818608E-02  0.1109160E+00
         21   -1    0    0  501  502  0.00000000000E+00  0.00000000000E+00  0.15248426850E+03  0.15248426850E+03  0.00000000000E+00 0. -1.
         21   -1    0    0  502  503 -0.00000000000E+00 -0.00000000000E+00 -0.61202550909E+03  0.61202550909E+03  0.00000000000E+00 0. -1.
         -6    2    1    2    0  503 -0.17549474589E+03 -0.71606871976E+02 -0.21720433741E+02  0.25687896821E+03  0.17201475843E+03 0.  0.
        -24    2    3    3    0    0 -0.77635217624E+02 -0.10065952344E+03  0.66367175667E+01  0.15082821687E+03  0.80904501182E+02 0.  0.
          6    2    1    2  501    0  0.17549474589E+03  0.71606871976E+02 -0.43782080684E+03  0.50763080938E+03  0.17342442092E+03 0.  0.
         24    2    5    5    0    0  0.16174829326E+02  0.40191277399E+02 -0.13709486910E+03  0.16582976340E+03  0.82628950216E+02 0.  0.
          5    1    5    5  501    0  0.15931991657E+03  0.31415594577E+02 -0.30072593774E+03  0.34180104597E+03  0.47000000000E+01 0. -1.
        -13    1    6    6    0    0 -0.16473827314E+02 -0.81690714240E+01 -0.17843535415E+01  0.18474431841E+02  0.00000000000E+00 0.  1.
         14    1    6    6    0    0  0.32648656640E+02  0.48360348823E+02 -0.13531051556E+03  0.14735533156E+03  0.00000000000E+00 0. -1.
         -5    1    3    3    0  503 -0.97859528267E+02  0.29052651459E+02 -0.28357151308E+02  0.10605075134E+03  0.47000000000E+01 0.  1.
         13    1    4    4    0    0 -0.43618559854E+02 -0.17925313825E+02 -0.28066484172E+02  0.54878257745E+02  0.00000000000E+00 0. -1.
        -14    1    4    4    0    0 -0.34016657771E+02 -0.82734209611E+02  0.34703201739E+02  0.95949959128E+02  0.00000000000E+00 0.  1.
</event>
<event>
12    1  0.8494789E-002  0.1767054E+03  0.7818608E-02  0.1171382E+00
         21   -1    0    0  501  502  0.00000000000E+00  0.00000000000E+00  0.13813056924E+03  0.13813056924E+03  0.00000000000E+00 0.  1.
         21   -1    0    0  502  503 -0.00000000000E+00 -0.00000000000E+00 -0.22603668165E+03  0.22603668165E+03  0.00000000000E+00 0.  1.
         -6    2    1    2    0  503  0.29114219048E+02  0.29318570537E+02 -0.59966262337E+02  0.18526667017E+03  0.17035424892E+03 0.  0.
        -24    2    3    3    0    0  0.77037329511E+01  0.50804928157E+02  0.22480108782E+02  0.97291863605E+02  0.79497567299E+02 0.  0.
          6    2    1    2  501    0 -0.29114219048E+02 -0.29318570537E+02 -0.27939850074E+02  0.17890058073E+03  0.17180677005E+03 0.  0.
         24    2    5    5    0    0 -0.76746400596E+02  0.12989477153E+02 -0.25871141342E+02  0.11498528386E+03  0.80582647189E+02 0.  0.
          5    1    5    5  501    0  0.47632181548E+02 -0.42308047690E+02 -0.20687087324E+01  0.63915296872E+02  0.47000000000E+01 0. -1.
        -13    1    6    6    0    0 -0.87250350783E+02 -0.50576228981E+01 -0.84744895067E+01  0.87806720891E+02  0.00000000000E+00 0.  1.
         14    1    6    6    0    0  0.10503950187E+02  0.18047100051E+02 -0.17396651835E+02  0.27178562965E+02  0.00000000000E+00 0. -1.
         -5    1    3    3    0  503  0.21410486097E+02 -0.21486357620E+02 -0.82446371119E+02  0.87974806561E+02  0.47000000000E+01 0.  1.
         13    1    4    4    0    0  0.16974241098E+02  0.50555621455E+02  0.46995223057E+02  0.71081268360E+02  0.00000000000E+00 0. -1.
        -14    1    4    4    0    0 -0.92705081465E+01  0.24930670205E+00 -0.24515114275E+02  0.26210595244E+02  0.00000000000E+00 0.  1.
</event>
<event>
12    1  0.8494789E-002  0.1746119E+03  0.7818608E-02  0.1173425E+00
         21   -1    0    0  501  502  0.00000000000E+00  0.00000000000E+00  0.11348876997E+04  0.11348876997E+04  0.00000000000E+00 0. -1.
         21   -1    0    0  502  503 -0.00000000000E+00 -0.00000000000E+00 -0.35124828497E+02  0.35124828497E+02  0.00000000000E+00 0. -1.
         -6    2    1    2    0  503 -0.30858493721E+02 -0.92871765647E+00  0.26449859815E+03  0.31693661674E+03  0.17186099459E+03 0.  0.
        -24    2    3    3    0    0  0.75843545681E+01 -0.20667264865E+02  0.49739465430E+02  0.97822404709E+02  0.81305289930E+02 0.  0.
          6    2    1    2  501    0  0.30858493721E+02  0.92871765647E+00  0.83526427309E+03  0.85307591149E+03  0.17064288941E+03 0.  0.
         24    2    5    5    0    0 -0.39539683110E+02  0.14705670499E+01  0.29322108981E+03  0.30645986759E+03  0.79834164537E+02 0.  0.
          5    1    5    5  501    0  0.70398176831E+02 -0.54184939343E+00  0.54204318329E+03  0.54661604390E+03  0.47000000000E+01 0. -1.
        -11    1    6    6    0    0  0.12027319210E+02  0.28247501323E+02  0.89811878565E+02  0.94914441840E+02  0.00000000000E+00 0.  1.
         12    1    6    6    0    0 -0.51567002321E+02 -0.26776934273E+02  0.20340921124E+03  0.21154542575E+03  0.00000000000E+00 0. -1.
         -5    1    3    3    0  503 -0.38442848289E+02  0.19738547208E+02  0.21475913272E+03  0.21911421203E+03  0.47000000000E+01 0.  1.
         13    1    4    4    0    0  0.35921029583E+02  0.60702386871E+01  0.23952446808E+01  0.36508976445E+02  0.00000000000E+00 0. -1.
        -14    1    4    4    0    0 -0.28336675015E+02 -0.26737503552E+02  0.47344220749E+02  0.61313428264E+02  0.00000000000E+00 0.  1.
</event>
<event>
12    1  0.8494789E-002  0.2182002E+03  0.7818608E-02  0.1137199E+00
         21   -1    0    0  501  502  0.00000000000E+00  0.00000000000E+00  0.11625855887E+03  0.11625855887E+03  0.00000000000E+00 0.  1.
         21   -1    0    0  502  503 -0.00000000000E+00 -0.00000000000E+00 -0.43840309989E+03  0.43840309989E+03  0.00000000000E+00 0.  1.
         -6    2    1    2    0  503 -0.15749701732E+02 -0.11564927560E+03 -0.25600402027E+03  0.33637687013E+03  0.18435979037E+03 0.  0.
        -24    2    3    3    0    0 -0.63553726609E+02 -0.42732548471E+02 -0.56822647125E+02  0.11889725430E+03  0.71011245511E+02 0.  0.
          6    2    1    2  501    0  0.15749701732E+02  0.11564927560E+03 -0.66140520745E+02  0.21828478864E+03  0.17219428682E+03 0.  0.
         24    2    5    5    0    0 -0.51900705942E+02  0.36634270350E+02 -0.26132592935E+02  0.10673805851E+03  0.81696680963E+02 0.  0.
          5    1    5    5  501    0  0.67650407674E+02  0.79015005252E+02 -0.40007927809E+02  0.11154673012E+03  0.47000000000E+01 0. -1.
        -13    1    6    6    0    0 -0.31079241308E+02 -0.15942084751E+02  0.13751260145E+02  0.37538866020E+02  0.00000000000E+00 0.  1.
         14    1    6    6    0    0 -0.20821464634E+02  0.52576355101E+02 -0.39883853081E+02  0.69199192493E+02  0.00000000000E+00 0. -1.
         -5    1    3    3    0  503  0.47804024877E+02 -0.72916727131E+02 -0.19918137315E+03  0.21747961583E+03  0.47000000000E+01 0.  1.
         13    1    4    4    0    0 -0.47665771230E+02  0.69341307820E+01 -0.43905609454E+02  0.65175228869E+02  0.00000000000E+00 0. -1.
        -14    1    4    4    0    0 -0.15887955379E+02 -0.49666679253E+02 -0.12917037671E+02  0.53722025430E+02  0.00000000000E+00 0.  1.
</event>
<event>
12    1  0.8494789E-002  0.2487328E+03  0.7818608E-02  0.1114713E+00
         21   -1    0    0  501  502  0.00000000000E+00  0.00000000000E+00  0.16267921439E+04  0.16267921439E+04  0.00000000000E+00 0. -1.
         21   -1    0    0  502  503 -0.00000000000E+00 -0.00000000000E+00 -0.39301744502E+02  0.39301744502E+02  0.00000000000E+00 0. -1.
         -6    2    1    2    0  503 -0.12495835734E+03 -0.12864722472E+03  0.61902080412E+03  0.66712424474E+03  0.17234646063E+03 0.  0.
        -24    2    3    3    0    0 -0.12156556804E+03 -0.30978611067E+02  0.33646979270E+03  0.36811281826E+03  0.80976934315E+02 0.  0.
          6    2    1    2  501    0  0.12495835734E+03  0.12864722472E+03  0.96846959524E+03  0.99896964363E+03  0.16686009852E+03 0.  0.
         24    2    5    5    0    0  0.93072290040E+02  0.50196113767E+02  0.79976623536E+03  0.81014641483E+03  0.74357791960E+02 0.  0.
          5    1    5    5  501    0  0.31886067297E+02  0.78451110957E+02  0.16870335988E+03  0.18882322880E+03  0.47000000000E+01 0. -1.
        -11    1    6    6    0    0 -0.56061376877E+01  0.61644150095E+01  0.23431246871E+03  0.23446057619E+03  0.00000000000E+00 0.  1.
         12    1    6    6    0    0  0.98678427728E+02  0.44031698757E+02  0.56545376665E+03  0.57568583864E+03  0.00000000000E+00 0. -1.
         -5    1    3    3    0  503 -0.33927892987E+01 -0.97668613657E+02  0.28255101142E+03  0.29901142648E+03  0.47000000000E+01 0.  1.
         11    1    4    4    0    0 -0.10075644257E+03 -0.57081461052E+02  0.25458909922E+03  0.27968869007E+03  0.00000000000E+00 0. -1.
        -12    1    4    4    0    0 -0.20809125471E+02  0.26102849985E+02  0.81880693485E+02  0.88424128188E+02  0.00000000000E+00 0.  1.
</event>
<event>
12    1  0.8494789E-002  0.1873321E+03  0.7818608E-02  0.1161920E+00
         21   -1    0    0  503  502  0.00000000000E+00  0.00000000000E+00  0.93877973151E+02  0.93877973151E+02  0.00000000000E+00 0. -1.
         21   -1    0    0  501  503 -0.00000000000E+00 -0.00000000000E+00 -0.46454238741E+03  0.46454238741E+03  0.00000000000E+00 0. -1.
          6    2    1    2  501    0 -0.15413909476E+02  0.65941564300E+02 -0.31280971291E+03  0.36235787472E+03  0.16990419175E+03 0.  0.
         24    2    3    3    0    0 -0.15476928008E+02  0.99304638650E+02 -0.15646281604E+03  0.20242182231E+03  0.79956455557E+02 0.  0.
         -6    2    1    2    0  502  0.15413909476E+02 -0.65941564300E+02 -0.57854701355E+02  0.19606248584E+03  0.17466382962E+03 0.  0.
        -24    2    5    5    0    0  0.55372594366E+02 -0.89991429955E+02 -0.14516074577E+02  0.13222347655E+03  0.78152093116E+02 0.  0.
          5    1    3    3  501    0  0.63018532383E-01 -0.33363074350E+02 -0.15634689687E+03  0.15993605241E+03  0.47000000000E+01 0. -1.
        -13    1    4    4    0    0 -0.44382052089E+01 -0.13353250796E+02 -0.97654283440E+01  0.17128063610E+02  0.00000000000E+00 0.  1.
         14    1    4    4    0    0 -0.11038722799E+02  0.11265788945E+03 -0.14669738770E+03  0.18529375870E+03  0.00000000000E+00 0. -1.
         -5    1    5    5    0  502 -0.39958684891E+02  0.24049865655E+02 -0.43338626778E+02  0.63839009290E+02  0.47000000000E+01 0.  1.
         11    1    6    6    0    0 -0.22084712150E+01 -0.44639009653E+02  0.22580315107E+02  0.50073837063E+02  0.00000000000E+00 0. -1.
        -12    1    6    6    0    0  0.57581065581E+02 -0.45352420302E+02 -0.37096389684E+02  0.82149639490E+02  0.00000000000E+00 0.  1.
</event>
<event>
12    1  0.8494789E-002  0.2269975E+03  0.7818608E-02  0.1129147E+00
         21   -1    0    0  503  502  0.00000000000E+00  0.00000000000E+00  0.87827260785E+03  0.87827260785E+03  0.00000000000E+00 0.  1.
         21   -1    0    0  501  503 -0.00000000000E+00 -0.00000000000E+00 -0.13491620766E+03  0.13491620766E+03  0.00000000000E+00 0. -1.
          6    2    1    2  501    0 -0.11453768013E+03  0.86300885226E+02 -0.11240686031E+02  0.22518842430E+03  0.17325342841E+03 0.  0.
         24    2    3    3    0    0 -0.72188408060E+02  0.10982990558E+03  0.27673366096E+02  0.16287093802E+03  0.92126830184E+02 0.  0.
         -6    2    1    2    0  502  0.11453768013E+03 -0.86300885226E+02  0.75459708622E+03  0.78800039121E+03  0.17595775359E+03 0.  0.
        -24    2    5    5    0    0  0.16656991084E+01 -0.14449575834E+02  0.16975067174E+03  0.18802529731E+03  0.79540285882E+02 0.  0.
          5    1    3    3  501    0 -0.42349272067E+02 -0.23529020359E+02 -0.38914052128E+02  0.62317486283E+02  0.47000000000E+01 0. -1.
        -13    1    4    4    0    0  0.76466897803E+01  0.63159776243E+02 -0.72240048691E+01  0.64029801234E+02  0.00000000000E+00 0.  1.
         14    1    4    4    0    0 -0.79835097840E+02  0.46670129342E+02  0.34897370965E+02  0.98841136781E+02  0.00000000000E+00 0. -1.
         -5    1    5    5    0  502  0.11287198102E+03 -0.71851309391E+02  0.58484641448E+03  0.59997509389E+03  0.47000000000E+01 0.  1.
         11    1    6    6    0    0  0.56342556004E+01 -0.44958518692E+01 -0.75283330628E+01  0.10422730876E+02  0.00000000000E+00 0. -1.
        -12    1    6    6    0    0 -0.39685564920E+01 -0.99537239651E+01  0.17727900480E+03  0.17760256644E+03  0.00000000000E+00 0.  1.
</event>
<event>
12    1  0.8494789E-002  0.1751447E+03  0.7818608E-02  0.1172708E+00
         21   -1    0    0  503  502  0.00000000000E+00  0.00000000000E+00  0.16008649466E+03  0.16008649466E+03  0.00000000000E+00 0. -1.
         21   -1    0    0  501  503 -0.00000000000E+00 -0.00000000000E+00 -0.38589947397E+03  0.38589947397E+03  0.00000000000E+00 0. -1.
          6    2    1    2  501    0 -0.21021407309E+02  0.18347087301E+02 -0.30694637427E+03  0.35340026839E+03  0.17290794617E+03 0.  0.
         24    2    3    3    0    0 -0.50478840958E+02  0.46117694885E+02 -0.11395640634E+03  0.15615381148E+03  0.81993872511E+02 0.  0.
         -6    2    1    2    0  502  0.21021407309E+02 -0.18347087301E+02  0.81133394954E+02  0.19258570024E+03  0.17241841254E+03 0.  0.
        -24    2    5    5    0    0  0.48323496988E+02 -0.49013965731E+02  0.10173723415E+03  0.14640702850E+03  0.79668211880E+02 0.  0.
          5    1    3    3  501    0  0.29457433649E+02 -0.27770607584E+02 -0.19298996793E+03  0.19724645691E+03  0.47000000000E+01 0. -1.
        -11    1    4    4    0    0 -0.20979061631E+02 -0.61788509756E+01  0.54166593879E+01  0.22530854960E+02  0.00000000000E+00 0.  1.
         12    1    4    4    0    0 -0.29499779328E+02  0.52296545861E+02 -0.11937306573E+03  0.13362295652E+03  0.00000000000E+00 0. -1.
         -5    1    5    5    0  502 -0.27302089678E+02  0.30666878430E+02 -0.20603839199E+02  0.46178671735E+02  0.47000000000E+01 0.  1.
         11    1    6    6    0    0  0.49643792839E+02 -0.95244550811E+01  0.17724093518E+02  0.53566453150E+02  0.00000000000E+00 0. -1.
        -12    1    6    6    0    0 -0.13202958511E+01 -0.39489510650E+02  0.84013140635E+02  0.92840575353E+02  0.00000000000E+00 0.  1.
</event>
<event>
12    1  0.8494789E-002  0.1733984E+03  0.7818608E-02  0.1174661E+00
         21   -1    0    0  503  502  0.00000000000E+00  0.00000000000E+00  0.13895065186E+03  0.13895065186E+03  0.00000000000E+00 0. -1.
         21   -1    0    0  501  503 -0.00000000000E+00 -0.00000000000E+00 -0.21708488079E+03  0.21708488079E+03  0.00000000000E+00 0. -1.
          6    2    1    2  501    0 -0.76906777688E+01  0.10233575886E+02 -0.56931350396E+02  0.18134563990E+03  0.17170087319E+03 0.  0.
         24    2    3    3    0    0  0.51497448900E+02  0.43535695913E+02 -0.29125932494E+02  0.10780995604E+03  0.78913386792E+02 0.  0.
         -6    2    1    2    0  502  0.76906777688E+01 -0.10233575886E+02 -0.21202878539E+02  0.17468989275E+03  0.17292519762E+03 0.  0.
        -24    2    5    5    0    0  0.52397187787E+02 -0.78108424305E+01 -0.61801456047E+02  0.11406913582E+03  0.79911658909E+02 0.  0.
          5    1    3    3  501    0 -0.59188126669E+02 -0.33302120028E+02 -0.27805417902E+02  0.73535683866E+02  0.47000000000E+01 0. -1.
        -11    1    4    4    0    0  0.71557054299E+01  0.55282021513E+02 -0.49625137281E+01  0.55963671835E+02  0.00000000000E+00 0.  1.
         12    1    4    4    0    0  0.44341743470E+02 -0.11746325599E+02 -0.24163418765E+02  0.51846284201E+02  0.00000000000E+00 0. -1.
         -5    1    5    5    0  502 -0.44706510018E+02 -0.24227334552E+01  0.40598577508E+02  0.60620756932E+02  0.47000000000E+01 0.  1.
         13    1    6    6    0    0  0.10239177536E+02  0.17330907109E+02 -0.61787104508E+02  0.64983439286E+02  0.00000000000E+00 0. -1.
        -14    1    6    6    0    0  0.42158010251E+02 -0.25141749539E+02 -0.14351538186E-01  0.49085696534E+02  0.00000000000E+00 0.  1.
</event>
<event>
12    1  0.8494789E-002  0.1812605E+03  0.7818608E-02  0.1166981E+00
         21   -1    0    0  503  502  0.00000000000E+00  0.00000000000E+00  0.46337412639E+03  0.46337412639E+03  0.00000000000E+00 0. -1.
         21   -1    0    0  501  503 -0.00000000000E+00 -0.00000000000E+00 -0.76323690399E+02  0.76323690399E+02  0.00000000000E+00 0. -1.
          6    2    1    2  501    0 -0.54170903345E+02  0.99260544626E+00  0.11671479441E+03  0.21421860819E+03  0.17126528202E+03 0.  0.
         24    2    3    3    0    0 -0.63980842384E+02 -0.52359637307E+02  0.10879325377E+03  0.15919554469E+03  0.81683349415E+02 0.  0.
         -6    2    1    2    0  502  0.54170903345E+02 -0.99260544626E+00  0.27033564158E+03  0.32547920860E+03  0.17297365143E+03 0.  0.
        -24    2    5    5    0    0 -0.14997426347E+02 -0.16314857360E+02  0.22799957435E+03  0.24281445297E+03  0.80523010971E+02 0.  0.
          5    1    3    3  501    0  0.98099390388E+01  0.53352242753E+02  0.79215406418E+01  0.55023063499E+02  0.47000000000E+01 0. -1.
        -13    1    4    4    0    0 -0.31705155709E+02  0.82999934295E+01  0.76598508467E+02  0.83315294448E+02  0.00000000000E+00 0.  1.
         14    1    4    4    0    0 -0.32275686674E+02 -0.60659630736E+02  0.32194745301E+02  0.75880250239E+02  0.00000000000E+00 0. -1.
         -5    1    5    5    0  502  0.69168329692E+02  0.15322251914E+02  0.42336067223E+02  0.82664755634E+02  0.47000000000E+01 0.  1.
         11    1    6    6    0    0 -0.20527494123E+02  0.13075421658E+02  0.20117151210E+03  0.20263840196E+03  0.00000000000E+00 0. -1.
        -12    1    6    6    0    0  0.55300677759E+01 -0.29390279018E+02  0.26828062250E+02  0.40176051006E+02  0.00000000000E+00 0.  1.
</event>
<event>
12    1  0.8494789E-002  0.1936256E+03  0.7818608E-02  0.1155575E+00
         21   -1    0    0  503  502  0.00000000000E+00  0.00000000000E+00  0.10726850467E+03  0.10726850467E+03  0.00000000000E+00 0.  1.
         21   -1    0    0  501  503 -0.00000000000E+00 -0.00000000000E+00 -0.40118387467E+03  0.40118387467E+03  0.00000000000E+00 0.  1.
          6    2    1    2  501    0 -0.70752174549E+02  0.51099460905E+02 -0.24012761720E+03  0.30749466053E+03  0.17109841789E+03 0.  0.
         24    2    3    3    0    0 -0.34659247372E+02  0.94537986944E+02 -0.20110846913E+03  0.23868921850E+03  0.79932673354E+02 0.  0.
         -6    2    1    2    0  502  0.70752174549E+02 -0.51099460905E+02 -0.53787752803E+02  0.20095771881E+03  0.17284055453E+03 0.  0.
        -24    2    5    5    0    0 -0.18785658456E+02 -0.33848815661E+02  0.10754834778E+02  0.89143390961E+02  0.79575337861E+02 0.  0.
          5    1    3    3  501    0 -0.36092927177E+02 -0.43438526039E+02 -0.39019148070E+02  0.68805442029E+02  0.47000000000E+01 0. -1.
        -13    1    4    4    0    0  0.42669004263E+01  0.88030926436E+02 -0.15181275089E+03  0.17554133924E+03  0.00000000000E+00 0.  1.
         14    1    4    4    0    0 -0.38926147798E+02  0.65070605088E+01 -0.49295718239E+02  0.63147879264E+02  0.00000000000E+00 0. -1.
         -5    1    5    5    0  502  0.89537833005E+02 -0.17250645245E+02 -0.64542587582E+02  0.11181432785E+03  0.47000000000E+01 0.  1.
         11    1    6    6    0    0  0.11413344992E+01  0.25592351185E+02  0.53443031313E+00  0.25623362374E+02  0.00000000000E+00 0. -1.
        -12    1    6    6    0    0 -0.19926992955E+02 -0.59441166845E+02  0.10220404465E+02  0.63520028586E+02  0.00000000000E+00 0.  1.
</event>
<event>
12    1  0.8494789E-002  0.2087304E+03  0.7818608E-02  0.1142593E+00
         21   -1    0    0  501  502  0.00000000000E+00  0.00000000000E+00  0.19721721904E+04  0.19721721904E+04  0.00000000000E+00 0.  1.
         21   -1    0    0  502  503 -0.00000000000E+00 -0.00000000000E+00 -0.41926135287E+02  0.41926135287E+02  0.00000000000E+00 0.  1.
         -6    2    1    2    0  503 -0.11775183242E+03 -0.76856955847E+01  0.27219285060E+03  0.34295834777E+03  0.17206660464E+03 0.  0.
        -24    2    3    3    0    0 -0.44361315702E+02  0.41523709096E+02  0.21462173989E+03  0.23739198834E+03  0.81242354414E+02 0.  0.
          6    2    1    2  501    0  0.11775183242E+03  0.76856955847E+01  0.16580532045E+04  0.16711399779E+04  0.17217384487E+03 0.  0.
         24    2    5    5    0    0  0.11427046718E+03 -0.21746941980E+02  0.77482786852E+03  0.78740501528E+03  0.78216130654E+02 0.  0.
          5    1    5    5  501    0  0.34813652349E+01  0.29432637565E+02  0.88322533602E+03  0.88373496267E+03  0.47000000000E+01 0. -1.
        -11    1    6    6    0    0  0.40717228322E+02 -0.26240789955E+02  0.51666796836E+03  0.51893377349E+03  0.00000000000E+00 0.  1.
         12    1    6    6    0    0  0.73553238862E+02  0.44938479751E+01  0.25815990016E+03  0.26847124179E+03  0.00000000000E+00 0. -1.
         -5    1    3    3    0  503 -0.73390516717E+02 -0.49209404681E+02  0.57571110718E+02  0.10556635943E+03  0.47000000000E+01 0.  1.
         13    1    4    4    0    0 -0.33494877780E+02 -0.19428524528E+02  0.97610533927E+02  0.10501043156E+03  0.00000000000E+00 0. -1.
        -14    1    4    4    0    0 -0.10866437922E+02  0.60952233624E+02  0.11701120596E+03  0.13238155678E+03  0.00000000000E+00 0.  1.
</event>
<event>
12    1  0.8494789E-002  0.1954895E+03  0.7818608E-02  0.1153768E+00
         21   -1    0    0  503  502  0.00000000000E+00  0.00000000000E+00  0.40603520059E+02  0.40603520059E+02  0.00000000000E+00 0. -1.
         21   -1    0    0  501  503 -0.00000000000E+00 -0.00000000000E+00 -0.93900361245E+03  0.93900361245E+03  0.00000000000E+00 0.  1.
          6    2    1    2  501    0 -0.66842789340E+02 -0.63170346598E+02 -0.46955368332E+03  0.50862247499E+03  0.17250423000E+03 0.  0.
         24    2    3    3    0    0 -0.20609719237E+02  0.24410265817E+02 -0.30172937188E+03  0.31369954162E+03  0.79662832954E+02 0.  0.
         -6    2    1    2    0  502  0.66842789340E+02  0.63170346598E+02 -0.42884640907E+03  0.47098465752E+03  0.17163581756E+03 0.  0.
        -24    2    5    5    0    0 -0.11980425696E+02  0.62270405067E+02 -0.15049901995E+03  0.18165220488E+03  0.79538887235E+02 0.  0.
          5    1    3    3  501    0 -0.46233070103E+02 -0.87580612415E+02 -0.16782431144E+03  0.19492293337E+03  0.47000000000E+01 0. -1.
        -13    1    4    4    0    0 -0.38998715076E+02  0.39466993511E+02 -0.25830223951E+03  0.26419422834E+03  0.00000000000E+00 0.  1.
         14    1    4    4    0    0  0.18388995840E+02 -0.15056727694E+02 -0.43427132371E+02  0.49505313279E+02  0.00000000000E+00 0. -1.
         -5    1    5    5    0  502  0.78823215036E+02  0.89994153062E+00 -0.27834738911E+03  0.28933245264E+03  0.47000000000E+01 0.  1.
         11    1    6    6    0    0 -0.32331962490E+02  0.15342032522E+02 -0.11215061943E+03  0.11772211007E+03  0.00000000000E+00 0. -1.
        -12    1    6    6    0    0  0.20351536794E+02  0.46928372545E+02 -0.38348400523E+02  0.63930094809E+02  0.00000000000E+00 0.  1.
</event>
<event>
12    1  0.8494789E-002  0.1854329E+03  0.7818608E-02  0.1162672E+00
         21   -1    0    0  503  502  0.00000000000E+00  0.00000000000E+00  0.16763952035E+04  0.16763952035E+04  0.00000000000E+00 0. -1.
         21   -1    0    0  501  503 -0.00000000000E+00 -0.00000000000E+00 -0.26809542487E+02  0.26809542487E+02  0.00000000000E+00 0. -1.
          6    2    1    2  501    0  0.53239499178E+02 -0.45877780668E+02  0.41182573351E+03  0.45164786407E+03  0.17159878584E+03 0.  0.
         24    2    3    3    0    0  0.11365544702E+02  0.16674225477E+02  0.33169100528E+03  0.34160311769E+03  0.79161617164E+02 0.  0.
         -6    2    1    2    0  502 -0.53239499178E+02  0.45877780668E+02  0.12377599275E+04  0.12515568820E+04  0.17148112292E+03 0.  0.
        -24    2    5    5    0    0 -0.31451669203E+02  0.13622324471E+02  0.11696671270E+04  0.11729830728E+04  0.81199298277E+02 0.  0.
          5    1    3    3  501    0  0.41873954476E+02 -0.62552006145E+02  0.80134728234E+02  0.11004474638E+03  0.47000000000E+01 0. -1.
        -11    1    4    4    0    0 -0.46876955888E+01  0.19126871816E+02  0.15674051285E+02  0.25169179547E+02  0.00000000000E+00 0.  1.
         12    1    4    4    0    0  0.16053240291E+02 -0.24526463389E+01  0.31601695399E+03  0.31643393814E+03  0.00000000000E+00 0. -1.
         -5    1    5    5    0  502 -0.21787829975E+02  0.32255456198E+02  0.68092800583E+02  0.78573809127E+02  0.47000000000E+01 0.  1.
         11    1    6    6    0    0 -0.52810170461E+02  0.24554302031E+02  0.60239173346E+03  0.60520048612E+03  0.00000000000E+00 0. -1.
        -12    1    6    6    0    0  0.21358501258E+02 -0.10931977560E+02  0.56727539349E+03  0.56778258670E+03  0.00000000000E+00 0.  1.
</event>
<event>
12    1  0.8494789E-002  0.1751269E+03  0.7818608E-02  0.1172856E+00
         21   -1    0    0  503  502  0.00000000000E+00  0.00000000000E+00  0.97178508344E+03  0.97178508344E+03  0.00000000000E+00 0.  1.
         21   -1    0    0  501  503 -0.00000000000E+00 -0.00000000000E+00 -0.12855846134E+03  0.12855846134E+03  0.00000000000E+00 0.  1.
          6    2    1    2  501    0 -0.13013104885E+02  0.27208356229E+02 -0.56427392165E+02  0.18399316623E+03  0.17251028690E+03 0.  0.
         24    2    3    3    0    0  0.36423955055E+02 -0.22334009170E+02 -0.66906594885E+02  0.11306804688E+03  0.80513218292E+02 0.  0.
         -6    2    1    2    0  502  0.13013104885E+02 -0.27208356229E+02  0.89965401426E+03  0.91635037855E+03  0.17149645871E+03 0.  0.
        -24    2    5    5    0    0  0.42244563512E+02  0.29770203759E+02  0.70335535196E+03  0.70981638791E+03  0.80372167005E+02 0.  0.
          5    1    3    3  501    0 -0.49437059940E+02  0.49542365399E+02  0.10479202721E+02  0.70925119348E+02  0.47000000000E+01 0. -1.
        -13    1    4    4    0    0  0.19917388689E+02  0.18517376155E+02 -0.63259037026E+02  0.68857108255E+02  0.00000000000E+00 0.  1.
         14    1    4    4    0    0  0.16506566366E+02 -0.40851385325E+02 -0.36475578596E+01  0.44210938629E+02  0.00000000000E+00 0. -1.
         -5    1    5    5    0  502 -0.29231458627E+02 -0.56978559989E+02  0.19629866230E+03  0.20653399065E+03  0.47000000000E+01 0.  1.
         13    1    6    6    0    0  0.35403584503E+02  0.14454636197E+02  0.11439929620E+03  0.12062151249E+03  0.00000000000E+00 0. -1.
        -14    1    6    6    0    0  0.68409790084E+01  0.15315567562E+02  0.58895605576E+03  0.58919487542E+03  0.00000000000E+00 0.  1.
</event>
<event>
12    1  0.8494789E-002  0.1783709E+03  0.7818608E-02  0.1170048E+00
         21   -1    0    0  501  502  0.00000000000E+00  0.00000000000E+00  0.79124185765E+02  0.79124185765E+02  0.00000000000E+00 0. -1.
         21   -1    0    0  502  503 -0.00000000000E+00 -0.00000000000E+00 -0.50476591947E+03  0.50476591947E+03  0.00000000000E+00 0. -1.
         -6    2    1    2    0  503  0.22881235290E+02  0.23093430662E+02 -0.34700961467E+03  0.38895630873E+03  0.17266870001E+03 0.  0.
        -24    2    3    3    0    0  0.42632545325E+00 -0.41586187195E+02 -0.10776779502E+03  0.14006594289E+03  0.79214758698E+02 0.  0.
          6    2    1    2  501    0 -0.22881235290E+02 -0.23093430662E+02 -0.78632119034E+02  0.19493379650E+03  0.17538334415E+03 0.  0.
         24    2    5    5    0    0 -0.58353833606E+02  0.35657236274E+02 -0.25318977953E+02  0.10790318632E+03  0.79532625867E+02 0.  0.
          5    1    5    5  501    0  0.35472598316E+02 -0.58750666937E+02 -0.53313141080E+02  0.87030610182E+02  0.47000000000E+01 0. -1.
        -11    1    6    6    0    0 -0.54641051320E+02 -0.92697320549E+01  0.15122932817E+01  0.55442397610E+02  0.00000000000E+00 0.  1.
         12    1    6    6    0    0 -0.37127822858E+01  0.44926968329E+02 -0.26831271235E+02  0.52460788706E+02  0.00000000000E+00 0. -1.
         -5    1    3    3    0  503  0.22454909837E+02  0.64679617857E+02 -0.23924181965E+03  0.24889036584E+03  0.47000000000E+01 0.  1.
         13    1    4    4    0    0 -0.17514264736E+02 -0.54954222975E+02 -0.10164602054E+03  0.11687013983E+03  0.00000000000E+00 0. -1.
        -14    1    4    4    0    0  0.17940590190E+02  0.13368035780E+02 -0.61217744837E+01  0.23195803064E+02  0.00000000000E+00 0.  1.
</event>
<event>
12    1  0.8494789E-002  0.1804015E+03  0.7818608E-02  0.1167712E+00
         21   -1    0    0  501  502  0.00000000000E+00  0.00000000000E+00  0.18799914710E+02  0.18799914710E+02  0.00000000000E+00 0.  1.
         21   -1    0    0  502  503 -0.00000000000E+00 -0.00000000000E+00 -0.18031022024E+04  0.18031022024E+04  0.00000000000E+00 0.  1.
         -6    2    1    2    0  503  0.55824431471E+02 -0.16940554266E+02 -0.10913579710E+04  0.11061676744E+04  0.17070838730E+03 0.  0.
        -24    2    3    3    0    0  0.14369574045E+01 -0.62721047962E+02 -0.48500719342E+03  0.49564559748E+03  0.80601401510E+02 0.  0.
          6    2    1    2  501    0 -0.55824431471E+02  0.16940554266E+02 -0.69294431667E+03  0.71573444269E+03  0.16941256423E+03 0.  0.
         24    2    5    5    0    0 -0.89298338117E+02 -0.96095731918E+01 -0.35164376686E+03  0.37173797905E+03  0.80431643096E+02 0.  0.
          5    1    5    5  501    0  0.33473906646E+02  0.26550127458E+02 -0.34130054981E+03  0.34399646364E+03  0.47000000000E+01 0. -1.
        -13    1    6    6    0    0 -0.52842016554E+02  0.34507607826E+02 -0.19564238916E+03  0.20556993493E+03  0.00000000000E+00 0.  1.
         14    1    6    6    0    0 -0.36456321563E+02 -0.44117181017E+02 -0.15600137770E+03  0.16616804412E+03  0.00000000000E+00 0. -1.
         -5    1    3    3    0  503  0.54387474067E+02  0.45780493696E+02 -0.60635077757E+03  0.61052207691E+03  0.47000000000E+01 0.  1.
         13    1    4    4    0    0 -0.14091530407E+02  0.16142954159E+02 -0.86656691853E+02  0.89266726394E+02  0.00000000000E+00 0. -1.
        -14    1    4    4    0    0  0.15528487811E+02 -0.78864002121E+02 -0.39835050157E+03  0.40637887108E+03  0.00000000000E+00 0.  1.
</event>
<event>
12    1  0.8494789E-002  0.2152030E+03  0.7818608E-02  0.1137595E+00
         21   -1    0    0  501  502  0.00000000000E+00  0.00000000000E+00  0.84240678338E+02  0.84240678338E+02  0.00000000000E+00 0. -1.
         21   -1    0    0  502  503 -0.00000000000E+00 -0.00000000000E+00 -0.57453040942E+03  0.57453040942E+03  0.00000000000E+00 0.  1.
         -6    2    1    2    0  503 -0.12860719072E+03 -0.13650594089E+02 -0.31531315952E+03  0.38175214884E+03  0.17200629742E+03 0.  0.
        -24    2    3    3    0    0 -0.61319745671E+02  0.48959986929E+02 -0.23190898658E+03  0.25755057405E+03  0.79958292922E+02 0.  0.
          6    2    1    2  501    0  0.12860719072E+03  0.13650594089E+02 -0.17497657156E+03  0.27701893892E+03  0.17145420293E+03 0.  0.
         24    2    5    5    0    0  0.11770531786E+03 -0.41062508943E+02 -0.80875130256E+02  0.16752215481E+03  0.77344774645E+02 0.  0.
          5    1    5    5  501    0  0.10901872854E+02  0.54713103032E+02 -0.94101441306E+02  0.10949678411E+03  0.47000000000E+01 0. -1.
        -11    1    6    6    0    0  0.90630110744E+02 -0.23114124750E+02 -0.93890807736E+02  0.13252759529E+03  0.00000000000E+00 0.  1.
         12    1    6    6    0    0  0.27075207117E+02 -0.17948384193E+02  0.13015677481E+02  0.34994559518E+02  0.00000000000E+00 0. -1.
         -5    1    3    3    0  503 -0.67287445045E+02 -0.62610581018E+02 -0.83404172946E+02  0.12420157479E+03  0.47000000000E+01 0.  1.
         13    1    4    4    0    0 -0.13881780151E+02  0.38048423134E+02 -0.31484350778E+02  0.51299616637E+02  0.00000000000E+00 0. -1.
        -14    1    4    4    0    0 -0.47437965520E+02  0.10911563795E+02 -0.20042463580E+03  0.20625095741E+03  0.00000000000E+00 0.  1.
</event>
<event>
12    1  0.8494789E-002  0.2917126E+03  0.7818608E-02  0.1089567E+00
         21   -1    0    0  501  502  0.00000000000E+00  0.00000000000E+00  0.52891012650E+03  0.52891012650E+03  0.00000000000E+00 0. -1.
         21   -1    0    0  502  503 -0.00000000000E+00 -0.00000000000E+00 -0.22614649273E+03  0.22614649273E+03  0.00000000000E+00 0. -1.
         -6    2    1    2    0  503  0.28864102192E+02  0.23384909191E+03 -0.51977091423E+02  0.29630700755E+03  0.17198165747E+03 0.  0.
        -24    2    3    3    0    0 -0.38710187746E+02  0.11290069037E+03 -0.63910691983E+02  0.15716930123E+03  0.79828367008E+02 0.  0.
          6    2    1    2  501    0 -0.28864102192E+02 -0.23384909191E+03  0.35474072520E+03  0.45874961168E+03  0.17056286207E+03 0.  0.
         24    2    5    5    0    0 -0.83423206614E+02 -0.13303426830E+03  0.22495515543E+03  0.28552516579E+03  0.79134381891E+02 0.  0.
          5    1    5    5  501    0  0.54559104421E+02 -0.10081482361E+03  0.12978556977E+03  0.17322444589E+03  0.47000000000E+01 0. -1.
        -11    1    6    6    0    0 -0.30447761364E+02 -0.43887828364E+02  0.14516905291E+03  0.15468439344E+03  0.00000000000E+00 0.  1.
         12    1    6    6    0    0 -0.52975445250E+02 -0.89146439934E+02  0.79786102522E+02  0.13084077235E+03  0.00000000000E+00 0. -1.
         -5    1    3    3    0  503  0.67574289938E+02  0.12094840155E+03  0.11933600561E+02  0.13913770632E+03  0.47000000000E+01 0.  1.
         13    1    4    4    0    0 -0.42526859745E+02  0.10853694109E+03 -0.79124595768E+02  0.14088826437E+03  0.00000000000E+00 0. -1.
        -14    1    4    4    0    0  0.38166719993E+01  0.43637492713E+01  0.15213903785E+02  0.16281036860E+02  0.00000000000E+00 0.  1.
</event>
<event>
12    1  0.8494789E-002  0.3140990E+03  0.7818608E-02  0.1078422E+00
         21   -1    0    0  501  502  0.00000000000E+00  0.00000000000E+00  0.22976363879E+03  0.22976363879E+03  0.00000000000E+00 0.  1.
         21   -1    0    0  502  503 -0.00000000000E+00 -0.00000000000E+00 -0.43787326752E+03  0.43787326752E+03  0.00000000000E+00 0. -1.
         -6    2    1    2    0  503  0.24805626582E+03  0.86230803925E+02 -0.15126112912E+03  0.34843483233E+03  0.17192801005E+03 0.  0.
        -24    2    3    3    0    0  0.21357858010E+03  0.33692284050E+02 -0.16737713313E+03  0.28339005953E+03  0.74456975903E+02 0.  0.
          6    2    1    2  501    0 -0.24805626582E+03 -0.86230803925E+02 -0.56848499608E+02  0.31920207398E+03  0.17230945873E+03 0.  0.
         24    2    5    5    0    0 -0.42788829175E+02 -0.52760193094E+02 -0.46472305513E+01  0.10472115448E+03  0.79563820718E+02 0.  0.
          5    1    5    5  501    0 -0.20526743664E+03 -0.33470610831E+02 -0.52201269057E+02  0.21448091949E+03  0.47000000000E+01 0. -1.
        -13    1    6    6    0    0  0.13544647993E+02  0.11923856984E+02  0.40851453589E+01  0.18502007113E+02  0.00000000000E+00 0.  1.
         14    1    6    6    0    0 -0.56333477168E+02 -0.64684050078E+02 -0.87323759102E+01  0.86219147371E+02  0.00000000000E+00 0. -1.
         -5    1    3    3    0  503  0.34477685717E+02  0.52538519875E+02  0.16116004014E+02  0.65044772799E+02  0.47000000000E+01 0.  1.
         13    1    4    4    0    0  0.77999105288E+02  0.42831124729E+02 -0.92014178645E+02  0.12800380753E+03  0.00000000000E+00 0. -1.
        -14    1    4    4    0    0  0.13557947482E+03 -0.91388406788E+01 -0.75362954486E+02  0.15538625199E+03  0.00000000000E+00 0.  1.
</event>
<event>
12    1  0.8494789E-002  0.1867918E+03  0.7818608E-02  0.1161576E+00
         21   -1    0    0  501  502  0.00000000000E+00  0.00000000000E+00  0.46544044164E+02  0.46544044164E+02  0.00000000000E+00 0.  1.
         21   -1    0    0  502  503 -0.00000000000E+00 -0.00000000000E+00 -0.91974831153E+03  0.91974831153E+03  0.00000000000E+00 0. -1.
         -6    2    1    2    0  503  0.65949004207E+02  0.24843242761E+02 -0.64715455314E+03  0.67357270428E+03  0.17298761353E+03 0.  0.
        -24    2    3    3    0    0  0.92639878882E+02  0.64213037896E+02 -0.51084355792E+03  0.52912492487E+03  0.79414004132E+02 0.  0.
          6    2    1    2  501    0 -0.65949004207E+02 -0.24843242761E+02 -0.22604971422E+03  0.29271965141E+03  0.17210422178E+03 0.  0.
         24    2    5    5    0    0 -0.63347340433E+02 -0.63339418036E+02 -0.84905857745E+02  0.14632155584E+03  0.78588966187E+02 0.  0.
          5    1    5    5  501    0 -0.26016637746E+01  0.38496175276E+02 -0.14114385648E+03  0.14639809557E+03  0.47000000000E+01 0. -1.
        -11    1    6    6    0    0  0.53449103163E+01  0.51815490699E+01 -0.37690546595E+02  0.38418664991E+02  0.00000000000E+00 0.  1.
         12    1    6    6    0    0 -0.68692250749E+02 -0.68520967106E+02 -0.47215311150E+02  0.10790289085E+03  0.00000000000E+00 0. -1.
         -5    1    3    3    0  503 -0.26690874674E+02 -0.39369795135E+02 -0.13631099522E+03  0.14444777941E+03  0.47000000000E+01 0.  1.
         13    1    4    4    0    0  0.22423299285E+01 -0.16332297367E+02 -0.50332604048E+02  0.52963600812E+02  0.00000000000E+00 0. -1.
        -14    1    4    4    0    0  0.90397548953E+02  0.80545335263E+02 -0.46051095387E+03  0.47616132406E+03  0.00000000000E+00 0.  1.
</event>
<event>
12    1  0.8494789E-002  0.1811486E+03  0.7818608E-02  0.1167562E+00
         21   -1    0    0  503  502  0.00000000000E+00  0.00000000000E+00  0.17808817154E+03  0.17808817154E+03  0.00000000000E+00 0.  1.
         21   -1    0    0  501  503 -0.00000000000E+00 -0.00000000000E+00 -0.23353491559E+03  0.23353491559E+03  0.00000000000E+00 0.  1.
          6    2    1    2  501    0  0.19204214017E+01  0.39060179866E+02 -0.12544917071E+03  0.21741915912E+03  0.17321723543E+03 0.  0.
         24    2    3    3    0    0  0.20491964822E+02  0.30479524325E+01 -0.14950711506E+03  0.17006245488E+03  0.78355921727E+02 0.  0.
         -6    2    1    2    0  502 -0.19204214017E+01 -0.39060179866E+02  0.70002426672E+02  0.19420392801E+03  0.17687690704E+03 0.  0.
        -24    2    5    5    0    0  0.30251786147E+02  0.38485479045E+02  0.19626883434E+02  0.96182677708E+02  0.80433763280E+02 0.  0.
          5    1    3    3  501    0 -0.18571543420E+02  0.36012227433E+02  0.24057944350E+02  0.47356704235E+02  0.47000000000E+01 0. -1.
        -13    1    4    4    0    0  0.36305426938E+02  0.30806013525E+02 -0.73025763631E+02  0.87177156689E+02  0.00000000000E+00 0.  1.
         14    1    4    4    0    0 -0.15813462116E+02 -0.27758061092E+02 -0.76481351433E+02  0.82885298194E+02  0.00000000000E+00 0. -1.
         -5    1    5    5    0  502 -0.32172207548E+02 -0.77545658911E+02  0.50375543238E+02  0.98021250303E+02  0.47000000000E+01 0.  1.
         13    1    6    6    0    0 -0.20415004650E+01  0.56311341017E+02  0.52462984920E+01  0.56592035651E+02  0.00000000000E+00 0. -1.
        -14    1    6    6    0    0  0.32293286612E+02 -0.17825861972E+02  0.14380584942E+02  0.39590642057E+02  0.00000000000E+00 0.  1.
</event>
<event>
12    1  0.8494789E-002  0.2563273E+03  0.7818608E-02  0.1110194E+00
         21   -1    0    0  503  502  0.00000000000E+00  0.00000000000E+00  0.12335175444E+04  0.12335175444E+04  0.00000000000E+00 0. -1.
         21   -1    0    0  501  503 -0.00000000000E+00 -0.00000000000E+00 -0.11360655403E+03  0.11360655403E+03  0.00000000000E+00 0.  1.
          6    2    1    2  501    0 -0.17032959788E+03  0.86114485193E+02  0.67320768287E+02  0.26502030621E+03  0.17110172526E+03 0.  0.
         24    2    3    3    0    0 -0.15513103696E+03  0.86121107368E+02 -0.94220942233E+00  0.19492807823E+03  0.80706778903E+02 0.  0.
         -6    2    1    2    0  502  0.17032959788E+03 -0.86114485193E+02  0.10525902221E+04  0.10821037922E+04  0.16301706979E+03 0.  0.
        -24    2    5    5    0    0  0.15918355216E+03 -0.71939224361E+02  0.10442697530E+04  0.10616956428E+04  0.78636287879E+02 0.  0.
          5    1    3    3  501    0 -0.15198560918E+02 -0.66221751059E-02  0.68262977709E+02  0.70092227983E+02  0.47000000000E+01 0. -1.
        -13    1    4    4    0    0 -0.17119801508E+02  0.39048242996E+02 -0.21359601275E+02  0.47687372032E+02  0.00000000000E+00 0.  1.
         14    1    4    4    0    0 -0.13801123545E+03  0.47072864372E+02  0.20417391852E+02  0.14724070620E+03  0.00000000000E+00 0. -1.
         -5    1    5    5    0  502  0.11146045723E+02 -0.14175260832E+02  0.83204691042E+01  0.20408149378E+02  0.47000000000E+01 0.  1.
         13    1    6    6    0    0  0.21897695678E+02 -0.25565825866E+02  0.39599096859E+03  0.39741913357E+03  0.00000000000E+00 0. -1.
        -14    1    6    6    0    0  0.13728585648E+03 -0.46373398495E+02  0.64827878437E+03  0.66427650925E+03  0.00000000000E+00 0.  1.
</event>
<event>
12    1  0.8494789E-002  0.1835958E+03  0.7818608E-02  0.1164615E+00
         21   -1    0    0  501  502  0.00000000000E+00  0.00000000000E+00  0.17454563922E+04  0.17454563922E+04  0.00000000000E+00 0.  1.
         21   -1    0    0  502  503 -0.00000000000E+00 -0.00000000000E+00 -0.44602072851E+02  0.44602072851E+02  0.00000000000E+00 0.  1.
         -6    2    1    2    0  503 -0.10882507239E+01 -0.59195115342E+02  0.17604473643E+03  0.25436032246E+03  0.17378773963E+03 0.  0.
        -24    2    3    3    0    0  0.28415813736E+02 -0.10009752580E+03  0.13694694734E+03  0.19037419807E+03  0.81614311032E+02 0.  0.
          6    2    1    2  501    0  0.10882507239E+01  0.59195115342E+02  0.15248095829E+04  0.15356981426E+04  0.17268258465E+03 0.  0.
         24    2    5    5    0    0 -0.26089018980E+02  0.30991954615E+02  0.38028401992E+03  0.39049297468E+03  0.78915710134E+02 0.  0.
          5    1    5    5  501    0  0.27177269704E+02  0.28203160727E+02  0.11445255630E+04  0.11452051679E+04  0.47000000000E+01 0. -1.
        -11    1    6    6    0    0 -0.14813472623E+02 -0.10570975665E+02  0.28887133301E+03  0.28944400414E+03  0.00000000000E+00 0.  1.
         12    1    6    6    0    0 -0.11275546357E+02  0.41562930280E+02  0.91412686905E+02  0.10104897054E+03  0.00000000000E+00 0. -1.
         -5    1    3    3    0  503 -0.29504064460E+02  0.40902410462E+02  0.39097789096E+02  0.63986124382E+02  0.47000000000E+01 0.  1.
         11    1    4    4    0    0  0.15681488140E+02 -0.26170611499E+02  0.10410661596E+03  0.10848501031E+03  0.00000000000E+00 0. -1.
        -12    1    4    4    0    0  0.12734325596E+02 -0.73926914304E+02  0.32840331378E+02  0.81889187760E+02  0.00000000000E+00 0.  1.
</event>
<event>
12    1  0.8494789E-002  0.1790717E+03  0.7818608E-02  0.1168831E+00
         21   -1    0    0  501  502  0.00000000000E+00  0.00000000000E+00  0.16298960511E+04  0.16298960511E+04  0.00000000000E+00 0.  1.
         21   -1    0    0  502  503 -0.00000000000E+00 -0.00000000000E+00 -0.20678122079E+02  0.20678122079E+02  0.00000000000E+00 0. -1.
         -6    2    1    2    0  503 -0.43900200000E+02 -0.42307983880E+02  0.99264660298E+03  0.10086694031E+04  0.16837307745E+03 0.  0.
        -24    2    3    3    0    0 -0.76627180471E+02 -0.60530508737E+02  0.86541028972E+03  0.87595058347E+03  0.93908401383E+02 0.  0.
          6    2    1    2  501    0  0.43900200000E+02  0.42307983880E+02  0.61657132601E+03  0.64190477009E+03  0.16782234875E+03 0.  0.
         24    2    5    5    0    0  0.79590005660E+02  0.16290004591E+02  0.56058714241E+03  0.57044137884E+03  0.67420243339E+02 0.  0.
          5    1    5    5  501    0 -0.35689805660E+02  0.26017979289E+02  0.55984183606E+02  0.71463391246E+02  0.47000000000E+01 0. -1.
        -13    1    6    6    0    0  0.30640620730E+01 -0.13974407222E+02  0.20315936880E+03  0.20366246995E+03  0.00000000000E+00 0.  1.
         14    1    6    6    0    0  0.76525943587E+02  0.30264411813E+02  0.35742777361E+03  0.36677890889E+03  0.00000000000E+00 0. -1.
         -5    1    3    3    0  503  0.32726980471E+02  0.18222524858E+02  0.12723631326E+03  0.13271881960E+03  0.47000000000E+01 0.  1.
         13    1    4    4    0    0 -0.64529091202E+02 -0.74718520005E+02  0.47785334645E+03  0.48794536738E+03  0.00000000000E+00 0. -1.
        -14    1    4    4    0    0 -0.12098089269E+02  0.14188011268E+02  0.38755694327E+03  0.38800521608E+03  0.00000000000E+00 0.  1.
</event>
<event>
12    1  0.8494789E-002  0.3478740E+03  0.7818608E-02  0.1063511E+00
         21   -1    0    0  503  502  0.00000000000E+00  0.00000000000E+00  0.52529058134E+03  0.52529058134E+03  0.00000000000E+00 0. -1.
         21   -1    0    0  501  503 -0.00000000000E+00 -0.00000000000E+00 -0.24875872134E+03  0.24875872134E+03  0.00000000000E+00 0.  1.
          6    2    1    2  501    0 -0.11633183862E+03  0.27832896814E+03  0.24386366411E+03  0.42483625170E+03  0.17325196363E+03 0.  0.
         24    2    3    3    0    0 -0.81059957100E+02  0.27553546232E+03  0.17604674267E+03  0.34819987565E+03  0.88091941477E+02 0.  0.
         -6    2    1    2    0  502  0.11633183862E+03 -0.27832896814E+03  0.32668195886E+02  0.34921305098E+03  0.17286536022E+03 0.  0.
        -24    2    5    5    0    0  0.13761874507E+03 -0.28091257819E+03  0.18548373569E+02  0.32311196269E+03  0.78781360054E+02 0.  0.
          5    1    3    3  501    0 -0.35271881518E+02  0.27935058168E+01  0.67816921440E+02  0.76636376051E+02  0.47000000000E+01 0. -1.
        -11    1    4    4    0    0 -0.46712145863E+01  0.88368807950E+02  0.15036620187E+02  0.89760606119E+02  0.00000000000E+00 0.  1.
         12    1    4    4    0    0 -0.76388742514E+02  0.18716665437E+03  0.16101012248E+03  0.25843926953E+03  0.00000000000E+00 0. -1.
         -5    1    5    5    0  502 -0.21286906456E+02  0.25836100463E+01  0.14119822317E+02  0.26101088284E+02  0.47000000000E+01 0.  1.
         13    1    6    6    0    0  0.47603209000E+02 -0.35853431963E+02 -0.10214342557E+02  0.60463765054E+02  0.00000000000E+00 0. -1.
        -14    1    6    6    0    0  0.90015536075E+02 -0.24505914622E+03  0.28762716126E+02  0.26264819764E+03  0.00000000000E+00 0.  1.
</event>
<event>
12    1  0.8494789E-002  0.1838943E+03  0.7818608E-02  0.1164220E+00
         21   -1    0    0  503  502  0.00000000000E+00  0.00000000000E+00  0.72409922725E+03  0.72409922725E+03  0.00000000000E+00 0.  1.
         21   -1    0    0  501  503 -0.00000000000E+00 -0.00000000000E+00 -0.64149916671E+02  0.64149916671E+02  0.00000000000E+00 0.  1.
          6    2    1    2  501    0 -0.66964942771E+01 -0.63406344594E+02  0.12321604356E+03  0.22088707739E+03  0.17188280890E+03 0.  0.
         24    2    3    3    0    0  0.55192453883E+02 -0.48217102579E+02  0.11162485098E+03  0.15594555968E+03  0.80546969395E+02 0.  0.
         -6    2    1    2    0  502  0.66964942771E+01  0.63406344594E+02  0.53673326701E+03  0.56736206653E+03  0.17248741127E+03 0.  0.
        -24    2    5    5    0    0 -0.69738333565E+01  0.84052221546E+02  0.21475652426E+03  0.24440039239E+03  0.80608788522E+02 0.  0.
          5    1    3    3  501    0 -0.61888948160E+02 -0.15189242015E+02  0.11591192576E+02  0.64941517711E+02  0.47000000000E+01 0. -1.
        -11    1    4    4    0    0  0.25485746434E+02  0.16675726954E+02  0.10588538937E+02  0.32244694100E+02  0.00000000000E+00 0.  1.
         12    1    4    4    0    0  0.29706707448E+02 -0.64892829533E+02  0.10103631205E+03  0.12370086558E+03  0.00000000000E+00 0. -1.
         -5    1    5    5    0  502  0.13670327634E+02 -0.20645876952E+02  0.32197674275E+03  0.32296167414E+03  0.47000000000E+01 0.  1.
         11    1    6    6    0    0  0.19704392248E+02  0.18042331740E+02  0.11594579712E+02  0.29124269728E+02  0.00000000000E+00 0. -1.
        -12    1    6    6    0    0 -0.26678225604E+02  0.66009889806E+02  0.20316194455E+03  0.21527612266E+03  0.00000000000E+00 0.  1.
</event>
<event>
12    1  0.8494789E-002  0.1818828E+03  0.7818608E-02  0.1166173E+00
         21   -1    0    0  501  502  0.00000000000E+00  0.00000000000E+00  0.87958489339E+03  0.87958489339E+03  0.00000000000E+00 0. -1.
         21   -1    0    0  502  503 -0.00000000000E+00 -0.00000000000E+00 -0.31179855708E+03  0.31179855708E+03  0.00000000000E+00 0.  1.
         -6    2    1    2    0  503 -0.64703248858E+01 -0.56432786227E+02 -0.27494621726E+03  0.32924686291E+03  0.17199287743E+03 0.  0.
        -24    2    3    3    0    0  0.46602722603E+02  0.13506923901E+02 -0.12342493522E+03  0.15406381483E+03  0.78407229641E+02 0.  0.
          6    2    1    2  501    0  0.64703248858E+01  0.56432786227E+02  0.84273255356E+03  0.86213658756E+03  0.17278545747E+03 0.  0.
         24    2    5    5    0    0 -0.62130794061E+02  0.31519372337E+02  0.56557142780E+03  0.57548842108E+03  0.80387663556E+02 0.  0.
          5    1    5    5  501    0  0.68601118946E+02  0.24913413890E+02  0.27716112576E+03  0.28664816647E+03  0.47000000000E+01 0. -1.
        -13    1    6    6    0    0 -0.61409351926E+02  0.50997766912E+02  0.51742478301E+03  0.52354587842E+03  0.00000000000E+00 0.  1.
         14    1    6    6    0    0 -0.72144213492E+00 -0.19478394576E+02  0.48146644795E+02  0.51942542669E+02  0.00000000000E+00 0. -1.
         -5    1    3    3    0  503 -0.53073047488E+02 -0.69939710128E+02 -0.15152128204E+03  0.17518304808E+03  0.47000000000E+01 0.  1.
         11    1    4    4    0    0 -0.98191889658E+01 -0.22771418603E+02 -0.27737563310E+02  0.37206537000E+02  0.00000000000E+00 0. -1.
        -12    1    4    4    0    0  0.56421911568E+02  0.36278342504E+02 -0.95687371908E+02  0.11685727783E+03  0.00000000000E+00 0.  1.
</event>
<event>
12    1  0.8494789E-002  0.1742412E+03  0.7818608E-02  0.1173500E+00
         21   -1    0    0  503  502  0.00000000000E+00  0.00000000000E+00  0.47094618341E+02  0.47094618341E+02  0.00000000000E+00 0. -1.
         21   -1    0    0  501  503 -0.00000000000E+00 -0.00000000000E+00 -0.64864833232E+03  0.64864833232E+03  0.00000000000E+00 0. -1.
          6    2    1    2  501    0 -0.28267432114E+02  0.99129970597E+00 -0.32826137212E+03  0.37163896884E+03  0.17193011471E+03 0.  0.
         24    2    3    3    0    0  0.19117389292E+01 -0.56562288193E+02 -0.12858682152E+03  0.16160274815E+03  0.79861945575E+02 0.  0.
         -6    2    1    2    0  502  0.28267432114E+02 -0.99129970597E+00 -0.27329234186E+03  0.32410398182E+03  0.17191467801E+03 0.  0.
        -24    2    5    5    0    0 -0.22646818694E+02 -0.58887823422E+02 -0.16422995482E+03  0.19045906923E+03  0.72955636157E+02 0.  0.
          5    1    3    3  501    0 -0.30179171043E+02  0.57553587899E+02 -0.19967455060E+03  0.21003622069E+03  0.47000000000E+01 0. -1.
        -13    1    4    4    0    0  0.28378739533E+02  0.60510822489E+01 -0.28973442085E+02  0.41005228936E+02  0.00000000000E+00 0.  1.
         14    1    4    4    0    0 -0.26467000604E+02 -0.62613370442E+02 -0.99613379430E+02  0.12059751921E+03  0.00000000000E+00 0. -1.
         -5    1    5    5    0  502  0.50914250808E+02  0.57896523716E+02 -0.10906238705E+03  0.13364491259E+03  0.47000000000E+01 0.  1.
         11    1    6    6    0    0  0.23523391312E+02 -0.24024959863E+02 -0.91771946865E+02  0.97737602112E+02  0.00000000000E+00 0. -1.
        -12    1    6    6    0    0 -0.46170210005E+02 -0.34862863559E+02 -0.72458007950E+02  0.92721467113E+02  0.00000000000E+00 0.  1.
</event>
<event>
12    1  0.8494789E-002  0.1953758E+03  0.7818608E-02  0.1154134E+00
         21   -1    0    0  503  502  0.00000000000E+00  0.00000000000E+00  0.68573531807E+02  0.68573531807E+02  0.00000000000E+00 0. -1.
         21   -1    0    0  501  503 -0.00000000000E+00 -0.00000000000E+00 -0.86458737325E+03  0.86458737325E+03  0.00000000000E+00 0.  1.
          6    2    1    2  501    0 -0.83820801300E+02 -0.30863764348E+02 -0.11831419750E+03  0.22840741333E+03  0.17376190161E+03 0.  0.
         24    2    3    3    0    0 -0.15309833394E+02 -0.50021997034E+02 -0.46263575564E+01  0.94214248242E+02  0.78219755828E+02 0.  0.
         -6    2    1    2    0  502  0.83820801300E+02  0.30863764348E+02 -0.67769964394E+03  0.70475349173E+03  0.17152894226E+03 0.  0.
        -24    2    5    5    0    0  0.12147069920E+03  0.20380183527E+02 -0.43534346213E+03  0.45922135709E+03  0.78675549869E+02 0.  0.
          5    1    3    3  501    0 -0.68510967906E+02  0.19158232686E+02 -0.11368783995E+03  0.13419316508E+03  0.47000000000E+01 0. -1.
        -13    1    4    4    0    0  0.22104466027E+02  0.79743064334E+01 -0.87468059430E+01  0.25073962504E+02  0.00000000000E+00 0.  1.
         14    1    4    4    0    0 -0.37414299421E+02 -0.57996303467E+02  0.41204483866E+01  0.69140285738E+02  0.00000000000E+00 0. -1.
         -5    1    5    5    0  502 -0.37649897900E+02  0.10483580821E+02 -0.24235618181E+03  0.24553213464E+03  0.47000000000E+01 0.  1.
         13    1    6    6    0    0  0.48104408053E+02  0.16021261997E+02 -0.69270873274E+02  0.85843862880E+02  0.00000000000E+00 0. -1.
        -14    1    6    6    0    0  0.73366291147E+02  0.43589215299E+01 -0.36607258885E+03  0.37337749421E+03  0.00000000000E+00 0.  1.
</event>
<event>
12    1  0.8494789E-002  0.2221315E+03  0.7818608E-02  0.1132689E+00
         21   -1    0    0  501  502  0.00000000000E+00  0.00000000000E+00  0.53888754004E+03  0.53888754004E+03  0.00000000000E+00 0. -1.
         21   -1    0    0  502  503 -0.00000000000E+00 -0.00000000000E+00 -0.91159452352E+02  0.91159452352E+02  0.00000000000E+00 0. -1.
         -6    2    1    2    0  503  0.64556963564E+02 -0.12521298110E+03  0.20275134650E+03  0.30074990055E+03  0.17174545697E+03 0.  0.
        -24    2    3    3    0    0  0.91962855886E+02 -0.36059957988E+02  0.13688125976E+03  0.18646821876E+03  0.79223922545E+02 0.  0.
          6    2    1    2  501    0 -0.64556963564E+02  0.12521298110E+03  0.24497674119E+03  0.32929709185E+03  0.16904756371E+03 0.  0.
         24    2    5    5    0    0 -0.64746601826E+02  0.95885108361E+02  0.26063415084E+03  0.29572024627E+03  0.78321306294E+02 0.  0.
          5    1    5    5  501    0  0.18963826223E+00  0.29327872737E+02 -0.15657409646E+02  0.33576845575E+02  0.47000000000E+01 0. -1.
        -13    1    6    6    0    0 -0.22305739616E+01  0.23173197250E+02  0.13848405877E+03  0.14042723050E+03  0.00000000000E+00 0.  1.
         14    1    6    6    0    0 -0.62516027864E+02  0.72711911112E+02  0.12215009207E+03  0.15529301578E+03  0.00000000000E+00 0. -1.
         -5    1    3    3    0  503 -0.27405892323E+02 -0.89153023110E+02  0.65870086743E+02  0.11428168178E+03  0.47000000000E+01 0.  1.
         11    1    4    4    0    0  0.68524410543E+02 -0.47813717510E+02  0.13673872659E+03  0.16024738928E+03  0.00000000000E+00 0. -1.
        -12    1    4    4    0    0  0.23438445343E+02  0.11753759522E+02  0.14253316726E+00  0.26220829482E+02  0.00000000000E+00 0.  1.
</event>
<event>
12    1  0.8494789E-002  0.1975942E+03  0.7818608E-02  0.1152069E+00
         21   -1    0    0  503  502  0.00000000000E+00  0.00000000000E+00  0.77305602721E+02  0.77305602721E+02  0.00000000000E+00 0.  1.
         21   -1    0    0  501  503 -0.00000000000E+00 -0.00000000000E+00 -0.66944530954E+03  0.66944530954E+03  0.00000000000E+00 0.  1.
          6    2    1    2  501    0 -0.13587999654E+02  0.94122707886E+02 -0.48373021180E+03  0.52253075000E+03  0.17320435622E+03 0.  0.
         24    2    3    3    0    0  0.18326672413E+02  0.10535872894E+03 -0.22150232963E+03  0.25808728411E+03  0.78162878051E+02 0.  0.
         -6    2    1    2    0  502  0.13587999654E+02 -0.94122707886E+02 -0.10840949502E+03  0.22422016226E+03  0.17169258772E+03 0.  0.
        -24    2    5    5    0    0 -0.18010168307E+02 -0.91294211089E+02 -0.20757225065E+02  0.13088498646E+03  0.89671724354E+02 0.  0.
          5    1    3    3  501    0 -0.31914672067E+02 -0.11236021052E+02 -0.26222788218E+03  0.26444346589E+03  0.47000000000E+01 0. -1.
        -13    1    4    4    0    0  0.15633379711E+02  0.82949203846E+02 -0.21980201276E+03  0.23545253830E+03  0.00000000000E+00 0.  1.
         14    1    4    4    0    0  0.26932927021E+01  0.22409525093E+02 -0.17003168673E+01  0.22634745810E+02  0.00000000000E+00 0. -1.
         -5    1    5    5    0  502  0.31598167961E+02 -0.28284967969E+01 -0.87652269956E+02  0.93335175797E+02  0.47000000000E+01 0.  1.
         11    1    6    6    0    0 -0.32325878212E+02  0.24803387288E+01  0.44681251310E+01  0.32727337572E+02  0.00000000000E+00 0. -1.
        -12    1    6    6    0    0  0.14315709905E+02 -0.93774549818E+02 -0.25225350196E+02  0.98157648893E+02  0.00000000000E+00 0.  1.
</event>
<event>
12    1  0.8494789E-002  0.2033394E+03  0.7818608E-02  0.1149163E+00
         21   -1    0    0  503  502  0.00000000000E+00  0.00000000000E+00  0.15058931151E+04  0.15058931151E+04  0.00000000000E+00 0.  1.
         21   -1    0    0  501  503 -0.00000000000E+00 -0.00000000000E+00 -0.32875032529E+02  0.32875032529E+02  0.00000000000E+00 0.  1.
          6    2    1    2  501    0 -0.85594603568E+02 -0.69496407558E+02  0.37117218034E+03  0.41831675913E+03  0.15831593946E+03 0.  0.
         24    2    3    3    0    0 -0.57192664310E+02 -0.97085059150E+02  0.20726219585E+03  0.24962657902E+03  0.81604543764E+02 0.  0.
         -6    2    1    2    0  502  0.85594603568E+02  0.69496407558E+02  0.11018459022E+04  0.11204513885E+04  0.17085296282E+03 0.  0.
        -24    2    5    5    0    0  0.37474111776E+02 -0.23462544062E+02  0.65245123001E+03  0.65900300586E+03  0.81471186122E+02 0.  0.
          5    1    3    3  501    0 -0.28401939258E+02  0.27588651592E+02  0.16390998449E+03  0.16869018011E+03  0.47000000000E+01 0. -1.
        -11    1    4    4    0    0  0.54727217563E+01 -0.36348606640E+02  0.12277944622E+03  0.12816381823E+03  0.00000000000E+00 0.  1.
         12    1    4    4    0    0 -0.62665386066E+02 -0.60736452510E+02  0.84482749631E+02  0.12146276079E+03  0.00000000000E+00 0. -1.
         -5    1    5    5    0  502  0.48120491792E+02  0.92958951620E+02  0.44939467221E+03  0.46144838263E+03  0.47000000000E+01 0.  1.
         11    1    6    6    0    0 -0.21670246527E+02 -0.15994100275E+02  0.32925904294E+03  0.33035878706E+03  0.00000000000E+00 0. -1.
        -12    1    6    6    0    0  0.59144358302E+02 -0.74684437869E+01  0.32319218707E+03  0.32864421880E+03  0.00000000000E+00 0.  1.
</event>
<event>
12    1  0.8494789E-002  0.2005337E+03  0.7818608E-02  0.1150101E+00
         21   -1    0    0  503  502  0.00000000000E+00  0.00000000000E+00  0.62056730556E+03  0.62056730556E+03  0.00000000000E+00 0. -1.
         21   -1    0    0  501  503 -0.00000000000E+00 -0.00000000000E+00 -0.16217617129E+03  0.16217617129E+03  0.00000000000E+00 0. -1.
          6    2    1    2  501    0  0.94185274492E+02 -0.46650774749E+02 -0.75105293977E+02  0.21413683638E+03  0.17078237262E+03 0.  0.
         24    2    3    3    0    0  0.26454649764E+01 -0.44652061009E+02 -0.80736843718E+02  0.12228186409E+03  0.80209795622E+02 0.  0.
         -6    2    1    2    0  502 -0.94185274492E+02  0.46650774749E+02  0.53349642825E+03  0.56860664047E+03  0.16627661263E+03 0.  0.
        -24    2    5    5    0    0 -0.12880335701E+03  0.37050150136E+02  0.37528540882E+03  0.40630013936E+03  0.79231602091E+02 0.  0.
          5    1    3    3  501    0  0.91539809515E+02 -0.19987137405E+01  0.56315497410E+01  0.91854972294E+02  0.47000000000E+01 0. -1.
        -13    1    4    4    0    0  0.25261316077E+02 -0.54113504458E+02 -0.32061628498E+02  0.67781660327E+02  0.00000000000E+00 0.  1.
         14    1    4    4    0    0 -0.22615851100E+02  0.94614434498E+01 -0.48675215220E+02  0.54500203760E+02  0.00000000000E+00 0. -1.
         -5    1    5    5    0  502  0.34618082522E+02  0.96006246127E+01  0.15821101944E+03  0.16230650111E+03  0.47000000000E+01 0.  1.
         13    1    6    6    0    0 -0.95840024038E+02  0.59681749697E+02  0.30786402614E+03  0.32791383021E+03  0.00000000000E+00 0. -1.
        -14    1    6    6    0    0 -0.32963332976E+02 -0.22631599560E+02  0.67421382681E+02  0.78386309150E+02  0.00000000000E+00 0.  1.
</event>
<event>
12    1  0.8494789E-002  0.2167599E+03  0.7818608E-02  0.1136594E+00
         21   -1    0    0  503  502  0.00000000000E+00  0.00000000000E+00  0.28699890882E+03  0.28699890882E+03  0.00000000000E+00 0. -1.
         21   -1    0    0  501  503 -0.00000000000E+00 -0.00000000000E+00 -0.24975630870E+03  0.24975630870E+03  0.00000000000E+00 0.  1.
          6    2    1    2  501    0  0.91965453821E+02  0.95595627148E+02 -0.13992539446E+03  0.25680280701E+03  0.16962428202E+03 0.  0.
         24    2    3    3    0    0  0.12767701605E+03  0.47667055399E+02 -0.95685341708E+02  0.18229283497E+03  0.74171588002E+02 0.  0.
         -6    2    1    2    0  502 -0.91965453821E+02 -0.95595627148E+02  0.17716799458E+03  0.27995241051E+03  0.17143128426E+03 0.  0.
        -24    2    5    5    0    0 -0.11786606824E+02  0.15733362984E+01  0.11426035133E+03  0.13906267866E+03  0.78368368758E+02 0.  0.
          5    1    3    3  501    0 -0.35711562226E+02  0.47928571749E+02 -0.44240052750E+02  0.74509972043E+02  0.47000000000E+01 0. -1.
        -11    1    4    4    0    0  0.52602767047E+02  0.36955663795E+02 -0.83665619753E+02  0.10551164920E+03  0.00000000000E+00 0.  1.
         12    1    4    4    0    0  0.75074249000E+02  0.10711391604E+02 -0.12019721955E+02  0.76781185774E+02  0.00000000000E+00 0. -1.
         -5    1    5    5    0  502 -0.80178846996E+02 -0.97168963446E+02  0.62907643244E+02  0.14088973185E+03  0.47000000000E+01 0.  1.
         13    1    6    6    0    0 -0.13153576739E+01  0.17377579050E+02 -0.51377223097E+01  0.18168836231E+02  0.00000000000E+00 0. -1.
        -14    1    6    6    0    0 -0.10471249150E+02 -0.15804242751E+02  0.11939807364E+03  0.12089384243E+03  0.00000000000E+00 0.  1.
</event>
<event>
12    1  0.8494789E-002  0.2002751E+03  0.7818608E-02  0.1149597E+00
         21   -1    0    0  503  502  0.00000000000E+00  0.00000000000E+00  0.87887488621E+03  0.87887488621E+03  0.00000000000E+00 0.  1.
         21   -1    0    0  501  503 -0.00000000000E+00 -0.00000000000E+00 -0.46231346793E+02  0.46231346793E+02  0.00000000000E+00 0.  1.
          6    2    1    2  501    0 -0.54268947387E+02 -0.86633673763E+02  0.36022393325E+03  0.41215459602E+03  0.17221967615E+03 0.  0.
         24    2    3    3    0    0  0.16456034298E-01  0.47178908719E+01  0.83011270325E+02  0.11523547593E+03  0.79787750610E+02 0.  0.
         -6    2    1    2    0  502  0.54268947387E+02  0.86633673763E+02  0.47241960617E+03  0.51295163699E+03  0.17172240831E+03 0.  0.
        -24    2    5    5    0    0  0.10138030962E+03  0.69512316402E+02  0.30532881531E+03  0.33844076708E+03  0.78781584447E+02 0.  0.
          5    1    3    3  501    0 -0.54285403421E+02 -0.91351564635E+02  0.27721266292E+03  0.29691912008E+03  0.47000000000E+01 0. -1.
        -11    1    4    4    0    0 -0.21427686781E+02 -0.31182298237E+02  0.44214627463E+02  0.58192909928E+02  0.00000000000E+00 0.  1.
         12    1    4    4    0    0  0.21444142816E+02  0.35900189109E+02  0.38796642861E+02  0.57042566005E+02  0.00000000000E+00 0. -1.
         -5    1    5    5    0  502 -0.47111362230E+02  0.17121357361E+02  0.16709079085E+03  0.17451086991E+03  0.47000000000E+01 0.  1.
         11    1    6    6    0    0  0.15071622417E+01  0.11487144317E+02 -0.42853601921E+00  0.11593518263E+02  0.00000000000E+00 0. -1.
        -12    1    6    6    0    0  0.99873147375E+02  0.58025172085E+02  0.30575735133E+03  0.32684724881E+03  0.00000000000E+00 0.  1.
</event>
<event>
12    1  0.8494789E-002  0.2021787E+03  0.7818608E-02  0.1149921E+00
         21   -1    0    0  503  502  0.00000000000E+00  0.00000000000E+00  0.32279841323E+02  0.32279841323E+02  0.00000000000E+00 0.  1.
         21   -1    0    0  501  503 -0.00000000000E+00 -0.00000000000E+00 -0.18903492884E+04  0.18903492884E+04  0.00000000000E+00 0.  1.
          6    2    1    2  501    0  0.82315702625E+02  0.13025624864E+02 -0.15206115549E+04  0.15339933978E+04  0.18420288281E+03 0.  0.
         24    2    3    3    0    0  0.11171248750E+03  0.55296654764E+02 -0.10182632038E+04  0.10289914506E+04  0.80162667408E+02 0.  0.
         -6    2    1    2    0  502 -0.82315702625E+02 -0.13025624864E+02 -0.33745789223E+03  0.38863573189E+03  0.17382278699E+03 0.  0.
        -24    2    5    5    0    0 -0.99620117369E+02 -0.83805757549E+01 -0.13407642242E+03  0.18441249249E+03  0.77698639009E+02 0.  0.
          5    1    3    3  501    0 -0.29396784877E+02 -0.42271029900E+02 -0.50234835108E+03  0.50500194728E+03  0.47000000000E+01 0. -1.
        -11    1    4    4    0    0  0.67003745632E+01  0.65793066499E+01 -0.39239884754E+03  0.39251119455E+03  0.00000000000E+00 0.  1.
         12    1    4    4    0    0  0.10501211294E+03  0.48717348114E+02 -0.62586435625E+03  0.63648025601E+03  0.00000000000E+00 0. -1.
         -5    1    5    5    0  502  0.17304414744E+02 -0.46450491088E+01 -0.20338146981E+03  0.20422323940E+03  0.47000000000E+01 0.  1.
         11    1    6    6    0    0 -0.73046210342E+02 -0.39442854766E+02 -0.10680142043E+03  0.13527021491E+03  0.00000000000E+00 0. -1.
        -12    1    6    6    0    0 -0.26573907027E+02  0.31062279011E+02 -0.27275001994E+02  0.49142277581E+02  0.00000000000E+00 0.  1.
</event>
<event>
12    1  0.8494789E-002  0.2462312E+03  0.7818608E-02  0.1115784E+00
         21   -1    0    0  501  502  0.00000000000E+00  0.00000000000E+00  0.13311600819E+04  0.13311600819E+04  0.00000000000E+00 0. -1.
         21   -1    0    0  502  503 -0.00000000000E+00 -0.00000000000E+00 -0.16655074079E+03  0.16655074079E+03  0.00000000000E+00 0. -1.
         -6    2    1    2    0  503 -0.13788345501E+03 -0.10787887699E+03 -0.56071088411E+02  0.25253464643E+03  0.17314757124E+03 0.  0.
        -24    2    3    3    0    0 -0.14094987905E+03 -0.30713806655E+02 -0.59598005400E+02  0.17508543610E+03  0.79327053164E+02 0.  0.
          6    2    1    2  501    0  0.13788345501E+03  0.10787887699E+03  0.12206804295E+04  0.12451761762E+04  0.17249144801E+03 0.  0.
         24    2    5    5    0    0  0.14268263977E+02  0.33658957867E+02  0.27599585465E+03  0.28954008033E+03  0.79518787273E+02 0.  0.
          5    1    5    5  501    0  0.12361519103E+03  0.74219919127E+02  0.94468457483E+03  0.95563609589E+03  0.47000000000E+01 0. -1.
        -13    1    6    6    0    0 -0.13697960042E+01 -0.24583562440E+02  0.11533863976E+03  0.11793739740E+03  0.00000000000E+00 0.  1.
         14    1    6    6    0    0  0.15638059981E+02  0.58242520307E+02  0.16065721489E+03  0.17160268293E+03  0.00000000000E+00 0. -1.
         -5    1    3    3    0  503  0.30664240442E+01 -0.77165070338E+02  0.35269169895E+01  0.77449210326E+02  0.47000000000E+01 0.  1.
         11    1    4    4    0    0 -0.12204078815E+03  0.48050640094E+01 -0.31890797923E+02  0.12623020876E+03  0.00000000000E+00 0. -1.
        -12    1    4    4    0    0 -0.18909090898E+02 -0.35518870665E+02 -0.27707207477E+02  0.48855227336E+02  0.00000000000E+00 0.  1.
</event>
<event>
12    1  0.8494789E-002  0.1751980E+03  0.7818608E-02  0.1172643E+00
         21   -1    0    0  501  502  0.00000000000E+00  0.00000000000E+00  0.35263532793E+03  0.35263532793E+03  0.00000000000E+00 0.  1.
         21   -1    0    0  502  503 -0.00000000000E+00 -0.00000000000E+00 -0.99580643897E+02  0.99580643897E+02  0.00000000000E+00 0.  1.
         -6    2    1    2    0  503 -0.40703939649E+01  0.30522529439E+02  0.45466805794E+02  0.18057825287E+03  0.17202639934E+03 0.  0.
        -24    2    3    3    0    0 -0.53128635148E+02 -0.21021877504E+02 -0.90795103294E+00  0.95512131610E+02  0.76532161234E+02 0.  0.
          6    2    1    2  501    0  0.40703939649E+01 -0.30522529439E+02  0.20758787824E+03  0.27163771896E+03  0.17247066492E+03 0.  0.
         24    2    5    5    0    0 -0.38047040181E+02  0.68988512596E+01  0.10007249512E+03  0.15016391273E+03  0.10506914386E+03 0.  0.
          5    1    5    5  501    0  0.42117434146E+02 -0.37421380698E+02  0.10751538312E+03  0.12147380623E+03  0.47000000000E+01 0. -1.
        -13    1    6    6    0    0 -0.66044549154E+02 -0.17449710975E+02  0.87457831411E+02  0.11097408329E+03  0.00000000000E+00 0.  1.
         14    1    6    6    0    0  0.27997508973E+02  0.24348562234E+02  0.12614663712E+02  0.39189829448E+02  0.00000000000E+00 0. -1.
         -5    1    3    3    0  503  0.49058241183E+02  0.51544406943E+02  0.46374756827E+02  0.85066121257E+02  0.47000000000E+01 0. -1.
         11    1    4    4    0    0  0.43101721906E+01 -0.22820465746E+02  0.23533716790E+02  0.33063379548E+02  0.00000000000E+00 0. -1.
        -12    1    4    4    0    0 -0.57438807338E+02  0.17985882418E+01 -0.24441667823E+02  0.62448752062E+02  0.00000000000E+00 0.  1.
</event>
<event>
12    1  0.8494789E-002  0.1758241E+03  0.7818608E-02  0.1171925E+00
         21   -1    0    0  503  502  0.00000000000E+00  0.00000000000E+00  0.24843005042E+03  0.24843005042E+03  0.00000000000E+00 0. -1.
         21   -1    0    0  501  503 -0.00000000000E+00 -0.00000000000E+00 -0.12438681240E+03  0.12438681240E+03  0.00000000000E+00 0. -1.
          6    2    1    2  501    0 -0.39535458526E+02 -0.97603432451E+01  0.62361152943E+02  0.18655566514E+03  0.17104322851E+03 0.  0.
         24    2    3    3    0    0  0.30940164289E+02  0.20882220880E+02  0.65834776154E+02  0.10948468353E+03  0.79115847097E+02 0.  0.
         -6    2    1    2    0  502  0.39535458526E+02  0.97603432451E+01  0.61682085080E+02  0.18626119768E+03  0.17096852740E+03 0.  0.
        -24    2    5    5    0    0  0.81753513631E+02 -0.18263462577E+02  0.12870858891E+02  0.11574649233E+03  0.78831468468E+02 0.  0.
          5    1    3    3  501    0 -0.70475622815E+02 -0.30642564125E+02 -0.34736232111E+01  0.77070981605E+02  0.47000000000E+01 0. -1.
        -13    1    4    4    0    0  0.34421055458E+02 -0.82897563450E+01 -0.21020606087E+01  0.35467559515E+02  0.00000000000E+00 0.  1.
         14    1    4    4    0    0 -0.34808911695E+01  0.29171977225E+02  0.67936836763E+02  0.74017124018E+02  0.00000000000E+00 0. -1.
         -5    1    5    5    0  502 -0.42218055106E+02  0.28023805822E+02  0.48811226189E+02  0.70514705358E+02  0.47000000000E+01 0.  1.
         11    1    6    6    0    0  0.41602610994E+02  0.29864483294E+02  0.13886789906E+02  0.53061356351E+02  0.00000000000E+00 0. -1.
        -12    1    6    6    0    0  0.40150902637E+02 -0.48127945871E+02 -0.10159310154E+01  0.62685135974E+02  0.00000000000E+00 0.  1.
</event>
<event>
12    1  0.8494789E-002  0.1942768E+03  0.7818608E-02  0.1154964E+00
         21   -1    0    0  501  502  0.00000000000E+00  0.00000000000E+00  0.13034300684E+03  0.13034300684E+03  0.00000000000E+00 0.  1.
         21   -1    0    0  502  503 -0.00000000000E+00 -0.00000000000E+00 -0.29515252006E+03  0.29515252006E+03  0.00000000000E+00 0.  1.
         -6    2    1    2    0  503 -0.83181156916E+02 -0.33028282487E+02 -0.11635262780E+03  0.22526675578E+03  0.17087189633E+03 0.  0.
        -24    2    3    3    0    0 -0.92150149370E+02 -0.18759409444E+02 -0.14453780709E+03  0.19209239980E+03  0.84644828024E+02 0.  0.
          6    2    1    2  501    0  0.83181156916E+02  0.33028282487E+02 -0.48456885413E+02  0.20022877112E+03  0.17243409967E+03 0.  0.
         24    2    5    5    0    0  0.42347696070E+02  0.67016621672E+02 -0.80000675806E+02  0.13826362416E+03  0.80200789855E+02 0.  0.
          5    1    5    5  501    0  0.40833460846E+02 -0.33988339185E+02  0.31543790393E+02  0.61965146959E+02  0.47000000000E+01 0. -1.
        -11    1    6    6    0    0  0.50719499884E+02  0.79863866553E+02 -0.56476819175E+02  0.11018319270E+03  0.00000000000E+00 0.  1.
         12    1    6    6    0    0 -0.83718038144E+01 -0.12847244881E+02 -0.23523856631E+02  0.28080431460E+02  0.00000000000E+00 0. -1.
         -5    1    3    3    0  503  0.89689924535E+01 -0.14268873043E+02  0.28185179288E+02  0.33174355985E+02  0.47000000000E+01 0.  1.
         13    1    4    4    0    0 -0.92196591131E+02 -0.25761249712E+02 -0.73447633015E+02  0.12065822889E+03  0.00000000000E+00 0. -1.
        -14    1    4    4    0    0  0.46441761700E-01  0.70018402684E+01 -0.71090174073E+02  0.71434170911E+02  0.00000000000E+00 0.  1.
</event>
<event>
12    1  0.8494789E-002  0.3199615E+03  0.7818608E-02  0.1075708E+00
         21   -1    0    0  501  502  0.00000000000E+00  0.00000000000E+00  0.12253322714E+03  0.12253322714E+03  0.00000000000E+00 0. -1.
         21   -1    0    0  502  503 -0.00000000000E+00 -0.00000000000E+00 -0.16515028636E+04  0.16515028636E+04  0.00000000000E+00 0.  1.
         -6    2    1    2    0  503  0.13842854313E+03  0.23100745647E+03 -0.13885569693E+04  0.14249441513E+04  0.17276710055E+03 0.  0.
        -24    2    3    3    0    0  0.66055688218E+01  0.45154036570E+02 -0.42157401638E+03  0.43146696920E+03  0.79728123457E+02 0.  0.
          6    2    1    2  501    0 -0.13842854313E+03 -0.23100745647E+03 -0.14041266722E+03  0.34909193943E+03  0.17211205234E+03 0.  0.
         24    2    5    5    0    0 -0.61706460481E+02 -0.96844915133E+02 -0.13616938524E+03  0.19441175031E+03  0.77892248202E+02 0.  0.
          5    1    5    5  501    0 -0.76722082650E+02 -0.13416254134E+03 -0.42432819834E+01  0.15468018912E+03  0.47000000000E+01 0. -1.
        -13    1    6    6    0    0 -0.31324128235E+02 -0.96739700571E+02 -0.12696635571E+03  0.16266599571E+03  0.00000000000E+00 0.  1.
         14    1    6    6    0    0 -0.30382332246E+02 -0.10521456254E+00 -0.92030295235E+01  0.31745754601E+02  0.00000000000E+00 0. -1.
         -5    1    3    3    0  503  0.13182297431E+03  0.18585341990E+03 -0.96698295289E+03  0.99347718213E+03  0.47000000000E+01 0.  1.
         11    1    4    4    0    0 -0.15051701921E+02 -0.14491043597E+01 -0.13813357292E+02  0.20480783038E+02  0.00000000000E+00 0. -1.
        -12    1    4    4    0    0  0.21657270742E+02  0.46603140930E+02 -0.40776065909E+03  0.41098618617E+03  0.00000000000E+00 0.  1.
</event>
<event>
12    1  0.8494789E-002  0.2273753E+03  0.7818608E-02  0.1129425E+00
         21   -1    0    0  501  502  0.00000000000E+00  0.00000000000E+00  0.71165341011E+02  0.71165341011E+02  0.00000000000E+00 0. -1.
         21   -1    0    0  502  503 -0.00000000000E+00 -0.00000000000E+00 -0.92624455855E+03  0.92624455855E+03  0.00000000000E+00 0. -1.
         -6    2    1    2    0  503 -0.53333652309E+02 -0.12959720244E+03 -0.19043971089E+03  0.29659202990E+03  0.17905204653E+03 0.  0.
        -24    2    3    3    0    0 -0.45921699775E+02 -0.12453758055E+03 -0.61084193894E+02  0.16684043418E+03  0.80535956282E+02 0.  0.
          6    2    1    2  501    0  0.53333652309E+02  0.12959720244E+03 -0.66463950665E+03  0.70081786967E+03  0.17251115702E+03 0.  0.
         24    2    5    5    0    0 -0.23546098389E+02  0.27097865403E+02 -0.19873849581E+03  0.21759695532E+03  0.81010691820E+02 0.  0.
          5    1    5    5  501    0  0.76879750698E+02  0.10249933703E+03 -0.46590101084E+03  0.48322091435E+03  0.47000000000E+01 0. -1.
        -13    1    6    6    0    0 -0.50801866959E+02  0.70094276264E+01 -0.14769024417E+03  0.15634055771E+03  0.00000000000E+00 0.  1.
         14    1    6    6    0    0  0.27255768570E+02  0.20088437777E+02 -0.51048251635E+02  0.61256397606E+02  0.00000000000E+00 0. -1.
         -5    1    3    3    0  503 -0.74119525343E+01 -0.50596218891E+01 -0.12935551700E+03  0.12975159572E+03  0.47000000000E+01 0.  1.
         11    1    4    4    0    0 -0.19856566118E+02 -0.37969558376E+02 -0.63262155643E+02  0.76407270059E+02  0.00000000000E+00 0. -1.
        -12    1    4    4    0    0 -0.26065133656E+02 -0.86568022172E+02  0.21779617491E+01  0.90433164119E+02  0.00000000000E+00 0.  1.
</event>
<event>
12    1  0.8494789E-002  0.1969930E+03  0.7818608E-02  0.1153588E+00
         21   -1    0    0  501  502  0.00000000000E+00  0.00000000000E+00  0.18286071730E+04  0.18286071730E+04  0.00000000000E+00 0.  1.
         21   -1    0    0  502  503 -0.00000000000E+00 -0.00000000000E+00 -0.38441486665E+02  0.38441486665E+02  0.00000000000E+00 0.  1.
         -6    2    1    2    0  503  0.59892506237E+02 -0.59090706939E+02  0.25174571279E+03  0.31606760000E+03  0.17159254037E+03 0.  0.
        -24    2    3    3    0    0  0.82161436925E+01 -0.77673936931E+02  0.23215942187E+03  0.25757404758E+03  0.79659571483E+02 0.  0.
          6    2    1    2  501    0 -0.59892506237E+02  0.59090706939E+02  0.15384199735E+04  0.15509810596E+04  0.17812189221E+03 0.  0.
         24    2    5    5    0    0 -0.53255341999E+02 -0.33517756915E+02  0.78928132969E+03  0.79609618285E+03  0.82731756115E+02 0.  0.
          5    1    5    5  501    0 -0.66371642380E+01  0.92608463854E+02  0.74913864382E+03  0.75488487678E+03  0.47000000000E+01 0. -1.
        -11    1    6    6    0    0 -0.63163948053E+02 -0.16605094749E+02  0.74260111855E+03  0.74546752765E+03  0.00000000000E+00 0.  1.
         12    1    6    6    0    0  0.99086060542E+01 -0.16912662166E+02  0.46680211142E+02  0.50628655203E+02  0.00000000000E+00 0. -1.
         -5    1    3    3    0  503  0.51676362544E+02  0.18583229992E+02  0.19586290923E+02  0.58493552421E+02  0.47000000000E+01 0.  1.
         11    1    4    4    0    0 -0.26699791828E+02 -0.61465438941E+01  0.96241519416E+02  0.10006542332E+03  0.00000000000E+00 0. -1.
        -12    1    4    4    0    0  0.34915935520E+02 -0.71527393037E+02  0.13591790245E+03  0.15750862425E+03  0.00000000000E+00 0.  1.
</event>
<event>
12    1  0.8494789E-002  0.1720195E+03  0.7818608E-02  0.1176635E+00
         21   -1    0    0  503  502  0.00000000000E+00  0.00000000000E+00  0.86616858366E+03  0.86616858366E+03  0.00000000000E+00 0.  1.
         21   -1    0    0  501  503 -0.00000000000E+00 -0.00000000000E+00 -0.50301156063E+02  0.50301156063E+02  0.00000000000E+00 0.  1.
          6    2    1    2  501    0  0.26164045838E+01  0.13172559287E+02  0.14037388211E+03  0.21941719372E+03  0.16810329037E+03 0.  0.
         24    2    3    3    0    0 -0.36340390385E+02 -0.52439009658E+01  0.17569478419E+02  0.89187360551E+02  0.79357269607E+02 0.  0.
         -6    2    1    2    0  502 -0.26164045838E+01 -0.13172559287E+02  0.67549354549E+03  0.69705254600E+03  0.17149448970E+03 0.  0.
        -24    2    5    5    0    0  0.11909412064E+02 -0.15122650644E+01  0.67318866306E+03  0.67770405010E+03  0.77173067942E+02 0.  0.
          5    1    3    3  501    0  0.38956794969E+02  0.18416460253E+02  0.12280440369E+03  0.13022983317E+03  0.47000000000E+01 0. -1.
        -13    1    4    4    0    0 -0.25360264609E+01 -0.17353251517E+02 -0.26849586088E+02  0.32069721570E+02  0.00000000000E+00 0.  1.
         14    1    4    4    0    0 -0.33804363924E+02  0.12109350551E+02  0.44419064508E+02  0.57117638982E+02  0.00000000000E+00 0. -1.
         -5    1    5    5    0  502 -0.14525816648E+02 -0.11660294222E+02  0.23048824355E+01  0.19348495902E+02  0.47000000000E+01 0.  1.
         11    1    6    6    0    0 -0.13004058279E+02 -0.34070413314E+02  0.27412069803E+03  0.27653581266E+03  0.00000000000E+00 0. -1.
        -12    1    6    6    0    0  0.24913470343E+02  0.32558148249E+02  0.39906796503E+03  0.40116823744E+03  0.00000000000E+00 0.  1.
</event>
<event>
12    1  0.8494789E-002  0.2500415E+03  0.7818608E-02  0.1114740E+00
         21   -1    0    0  503  502  0.00000000000E+00  0.00000000000E+00  0.15895837101E+04  0.15895837101E+04  0.00000000000E+00 0. -1.
         21   -1    0    0  501  503 -0.00000000000E+00 -0.00000000000E+00 -0.39820130660E+02  0.39820130660E+02  0.00000000000E+00 0. -1.
          6    2    1    2  501    0  0.17648844951E+03 -0.43502808573E+02  0.58322494220E+03  0.63104633643E+03  0.15820075332E+03 0.  0.
         24    2    3    3    0    0  0.57803985957E+02  0.26149067176E+01  0.14772846495E+03  0.17729297033E+03  0.79126224736E+02 0.  0.
         -6    2    1    2    0  502 -0.17648844951E+03  0.43502808573E+02  0.96653863726E+03  0.99835750435E+03  0.17169770532E+03 0.  0.
        -24    2    5    5    0    0 -0.10669949368E+03  0.60794652621E+02  0.36940565915E+03  0.39689313320E+03  0.77348861822E+02 0.  0.
          5    1    3    3  501    0  0.11868446355E+03 -0.46117715291E+02  0.43549647725E+03  0.45375336610E+03  0.47000000000E+01 0. -1.
        -11    1    4    4    0    0  0.36003818168E+02  0.31712462620E+02  0.12626228730E+03  0.13507079774E+03  0.00000000000E+00 0.  1.
         12    1    4    4    0    0  0.21800167789E+02 -0.29097555903E+02  0.21466177656E+02  0.42222172591E+02  0.00000000000E+00 0. -1.
         -5    1    5    5    0  502 -0.69788955834E+02 -0.17291844048E+02  0.59713297810E+03  0.60146437115E+03  0.47000000000E+01 0.  1.
         13    1    6    6    0    0 -0.70535150362E+02  0.69158531811E+02  0.32123308792E+03  0.33607857226E+03  0.00000000000E+00 0. -1.
        -14    1    6    6    0    0 -0.36164343313E+02 -0.83638791899E+01  0.48172571236E+02  0.60814560936E+02  0.00000000000E+00 0.  1.
</event>
<event>
12    1  0.8494789E-002  0.1741520E+03  0.7818608E-02  0.1173999E+00
         21   -1    0    0  503  502  0.00000000000E+00  0.00000000000E+00  0.26723641312E+03  0.26723641312E+03  0.00000000000E+00 0. -1.
         21   -1    0    0  501  503 -0.00000000000E+00 -0.00000000000E+00 -0.11877091427E+03  0.11877091427E+03  0.00000000000E+00 0. -1.
          6    2    1    2  501    0  0.99599772635E+01 -0.19197806394E+02  0.29980460203E+02  0.17671370315E+03  0.17280378459E+03 0.  0.
         24    2    3    3    0    0  0.44209356729E+02 -0.58006089628E+02  0.51386529934E+02  0.12050505023E+03  0.81004432077E+02 0.  0.
         -6    2    1    2    0  502 -0.99599772635E+01  0.19197806394E+02  0.11848503865E+03  0.20929362424E+03  0.17116471554E+03 0.  0.
        -24    2    5    5    0    0 -0.96041717783E+01 -0.55065766726E+02  0.73576356475E+02  0.12237938706E+03  0.80241855441E+02 0.  0.
          5    1    3    3  501    0 -0.34249379465E+02  0.38808283234E+02 -0.21406069731E+02  0.56208652916E+02  0.47000000000E+01 0. -1.
        -11    1    4    4    0    0  0.33940344711E+02  0.10313935132E+02  0.34282859237E+02  0.49331923685E+02  0.00000000000E+00 0.  1.
         12    1    4    4    0    0  0.10269012018E+02 -0.68320024760E+02  0.17103670698E+02  0.71173126546E+02  0.00000000000E+00 0. -1.
         -5    1    5    5    0  502 -0.35580548516E+00  0.74263573120E+02  0.44908682170E+02  0.86914237179E+02  0.47000000000E+01 0.  1.
         13    1    6    6    0    0  0.12425425978E+02  0.17462453203E+02  0.21886940774E+02  0.30632770998E+02  0.00000000000E+00 0. -1.
        -14    1    6    6    0    0 -0.22029597756E+02 -0.72528219929E+02  0.51689415701E+02  0.91746616062E+02  0.00000000000E+00 0.  1.
</event>
<event>
12    1  0.8494789E-002  0.2105970E+03  0.7818608E-02  0.1141112E+00
         21   -1    0    0  503  502  0.00000000000E+00  0.00000000000E+00  0.12277391153E+04  0.12277391153E+04  0.00000000000E+00 0. -1.
         21   -1    0    0  501  503 -0.00000000000E+00 -0.00000000000E+00 -0.46702901332E+02  0.46702901332E+02  0.00000000000E+00 0. -1.
          6    2    1    2  501    0  0.11851561820E+03  0.28233935692E+02  0.28712169832E+03  0.35607580347E+03  0.17177893145E+03 0.  0.
         24    2    3    3    0    0  0.96626499655E+02  0.38768628930E+02  0.96743289280E+02  0.16409626836E+03  0.82028252723E+02 0.  0.
         -6    2    1    2    0  502 -0.11851561820E+03 -0.28233935692E+02  0.89391451562E+03  0.91836621313E+03  0.17166896431E+03 0.  0.
        -24    2    5    5    0    0 -0.39713471549E+02 -0.13016049490E+02  0.73135852446E+03  0.73701599218E+03  0.80998173230E+02 0.  0.
          5    1    3    3  501    0  0.21889118543E+02 -0.10534693238E+02  0.19037840904E+03  0.19197953511E+03  0.47000000000E+01 0. -1.
        -13    1    4    4    0    0 -0.36942452945E+01  0.20994557734E+02  0.45072950225E+02  0.49859700608E+02  0.00000000000E+00 0.  1.
         14    1    4    4    0    0  0.10032074495E+03  0.17774071196E+02  0.51670339055E+02  0.11423656775E+03  0.00000000000E+00 0. -1.
         -5    1    5    5    0  502 -0.78802146648E+02 -0.15217886203E+02  0.16255599116E+03  0.18135022095E+03  0.47000000000E+01 0.  1.
         13    1    6    6    0    0 -0.46180898926E+02  0.14262419098E+01  0.19405343732E+03  0.19947793393E+03  0.00000000000E+00 0. -1.
        -14    1    6    6    0    0  0.64674273764E+01 -0.14442291400E+02  0.53730508714E+03  0.53753805825E+03  0.00000000000E+00 0.  1.
</event>
<event>
12    1  0.8494789E-002  0.2491647E+03  0.7818608E-02  0.1114112E+00
         21   -1    0    0  503  502  0.00000000000E+00  0.00000000000E+00  0.20853581255E+03  0.20853581255E+03  0.00000000000E+00 0.  1.
         21   -1    0    0  501  503 -0.00000000000E+00 -0.00000000000E+00 -0.32143569492E+03  0.32143569492E+03  0.00000000000E+00 0. -1.
          6    2    1    2  501    0  0.16615732844E+03 -0.67254447592E+02 -0.13135137909E+03  0.28012453036E+03  0.17054368709E+03 0.  0.
         24    2    3    3    0    0  0.16119690847E+03 -0.31782821956E+02 -0.48628499773E+02  0.18985822018E+03  0.81772988865E+02 0.  0.
         -6    2    1    2    0  502 -0.16615732844E+03  0.67254447592E+02  0.18451496724E+02  0.24984697710E+03  0.17306540879E+03 0.  0.
        -24    2    5    5    0    0 -0.17087319886E+03  0.52728220537E+02  0.60689654218E+02  0.20468723115E+03  0.78966531743E+02 0.  0.
          5    1    3    3  501    0  0.49604199699E+01 -0.35471625637E+02 -0.82722879321E+02  0.90266310187E+02  0.47000000000E+01 0. -1.
        -11    1    4    4    0    0  0.60115577866E+02  0.14546072356E+02  0.12307633571E+02  0.63063053900E+02  0.00000000000E+00 0.  1.
         12    1    4    4    0    0  0.10108133060E+03 -0.46328894312E+02 -0.60936133344E+02  0.12679516628E+03  0.00000000000E+00 0. -1.
         -5    1    5    5    0  502  0.47158704227E+01  0.14526227056E+02 -0.42238157493E+02  0.45159745955E+02  0.47000000000E+01 0.  1.
         13    1    6    6    0    0 -0.12640883439E+03  0.71963535650E+02  0.56551631454E+02  0.15606418838E+03  0.00000000000E+00 0. -1.
        -14    1    6    6    0    0 -0.44464364475E+02 -0.19235315113E+02  0.41380227640E+01  0.48623042769E+02  0.00000000000E+00 0.  1.
</event>
<event>
12    1  0.8494789E-002  0.4783732E+03  0.7818608E-02  0.1019605E+00
         21   -1    0    0  501  502  0.00000000000E+00  0.00000000000E+00  0.34880525999E+03  0.34880525999E+03  0.00000000000E+00 0. -1.
         21   -1    0    0  502  503 -0.00000000000E+00 -0.00000000000E+00 -0.75941168200E+03  0.75941168200E+03  0.00000000000E+00 0. -1.
         -6    2    1    2    0  503 -0.42002704853E+03  0.15150776369E+03 -0.41007948933E+03  0.62984342372E+03  0.17076365797E+03 0.  0.
        -24    2    3    3    0    0 -0.42432146144E+03  0.14578372563E+03 -0.36475665841E+03  0.58371907444E+03  0.79868271049E+02 0.  0.
          6    2    1    2  501    0  0.42002704853E+03 -0.15150776369E+03 -0.52693267739E+00  0.47837351826E+03  0.17164970538E+03 0.  0.
         24    2    5    5    0    0  0.42813640724E+03 -0.15520857037E+03  0.12388107885E+02  0.46199225026E+03  0.76765165033E+02 0.  0.
          5    1    5    5  501    0 -0.81093587025E+01  0.37008066837E+01 -0.12915040562E+02  0.16381268003E+02  0.47000000000E+01 0. -1.
        -13    1    6    6    0    0  0.64206708978E+02 -0.33616783381E+01  0.20767401973E+02  0.67565430094E+02  0.00000000000E+00 0.  1.
         14    1    6    6    0    0  0.36392969826E+03 -0.15184689204E+03 -0.83792940884E+01  0.39442682016E+03  0.00000000000E+00 0. -1.
         -5    1    3    3    0  503  0.42944129063E+01  0.57240380638E+01 -0.45322830921E+02  0.46124349282E+02  0.47000000000E+01 0.  1.
         11    1    4    4    0    0 -0.13621475514E+03  0.84673542231E+02 -0.11211033579E+03  0.19568545082E+03  0.00000000000E+00 0. -1.
        -12    1    4    4    0    0 -0.28810670630E+03  0.61110183396E+02 -0.25264632262E+03  0.38803362363E+03  0.00000000000E+00 0.  1.
</event>
<event>
12    1  0.8494789E-002  0.1990855E+03  0.7818608E-02  0.1151557E+00
         21   -1    0    0  501  502  0.00000000000E+00  0.00000000000E+00  0.20865800699E+03  0.20865800699E+03  0.00000000000E+00 0.  1.
         21   -1    0    0  502  503 -0.00000000000E+00 -0.00000000000E+00 -0.34072275872E+03  0.34072275872E+03  0.00000000000E+00 0. -1.
         -6    2    1    2    0  503  0.81559778266E+02  0.59369204263E+02 -0.25196405681E+03  0.32112445269E+03  0.17163428662E+03 0.  0.
        -24    2    3    3    0    0  0.17756071708E+02  0.95059148503E+02 -0.14452782528E+03  0.19108861557E+03  0.79215193760E+02 0.  0.
          6    2    1    2  501    0 -0.81559778266E+02 -0.59369204263E+02  0.11989930509E+03  0.22825631303E+03  0.16597711056E+03 0.  0.
         24    2    5    5    0    0 -0.78597696328E+02  0.68642402571E+01  0.30840737923E+02  0.11712953188E+03  0.80891658783E+02 0.  0.
          5    1    5    5  501    0 -0.29620819373E+01 -0.66233444520E+02  0.89058567162E+02  0.11112678114E+03  0.47000000000E+01 0. -1.
        -11    1    6    6    0    0 -0.62302827332E+01  0.17133484283E+02  0.39521151490E+02  0.43523489310E+02  0.00000000000E+00 0.  1.
         12    1    6    6    0    0 -0.72367413595E+02 -0.10269244026E+02 -0.86804135672E+01  0.73606042571E+02  0.00000000000E+00 0. -1.
         -5    1    3    3    0  503  0.63803706558E+02 -0.35689944240E+02 -0.10743623153E+03  0.13003583712E+03  0.47000000000E+01 0.  1.
         13    1    4    4    0    0  0.36913828849E+02  0.59557856265E+02 -0.43925542253E+02  0.82699590479E+02  0.00000000000E+00 0. -1.
        -14    1    4    4    0    0 -0.19157757142E+02  0.35501292238E+02 -0.10060228303E+03  0.10838902509E+03  0.00000000000E+00 0.  1.
</event>
<event>
12    1  0.8494789E-002  0.2528046E+03  0.7818608E-02  0.1111564E+00
         21   -1    0    0  503  502  0.00000000000E+00  0.00000000000E+00  0.16691625557E+03  0.16691625557E+03  0.00000000000E+00 0. -1.
         21   -1    0    0  501  503 -0.00000000000E+00 -0.00000000000E+00 -0.60753792622E+03  0.60753792622E+03  0.00000000000E+00 0. -1.
          6    2    1    2  501    0 -0.47322152143E+02 -0.17894886052E+03 -0.45590689959E+03  0.52130727258E+03  0.17218620903E+03 0.  0.
         24    2    3    3    0    0 -0.72744031000E+01 -0.99021377546E+01 -0.12664443843E+03  0.14899493729E+03  0.77522308263E+02 0.  0.
         -6    2    1    2    0  502  0.47322152143E+02  0.17894886052E+03  0.15285228940E+02  0.25314690921E+03  0.17201057716E+03 0.  0.
        -24    2    5    5    0    0  0.24216754294E+02  0.20179959131E+03  0.20332872059E+02  0.21992667429E+03  0.81515582160E+02 0.  0.
          5    1    3    3  501    0 -0.40047749043E+02 -0.16904672276E+03 -0.32926246116E+03  0.37231233529E+03  0.47000000000E+01 0. -1.
        -13    1    4    4    0    0  0.91281386603E+01 -0.24293522137E+02 -0.63232564086E+01  0.26711078317E+02  0.00000000000E+00 0.  1.
         14    1    4    4    0    0 -0.16402541760E+02  0.14391384383E+02 -0.12032118202E+03  0.12228385897E+03  0.00000000000E+00 0. -1.
         -5    1    5    5    0  502  0.23105397849E+02 -0.22850730791E+02 -0.50476431195E+01  0.33220234926E+02  0.47000000000E+01 0.  1.
         11    1    6    6    0    0 -0.26760238665E+02  0.36703465614E+02 -0.32425084349E+01  0.45538649765E+02  0.00000000000E+00 0. -1.
        -12    1    6    6    0    0  0.50976992958E+02  0.16509612570E+03  0.23575380494E+02  0.17438802452E+03  0.00000000000E+00 0.  1.
</event>
<event>
12    1  0.8494789E-002  0.1740723E+03  0.7818608E-02  0.1173972E+00
         21   -1    0    0  501  502  0.00000000000E+00  0.00000000000E+00  0.60521704093E+03  0.60521704093E+03  0.00000000000E+00 0. -1.
         21   -1    0    0  502  503 -0.00000000000E+00 -0.00000000000E+00 -0.64254690050E+02  0.64254690050E+02  0.00000000000E+00 0. -1.
         -6    2    1    2    0  503 -0.18860083561E+02 -0.20906787520E+02  0.42895353545E+03  0.46247624881E+03  0.17055893006E+03 0.  0.
        -24    2    3    3    0    0  0.11032916332E+02  0.71509210525E+01  0.40928602364E+03  0.41676271172E+03  0.77480628666E+02 0.  0.
          6    2    1    2  501    0  0.18860083561E+02  0.20906787520E+02  0.11200881543E+03  0.20699548217E+03  0.17177997086E+03 0.  0.
         24    2    5    5    0    0 -0.27617119238E+02  0.52981858709E+02  0.11296905310E+03  0.15032139084E+03  0.79150053421E+02 0.  0.
          5    1    5    5  501    0  0.46477202800E+02 -0.32075071189E+02 -0.96023767317E+00  0.56674091331E+02  0.47000000000E+01 0. -1.
        -11    1    6    6    0    0 -0.82706354444E+01  0.39430092721E+02  0.11925675358E+03  0.12587815099E+03  0.00000000000E+00 0.  1.
         12    1    6    6    0    0 -0.19346483794E+02  0.13551765988E+02 -0.62877004808E+01  0.24443239841E+02  0.00000000000E+00 0. -1.
         -5    1    3    3    0  503 -0.29892999893E+02 -0.28057708573E+02  0.19667511815E+02  0.45713537098E+02  0.47000000000E+01 0.  1.
         13    1    4    4    0    0 -0.25430299220E+02  0.10521803203E+02  0.30490993826E+03  0.30614943885E+03  0.00000000000E+00 0. -1.
        -14    1    4    4    0    0  0.36463215551E+02 -0.33708821505E+01  0.10437608538E+03  0.11061327287E+03  0.00000000000E+00 0.  1.
</event>
<event>
12    1  0.8494789E-002  0.1818363E+03  0.7818608E-02  0.1166433E+00
         21   -1    0    0  503  502  0.00000000000E+00  0.00000000000E+00  0.20133293962E+03  0.20133293962E+03  0.00000000000E+00 0. -1.
         21   -1    0    0  501  503 -0.00000000000E+00 -0.00000000000E+00 -0.17047249592E+03  0.17047249592E+03  0.00000000000E+00 0. -1.
          6    2    1    2  501    0 -0.45728333274E+02 -0.35791935351E+02 -0.24223346675E+02  0.18180894391E+03  0.17057426084E+03 0.  0.
         24    2    3    3    0    0 -0.69077465687E+01 -0.45295945546E+02  0.43692248528E+02  0.10286603901E+03  0.81073853707E+02 0.  0.
         -6    2    1    2    0  502  0.45728333274E+02  0.35791935351E+02  0.55083790369E+02  0.18999649163E+03  0.17231453732E+03 0.  0.
        -24    2    5    5    0    0  0.73203747258E+02  0.51266292031E+02 -0.69061912664E+01  0.12028851568E+03  0.80216022187E+02 0.  0.
          5    1    3    3  501    0 -0.38820586705E+02  0.95040101947E+01 -0.67915595203E+02  0.78942904898E+02  0.47000000000E+01 0. -1.
        -11    1    4    4    0    0  0.30792622610E+02 -0.27714688585E+02  0.45105500854E+02  0.61243740724E+02  0.00000000000E+00 0.  1.
         12    1    4    4    0    0 -0.37700369179E+02 -0.17581256961E+02 -0.14132523260E+01  0.41622298287E+02  0.00000000000E+00 0. -1.
         -5    1    5    5    0  502 -0.27475413985E+02 -0.15474356680E+02  0.61989981636E+02  0.69707975953E+02  0.47000000000E+01 0.  1.
         13    1    6    6    0    0  0.24799193337E+02 -0.55956454884E+01  0.28033456966E+02  0.37844232692E+02  0.00000000000E+00 0. -1.
        -14    1    6    6    0    0  0.48404553921E+02  0.56861937519E+02 -0.34939648233E+02  0.82444282988E+02  0.00000000000E+00 0.  1.
</event>
<event>
12    1  0.8494789E-002  0.2330737E+03  0.7818608E-02  0.1124844E+00
         21   -1    0    0  501  502  0.00000000000E+00  0.00000000000E+00  0.29275162222E+03  0.29275162222E+03  0.00000000000E+00 0. -1.
         21   -1    0    0  502  503 -0.00000000000E+00 -0.00000000000E+00 -0.40387889634E+03  0.40387889634E+03  0.00000000000E+00 0.  1.
         -6    2    1    2    0  503  0.15642175913E+03 -0.17756684304E+02 -0.31247781241E+03  0.38862823344E+03  0.16913442585E+03 0.  0.
        -24    2    3    3    0    0  0.31986413510E+02  0.34547394286E+02 -0.91022647801E+02  0.12923595944E+03  0.78741080117E+02 0.  0.
          6    2    1    2  501    0 -0.15642175913E+03  0.17756684304E+02  0.20135053829E+03  0.30800228513E+03  0.17187292343E+03 0.  0.
         24    2    5    5    0    0 -0.11872472777E+03 -0.42426690858E+01  0.46915216275E+02  0.14744887841E+03  0.73665276757E+02 0.  0.
          5    1    5    5  501    0 -0.37697031352E+02  0.21999353389E+02  0.15443532202E+03  0.16055340672E+03  0.47000000000E+01 0. -1.
        -11    1    6    6    0    0 -0.85706749009E+02  0.31133456657E+02  0.34465574679E+02  0.97482381931E+02  0.00000000000E+00 0.  1.
         12    1    6    6    0    0 -0.33017978766E+02 -0.35376125743E+02  0.12449641596E+02  0.49966496477E+02  0.00000000000E+00 0. -1.
         -5    1    3    3    0  503  0.12443534562E+03 -0.52304078590E+02 -0.22145516461E+03  0.25939227400E+03  0.47000000000E+01 0.  1.
         13    1    4    4    0    0  0.29494426959E+02  0.63130519500E+01  0.36767412835E+01  0.30385757733E+02  0.00000000000E+00 0. -1.
        -14    1    4    4    0    0  0.24919865512E+01  0.28234342336E+02 -0.94699389085E+02  0.98850201705E+02  0.00000000000E+00 0.  1.
</event>
<event>
12    1  0.8494789E-002  0.2980582E+03  0.7818608E-02  0.1086279E+00
         21   -1    0    0  503  502  0.00000000000E+00  0.00000000000E+00  0.20657081670E+04  0.20657081670E+04  0.00000000000E+00 0. -1.
         21   -1    0    0  501  503 -0.00000000000E+00 -0.00000000000E+00 -0.50936305183E+02  0.50936305183E+02  0.00000000000E+00 0.  1.
          6    2    1    2  501    0  0.44922739718E+01 -0.24487259291E+03  0.58862229844E+03  0.65978399783E+03  0.16987038085E+03 0.  0.
         24    2    3    3    0    0 -0.61498751467E+02 -0.11525984482E+03  0.26753415304E+03  0.30725886820E+03  0.75937874509E+02 0.  0.
         -6    2    1    2    0  502 -0.44922739718E+01  0.24487259291E+03  0.14261495634E+04  0.14568604743E+04  0.16898845323E+03 0.  0.
        -24    2    5    5    0    0 -0.41538556440E+02  0.22554002183E+03  0.10143365184E+04  0.10429060694E+04  0.78617707639E+02 0.  0.
          5    1    3    3  501    0  0.65991025439E+02 -0.12961274809E+03  0.32108814540E+03  0.35252512963E+03  0.47000000000E+01 0. -1.
        -13    1    4    4    0    0 -0.38363840652E+02 -0.57147541043E+02  0.62768336690E+02  0.93153045080E+02  0.00000000000E+00 0.  1.
         14    1    4    4    0    0 -0.23134910815E+02 -0.58112303775E+02  0.20476581635E+03  0.21410582312E+03  0.00000000000E+00 0. -1.
         -5    1    5    5    0  502  0.37046282468E+02  0.19332571072E+02  0.41181304494E+03  0.41395440489E+03  0.47000000000E+01 0.  1.
         13    1    6    6    0    0 -0.64117848285E+02  0.14871836300E+03  0.70677008726E+03  0.72508772311E+03  0.00000000000E+00 0. -1.
        -14    1    6    6    0    0  0.22579291845E+02  0.76821658834E+02  0.30756643116E+03  0.31781834633E+03  0.00000000000E+00 0.  1.
</event>
<event>
12    1  0.8494789E-002  0.1857803E+03  0.7818608E-02  0.1162565E+00
         21   -1    0    0  503  502  0.00000000000E+00  0.00000000000E+00  0.43548603209E+03  0.43548603209E+03  0.00000000000E+00 0. -1.
         21   -1    0    0  501  503 -0.00000000000E+00 -0.00000000000E+00 -0.78860931124E+02  0.78860931124E+02  0.00000000000E+00 0. -1.
          6    2    1    2  501    0  0.58353912452E+02 -0.31015323560E+02  0.17238221448E+03  0.25343624342E+03  0.17362941057E+03 0.  0.
         24    2    3    3    0    0  0.58197656133E+02 -0.70199498245E+02  0.17624767581E+03  0.21378204121E+03  0.79527235478E+02 0.  0.
         -6    2    1    2    0  502 -0.58353912452E+02  0.31015323560E+02  0.18424288648E+03  0.26091071979E+03  0.17251618211E+03 0.  0.
        -24    2    5    5    0    0 -0.20539474397E+02  0.84046268393E+01  0.12237799129E+02  0.83290294708E+02  0.79341046781E+02 0.  0.
          5    1    3    3  501    0  0.15625631876E+00  0.39184174685E+02 -0.38654613256E+01  0.39654202212E+02  0.47000000000E+01 0. -1.
        -11    1    4    4    0    0  0.50481071690E+02 -0.20799115794E+02  0.14471005112E+03  0.15466719339E+03  0.00000000000E+00 0.  1.
         12    1    4    4    0    0  0.77165844434E+01 -0.49400382450E+02  0.31537624694E+02  0.59114847822E+02  0.00000000000E+00 0. -1.
         -5    1    5    5    0  502 -0.37814438055E+02  0.22610696720E+02  0.17200508735E+03  0.17762042508E+03  0.47000000000E+01 0.  1.
         13    1    6    6    0    0  0.20590840933E+02  0.23059334761E+02  0.22745528685E+02  0.38380655611E+02  0.00000000000E+00 0. -1.
        -14    1    6    6    0    0 -0.41130315330E+02 -0.14654707922E+02 -0.10507729556E+02  0.44909639097E+02  0.00000000000E+00 0.  1.
</event>
<event>
12    1  0.8494789E-002  0.1740963E+03  0.7818608E-02  0.1175598E+00
         21   -1    0    0  501  502  0.00000000000E+00  0.00000000000E+00  0.10585656348E+03  0.10585656348E+03  0.00000000000E+00 0.  1.
         21   -1    0    0  502  503 -0.00000000000E+00 -0.00000000000E+00 -0.71993721674E+03  0.71993721674E+03  0.00000000000E+00 0.  1.
         -6    2    1    2    0  503 -0.15180887715E+02  0.22815470360E+02 -0.62936596858E+03  0.65102773006E+03  0.16426983248E+03 0.  0.
        -24    2    3    3    0    0  0.14694415801E+02 -0.33931227811E+02 -0.22876486406E+03  0.24529868691E+03  0.80441461299E+02 0.  0.
          6    2    1    2  501    0  0.15180887715E+02 -0.22815470360E+02  0.15285315327E+02  0.17476605016E+03  0.17192593284E+03 0.  0.
         24    2    5    5    0    0  0.47045708481E+02 -0.68536666485E+02 -0.20747399086E+00  0.11673234359E+03  0.81950129066E+02 0.  0.
          5    1    5    5  501    0 -0.31864820766E+02  0.45721196126E+02  0.15492789318E+02  0.58033706572E+02  0.47000000000E+01 0. -1.
        -11    1    6    6    0    0 -0.14321375583E+02 -0.38764127026E+02 -0.19718882695E+02  0.45788575839E+02  0.00000000000E+00 0.  1.
         12    1    6    6    0    0  0.61367084064E+02 -0.29772539460E+02  0.19511408704E+02  0.70943767746E+02  0.00000000000E+00 0. -1.
         -5    1    3    3    0  503 -0.29875303515E+02  0.56746698171E+02 -0.40060110452E+03  0.40572904315E+03  0.47000000000E+01 0.  1.
         11    1    4    4    0    0  0.10331140197E+01 -0.28367103234E+01  0.67253780415E+01  0.73719034067E+01  0.00000000000E+00 0. -1.
        -12    1    4    4    0    0  0.13661301781E+02 -0.31094517488E+02 -0.23549024210E+03  0.23792678351E+03  0.00000000000E+00 0.  1.
</event>
<event>
12    1  0.8494789E-002  0.1878631E+03  0.7818608E-02  0.1160719E+00
         21   -1    0    0  501  502  0.00000000000E+00  0.00000000000E+00  0.18950257782E+03  0.18950257782E+03  0.00000000000E+00 0.  1.
         21   -1    0    0  502  503 -0.00000000000E+00 -0.00000000000E+00 -0.24494672606E+03  0.24494672606E+03  0.00000000000E+00 0.  1.
         -6    2    1    2    0  503 -0.41007842987E+02  0.60251961585E+02 -0.13521706723E+03  0.23035060907E+03  0.17165606825E+03 0.  0.
        -24    2    3    3    0    0  0.32162175943E+02 -0.57658185775E+01 -0.76352653683E+02  0.11546236707E+03  0.80213342151E+02 0.  0.
          6    2    1    2  501    0  0.41007842987E+02 -0.60251961585E+02  0.79772918989E+02  0.20409869482E+03  0.17314911655E+03 0.  0.
         24    2    5    5    0    0  0.14965417528E+02 -0.81521265994E+02  0.10910383995E+03  0.15923240281E+03  0.81127243776E+02 0.  0.
          5    1    5    5  501    0  0.26042425459E+02  0.21269304410E+02 -0.29330920964E+02  0.44866292007E+02  0.47000000000E+01 0. -1.
        -13    1    6    6    0    0 -0.55390519703E+01  0.53638193584E+01  0.53515642877E+02  0.54068250271E+02  0.00000000000E+00 0.  1.
         14    1    6    6    0    0  0.20504469498E+02 -0.86885085353E+02  0.55588197076E+02  0.10516415254E+03  0.00000000000E+00 0. -1.
         -5    1    3    3    0  503 -0.73170018930E+02  0.66017780162E+02 -0.58864413546E+02  0.11488824200E+03  0.47000000000E+01 0.  1.
         11    1    4    4    0    0 -0.22617613164E+02  0.86158835124E+01 -0.44051342939E+02  0.50262418253E+02  0.00000000000E+00 0. -1.
        -12    1    4    4    0    0  0.54779789106E+02 -0.14381702090E+02 -0.32301310744E+02  0.65199948814E+02  0.00000000000E+00 0.  1.
</event>
<event>
12    1  0.8494789E-002  0.2312003E+03  0.7818608E-02  0.1125898E+00
         21   -1    0    0  503  502  0.00000000000E+00  0.00000000000E+00  0.50821981441E+03  0.50821981441E+03  0.00000000000E+00 0. -1.
         21   -1    0    0  501  503 -0.00000000000E+00 -0.00000000000E+00 -0.10633433480E+03  0.10633433480E+03  0.00000000000E+00 0. -1.
          6    2    1    2  501    0  0.15375216293E+02 -0.15311637236E+03  0.16521450393E+03  0.28369656620E+03  0.17177569271E+03 0.  0.
         24    2    3    3    0    0  0.90606064845E+01 -0.52631087951E+02  0.15677845846E+03  0.18255100998E+03  0.76767572571E+02 0.  0.
         -6    2    1    2    0  502 -0.15375216293E+02  0.15311637236E+03  0.23667097568E+03  0.33085758301E+03  0.17254729423E+03 0.  0.
        -24    2    5    5    0    0  0.33561915155E+02  0.14064463149E+03  0.22463371918E+03  0.27872915796E+03  0.79513025279E+02 0.  0.
          5    1    3    3  501    0  0.63146098082E+01 -0.10048528441E+03  0.84360454693E+01  0.10114555622E+03  0.47000000000E+01 0. -1.
        -11    1    4    4    0    0 -0.28034720551E+02  0.12859852217E+01  0.48085629530E+02  0.55676090754E+02  0.00000000000E+00 0.  1.
         12    1    4    4    0    0  0.37095327036E+02 -0.53917073173E+02  0.10869282893E+03  0.12687491922E+03  0.00000000000E+00 0. -1.
         -5    1    5    5    0  502 -0.48937131448E+02  0.12471740876E+02  0.12037256505E+02  0.52128425057E+02  0.47000000000E+01 0.  1.
         13    1    6    6    0    0  0.47195566085E+02  0.35720275499E+02  0.78591277009E+02  0.98386728585E+02  0.00000000000E+00 0. -1.
        -14    1    6    6    0    0 -0.13633650930E+02  0.10492435599E+03  0.14604244217E+03  0.18034242937E+03  0.00000000000E+00 0.  1.
</event>
<event>
12    1  0.8494789E-002  0.1967109E+03  0.7818608E-02  0.1152640E+00
         21   -1    0    0  501  502  0.00000000000E+00  0.00000000000E+00  0.39689313580E+03  0.39689313580E+03  0.00000000000E+00 0.  1.
         21   -1    0    0  502  503 -0.00000000000E+00 -0.00000000000E+00 -0.29545231673E+03  0.29545231673E+03  0.00000000000E+00 0. -1.
         -6    2    1    2    0  503  0.72673821809E+02 -0.61041183680E+02 -0.23277628961E+03  0.30476213704E+03  0.17230104088E+03 0.  0.
        -24    2    3    3    0    0  0.11711818786E+03 -0.59871748000E+02 -0.17865520205E+03  0.23456348056E+03  0.76164618135E+02 0.  0.
          6    2    1    2  501    0 -0.72673821809E+02  0.61041183680E+02  0.33421710867E+03  0.38758331549E+03  0.17179126938E+03 0.  0.
         24    2    5    5    0    0  0.18782227807E+02  0.35835678678E+01  0.19418177921E+03  0.21067212273E+03  0.79439070222E+02 0.  0.
          5    1    5    5  501    0 -0.91456049616E+02  0.57457615812E+02  0.14003532946E+03  0.17691119276E+03  0.47000000000E+01 0. -1.
        -11    1    6    6    0    0  0.10080176016E+02  0.70013834703E+01  0.19952611613E+03  0.19990322743E+03  0.00000000000E+00 0.  1.
         12    1    6    6    0    0  0.87020517909E+01 -0.34178156025E+01 -0.53443369189E+01  0.10768895299E+02  0.00000000000E+00 0. -1.
         -5    1    3    3    0  503 -0.44444366051E+02 -0.11694356798E+01 -0.54121087555E+02  0.70198656480E+02  0.47000000000E+01 0.  1.
         13    1    4    4    0    0  0.46756544376E+02 -0.12849618704E+02 -0.12571147220E+03  0.13473923477E+03  0.00000000000E+00 0. -1.
        -14    1    4    4    0    0  0.70361643485E+02 -0.47022129297E+02 -0.52943729852E+02  0.99824245793E+02  0.00000000000E+00 0.  1.
</event>
<event>
12    1  0.8494789E-002  0.1772808E+03  0.7818608E-02  0.1171228E+00
         21   -1    0    0  501  502  0.00000000000E+00  0.00000000000E+00  0.73305529624E+03  0.73305529624E+03  0.00000000000E+00 0.  1.
         21   -1    0    0  502  503 -0.00000000000E+00 -0.00000000000E+00 -0.10810482012E+03  0.10810482012E+03  0.00000000000E+00 0.  1.
         -6    2    1    2    0  503  0.21206103635E+02 -0.36241503232E+02 -0.15009083569E+02  0.17791503270E+03  0.17223629375E+03 0.  0.
        -24    2    3    3    0    0  0.41572484617E+02 -0.20996498317E+02  0.52475305289E+02  0.10564171544E+03  0.78977148318E+02 0.  0.
          6    2    1    2  501    0 -0.21206103635E+02  0.36241503232E+02  0.63995955968E+03  0.66324508366E+03  0.16906406353E+03 0.  0.
         24    2    5    5    0    0  0.50280240132E+02  0.28979018849E+02  0.30764191965E+03  0.32321546009E+03  0.80354196129E+02 0.  0.
          5    1    5    5  501    0 -0.71486343767E+02  0.72624843827E+01  0.33231764003E+03  0.34002962357E+03  0.47000000000E+01 0. -1.
        -13    1    6    6    0    0 -0.73968241198E+01  0.38928202932E+02  0.14686358750E+03  0.15211519097E+03  0.00000000000E+00 0.  1.
         14    1    6    6    0    0  0.57677064252E+02 -0.99491840832E+01  0.16077833215E+03  0.17110026913E+03  0.00000000000E+00 0. -1.
         -5    1    3    3    0  503 -0.20366380983E+02 -0.15245004915E+02 -0.67484388858E+02  0.72273317267E+02  0.47000000000E+01 0.  1.
         11    1    4    4    0    0  0.19714289345E+02  0.18408654301E+02  0.54206931686E+02  0.60546867800E+02  0.00000000000E+00 0. -1.
        -12    1    4    4    0    0  0.21858195273E+02 -0.39405152618E+02 -0.17316263972E+01  0.45094847637E+02  0.00000000000E+00 0.  1.
</event>
<event>
12    1  0.8494789E-002  0.2500625E+03  0.7818608E-02  0.1113759E+00
         21   -1    0    0  503  502  0.00000000000E+00  0.00000000000E+00  0.41631293712E+02  0.41631293712E+02  0.00000000000E+00 0. -1.
         21   -1    0    0  501  503 -0.00000000000E+00 -0.00000000000E+00 -0.18274679259E+04  0.18274679259E+04  0.00000000000E+00 0.  1.
          6    2    1    2  501    0 -0.17279471469E+03  0.43311225397E+02 -0.12938682487E+04  0.13172259327E+04  0.17104162373E+03 0.  0.
         24    2    3    3    0    0 -0.17996762660E+03  0.63913961134E+02 -0.93158918827E+03  0.95426018910E+03  0.79251193932E+02 0.  0.
         -6    2    1    2    0  502  0.17279471469E+03 -0.43311225397E+02 -0.49196838343E+03  0.55187328688E+03  0.17549176279E+03 0.  0.
        -24    2    5    5    0    0  0.78489837679E+02 -0.47926544069E+02 -0.13353459451E+03  0.18118260446E+03  0.80858147285E+02 0.  0.
          5    1    3    3  501    0  0.71729119152E+01 -0.20602735737E+02 -0.36227906047E+03  0.36296574362E+03  0.47000000000E+01 0. -1.
        -13    1    4    4    0    0 -0.12760912540E+03  0.74392227827E+02 -0.77113536702E+03  0.78515479157E+03  0.00000000000E+00 0.  1.
         14    1    4    4    0    0 -0.52358501198E+02 -0.10478266693E+02 -0.16045382125E+03  0.16910539753E+03  0.00000000000E+00 0. -1.
         -5    1    5    5    0  502  0.94304877007E+02  0.46153186718E+01 -0.35843378892E+03  0.37069068242E+03  0.47000000000E+01 0.  1.
         13    1    6    6    0    0 -0.12832113543E+02  0.79964853098E+01 -0.20567949531E+02  0.25527386533E+02  0.00000000000E+00 0. -1.
        -14    1    6    6    0    0  0.91321951222E+02 -0.55923029378E+02 -0.11296664498E+03  0.15565521793E+03  0.00000000000E+00 0.  1.
</event>
<event>
12    1  0.8494789E-002  0.2265021E+03  0.7818608E-02  0.1129327E+00
         21   -1    0    0  503  502  0.00000000000E+00  0.00000000000E+00  0.15648383391E+03  0.15648383391E+03  0.00000000000E+00 0. -1.
         21   -1    0    0  501  503 -0.00000000000E+00 -0.00000000000E+00 -0.32795762714E+03  0.32795762714E+03  0.00000000000E+00 0. -1.
          6    2    1    2  501    0  0.71045744898E+02 -0.12724496617E+03 -0.10306137411E+03  0.24783318743E+03  0.17193272718E+03 0.  0.
         24    2    3    3    0    0 -0.20568856827E+02 -0.23944047970E+02 -0.46527053522E+02  0.98559832965E+02  0.80949852750E+02 0.  0.
         -6    2    1    2    0  502 -0.71045744898E+02  0.12724496617E+03 -0.68412419117E+02  0.23660827361E+03  0.17339099390E+03 0.  0.
        -24    2    5    5    0    0 -0.69120522919E+02  0.93708489833E+02 -0.11279865587E+03  0.18074567666E+03  0.79915800114E+02 0.  0.
          5    1    3    3  501    0  0.91614601725E+02 -0.10330091820E+03 -0.56534320591E+02  0.14927335447E+03  0.47000000000E+01 0. -1.
        -13    1    4    4    0    0 -0.68685222799E+01 -0.48104929747E+02 -0.50981546446E+02  0.70429957705E+02  0.00000000000E+00 0.  1.
         14    1    4    4    0    0 -0.13700334547E+02  0.24160881777E+02  0.44544929238E+01  0.28129875260E+02  0.00000000000E+00 0. -1.
         -5    1    5    5    0  502 -0.19252219794E+01  0.33536476336E+02  0.44386236756E+02  0.55862596951E+02  0.47000000000E+01 0.  1.
         13    1    6    6    0    0 -0.22063742425E+02  0.87111654508E+02 -0.92840063292E+02  0.12920730023E+03  0.00000000000E+00 0. -1.
        -14    1    6    6    0    0 -0.47056780494E+02  0.65968353247E+01 -0.19958592581E+02  0.51538376425E+02  0.00000000000E+00 0.  1.
</event>
<event>
12    1  0.8494789E-002  0.1984030E+03  0.7818608E-02  0.1151375E+00
         21   -1    0    0  503  502  0.00000000000E+00  0.00000000000E+00  0.28000709197E+03  0.28000709197E+03  0.00000000000E+00 0. -1.
         21   -1    0    0  501  503 -0.00000000000E+00 -0.00000000000E+00 -0.22021035001E+03  0.22021035001E+03  0.00000000000E+00 0. -1.
          6    2    1    2  501    0  0.34635678684E+02  0.94190866588E+02 -0.12131554932E+03  0.23255369364E+03  0.17114966647E+03 0.  0.
         24    2    3    3    0    0  0.75758277417E+02  0.12719655907E+02 -0.82101956413E+02  0.13311314776E+03  0.71254983104E+02 0.  0.
         -6    2    1    2    0  502 -0.34635678684E+02 -0.94190866588E+02  0.18111229129E+03  0.26766374834E+03  0.16961919270E+03 0.  0.
        -24    2    5    5    0    0 -0.50385177752E+02  0.62623892323E+01  0.82321017678E+02  0.12581626311E+03  0.80467996462E+02 0.  0.
          5    1    3    3  501    0 -0.41122598732E+02  0.81471210681E+02 -0.39213592908E+02  0.99440545880E+02  0.47000000000E+01 0. -1.
        -13    1    4    4    0    0  0.18665577598E+02 -0.11756836182E+02 -0.65062201040E+02  0.68700196420E+02  0.00000000000E+00 0.  1.
         14    1    4    4    0    0  0.57092699819E+02  0.24476492089E+02 -0.17039755373E+02  0.64412951343E+02  0.00000000000E+00 0. -1.
         -5    1    5    5    0  502  0.15749499068E+02 -0.10045325582E+03  0.98791273607E+02  0.14184748523E+03  0.47000000000E+01 0.  1.
         11    1    6    6    0    0 -0.51249222664E+02 -0.18677085309E+02  0.84704725601E+02  0.10074823511E+03  0.00000000000E+00 0. -1.
        -12    1    6    6    0    0  0.86404491178E+00  0.24939474542E+02 -0.23837079228E+01  0.25068027994E+02  0.00000000000E+00 0.  1.
</event>
<event>
12    1  0.8494789E-002  0.1760719E+03  0.7818608E-02  0.1172010E+00
         21   -1    0    0  501  502  0.00000000000E+00  0.00000000000E+00  0.35898746155E+03  0.35898746155E+03  0.00000000000E+00 0.  1.
         21   -1    0    0  502  503 -0.00000000000E+00 -0.00000000000E+00 -0.33964066272E+03  0.33964066272E+03  0.00000000000E+00 0.  1.
         -6    2    1    2    0  503 -0.18411240105E+02  0.18881532067E+02 -0.29237861150E+03  0.34130125834E+03  0.17408564119E+03 0.  0.
        -24    2    3    3    0    0  0.52217871506E+02  0.20875949471E+01 -0.21287092446E+03  0.23353266352E+03  0.80575494378E+02 0.  0.
          6    2    1    2  501    0  0.18411240105E+02 -0.18881532067E+02  0.31172541032E+03  0.35732686593E+03  0.17266809682E+03 0.  0.
         24    2    5    5    0    0  0.65924074336E+01 -0.27101471015E+02  0.32558430158E+03  0.33679856671E+03  0.81548682011E+02 0.  0.
          5    1    5    5  501    0  0.11818832671E+02  0.82199389480E+01 -0.13858891256E+02  0.20528299220E+02  0.47000000000E+01 0. -1.
        -13    1    6    6    0    0 -0.18100320517E+02  0.23344898042E+02  0.12968261079E+03  0.13300445635E+03  0.00000000000E+00 0.  1.
         14    1    6    6    0    0  0.24692727951E+02 -0.50446369057E+02  0.19590169079E+03  0.20379411036E+03  0.00000000000E+00 0. -1.
         -5    1    3    3    0  503 -0.70629111611E+02  0.16793937120E+02 -0.79507687036E+02  0.10776859482E+03  0.47000000000E+01 0.  1.
         13    1    4    4    0    0  0.17210976810E+02  0.25576326205E+02 -0.21528170417E+02  0.37600908319E+02  0.00000000000E+00 0. -1.
        -14    1    4    4    0    0  0.35006894696E+02 -0.23488731258E+02 -0.19134275404E+03  0.19593175520E+03  0.00000000000E+00 0.  1.
</event>
<event>
12    1  0.8494789E-002  0.1764221E+03  0.7818608E-02  0.1171858E+00
         21   -1    0    0  501  502  0.00000000000E+00  0.00000000000E+00  0.81367126210E+03  0.81367126210E+03  0.00000000000E+00 0. -1.
         21   -1    0    0  502  503 -0.00000000000E+00 -0.00000000000E+00 -0.37790839561E+02  0.37790839561E+02  0.00000000000E+00 0. -1.
         -6    2    1    2    0  503  0.30172479748E+02  0.20771515457E+02  0.37833731947E+03  0.41653076950E+03  0.17034353597E+03 0.  0.
        -24    2    3    3    0    0  0.36276885728E+02 -0.46014715309E+01  0.89886315734E+02  0.12686350556E+03  0.81716664816E+02 0.  0.
          6    2    1    2  501    0 -0.30172479748E+02 -0.20771515457E+02  0.39754310307E+03  0.43493133216E+03  0.17257725954E+03 0.  0.
         24    2    5    5    0    0  0.47776605831E+01  0.51875846828E+02  0.18850946112E+03  0.21084138365E+03  0.78767649477E+02 0.  0.
          5    1    5    5  501    0 -0.34950140331E+02 -0.72647362285E+02  0.20903364195E+03  0.22408994851E+03  0.47000000000E+01 0. -1.
        -11    1    6    6    0    0  0.36464421571E+02  0.19415545931E+02  0.48724517476E+02  0.63880326138E+02  0.00000000000E+00 0.  1.
         12    1    6    6    0    0 -0.31686760988E+02  0.32460300897E+02  0.13978494365E+03  0.14696105752E+03  0.00000000000E+00 0. -1.
         -5    1    3    3    0  503 -0.61044059796E+01  0.25372986988E+02  0.28845100374E+03  0.28966726394E+03  0.47000000000E+01 0.  1.
         11    1    4    4    0    0  0.71498293657E+00  0.26612410221E+02  0.71156967599E+02  0.75973979864E+02  0.00000000000E+00 0. -1.
        -12    1    4    4    0    0  0.35561902791E+02 -0.31213881752E+02  0.18729348135E+02  0.50889525698E+02  0.00000000000E+00 0.  1.
</event>
<event>
12    1  0.8494789E-002  0.2140349E+03  0.7818608E-02  0.1139906E+00
         21   -1    0    0  501  502  0.00000000000E+00  0.00000000000E+00  0.97701993876E+03  0.97701993876E+03  0.00000000000E+00 0. -1.
         21   -1    0    0  502  503 -0.00000000000E+00 -0.00000000000E+00 -0.50023411676E+02  0.50023411676E+02  0.00000000000E+00 0.  1.
         -6    2    1    2    0  503 -0.52193636010E+02 -0.11277741640E+03  0.29714233162E+03  0.36181612852E+03  0.16484666914E+03 0.  0.
        -24    2    3    3    0    0 -0.77495673550E+02 -0.10674873734E+03  0.29787275538E+03  0.33537446455E+03  0.79667940408E+02 0.  0.
          6    2    1    2  501    0  0.52193636010E+02  0.11277741640E+03  0.62985419546E+03  0.66522722191E+03  0.17426424746E+03 0.  0.
         24    2    5    5    0    0  0.79292081757E+02  0.13553267475E+03  0.49748321811E+03  0.52812764792E+03  0.82297752353E+02 0.  0.
          5    1    5    5  501    0 -0.27098445747E+02 -0.22755258345E+02  0.13237097735E+03  0.13709957399E+03  0.47000000000E+01 0. -1.
        -13    1    6    6    0    0  0.50815642183E+02  0.12787550647E+03  0.32177427223E+03  0.34996150776E+03  0.00000000000E+00 0.  1.
         14    1    6    6    0    0  0.28476439574E+02  0.76571682804E+01  0.17570894588E+03  0.17816614016E+03  0.00000000000E+00 0. -1.
         -5    1    3    3    0  503  0.25302037540E+02 -0.60286790661E+01 -0.73042375918E+00  0.26441663977E+02  0.47000000000E+01 0.  1.
         11    1    4    4    0    0 -0.88959899236E+02 -0.10952956550E+03  0.26156429958E+03  0.29719769886E+03  0.00000000000E+00 0. -1.
        -12    1    4    4    0    0  0.11464225686E+02  0.27808281633E+01  0.36308455800E+02  0.38176765688E+02  0.00000000000E+00 0.  1.
</event>
<event>
12    1  0.8494789E-002  0.1896661E+03  0.7818608E-02  0.1158834E+00
         21   -1    0    0  503  502  0.00000000000E+00  0.00000000000E+00  0.23696933766E+03  0.23696933766E+03  0.00000000000E+00 0. -1.
         21   -1    0    0  501  503 -0.00000000000E+00 -0.00000000000E+00 -0.28812878803E+03  0.28812878803E+03  0.00000000000E+00 0.  1.
          6    2    1    2  501    0 -0.61212444764E+01  0.78852906976E+02 -0.20635150934E+03  0.28027518183E+03  0.17238904133E+03 0.  0.
         24    2    3    3    0    0  0.19720763065E+02  0.77150311645E+02 -0.22201593732E+03  0.24964558033E+03  0.81797067624E+02 0.  0.
         -6    2    1    2    0  502  0.61212444764E+01 -0.78852906976E+02  0.15519205898E+03  0.24482294385E+03  0.17204199515E+03 0.  0.
        -24    2    5    5    0    0 -0.88280821445E+01 -0.53248584737E+02  0.18057950966E+03  0.20550785341E+03  0.81921741281E+02 0.  0.
          5    1    3    3  501    0 -0.25842007541E+02  0.17025953312E+01  0.15664427973E+02  0.30629601505E+02  0.47000000000E+01 0. -1.
        -11    1    4    4    0    0 -0.61937518127E+00  0.45861774896E+02 -0.31819778943E+02  0.55822794217E+02  0.00000000000E+00 0.  1.
         12    1    4    4    0    0  0.20340138246E+02  0.31288536749E+02 -0.19019615837E+03  0.19382278611E+03  0.00000000000E+00 0. -1.
         -5    1    5    5    0  502  0.14949326621E+02 -0.25604322239E+02 -0.25387450685E+02  0.39315090436E+02  0.47000000000E+01 0.  1.
         13    1    6    6    0    0 -0.30558189968E+02 -0.44736992106E+02  0.52926691214E+02  0.75739263791E+02  0.00000000000E+00 0. -1.
        -14    1    6    6    0    0  0.21730107823E+02 -0.85115926313E+01  0.12765281845E+03  0.12976858962E+03  0.00000000000E+00 0.  1.
</event>
<event>
12    1  0.8494789E-002  0.3589379E+03  0.7818608E-02  0.1059037E+00
         21   -1    0    0  503  502  0.00000000000E+00  0.00000000000E+00  0.30794320068E+03  0.30794320068E+03  0.00000000000E+00 0.  1.
         21   -1    0    0  501  503 -0.00000000000E+00 -0.00000000000E+00 -0.96826454259E+03  0.96826454259E+03  0.00000000000E+00 0. -1.
          6    2    1    2  501    0 -0.26500040478E+03  0.17000949963E+03 -0.81113398191E+03  0.88687387132E+03  0.17169298914E+03 0.  0.
         24    2    3    3    0    0 -0.21169463341E+03  0.59079616292E+02 -0.57466255532E+03  0.62025097307E+03  0.78544243740E+02 0.  0.
         -6    2    1    2    0  502  0.26500040478E+03 -0.17000949963E+03  0.15081264000E+03  0.38933387195E+03  0.17235999237E+03 0.  0.
        -24    2    5    5    0    0  0.11593720149E+03 -0.13528659758E+03  0.38265834257E+02  0.19929600209E+03  0.80689058746E+02 0.  0.
          5    1    3    3  501    0 -0.53305771362E+02  0.11092988334E+03 -0.23647142659E+03  0.26662289825E+03  0.47000000000E+01 0. -1.
        -13    1    4    4    0    0 -0.32384533607E+02  0.35894195261E+02 -0.78725448894E+02  0.92384238774E+02  0.00000000000E+00 0.  1.
         14    1    4    4    0    0 -0.17931009981E+03  0.23185421031E+02 -0.49593710643E+03  0.52786673429E+03  0.00000000000E+00 0. -1.
         -5    1    5    5    0  502  0.14906320328E+03 -0.34722902047E+02  0.11254680574E+03  0.19003786986E+03  0.47000000000E+01 0.  1.
         11    1    6    6    0    0 -0.85068730632E+01 -0.33910298381E+02  0.42188395227E+01  0.35214682059E+02  0.00000000000E+00 0. -1.
        -12    1    6    6    0    0  0.12444407456E+03 -0.10137629920E+03  0.34046994734E+02  0.16408132003E+03  0.00000000000E+00 0.  1.
</event>
<event>
12    1  0.8494789E-002  0.3676789E+03  0.7818608E-02  0.1055587E+00
         21   -1    0    0  501  502  0.00000000000E+00  0.00000000000E+00  0.57510168362E+03  0.57510168362E+03  0.00000000000E+00 0.  1.
         21   -1    0    0  502  503 -0.00000000000E+00 -0.00000000000E+00 -0.23523802631E+03  0.23523802631E+03  0.00000000000E+00 0. -1.
         -6    2    1    2    0  503  0.88671072524E+02 -0.31185536262E+03  0.18143289901E+03  0.41000694489E+03  0.17341127909E+03 0.  0.
        -24    2    3    3    0    0 -0.24099388620E+02 -0.14680895010E+03  0.60142051915E+02  0.17614575790E+03  0.72640300491E+02 0.  0.
          6    2    1    2  501    0 -0.88671072524E+02  0.31185536262E+03  0.15843075830E+03  0.40033276504E+03  0.17334846781E+03 0.  0.
         24    2    5    5    0    0 -0.10498317095E+03  0.14510073516E+03  0.54660993163E+02  0.20319462948E+03  0.78895777774E+02 0.  0.
          5    1    5    5  501    0  0.16312098429E+02  0.16675462746E+03  0.10376976513E+03  0.19713813556E+03  0.47000000000E+01 0. -1.
        -11    1    6    6    0    0 -0.53177638681E+02  0.68362740783E+02  0.67385135506E+02  0.10973642089E+03  0.00000000000E+00 0.  1.
         12    1    6    6    0    0 -0.51805532272E+02  0.76737994377E+02 -0.12724142343E+02  0.93458208593E+02  0.00000000000E+00 0. -1.
         -5    1    3    3    0  503  0.11277046114E+03 -0.16504641253E+03  0.12129084709E+03  0.23386118700E+03  0.47000000000E+01 0.  1.
         13    1    4    4    0    0  0.20671120912E+00 -0.41604384763E+02 -0.15404751864E+02  0.44365233472E+02  0.00000000000E+00 0. -1.
        -14    1    4    4    0    0 -0.24306099829E+02 -0.10520456533E+03  0.75546803779E+02  0.13178052442E+03  0.00000000000E+00 0.  1.
</event>
<event>
12    1  0.8494789E-002  0.1861179E+03  0.7818608E-02  0.1162632E+00
         21   -1    0    0  503  502  0.00000000000E+00  0.00000000000E+00  0.55641788326E+02  0.55641788326E+02  0.00000000000E+00 0.  1.
         21   -1    0    0  501  503 -0.00000000000E+00 -0.00000000000E+00 -0.62368964259E+03  0.62368964259E+03  0.00000000000E+00 0.  1.
          6    2    1    2  501    0 -0.49246145983E+02  0.47471404501E+02 -0.24299511919E+03  0.30608251291E+03  0.17309292192E+03 0.  0.
         24    2    3    3    0    0 -0.82734300501E+02 -0.76505264876E+01 -0.19080963945E+03  0.22298438980E+03  0.80063877953E+02 0.  0.
         -6    2    1    2    0  502  0.49246145983E+02 -0.47471404501E+02 -0.32505273507E+03  0.37324891801E+03  0.17022560640E+03 0.  0.
        -24    2    5    5    0    0 -0.66046026202E+01  0.35661505953E+02 -0.11329514309E+03  0.13895475529E+03  0.71814140581E+02 0.  0.
          5    1    3    3  501    0  0.33488154518E+02  0.55121930988E+02 -0.52185479745E+02  0.83098123114E+02  0.47000000000E+01 0. -1.
        -11    1    4    4    0    0 -0.42982281836E+02 -0.34771291718E+02 -0.51344927982E+02  0.75450784682E+02  0.00000000000E+00 0.  1.
         12    1    4    4    0    0 -0.39752018665E+02  0.27120765231E+02 -0.13946471147E+03  0.14753360512E+03  0.00000000000E+00 0. -1.
         -5    1    5    5    0  502  0.55850748603E+02 -0.83132910454E+02 -0.21175759199E+03  0.23429416272E+03  0.47000000000E+01 0.  1.
         11    1    6    6    0    0  0.23548016465E+02  0.12173615029E+02 -0.91922062036E+01  0.28057131664E+02  0.00000000000E+00 0. -1.
        -12    1    6    6    0    0 -0.30152619085E+02  0.23487890925E+02 -0.10410293688E+03  0.11089762362E+03  0.00000000000E+00 0.  1.
</event>
<event>
12    1  0.8494789E-002  0.2183492E+03  0.7818608E-02  0.1135504E+00
         21   -1    0    0  501  502  0.00000000000E+00  0.00000000000E+00  0.69820821513E+03  0.69820821513E+03  0.00000000000E+00 0.  1.
         21   -1    0    0  502  503 -0.00000000000E+00 -0.00000000000E+00 -0.67775421453E+02  0.67775421453E+02  0.00000000000E+00 0. -1.
         -6    2    1    2    0  503 -0.85989024276E+02  0.10273883438E+03  0.33021800983E+03  0.39476230881E+03  0.16983511432E+03 0.  0.
        -24    2    3    3    0    0 -0.75875074660E+02  0.12929496848E+03  0.32319508714E+03  0.36511552688E+03  0.79875326526E+02 0.  0.
          6    2    1    2  501    0  0.85989024276E+02 -0.10273883438E+03  0.30021478385E+03  0.37122132778E+03  0.17241513092E+03 0.  0.
         24    2    5    5    0    0  0.11917414390E+02 -0.78929883894E+02  0.81394119580E+02  0.13893262244E+03  0.79406042209E+02 0.  0.
          5    1    5    5  501    0  0.74071609886E+02 -0.23808950484E+02  0.21882066427E+03  0.23228870534E+03  0.47000000000E+01 0. -1.
        -13    1    6    6    0    0  0.42154967397E+01  0.15925025961E+02  0.60441639220E+01  0.17547329772E+02  0.00000000000E+00 0.  1.
         14    1    6    6    0    0  0.77019176508E+01 -0.94854909855E+02  0.75349955658E+02  0.12138529267E+03  0.00000000000E+00 0. -1.
         -5    1    3    3    0  503 -0.10113949616E+02 -0.26556134106E+02  0.70229226874E+01  0.29646781926E+02  0.47000000000E+01 0.  1.
         11    1    4    4    0    0 -0.67403405833E+02  0.53695253537E+02  0.11682317965E+03  0.14516905549E+03  0.00000000000E+00 0. -1.
        -12    1    4    4    0    0 -0.84716688274E+01  0.75599714947E+02  0.20637190749E+03  0.21994647139E+03  0.00000000000E+00 0.  1.
</event>
<event>
12    1  0.8494789E-002  0.1837450E+03  0.7818608E-02  0.1164372E+00
         21   -1    0    0  501  502  0.00000000000E+00  0.00000000000E+00  0.16231372605E+03  0.16231372605E+03  0.00000000000E+00 0.  1.
         21   -1    0    0  502  503 -0.00000000000E+00 -0.00000000000E+00 -0.21051938485E+03  0.21051938485E+03  0.00000000000E+00 0.  1.
         -6    2    1    2    0  503 -0.95814196538E+01 -0.62510255546E+02 -0.47073043927E+02  0.18908462899E+03  0.17186561554E+03 0.  0.
        -24    2    3    3    0    0  0.32508218952E+02 -0.83283983129E+02  0.52077132152E+01  0.11866834534E+03  0.77859166212E+02 0.  0.
          6    2    1    2  501    0  0.95814196538E+01  0.62510255546E+02 -0.11326148794E+01  0.18374848192E+03  0.17251923411E+03 0.  0.
         24    2    5    5    0    0  0.19648235762E+02  0.10579831960E+03  0.19960931176E+02  0.13432960940E+03  0.77888815555E+02 0.  0.
          5    1    5    5  501    0 -0.10066816108E+02 -0.43288064052E+02 -0.21093546055E+02  0.49418872520E+02  0.47000000000E+01 0. -1.
        -13    1    6    6    0    0  0.37411934389E+02  0.76536710226E+02  0.40585862115E+02  0.94364893105E+02  0.00000000000E+00 0.  1.
         14    1    6    6    0    0 -0.17763698627E+02  0.29261609372E+02 -0.20624930940E+02  0.39964716291E+02  0.00000000000E+00 0. -1.
         -5    1    3    3    0  503 -0.42089638605E+02  0.20773727582E+02 -0.52280757142E+02  0.70416283649E+02  0.47000000000E+01 0.  1.
         11    1    4    4    0    0  0.34200304551E+02 -0.10709063698E+02 -0.20941482911E+02  0.41507717152E+02  0.00000000000E+00 0. -1.
        -12    1    4    4    0    0 -0.16920855996E+01 -0.72574919430E+02  0.26149196126E+02  0.77160628186E+02  0.00000000000E+00 0.  1.
</event>
<event>
12    1  0.8494789E-002  0.2210767E+03  0.7818608E-02  0.1133964E+00
         21   -1    0    0  501  502  0.00000000000E+00  0.00000000000E+00  0.49905150916E+03  0.49905150916E+03  0.00000000000E+00 0.  1.
         21   -1    0    0  502  503 -0.00000000000E+00 -0.00000000000E+00 -0.96178225578E+02  0.96178225578E+02  0.00000000000E+00 0.  1.
         -6    2    1    2    0  503 -0.12040064531E+03 -0.51219245203E+02  0.18221899267E+03  0.28287858292E+03  0.17232760926E+03 0.  0.
        -24    2    3    3    0    0 -0.52842207667E+02 -0.68451493128E+02  0.38914556813E+02  0.12344413181E+03  0.79032936949E+02 0.  0.
          6    2    1    2  501    0  0.12040064531E+03  0.51219245203E+02  0.22065429091E+03  0.31235115182E+03  0.17819988629E+03 0.  0.
         24    2    5    5    0    0  0.10841305760E+03  0.61392009918E+02  0.24467659134E+03  0.28325908556E+03  0.69618282542E+02 0.  0.
          5    1    5    5  501    0  0.11987587719E+02 -0.10172764715E+02 -0.24022300427E+02  0.29092066257E+02  0.47000000000E+01 0. -1.
        -13    1    6    6    0    0  0.59443964019E+02  0.19124703940E+01  0.14891397160E+03  0.16035153051E+03  0.00000000000E+00 0.  1.
         14    1    6    6    0    0  0.48969093577E+02  0.59479539524E+02  0.95762619746E+02  0.12290755505E+03  0.00000000000E+00 0. -1.
         -5    1    3    3    0  503 -0.67558437648E+02  0.17232247925E+02  0.14330443586E+03  0.15943445112E+03  0.47000000000E+01 0.  1.
         13    1    4    4    0    0 -0.29752436902E+02 -0.70586332063E+00 -0.15481527851E+02  0.33546735299E+02  0.00000000000E+00 0. -1.
        -14    1    4    4    0    0 -0.23089770765E+02 -0.67745629807E+02  0.54396084664E+02  0.89897396507E+02  0.00000000000E+00 0.  1.
</event>
<event>
12    1  0.8494789E-002  0.2718551E+03  0.7818608E-02  0.1100350E+00
         21   -1    0    0  503  502  0.00000000000E+00  0.00000000000E+00  0.16849598621E+04  0.16849598621E+04  0.00000000000E+00 0. -1.
         21   -1    0    0  501  503 -0.00000000000E+00 -0.00000000000E+00 -0.79317085548E+02  0.79317085548E+02  0.00000000000E+00 0. -1.
          6    2    1    2  501    0 -0.19807956783E+03  0.68294789542E+02  0.21111023587E+03  0.34349328559E+03  0.17181505199E+03 0.  0.
         24    2    3    3    0    0 -0.22262852354E+03  0.54453655827E+02  0.18628773207E+03  0.30564523539E+03  0.78658951644E+02 0.  0.
         -6    2    1    2    0  502  0.19807956783E+03 -0.68294789542E+02  0.13945325406E+04  0.14207836620E+04  0.17322099718E+03 0.  0.
        -24    2    5    5    0    0  0.61827477402E+02 -0.82182214295E+02  0.81709976855E+03  0.82731235774E+03  0.78848920051E+02 0.  0.
          5    1    3    3  501    0  0.24548955710E+02  0.13841133715E+02  0.24822503800E+02  0.37848050199E+02  0.47000000000E+01 0. -1.
        -13    1    4    4    0    0 -0.39818577184E+02 -0.83168737646E+01  0.56108489248E+01  0.41063013818E+02  0.00000000000E+00 0.  1.
         14    1    4    4    0    0 -0.18280994635E+03  0.62770529592E+02  0.18067688314E+03  0.26458222158E+03  0.00000000000E+00 0. -1.
         -5    1    5    5    0  502  0.13625209043E+03  0.13887424753E+02  0.57743277210E+03  0.59347130428E+03  0.47000000000E+01 0.  1.
         11    1    6    6    0    0  0.48676555657E+02 -0.83535015653E+02  0.46402635753E+03  0.47399152566E+03  0.00000000000E+00 0. -1.
        -12    1    6    6    0    0  0.13150921746E+02  0.13528013577E+01  0.35307341101E+03  0.35332083208E+03  0.00000000000E+00 0.  1.
</event>
<event>
12    1  0.8494789E-002  0.2209992E+03  0.7818608E-02  0.1133175E+00
         21   -1    0    0  501  502  0.00000000000E+00  0.00000000000E+00  0.67015518924E+03  0.67015518924E+03  0.00000000000E+00 0. -1.
         21   -1    0    0  502  503 -0.00000000000E+00 -0.00000000000E+00 -0.77712911254E+02  0.77712911254E+02  0.00000000000E+00 0.  1.
         -6    2    1    2    0  503  0.12712886500E+03 -0.54529894469E+02  0.20248497980E+03  0.29973456554E+03  0.17235250223E+03 0.  0.
        -24    2    3    3    0    0  0.83931919683E+02 -0.11456099578E+02  0.20795435113E+03  0.23830711309E+03  0.79808888202E+02 0.  0.
          6    2    1    2  501    0 -0.12712886500E+03  0.54529894469E+02  0.38995729818E+03  0.44813353496E+03  0.17210959601E+03 0.  0.
         24    2    5    5    0    0 -0.72676885353E+02  0.88014185633E+02  0.33768572121E+03  0.36542547246E+03  0.80471753275E+02 0.  0.
          5    1    5    5  501    0 -0.54451979651E+02 -0.33484291164E+02  0.52271576969E+02  0.82708062494E+02  0.47000000000E+01 0. -1.
        -13    1    6    6    0    0 -0.40731807068E+02  0.82983430388E+02  0.15969248143E+03  0.18451834178E+03  0.00000000000E+00 0.  1.
         14    1    6    6    0    0 -0.31945078285E+02  0.50307552447E+01  0.17799323978E+03  0.18090713068E+03  0.00000000000E+00 0. -1.
         -5    1    3    3    0  503  0.43196945322E+02 -0.43073794891E+02 -0.54693713279E+01  0.61427452447E+02  0.47000000000E+01 0.  1.
         11    1    4    4    0    0  0.99851485716E+02 -0.11022480087E+02  0.17977091518E+03  0.20593541757E+03  0.00000000000E+00 0. -1.
        -12    1    4    4    0    0 -0.15919566034E+02 -0.43361949083E+00  0.28183435953E+02  0.32371695518E+02  0.00000000000E+00 0.  1.
</event>
<event>
12    1  0.8494789E-002  0.1769807E+03  0.7818608E-02  0.1171035E+00
         21   -1    0    0  503  502  0.00000000000E+00  0.00000000000E+00  0.66735008011E+02  0.66735008011E+02  0.00000000000E+00 0.  1.
         21   -1    0    0  501  503 -0.00000000000E+00 -0.00000000000E+00 -0.47166267849E+03  0.47166267849E+03  0.00000000000E+00 0.  1.
          6    2    1    2  501    0  0.31773194256E+02 -0.14487002882E+02 -0.23029347303E+03  0.28976288853E+03  0.17236020052E+03 0.  0.
         24    2    3    3    0    0  0.93455151550E+00 -0.51890709111E+02 -0.21975743445E+03  0.23993160082E+03  0.81119196254E+02 0.  0.
         -6    2    1    2    0  502 -0.31773194256E+02  0.14487002882E+02 -0.17463419745E+03  0.24863479797E+03  0.17350144298E+03 0.  0.
        -24    2    5    5    0    0 -0.61496507413E+02 -0.45204429879E+02 -0.11198782016E+03  0.15702038274E+03  0.79302382227E+02 0.  0.
          5    1    3    3  501    0  0.30838642741E+02  0.37403706228E+02 -0.10536038584E+02  0.49831287709E+02  0.47000000000E+01 0. -1.
        -11    1    4    4    0    0 -0.77674103726E+01 -0.72932167687E+02 -0.16112546494E+03  0.17703346916E+03  0.00000000000E+00 0.  1.
         12    1    4    4    0    0  0.87019618881E+01  0.21041458577E+02 -0.58631969502E+02  0.62898131669E+02  0.00000000000E+00 0. -1.
         -5    1    5    5    0  502  0.29723313157E+02  0.59691432761E+02 -0.62646377290E+02  0.91614415229E+02  0.47000000000E+01 0.  1.
         13    1    6    6    0    0  0.52430844462E+01 -0.42857375635E+02 -0.40625401432E+02  0.59284633948E+02  0.00000000000E+00 0. -1.
        -14    1    6    6    0    0 -0.66739591859E+02 -0.23470542440E+01 -0.71362418727E+02  0.97735748791E+02  0.00000000000E+00 0.  1.
</event>
<event>
12    1  0.8494789E-002  0.1939568E+03  0.7818608E-02  0.1156420E+00
         21   -1    0    0  503  502  0.00000000000E+00  0.00000000000E+00  0.16599669786E+03  0.16599669786E+03  0.00000000000E+00 0. -1.
         21   -1    0    0  501  503 -0.00000000000E+00 -0.00000000000E+00 -0.24074160758E+03  0.24074160758E+03  0.00000000000E+00 0. -1.
          6    2    1    2  501    0 -0.71388513482E+02  0.26833719001E+02 -0.99123321851E+02  0.21781794094E+03  0.17833354740E+03 0.  0.
         24    2    3    3    0    0 -0.21785926965E+02  0.38597201682E+02 -0.11689378332E+03  0.16362684006E+03  0.10557090327E+03 0.  0.
         -6    2    1    2    0  502  0.71388513482E+02 -0.26833719001E+02  0.24378412129E+02  0.18892036451E+03  0.17111466569E+03 0.  0.
        -24    2    5    5    0    0  0.10253377439E+03 -0.58688798030E+02  0.14244079540E+02  0.14299033039E+03  0.79282979748E+02 0.  0.
          5    1    3    3  501    0 -0.49602586517E+02 -0.11763482682E+02  0.17770461467E+02  0.54191100882E+02  0.47000000000E+01 0. -1.
        -11    1    4    4    0    0  0.46887518959E+01 -0.22352297873E+02 -0.88437873915E+02  0.91339296894E+02  0.00000000000E+00 0.  1.
         12    1    4    4    0    0 -0.26474678861E+02  0.60949499555E+02 -0.28455909403E+02  0.72287543165E+02  0.00000000000E+00 0. -1.
         -5    1    5    5    0  502 -0.31145260909E+02  0.31855079030E+02  0.10134332589E+02  0.45930034118E+02  0.47000000000E+01 0.  1.
         13    1    6    6    0    0  0.88244274193E+02 -0.75414108580E+02  0.24630378314E+02  0.11866336940E+03  0.00000000000E+00 0. -1.
        -14    1    6    6    0    0  0.14289500197E+02  0.16725310550E+02 -0.10386298774E+02  0.24326960992E+02  0.00000000000E+00 0.  1.
</event>
<event>
12    1  0.8494789E-002  0.2495336E+03  0.7818608E-02  0.1113724E+00
         21   -1    0    0  501  502  0.00000000000E+00  0.00000000000E+00  0.22821263784E+03  0.22821263784E+03  0.00000000000E+00 0. -1.
         21   -1    0    0  502  503 -0.00000000000E+00 -0.00000000000E+00 -0.38756772263E+03  0.38756772263E+03  0.00000000000E+00 0. -1.
         -6    2    1    2    0  503  0.85722278483E+02  0.15916834513E+03 -0.24772452313E+03  0.35106133933E+03  0.17086179646E+03 0.  0.
        -24    2    3    3    0    0  0.24674233000E+02  0.15899265857E+03 -0.14253875638E+03  0.22935254651E+03  0.79986312997E+02 0.  0.
          6    2    1    2  501    0 -0.85722278483E+02 -0.15916834513E+03  0.88369438344E+02  0.26471902114E+03  0.17200038198E+03 0.  0.
         24    2    5    5    0    0  0.10143528004E+02 -0.99035028536E+02  0.79880246932E+02  0.15113898333E+03  0.80940165526E+02 0.  0.
          5    1    5    5  501    0 -0.95865806487E+02 -0.60133316596E+02  0.84891914121E+01  0.11358003781E+03  0.47000000000E+01 0. -1.
        -13    1    6    6    0    0  0.16276718383E+02  0.46136493322E+01  0.33275303141E+02  0.37329118937E+02  0.00000000000E+00 0.  1.
         14    1    6    6    0    0 -0.61331903782E+01 -0.10364867787E+03  0.46604943791E+02  0.11380986440E+03  0.00000000000E+00 0. -1.
         -5    1    3    3    0  503  0.61048045482E+02  0.17568656569E+00 -0.10518576675E+03  0.12170879282E+03  0.47000000000E+01 0.  1.
         11    1    4    4    0    0  0.39478625108E+02  0.14995137656E+03 -0.10293730454E+03  0.18611841886E+03  0.00000000000E+00 0. -1.
        -12    1    4    4    0    0 -0.14804392108E+02  0.90412820101E+01 -0.39601451835E+02  0.43234127648E+02  0.00000000000E+00 0.  1.
</event>
<event>
12    1  0.8494789E-002  0.3088182E+03  0.7818608E-02  0.1081135E+00
         21   -1    0    0  503  502  0.00000000000E+00  0.00000000000E+00  0.55137765567E+03  0.55137765567E+03  0.00000000000E+00 0.  1.
         21   -1    0    0  501  503 -0.00000000000E+00 -0.00000000000E+00 -0.23665303333E+03  0.23665303333E+03  0.00000000000E+00 0. -1.
          6    2    1    2  501    0  0.18897262950E+03 -0.17026882854E+03  0.36374390337E+03  0.47715650307E+03  0.17511873831E+03 0.  0.
         24    2    3    3    0    0  0.18005861233E+03 -0.18863617848E+03  0.27952225965E+03  0.39036828661E+03  0.79056902579E+02 0.  0.
         -6    2    1    2    0  502 -0.18897262950E+03  0.17026882854E+03 -0.49019281033E+02  0.31087418593E+03  0.17186547323E+03 0.  0.
        -24    2    5    5    0    0 -0.70754773215E+02  0.96597796843E+02  0.36324054359E+02  0.14744696252E+03  0.77998702183E+02 0.  0.
          5    1    3    3  501    0  0.89140171690E+01  0.18367349932E+02  0.84221643719E+02  0.86788216460E+02  0.47000000000E+01 0. -1.
        -11    1    4    4    0    0  0.37707520005E+02 -0.52534701883E+02  0.12237617462E+03  0.13841127151E+03  0.00000000000E+00 0.  1.
         12    1    4    4    0    0  0.14235109232E+03 -0.13610147659E+03  0.15714608504E+03  0.25195701510E+03  0.00000000000E+00 0. -1.
         -5    1    5    5    0  502 -0.11821785628E+03  0.73671031702E+02 -0.85343335393E+02  0.16342722341E+03  0.47000000000E+01 0.  1.
         13    1    6    6    0    0 -0.40864115296E+02  0.89013589786E+02 -0.23620879596E+01  0.97973846230E+02  0.00000000000E+00 0. -1.
        -14    1    6    6    0    0 -0.29890657919E+02  0.75842070568E+01  0.38686142319E+02  0.49473116285E+02  0.00000000000E+00 0.  1.
</event>
<event>
12    1  0.8494789E-002  0.2861575E+03  0.7818608E-02  0.1092378E+00
         21   -1    0    0  503  502  0.00000000000E+00  0.00000000000E+00  0.37129668732E+03  0.37129668732E+03  0.00000000000E+00 0. -1.
         21   -1    0    0  501  503 -0.00000000000E+00 -0.00000000000E+00 -0.23180304151E+03  0.23180304151E+03  0.00000000000E+00 0. -1.
          6    2    1    2  501    0  0.35705981221E+02 -0.22559649704E+03  0.31899410611E+01  0.28617532787E+03  0.17238748790E+03 0.  0.
         24    2    3    3    0    0 -0.12429617243E+02 -0.20404647601E+03  0.38394716813E+02  0.22259148179E+03  0.79267608328E+02 0.  0.
         -6    2    1    2    0  502 -0.35705981221E+02  0.22559649704E+03  0.13630370475E+03  0.31692440097E+03  0.17231854059E+03 0.  0.
        -24    2    5    5    0    0  0.13538310043E+02  0.22226951526E+03  0.11477737639E+03  0.26287311197E+03  0.79632930469E+02 0.  0.
          5    1    3    3  501    0  0.48135598464E+02 -0.21550021030E+02 -0.35204775752E+02  0.63583846074E+02  0.47000000000E+01 0. -1.
        -11    1    4    4    0    0  0.30021445039E+02 -0.79195364941E+02  0.32089713658E+02  0.90570098339E+02  0.00000000000E+00 0.  1.
         12    1    4    4    0    0 -0.42451062282E+02 -0.12485111107E+03  0.63050031554E+01  0.13202138345E+03  0.00000000000E+00 0. -1.
         -5    1    5    5    0  502 -0.49244291264E+02  0.33269817837E+01  0.21526328358E+02  0.54051288999E+02  0.47000000000E+01 0.  1.
         11    1    6    6    0    0 -0.22371421981E+02  0.15358314861E+03  0.98051409577E+02  0.18358197891E+03  0.00000000000E+00 0. -1.
        -12    1    6    6    0    0  0.35909732024E+02  0.68686366645E+02  0.16725966812E+02  0.79291133065E+02  0.00000000000E+00 0.  1.
</event>
<event>
12    1  0.8494789E-002  0.1950889E+03  0.7818608E-02  0.1154484E+00
         21   -1    0    0  501  502  0.00000000000E+00  0.00000000000E+00  0.57030470104E+03  0.57030470104E+03  0.00000000000E+00 0.  1.
         21   -1    0    0  502  503 -0.00000000000E+00 -0.00000000000E+00 -0.31261158482E+03  0.31261158482E+03  0.00000000000E+00 0.  1.
         -6    2    1    2    0  503  0.48641201256E+02  0.73223225158E+02 -0.26349476829E+03  0.32641249080E+03  0.17142932676E+03 0.  0.
        -24    2    3    3    0    0  0.28016832162E+02  0.30795105773E+02 -0.26420922190E+03  0.27899824865E+03  0.79373978005E+02 0.  0.
          6    2    1    2  501    0 -0.48641201256E+02 -0.73223225158E+02  0.52118788451E+03  0.55650379506E+03  0.17416100539E+03 0.  0.
         24    2    5    5    0    0 -0.61484867043E+02 -0.86982190989E+02  0.24151410486E+03  0.27615796949E+03  0.81165699922E+02 0.  0.
          5    1    5    5  501    0  0.12843665787E+02  0.13758965831E+02  0.27967377965E+03  0.28034582557E+03  0.47000000000E+01 0. -1.
        -11    1    6    6    0    0 -0.35577333710E+02 -0.79830616433E+02  0.23154709873E+03  0.24749289469E+03  0.00000000000E+00 0.  1.
         12    1    6    6    0    0 -0.25907533333E+02 -0.71515745553E+01  0.99670061305E+01  0.28665074799E+02  0.00000000000E+00 0. -1.
         -5    1    3    3    0  503  0.20624369094E+02  0.42428119385E+02  0.71445361665E+00  0.47414242154E+02  0.47000000000E+01 0.  1.
         11    1    4    4    0    0 -0.14630437309E+02 -0.13484969712E+02 -0.24660547436E+02  0.31686538212E+02  0.00000000000E+00 0. -1.
        -12    1    4    4    0    0  0.42647269472E+02  0.44280075486E+02 -0.23954867447E+03  0.24731171043E+03  0.00000000000E+00 0.  1.
</event>
<event>
12    1  0.8494789E-002  0.1974183E+03  0.7818608E-02  0.1152189E+00
         21   -1    0    0  503  502  0.00000000000E+00  0.00000000000E+00  0.47591844976E+02  0.47591844976E+02  0.00000000000E+00 0. -1.
         21   -1    0    0  501  503 -0.00000000000E+00 -0.00000000000E+00 -0.82351090236E+03  0.82351090236E+03  0.00000000000E+00 0.  1.
          6    2    1    2  501    0 -0.18954577671E+02 -0.94732552952E+02 -0.43351634106E+03  0.47586405425E+03  0.17081173134E+03 0.  0.
         24    2    3    3    0    0 -0.67213120598E+02 -0.19682060740E+02 -0.24533919260E+03  0.26755132649E+03  0.80544433604E+02 0.  0.
         -6    2    1    2    0  502  0.18954577671E+02  0.94732552952E+02 -0.34240271632E+03  0.39523869308E+03  0.17216408383E+03 0.  0.
        -24    2    5    5    0    0 -0.37363875249E+02 -0.55995299966E+01 -0.10069535698E+03  0.12750219469E+03  0.68482412520E+02 0.  0.
          5    1    3    3  501    0  0.48258542927E+02 -0.75050492212E+02 -0.18817714845E+03  0.20831272776E+03  0.47000000000E+01 0. -1.
        -11    1    4    4    0    0 -0.26462360510E+02  0.26719298651E+02 -0.14442654791E+03  0.14924210259E+03  0.00000000000E+00 0.  1.
         12    1    4    4    0    0 -0.40750760089E+02 -0.46401359391E+02 -0.10091264469E+03  0.11830922390E+03  0.00000000000E+00 0. -1.
         -5    1    5    5    0  502  0.56318452920E+02  0.10033208295E+03 -0.24170735935E+03  0.26773649839E+03  0.47000000000E+01 0.  1.
         11    1    6    6    0    0 -0.43555180594E+02  0.19580517568E+02 -0.43053663931E+02  0.64296721554E+02  0.00000000000E+00 0. -1.
        -12    1    6    6    0    0  0.61913053448E+01 -0.25180047565E+02 -0.57641693045E+02  0.63205473135E+02  0.00000000000E+00 0.  1.
</event>
<event>
12    1  0.8494789E-002  0.2051374E+03  0.7818608E-02  0.1146708E+00
         21   -1    0    0  501  502  0.00000000000E+00  0.00000000000E+00  0.15531279341E+03  0.15531279341E+03  0.00000000000E+00 0. -1.
         21   -1    0    0  502  503 -0.00000000000E+00 -0.00000000000E+00 -0.28622165815E+03  0.28622165815E+03  0.00000000000E+00 0. -1.
         -6    2    1    2    0  503 -0.56696027942E+02  0.82716607445E+02 -0.18989268206E+01  0.19920223811E+03  0.17210882898E+03 0.  0.
        -24    2    3    3    0    0 -0.61026391720E+02  0.80164453170E+01  0.44529561379E+02  0.11101742769E+03  0.80953712285E+02 0.  0.
          6    2    1    2  501    0  0.56696027942E+02 -0.82716607445E+02 -0.12900993792E+03  0.24233221345E+03  0.17895491293E+03 0.  0.
         24    2    5    5    0    0  0.49978179713E+02 -0.27112536599E+02 -0.15089651302E+03  0.18201592751E+03  0.84422343831E+02 0.  0.
          5    1    5    5  501    0  0.67178482299E+01 -0.55604070846E+02  0.21886575104E+02  0.60316285937E+02  0.47000000000E+01 0. -1.
        -11    1    6    6    0    0  0.64895481603E+02  0.52329411894E+01 -0.10960786239E+03  0.12748604121E+03  0.00000000000E+00 0.  1.
         12    1    6    6    0    0 -0.14917301891E+02 -0.32345477788E+02 -0.41288650633E+02  0.54529886302E+02  0.00000000000E+00 0. -1.
         -5    1    3    3    0  503  0.43303637777E+01  0.74700162128E+02 -0.46428488200E+02  0.88184810420E+02  0.47000000000E+01 0.  1.
         13    1    4    4    0    0  0.14880739782E+02  0.19893442054E+02  0.99009263005E+01  0.26743481352E+02  0.00000000000E+00 0. -1.
        -14    1    4    4    0    0 -0.75907131502E+02 -0.11876996737E+02  0.34628635078E+02  0.84273946340E+02  0.00000000000E+00 0.  1.
</event>
<event>
12    1  0.8494789E-002  0.2051883E+03  0.7818608E-02  0.1145844E+00
         21   -1    0    0  503  502  0.00000000000E+00  0.00000000000E+00  0.15964816500E+03  0.15964816500E+03  0.00000000000E+00 0.  1.
         21   -1    0    0  501  503 -0.00000000000E+00 -0.00000000000E+00 -0.35279338294E+03  0.35279338294E+03  0.00000000000E+00 0.  1.
          6    2    1    2  501    0 -0.10623750782E+03 -0.18694932303E+02 -0.22680417237E+03  0.30451085276E+03  0.17219412963E+03 0.  0.
         24    2    3    3    0    0  0.25188386667E+01  0.92347341608E+01 -0.13544816793E+03  0.15967985222E+03  0.84022759689E+02 0.  0.
         -6    2    1    2    0  502  0.10623750782E+03  0.18694932303E+02  0.33658954427E+02  0.20793069518E+03  0.17454609770E+03 0.  0.
        -24    2    5    5    0    0  0.54927557322E+02  0.43510441275E+02  0.81022175560E+02  0.13367515517E+03  0.79964111477E+02 0.  0.
          5    1    3    3  501    0 -0.10875634649E+03 -0.27929666464E+02 -0.91356004443E+02  0.14483100054E+03  0.47000000000E+01 0. -1.
        -11    1    4    4    0    0 -0.21497250737E+02  0.34139490981E+02 -0.10870778065E+03  0.11595265502E+03  0.00000000000E+00 0.  1.
         12    1    4    4    0    0  0.24016089404E+02 -0.24904756820E+02 -0.26740387282E+02  0.43727197195E+02  0.00000000000E+00 0. -1.
         -5    1    5    5    0  502  0.51309950497E+02 -0.24815508972E+02 -0.47363221132E+02  0.74255540006E+02  0.47000000000E+01 0.  1.
         11    1    6    6    0    0 -0.17327415237E+02  0.35772193153E+01 -0.43468887394E+00  0.17698157284E+02  0.00000000000E+00 0. -1.
        -12    1    6    6    0    0  0.72254972559E+02  0.39933221960E+02  0.81456864434E+02  0.11597699789E+03  0.00000000000E+00 0.  1.
</event>
<event>
12    1  0.8494789E-002  0.3221341E+03  0.7818608E-02  0.1074796E+00
         21   -1    0    0  501  502  0.00000000000E+00  0.00000000000E+00  0.12113217031E+03  0.12113217031E+03  0.00000000000E+00 0. -1.
         21   -1    0    0  502  503 -0.00000000000E+00 -0.00000000000E+00 -0.86648142126E+03  0.86648142126E+03  0.00000000000E+00 0.  1.
         -6    2    1    2    0  503  0.43646950295E+02  0.26666421819E+03 -0.43187226199E+03  0.53812698577E+03  0.17335553238E+03 0.  0.
        -24    2    3    3    0    0 -0.41617254358E+02  0.10972844112E+03 -0.16746111207E+03  0.21901232155E+03  0.78427331232E+02 0.  0.
          6    2    1    2  501    0 -0.43646950295E+02 -0.26666421819E+03 -0.31347698897E+03  0.44948660580E+03  0.17537253104E+03 0.  0.
         24    2    5    5    0    0 -0.90818798527E+02 -0.17153390942E+03 -0.24624973909E+03  0.32372273166E+03  0.80532830216E+02 0.  0.
          5    1    5    5  501    0  0.47171848232E+02 -0.95130308773E+02 -0.67227249878E+02  0.12576387414E+03  0.47000000000E+01 0. -1.
        -13    1    6    6    0    0 -0.82804808503E+02 -0.81371729707E+02 -0.16716065927E+03  0.20352071323E+03  0.00000000000E+00 0.  1.
         14    1    6    6    0    0 -0.80139900246E+01 -0.90162179713E+02 -0.79089079820E+02  0.12020201843E+03  0.00000000000E+00 0. -1.
         -5    1    3    3    0  503  0.85264204654E+02  0.15693577708E+03 -0.26441114992E+03  0.31911466422E+03  0.47000000000E+01 0.  1.
         11    1    4    4    0    0  0.12841141095E+02  0.57258153580E+02 -0.40721128837E+02  0.71425495377E+02  0.00000000000E+00 0. -1.
        -12    1    4    4    0    0 -0.54458395454E+02  0.52470287536E+02 -0.12673998323E+03  0.14758682617E+03  0.00000000000E+00 0.  1.
</event>
<event>
12    1  0.8494789E-002  0.2055019E+03  0.7818608E-02  0.1145390E+00
         21   -1    0    0  501  502  0.00000000000E+00  0.00000000000E+00  0.29158825376E+03  0.29158825376E+03  0.00000000000E+00 0.  1.
         21   -1    0    0  502  503 -0.00000000000E+00 -0.00000000000E+00 -0.14410180554E+03  0.14410180554E+03  0.00000000000E+00 0. -1.
         -6    2    1    2    0  503  0.10605098717E+03  0.33265399770E+02  0.73605536284E+02  0.21828607233E+03  0.17285148451E+03 0.  0.
        -24    2    3    3    0    0  0.19880635254E+02  0.52827753685E+02  0.84127117357E+02  0.12917485581E+03  0.80142125517E+02 0.  0.
          6    2    1    2  501    0 -0.10605098717E+03 -0.33265399770E+02  0.73880911940E+02  0.21740398697E+03  0.17161790611E+03 0.  0.
         24    2    5    5    0    0 -0.80970859150E+02 -0.84444696712E+02  0.30041557371E+02  0.14534628602E+03  0.80844671167E+02 0.  0.
          5    1    5    5  501    0 -0.25080128020E+02  0.51179296942E+02  0.43839354569E+02  0.72057700949E+02  0.47000000000E+01 0. -1.
        -13    1    6    6    0    0 -0.71585473002E+02 -0.31748626620E+02  0.44276591388E+02  0.89960390073E+02  0.00000000000E+00 0.  1.
         14    1    6    6    0    0 -0.93853861479E+01 -0.52696070092E+02 -0.14235034017E+02  0.55385895946E+02  0.00000000000E+00 0. -1.
         -5    1    3    3    0  503  0.86170351916E+02 -0.19562353915E+02 -0.10521581073E+02  0.89111216512E+02  0.47000000000E+01 0.  1.
         13    1    4    4    0    0  0.11894143525E+01  0.64794867669E+02  0.31492797117E+02  0.72052660277E+02  0.00000000000E+00 0. -1.
        -14    1    4    4    0    0  0.18691220902E+02 -0.11967113984E+02  0.52634320240E+02  0.57122195537E+02  0.00000000000E+00 0.  1.
</event>
<event>
12    1  0.8494789E-002  0.1875799E+03  0.7818608E-02  0.1160841E+00
         21   -1    0    0  503  502  0.00000000000E+00  0.00000000000E+00  0.47051920148E+03  0.47051920148E+03  0.00000000000E+00 0.  1.
         21   -1    0    0  501  503 -0.00000000000E+00 -0.00000000000E+00 -0.74646336441E+02  0.74646336441E+02  0.00000000000E+00 0.  1.
          6    2    1    2  501    0  0.72341901535E+02  0.24098307534E+01  0.18516815722E+03  0.26357821681E+03  0.17305222312E+03 0.  0.
         24    2    3    3    0    0  0.50000115884E+02 -0.61066300020E+02  0.15731727693E+03  0.19059783522E+03  0.73141674734E+02 0.  0.
         -6    2    1    2    0  502 -0.72341901535E+02 -0.24098307534E+01  0.21070470782E+03  0.28158732111E+03  0.17220855819E+03 0.  0.
        -24    2    5    5    0    0 -0.81050778711E+02 -0.52592096156E+02  0.18474884441E+03  0.22422966122E+03  0.82532709608E+02 0.  0.
          5    1    3    3  501    0  0.22341785651E+02  0.63476130774E+02  0.27850880295E+02  0.72980381592E+02  0.47000000000E+01 0. -1.
        -13    1    4    4    0    0  0.59037578428E+02 -0.15632721607E+02  0.83538982162E+02  0.10348226511E+03  0.00000000000E+00 0.  1.
         14    1    4    4    0    0 -0.90374625440E+01 -0.45433578413E+02  0.73778294767E+02  0.87115570109E+02  0.00000000000E+00 0. -1.
         -5    1    5    5    0  502  0.87088771757E+01  0.50182265402E+02  0.25955863410E+02  0.57357659889E+02  0.47000000000E+01 0.  1.
         13    1    6    6    0    0 -0.11275773242E+02 -0.56049974170E+02  0.80479070028E+02  0.98719923923E+02  0.00000000000E+00 0. -1.
        -14    1    6    6    0    0 -0.69775005468E+02  0.34578780143E+01  0.10426977438E+03  0.12550973730E+03  0.00000000000E+00 0.  1.
</event>
<event>
12    1  0.8494789E-002  0.2039884E+03  0.7818608E-02  0.1146762E+00
         21   -1    0    0  503  502  0.00000000000E+00  0.00000000000E+00  0.62916988887E+03  0.62916988887E+03  0.00000000000E+00 0.  1.
         21   -1    0    0  501  503 -0.00000000000E+00 -0.00000000000E+00 -0.69769522446E+02  0.69769522446E+02  0.00000000000E+00 0. -1.
          6    2    1    2  501    0  0.77816406082E+02  0.70581602368E+02  0.19314621728E+03  0.27970990214E+03  0.17290174221E+03 0.  0.
         24    2    3    3    0    0 -0.87846452583E+01  0.21361979343E+02  0.14831364832E+03  0.17037389424E+03  0.80602862275E+02 0.  0.
         -6    2    1    2    0  502 -0.77816406082E+02 -0.70581602368E+02  0.36625414914E+03  0.41922950917E+03  0.17485457944E+03 0.  0.
        -24    2    5    5    0    0 -0.18784847951E+02 -0.40447880568E+02  0.33221445096E+03  0.34457324957E+03  0.79845985132E+02 0.  0.
          5    1    3    3  501    0  0.86601051340E+02  0.49219623025E+02  0.44832568962E+02  0.10933600790E+03  0.47000000000E+01 0. -1.
        -11    1    4    4    0    0 -0.18512417987E+02 -0.25395580973E+02  0.87987036607E+02  0.93431064232E+02  0.00000000000E+00 0.  1.
         12    1    4    4    0    0  0.97277727290E+01  0.46757560316E+02  0.60326611715E+02  0.76942830010E+02  0.00000000000E+00 0. -1.
         -5    1    5    5    0  502 -0.59031558131E+02 -0.30133721800E+02  0.34039698183E+02  0.74656259599E+02  0.47000000000E+01 0.  1.
         13    1    6    6    0    0 -0.44905363551E+02 -0.19192648437E+02  0.11765961422E+03  0.12739165690E+03  0.00000000000E+00 0. -1.
        -14    1    6    6    0    0  0.26120515601E+02 -0.21255232130E+02  0.21455483673E+03  0.21718159267E+03  0.00000000000E+00 0.  1.
</event>
<event>
12    1  0.8494789E-002  0.2198253E+03  0.7818608E-02  0.1134663E+00
         21   -1    0    0  501  502  0.00000000000E+00  0.00000000000E+00  0.13106243660E+03  0.13106243660E+03  0.00000000000E+00 0. -1.
         21   -1    0    0  502  503 -0.00000000000E+00 -0.00000000000E+00 -0.63054145012E+03  0.63054145012E+03  0.00000000000E+00 0. -1.
         -6    2    1    2    0  503  0.95721827641E+02  0.93132204353E+02 -0.49895192832E+03  0.54523039322E+03  0.17460492303E+03 0.  0.
        -24    2    3    3    0    0  0.13462823580E+03  0.74879989083E+02 -0.35244195359E+03  0.39247531262E+03  0.78036950996E+02 0.  0.
          6    2    1    2  501    0 -0.95721827641E+02 -0.93132204353E+02 -0.52708520381E+00  0.21637349349E+03  0.17023787796E+03 0.  0.
         24    2    5    5    0    0 -0.36173201470E+02 -0.47161448006E+02 -0.63529612550E+02  0.11813522310E+03  0.79920063710E+02 0.  0.
          5    1    5    5  501    0 -0.59548626171E+02 -0.45970756347E+02  0.63002527346E+02  0.98238270394E+02  0.47000000000E+01 0. -1.
        -11    1    6    6    0    0  0.20633833801E+02 -0.31794171463E+02 -0.11567064820E+02  0.39628543058E+02  0.00000000000E+00 0.  1.
         12    1    6    6    0    0 -0.56807035271E+02 -0.15367276543E+02 -0.51962547730E+02  0.78506680042E+02  0.00000000000E+00 0. -1.
         -5    1    3    3    0  503 -0.38906408155E+02  0.18252215271E+02 -0.14650997472E+03  0.15275508061E+03  0.47000000000E+01 0.  1.
         13    1    4    4    0    0  0.13006196346E+03  0.41115370831E+02 -0.30452527572E+03  0.33367983399E+03  0.00000000000E+00 0. -1.
        -14    1    4    4    0    0  0.45662723403E+01  0.33764618252E+02 -0.47916677874E+02  0.58795478629E+02  0.00000000000E+00 0.  1.
</event>
<event>
12    1  0.8494789E-002  0.1884321E+03  0.7818608E-02  0.1160089E+00
         21   -1    0    0  501  502  0.00000000000E+00  0.00000000000E+00  0.73824768691E+03  0.73824768691E+03  0.00000000000E+00 0.  1.
         21   -1    0    0  502  503 -0.00000000000E+00 -0.00000000000E+00 -0.79079988768E+02  0.79079988768E+02  0.00000000000E+00 0.  1.
         -6    2    1    2    0  503 -0.52214745662E+02  0.51915384608E+02  0.73315122719E+02  0.20219240626E+03  0.17345049757E+03 0.  0.
        -24    2    3    3    0    0 -0.99166818643E+02  0.56709074417E+02  0.44461623759E+02  0.14667582296E+03  0.80541815303E+02 0.  0.
          6    2    1    2  501    0  0.52214745662E+02 -0.51915384608E+02  0.58585257543E+03  0.61513526942E+03  0.17247194766E+03 0.  0.
         24    2    5    5    0    0  0.47757582434E+02  0.32770918860E+02  0.38303602338E+03  0.39525284611E+03  0.78444230795E+02 0.  0.
          5    1    5    5  501    0  0.44571632281E+01 -0.84686303468E+02  0.20281655205E+03  0.21988242332E+03  0.47000000000E+01 0. -1.
        -13    1    6    6    0    0 -0.13634994385E+02  0.26915394921E+02  0.19607719610E+03  0.19838502561E+03  0.00000000000E+00 0.  1.
         14    1    6    6    0    0  0.61392576819E+02  0.58555239395E+01  0.18695882728E+03  0.19686782050E+03  0.00000000000E+00 0. -1.
         -5    1    3    3    0  503  0.46952072981E+02 -0.47936898087E+01  0.28853498960E+02  0.55516583301E+02  0.47000000000E+01 0.  1.
         11    1    4    4    0    0 -0.42511764328E+02  0.20088264484E+02  0.61193660602E+02  0.77171578798E+02  0.00000000000E+00 0. -1.
        -12    1    4    4    0    0 -0.56655054315E+02  0.36620809932E+02 -0.16732036842E+02  0.69504244161E+02  0.00000000000E+00 0.  1.
</event>
<event>
12    1  0.8494789E-002  0.2403325E+03  0.7818608E-02  0.1119792E+00
         21   -1    0    0  503  502  0.00000000000E+00  0.00000000000E+00  0.47829198824E+03  0.47829198824E+03  0.00000000000E+00 0.  1.
         21   -1    0    0  501  503 -0.00000000000E+00 -0.00000000000E+00 -0.16274414850E+03  0.16274414850E+03  0.00000000000E+00 0. -1.
          6    2    1    2  501    0 -0.30604726321E+02 -0.16337610816E+03 -0.59763560631E+01  0.24040682769E+03  0.17358376646E+03 0.  0.
         24    2    3    3    0    0  0.33514522081E+02 -0.14981997319E+03  0.87210632297E+01  0.17307814922E+03  0.79440173943E+02 0.  0.
         -6    2    1    2    0  502  0.30604726321E+02  0.16337610816E+03  0.32152419580E+03  0.40062930905E+03  0.17174874903E+03 0.  0.
        -24    2    5    5    0    0  0.76921611073E+02  0.90645719891E+02  0.14639008108E+03  0.20536279545E+03  0.81303389439E+02 0.  0.
          5    1    3    3  501    0 -0.64119248402E+02 -0.13556134971E+02 -0.14697419293E+02  0.67328678472E+02  0.47000000000E+01 0. -1.
        -13    1    4    4    0    0  0.18685801135E+02 -0.10695347871E+02  0.24107323004E+02  0.32322014983E+02  0.00000000000E+00 0.  1.
         14    1    4    4    0    0  0.14828720946E+02 -0.13912462532E+03 -0.15386259774E+02  0.14075613424E+03  0.00000000000E+00 0. -1.
         -5    1    5    5    0  502 -0.46316884752E+02  0.72730388271E+02  0.17513411473E+03  0.19526651360E+03  0.47000000000E+01 0.  1.
         11    1    6    6    0    0 -0.85804141308E+01  0.18831309254E+02 -0.68301520252E+00  0.20705270456E+02  0.00000000000E+00 0. -1.
        -12    1    6    6    0    0  0.85502025204E+02  0.71814410636E+02  0.14707309628E+03  0.18465752500E+03  0.00000000000E+00 0.  1.
</event>
<event>
12    1  0.8494789E-002  0.2033502E+03  0.7818608E-02  0.1147549E+00
         21   -1    0    0  501  502  0.00000000000E+00  0.00000000000E+00  0.46538441323E+03  0.46538441323E+03  0.00000000000E+00 0. -1.
         21   -1    0    0  502  503 -0.00000000000E+00 -0.00000000000E+00 -0.11281770453E+03  0.11281770453E+03  0.00000000000E+00 0. -1.
         -6    2    1    2    0  503  0.14389870419E+02 -0.10080515688E+03  0.38577241771E+02  0.20411563632E+03  0.17264484175E+03 0.  0.
        -24    2    3    3    0    0 -0.59591035750E+02 -0.56244406225E+02  0.18096544355E+02  0.11523153232E+03  0.78970224456E+02 0.  0.
          6    2    1    2  501    0 -0.14389870419E+02  0.10080515688E+03  0.31398946693E+03  0.37408648143E+03  0.17601864169E+03 0.  0.
         24    2    5    5    0    0  0.29970714982E+02  0.11439108833E+02  0.22085862224E+03  0.23752295660E+03  0.81298997086E+02 0.  0.
          5    1    5    5  501    0 -0.44360585400E+02  0.89366048051E+02  0.93130844693E+02  0.13656352483E+03  0.47000000000E+01 0. -1.
        -11    1    6    6    0    0 -0.26297658875E+02  0.14574498920E+02  0.94473987972E+02  0.99142913435E+02  0.00000000000E+00 0.  1.
         12    1    6    6    0    0  0.56268373857E+02 -0.31353900862E+01  0.12638463427E+03  0.13838004317E+03  0.00000000000E+00 0. -1.
         -5    1    3    3    0  503  0.73980906169E+02 -0.44560750659E+02  0.20480697417E+02  0.88884103998E+02  0.47000000000E+01 0.  1.
         13    1    4    4    0    0 -0.48917182574E+02 -0.47906454716E+02  0.47179412132E+02  0.83149360091E+02  0.00000000000E+00 0. -1.
        -14    1    4    4    0    0 -0.10673853176E+02 -0.83379515097E+01 -0.29082867777E+02  0.32082172233E+02  0.00000000000E+00 0.  1.
</event>
<event>
12    1  0.8494789E-002  0.2651908E+03  0.7818608E-02  0.1104073E+00
         21   -1    0    0  501  502  0.00000000000E+00  0.00000000000E+00  0.22690643938E+03  0.22690643938E+03  0.00000000000E+00 0. -1.
         21   -1    0    0  502  503 -0.00000000000E+00 -0.00000000000E+00 -0.46524474706E+03  0.46524474706E+03  0.00000000000E+00 0.  1.
         -6    2    1    2    0  503  0.15783173796E+03 -0.12604181841E+03 -0.31917973899E+03  0.41497211603E+03  0.17183932556E+03 0.  0.
        -24    2    3    3    0    0  0.13530225045E+03 -0.83009439052E+02 -0.32018724414E+03  0.36616157877E+03  0.79731828717E+02 0.  0.
          6    2    1    2  501    0 -0.15783173796E+03  0.12604181841E+03  0.80841431309E+02  0.27717907042E+03  0.17174254733E+03 0.  0.
         24    2    5    5    0    0 -0.90389144312E+02  0.11742002723E+03 -0.33500071701E+01  0.16885951062E+03  0.80899020846E+02 0.  0.
          5    1    5    5  501    0 -0.67442593652E+02  0.86217911766E+01  0.84191438479E+02  0.10831955980E+03  0.47000000000E+01 0. -1.
        -11    1    6    6    0    0 -0.60054318676E+01  0.54825925190E+02 -0.26630152853E+02  0.61246324999E+02  0.00000000000E+00 0.  1.
         12    1    6    6    0    0 -0.84383712445E+02  0.62594102041E+02  0.23280145683E+02  0.10761318562E+03  0.00000000000E+00 0. -1.
         -5    1    3    3    0  503  0.22529487514E+02 -0.43032379356E+02  0.10075051546E+01  0.48810537257E+02  0.47000000000E+01 0.  1.
         13    1    4    4    0    0  0.87693325389E+02 -0.78145578003E+02 -0.15683892877E+03  0.19594718742E+03  0.00000000000E+00 0. -1.
        -14    1    4    4    0    0  0.47608925061E+02 -0.48638610481E+01 -0.16334831538E+03  0.17021439136E+03  0.00000000000E+00 0.  1.
</event>
<event>
12    1  0.8494789E-002  0.1980698E+03  0.7818608E-02  0.1151604E+00
         21   -1    0    0  503  502  0.00000000000E+00  0.00000000000E+00  0.88061063633E+03  0.88061063633E+03  0.00000000000E+00 0. -1.
         21   -1    0    0  501  503 -0.00000000000E+00 -0.00000000000E+00 -0.53907899178E+02  0.53907899178E+02  0.00000000000E+00 0. -1.
          6    2    1    2  501    0  0.91253438320E+02  0.37475317408E+02  0.21531898259E+03  0.29185085219E+03  0.17053758014E+03 0.  0.
         24    2    3    3    0    0  0.57132753317E+02 -0.77903523790E+01  0.21406577379E+03  0.23495742077E+03  0.77820260707E+02 0.  0.
         -6    2    1    2    0  502 -0.91253438320E+02 -0.37475317408E+02  0.61138375457E+03  0.64266768332E+03  0.17175583372E+03 0.  0.
        -24    2    5    5    0    0 -0.80637129280E+02  0.32458948336E+02  0.47411350007E+03  0.48817263385E+03  0.77285053800E+02 0.  0.
          5    1    3    3  501    0  0.34120685003E+02  0.45265669787E+02  0.12532088012E+01  0.56893431419E+02  0.47000000000E+01 0. -1.
        -11    1    4    4    0    0  0.61037105340E+02  0.12145431521E+02  0.91118660108E+02  0.11034332764E+03  0.00000000000E+00 0.  1.
         12    1    4    4    0    0 -0.39043520228E+01 -0.19935783900E+02  0.12294711368E+03  0.12461409313E+03  0.00000000000E+00 0. -1.
         -5    1    5    5    0  502 -0.10616309040E+02 -0.69934265744E+02  0.13727025450E+03  0.15449504948E+03  0.47000000000E+01 0.  1.
         13    1    6    6    0    0 -0.86163236233E+02  0.57979380987E+01  0.39999914535E+03  0.40921514591E+03  0.00000000000E+00 0. -1.
        -14    1    6    6    0    0  0.55261069522E+01  0.26661010237E+02  0.74114354723E+02  0.78957487935E+02  0.00000000000E+00 0.  1.
</event>
<event>
12    1  0.8494789E-002  0.1773188E+03  0.7818608E-02  0.1170580E+00
         21   -1    0    0  503  502  0.00000000000E+00  0.00000000000E+00  0.72098346758E+03  0.72098346758E+03  0.00000000000E+00 0.  1.
         21   -1    0    0  501  503 -0.00000000000E+00 -0.00000000000E+00 -0.10044277586E+03  0.10044277586E+03  0.00000000000E+00 0.  1.
          6    2    1    2  501    0  0.20837153188E+02  0.39172146237E+02  0.66470627373E+00  0.17668738749E+03  0.17102440489E+03 0.  0.
         24    2    3    3    0    0  0.56514755532E+02  0.77430072299E+02 -0.41702667273E+01  0.12394246186E+03  0.78453865666E+02 0.  0.
         -6    2    1    2    0  502 -0.20837153188E+02 -0.39172146237E+02  0.61987598545E+03  0.64473885595E+03  0.17167792822E+03 0.  0.
        -24    2    5    5    0    0 -0.67863935676E+02 -0.45862547083E+02  0.29590336901E+03  0.31726881772E+03  0.79948808087E+02 0.  0.
          5    1    3    3  501    0 -0.35677602344E+02 -0.38257926063E+02  0.48349730011E+01  0.52744925628E+02  0.47000000000E+01 0. -1.
        -13    1    4    4    0    0  0.39748291423E+01  0.36326051647E+02  0.31545067978E+02  0.48274968759E+02  0.00000000000E+00 0.  1.
         14    1    4    4    0    0  0.52539926389E+02  0.41104020652E+02 -0.35715334705E+02  0.75667493099E+02  0.00000000000E+00 0. -1.
         -5    1    5    5    0  502  0.47026782488E+02  0.66904008469E+01  0.32397261644E+03  0.32747003823E+03  0.47000000000E+01 0.  1.
         11    1    6    6    0    0 -0.66102550166E+02 -0.17555702182E+02  0.27109078759E+03  0.27958534463E+03  0.00000000000E+00 0. -1.
        -12    1    6    6    0    0 -0.17613855104E+01 -0.28306844901E+02  0.24812581425E+02  0.37683473090E+02  0.00000000000E+00 0.  1.
</event>
<event>
12    1  0.8494789E-002  0.2035995E+03  0.7818608E-02  0.1146759E+00
         21   -1    0    0  501  502  0.00000000000E+00  0.00000000000E+00  0.25750027775E+03  0.25750027775E+03  0.00000000000E+00 0. -1.
         21   -1    0    0  502  503 -0.00000000000E+00 -0.00000000000E+00 -0.19769389919E+03  0.19769389919E+03  0.00000000000E+00 0. -1.
         -6    2    1    2    0  503  0.93867981976E+02 -0.55537259626E+02 -0.68282878309E+02  0.21474478829E+03  0.17192203867E+03 0.  0.
        -24    2    3    3    0    0  0.10246840112E+03 -0.71945409768E+02 -0.46074565087E+01  0.14826288141E+03  0.79276340323E+02 0.  0.
          6    2    1    2  501    0 -0.93867981976E+02  0.55537259626E+02  0.12808925687E+03  0.24044938865E+03  0.17179483558E+03 0.  0.
         24    2    5    5    0    0  0.89365562610E+01  0.54728545928E+02  0.45954053920E+02  0.10877665547E+03  0.81519997100E+02 0.  0.
          5    1    5    5  501    0 -0.10280453824E+03  0.80871369800E+00  0.82135202948E+02  0.13167273318E+03  0.47000000000E+01 0. -1.
        -11    1    6    6    0    0  0.14956600448E+02  0.70464096725E+02  0.54076545232E+02  0.90073090146E+02  0.00000000000E+00 0.  1.
         12    1    6    6    0    0 -0.60200441868E+01 -0.15735550797E+02 -0.81224913116E+01  0.18703565328E+02  0.00000000000E+00 0. -1.
         -5    1    3    3    0  503 -0.86004191397E+01  0.16408150141E+02 -0.63675421800E+02  0.66481906876E+02  0.47000000000E+01 0.  1.
         11    1    4    4    0    0  0.89004979975E+02 -0.61202793328E+02 -0.34815731348E+02  0.11348922205E+03  0.00000000000E+00 0. -1.
        -12    1    4    4    0    0  0.13463421140E+02 -0.10742616440E+02  0.30208274840E+02  0.34773659364E+02  0.00000000000E+00 0.  1.
</event>
<event>
12    1  0.8494789E-002  0.2262429E+03  0.7818608E-02  0.1129390E+00
         21   -1    0    0  501  502  0.00000000000E+00  0.00000000000E+00  0.77018265910E+03  0.77018265910E+03  0.00000000000E+00 0. -1.
         21   -1    0    0  502  503 -0.00000000000E+00 -0.00000000000E+00 -0.10680023165E+03  0.10680023165E+03  0.00000000000E+00 0. -1.
         -6    2    1    2    0  503 -0.99054805918E+02  0.10851095988E+03  0.61971086956E+02  0.23457678562E+03  0.17204467369E+03 0.  0.
        -24    2    3    3    0    0 -0.31871340682E+02  0.12451469759E+03  0.53143122595E+01  0.14512390562E+03  0.67178968386E+02 0.  0.
          6    2    1    2  501    0  0.99054805918E+02 -0.10851095988E+03  0.60141134049E+03  0.64240610513E+03  0.17147454753E+03 0.  0.
         24    2    5    5    0    0  0.75494650215E+02 -0.81947596157E+01  0.20600923981E+03  0.23377016423E+03  0.80262609611E+02 0.  0.
          5    1    5    5  501    0  0.23560155703E+02 -0.10031620027E+03  0.39540210068E+03  0.40863594090E+03  0.47000000000E+01 0. -1.
        -13    1    6    6    0    0 -0.40674195895E+00  0.18737130689E+02  0.87110321740E+01  0.20667065273E+02  0.00000000000E+00 0.  1.
         14    1    6    6    0    0  0.75901392174E+02 -0.26931890304E+02  0.19729820764E+03  0.21310309896E+03  0.00000000000E+00 0. -1.
         -5    1    3    3    0  503 -0.67183465237E+02 -0.16003737714E+02  0.56656774697E+02  0.89452880004E+02  0.47000000000E+01 0.  1.
         13    1    4    4    0    0 -0.12603869377E+02 -0.53127061530E+01  0.20773040830E+01  0.13834650780E+02  0.00000000000E+00 0. -1.
        -14    1    4    4    0    0 -0.19267471305E+02  0.12982740375E+03  0.32370081765E+01  0.13128925484E+03  0.00000000000E+00 0.  1.
</event>
<event>
12    1  0.8494789E-002  0.2126950E+03  0.7818608E-02  0.1139533E+00
         21   -1    0    0  503  502  0.00000000000E+00  0.00000000000E+00  0.13426320401E+04  0.13426320401E+04  0.00000000000E+00 0. -1.
         21   -1    0    0  501  503 -0.00000000000E+00 -0.00000000000E+00 -0.34283447433E+02  0.34283447433E+02  0.00000000000E+00 0.  1.
          6    2    1    2  501    0 -0.76407501491E+02 -0.10015917068E+03  0.75012144391E+03  0.77969312109E+03  0.17137449257E+03 0.  0.
         24    2    3    3    0    0 -0.48234838408E+02 -0.96766240425E+02  0.30186558555E+03  0.33051541073E+03  0.80170443890E+02 0.  0.
         -6    2    1    2    0  502  0.76407501491E+02  0.10015917068E+03  0.55822714875E+03  0.59722236644E+03  0.17084214824E+03 0.  0.
        -24    2    5    5    0    0  0.58336230565E+02  0.13718854882E+03  0.41489465724E+03  0.44801097679E+03  0.79702227039E+02 0.  0.
          5    1    3    3  501    0 -0.28172663083E+02 -0.33929302539E+01  0.44825585837E+03  0.44917771036E+03  0.47000000000E+01 0. -1.
        -13    1    4    4    0    0 -0.34699583091E+01  0.84432163689E+01  0.16660623674E+01  0.92792390384E+01  0.00000000000E+00 0.  1.
         14    1    4    4    0    0 -0.44764880099E+02 -0.10520945679E+03  0.30019952318E+03  0.32123617170E+03  0.00000000000E+00 0. -1.
         -5    1    5    5    0  502  0.18071270926E+02 -0.37029378136E+02  0.14333249151E+03  0.14921138965E+03  0.47000000000E+01 0.  1.
         11    1    6    6    0    0 -0.14800059266E+01 -0.31954878183E+01  0.79005008065E+02  0.79083455028E+02  0.00000000000E+00 0. -1.
        -12    1    6    6    0    0  0.59816236492E+02  0.14038403663E+03  0.33588964917E+03  0.36892752176E+03  0.00000000000E+00 0.  1.
</event>
<event>
12    1  0.8494789E-002  0.2210597E+03  0.7818608E-02  0.1133147E+00
         21   -1    0    0  503  502  0.00000000000E+00  0.00000000000E+00  0.76489563224E+03  0.76489563224E+03  0.00000000000E+00 0. -1.
         21   -1    0    0  501  503 -0.00000000000E+00 -0.00000000000E+00 -0.80061797804E+02  0.80061797804E+02  0.00000000000E+00 0. -1.
          6    2    1    2  501    0 -0.13549526538E+03 -0.24082741691E+02  0.15222771924E+03  0.26840392722E+03  0.17299839380E+03 0.  0.
         24    2    3    3    0    0 -0.12787032830E+03 -0.68624208891E+02  0.14941130563E+03  0.22288355649E+03  0.79329935080E+02 0.  0.
         -6    2    1    2    0  502  0.13549526538E+03  0.24082741691E+02  0.53260611519E+03  0.57655350282E+03  0.17264333836E+03 0.  0.
        -24    2    5    5    0    0  0.13612151898E+03  0.14106184217E+02  0.27066490416E+03  0.31437949204E+03  0.82746131665E+02 0.  0.
          5    1    3    3  501    0 -0.76249370794E+01  0.44541467200E+02  0.28164136077E+01  0.45520370730E+02  0.47000000000E+01 0. -1.
        -11    1    4    4    0    0  0.42979999707E+01 -0.21435306874E+02  0.70302930162E+01  0.22964542330E+02  0.00000000000E+00 0.  1.
         12    1    4    4    0    0 -0.13216832827E+03 -0.47188902017E+02  0.14238101261E+03  0.19991901416E+03  0.00000000000E+00 0. -1.
         -5    1    5    5    0  502 -0.62625359743E+00  0.99765574739E+01  0.26194121103E+03  0.26217401078E+03  0.47000000000E+01 0.  1.
         11    1    6    6    0    0  0.10587034938E+03 -0.17516093437E+02  0.23345400820E+03  0.25693601996E+03  0.00000000000E+00 0. -1.
        -12    1    6    6    0    0  0.30251169595E+02  0.31622277653E+02  0.37210895961E+02  0.57443472076E+02  0.00000000000E+00 0.  1.
</event>
<event>
12    1  0.8494789E-002  0.2045330E+03  0.7818608E-02  0.1146256E+00
         21   -1    0    0  501  502  0.00000000000E+00  0.00000000000E+00  0.18914334793E+04  0.18914334793E+04  0.00000000000E+00 0.  1.
         21   -1    0    0  502  503 -0.00000000000E+00 -0.00000000000E+00 -0.43526778934E+02  0.43526778934E+02  0.00000000000E+00 0.  1.
         -6    2    1    2    0  503 -0.10408622201E+03  0.36918205808E+02  0.24146527779E+03  0.31555054873E+03  0.17049860085E+03 0.  0.
        -24    2    3    3    0    0  0.12615208550E+02  0.66260377405E+00  0.11801817601E+03  0.14178355096E+03  0.77554515826E+02 0.  0.
          6    2    1    2  501    0  0.10408622201E+03 -0.36918205808E+02  0.16064414225E+04  0.16194097095E+04  0.17215361613E+03 0.  0.
         24    2    5    5    0    0  0.41012393899E+02 -0.47600891849E+02  0.43958296533E+03  0.45078950738E+03  0.77653945155E+02 0.  0.
          5    1    5    5  501    0  0.63073828109E+02  0.10682686041E+02  0.11668584572E+04  0.11686202021E+04  0.47000000000E+01 0. -1.
        -13    1    6    6    0    0  0.50854808430E+02  0.34017171771E+00  0.23372344730E+03  0.23919234326E+03  0.00000000000E+00 0.  1.
         14    1    6    6    0    0 -0.98424145307E+01 -0.47941063567E+02  0.20585951803E+03  0.21159716412E+03  0.00000000000E+00 0. -1.
         -5    1    3    3    0  503 -0.11670143056E+03  0.36255602034E+02  0.12344710178E+03  0.17376699776E+03  0.47000000000E+01 0.  1.
         11    1    4    4    0    0 -0.30114788371E+02 -0.44347502985E+01  0.74974733632E+02  0.80918342618E+02  0.00000000000E+00 0. -1.
        -12    1    4    4    0    0  0.42729996921E+02  0.50973540726E+01  0.43043442377E+02  0.60865208346E+02  0.00000000000E+00 0.  1.
</event>
<event>
12    1  0.8494789E-002  0.1856065E+03  0.7818608E-02  0.1162668E+00
         21   -1    0    0  503  502  0.00000000000E+00  0.00000000000E+00  0.61060737053E+03  0.61060737053E+03  0.00000000000E+00 0. -1.
         21   -1    0    0  501  503 -0.00000000000E+00 -0.00000000000E+00 -0.89622392112E+02  0.89622392112E+02  0.00000000000E+00 0. -1.
          6    2    1    2  501    0  0.16303092449E+02 -0.68127343536E+02  0.46277602358E+02  0.19052702279E+03  0.17103158823E+03 0.  0.
         24    2    3    3    0    0  0.37982325977E+02 -0.88315792711E+02  0.76599402114E+02  0.14787653408E+03  0.82205015656E+02 0.  0.
         -6    2    1    2    0  502 -0.16303092449E+02  0.68127343536E+02  0.47470737606E+03  0.50970273986E+03  0.17187979628E+03 0.  0.
        -24    2    5    5    0    0  0.49882193128E+02  0.65872844507E+02  0.24809823554E+03  0.27356852514E+03  0.80371255014E+02 0.  0.
          5    1    3    3  501    0 -0.21679233528E+02  0.20188449175E+02 -0.30321799756E+02  0.42650488706E+02  0.47000000000E+01 0. -1.
        -11    1    4    4    0    0 -0.21716476207E+02 -0.49996959758E+02  0.42761005309E+02  0.69280624268E+02  0.00000000000E+00 0.  1.
         12    1    4    4    0    0  0.59698802185E+02 -0.38318832953E+02  0.33838396804E+02  0.78595909814E+02  0.00000000000E+00 0. -1.
         -5    1    5    5    0  502 -0.66185285578E+02  0.22544990296E+01  0.22660914053E+03  0.23613421472E+03  0.47000000000E+01 0.  1.
         11    1    6    6    0    0 -0.18138574894E+02  0.29525715121E+02  0.11080099775E+03  0.11609322485E+03  0.00000000000E+00 0. -1.
        -12    1    6    6    0    0  0.68020768022E+02  0.36347129386E+02  0.13729723779E+03  0.15747530029E+03  0.00000000000E+00 0.  1.
</event>
<event>
12    1  0.8494789E-002  0.1848904E+03  0.7818608E-02  0.1164308E+00
         21   -1    0    0  503  502  0.00000000000E+00  0.00000000000E+00  0.40659607683E+02  0.40659607683E+02  0.00000000000E+00 0.  1.
         21   -1    0    0  501  503 -0.00000000000E+00 -0.00000000000E+00 -0.82080554303E+03  0.82080554303E+03  0.00000000000E+00 0. -1.
          6    2    1    2  501    0 -0.64890054138E+02 -0.12867845950E+02 -0.41699400063E+03  0.45614522047E+03  0.17265041270E+03 0.  0.
         24    2    3    3    0    0 -0.71736437588E+02 -0.41958830247E+02 -0.15885880286E+03  0.19624326076E+03  0.79803748234E+02 0.  0.
         -6    2    1    2    0  502  0.64890054138E+02  0.12867845950E+02 -0.36315193471E+03  0.40531993024E+03  0.16741749485E+03 0.  0.
        -24    2    5    5    0    0  0.66698508311E+02 -0.31330299633E+02 -0.13986412138E+03  0.17764409894E+03  0.81025765968E+02 0.  0.
          5    1    3    3  501    0  0.68463834499E+01  0.29090984297E+02 -0.25813519777E+03  0.25990195971E+03  0.47000000000E+01 0. -1.
        -11    1    4    4    0    0 -0.44667628754E+02  0.40434683899E+01 -0.23271497696E+02  0.50528301971E+02  0.00000000000E+00 0.  1.
         12    1    4    4    0    0 -0.27068808834E+02 -0.46002298637E+02 -0.13558730517E+03  0.14571495879E+03  0.00000000000E+00 0. -1.
         -5    1    5    5    0  502 -0.18084541729E+01  0.44198145583E+02 -0.22328781333E+03  0.22767583130E+03  0.47000000000E+01 0.  1.
         13    1    6    6    0    0  0.66650863419E+02 -0.22817132816E+02 -0.14920832037E+03  0.16500327879E+03  0.00000000000E+00 0. -1.
        -14    1    6    6    0    0  0.47644892510E-01 -0.85131668169E+01  0.93441989853E+01  0.12640820146E+02  0.00000000000E+00 0.  1.
</event>
<event>
12    1  0.8494789E-002  0.2731790E+03  0.7818608E-02  0.1099513E+00
         21   -1    0    0  503  502  0.00000000000E+00  0.00000000000E+00  0.74621244487E+03  0.74621244487E+03  0.00000000000E+00 0.  1.
         21   -1    0    0  501  503 -0.00000000000E+00 -0.00000000000E+00 -0.10843496939E+03  0.10843496939E+03  0.00000000000E+00 0.  1.
          6    2    1    2  501    0 -0.11473845535E+02  0.21159817003E+03  0.19919686774E+03  0.33809190391E+03  0.17239869105E+03 0.  0.
         24    2    3    3    0    0 -0.59888916418E+02  0.13788443944E+03  0.70654964055E+02  0.18213407573E+03  0.74712091697E+02 0.  0.
         -6    2    1    2    0  502  0.11473845535E+02 -0.21159817003E+03  0.43858060773E+03  0.51655551035E+03  0.17196281894E+03 0.  0.
        -24    2    5    5    0    0 -0.27998066578E+02 -0.43070182978E+02  0.11359212899E+03  0.14831738687E+03  0.80348883535E+02 0.  0.
          5    1    3    3  501    0  0.48415070883E+02  0.73713730589E+02  0.12854190369E+03  0.15595782818E+03  0.47000000000E+01 0. -1.
        -13    1    4    4    0    0 -0.55611423786E+02  0.13234624406E+03  0.84530375704E+02  0.16659394704E+03  0.00000000000E+00 0.  1.
         14    1    4    4    0    0 -0.42774926319E+01  0.55381953805E+01 -0.13875411649E+02  0.15540128691E+02  0.00000000000E+00 0. -1.
         -5    1    5    5    0  502  0.39471912113E+02 -0.16852798706E+03  0.32498847874E+03  0.36823812348E+03  0.47000000000E+01 0.  1.
         11    1    6    6    0    0  0.23304313490E+02 -0.33595473219E+01  0.89353664312E+01  0.25183692316E+02  0.00000000000E+00 0. -1.
        -12    1    6    6    0    0 -0.51302380067E+02 -0.39710635656E+02  0.10465676256E+03  0.12313369455E+03  0.00000000000E+00 0.  1.
</event>
<event>
12    1  0.8494789E-002  0.3061528E+03  0.7818608E-02  0.1082482E+00
         21   -1    0    0  501  502  0.00000000000E+00  0.00000000000E+00  0.10462090129E+03  0.10462090129E+03  0.00000000000E+00 0.  1.
         21   -1    0    0  502  503 -0.00000000000E+00 -0.00000000000E+00 -0.90104050437E+03  0.90104050437E+03  0.00000000000E+00 0.  1.
         -6    2    1    2    0  503 -0.23083681925E+03  0.10213676042E+03 -0.45424184778E+03  0.54651528709E+03  0.16919145307E+03 0.  0.
        -24    2    3    3    0    0 -0.12218161066E+03  0.30574106902E+02 -0.34761230138E+03  0.37823243622E+03  0.79764288601E+02 0.  0.
          6    2    1    2  501    0  0.23083681925E+03 -0.10213676042E+03 -0.34217775530E+03  0.45914611857E+03  0.17323968087E+03 0.  0.
         24    2    5    5    0    0  0.20416660620E+03 -0.86666853597E+02 -0.35471508915E+03  0.42553223719E+03  0.77844356372E+02 0.  0.
          5    1    5    5  501    0  0.26670213052E+02 -0.15469906823E+02  0.12537333853E+02  0.33613881381E+02  0.47000000000E+01 0. -1.
        -11    1    6    6    0    0  0.10689620283E+02 -0.30990228777E+02 -0.64043458886E+02  0.71945999802E+02  0.00000000000E+00 0.  1.
         12    1    6    6    0    0  0.19347698592E+03 -0.55676624819E+02 -0.29067163027E+03  0.35358623739E+03  0.00000000000E+00 0. -1.
         -5    1    3    3    0  503 -0.10865520859E+03  0.71562653518E+02 -0.10662954640E+03  0.16828285087E+03  0.47000000000E+01 0.  1.
         13    1    4    4    0    0 -0.74403013103E+02  0.10908342726E+02 -0.99073075246E+02  0.12437955836E+03  0.00000000000E+00 0. -1.
        -14    1    4    4    0    0 -0.47778597559E+02  0.19665764175E+02 -0.24853922614E+03  0.25385287785E+03  0.00000000000E+00 0.  1.
</event>
<event>
12    1  0.8494789E-002  0.1911336E+03  0.7818608E-02  0.1157579E+00
         21   -1    0    0  503  502  0.00000000000E+00  0.00000000000E+00  0.24849560729E+03  0.24849560729E+03  0.00000000000E+00 0.  1.
         21   -1    0    0  501  503 -0.00000000000E+00 -0.00000000000E+00 -0.15415829292E+03  0.15415829292E+03  0.00000000000E+00 0. -1.
          6    2    1    2  501    0 -0.64121705805E+02  0.52531366188E+02  0.24992020989E+01  0.19114993271E+03  0.17222343968E+03 0.  0.
         24    2    3    3    0    0 -0.39668806859E+01  0.87658322175E+02  0.44747867867E+01  0.12130368044E+03  0.83635169529E+02 0.  0.
         -6    2    1    2    0  502  0.64121705805E+02 -0.52531366188E+02  0.91838112270E+02  0.21150396750E+03  0.17154752057E+03 0.  0.
        -24    2    5    5    0    0 -0.22685466416E+02 -0.56789454913E+02  0.38044156843E+02  0.10918341184E+03  0.82060873601E+02 0.  0.
          5    1    3    3  501    0 -0.60154825119E+02 -0.35126955987E+02 -0.19755846878E+01  0.69846252275E+02  0.47000000000E+01 0. -1.
        -13    1    4    4    0    0 -0.84894315722E+01  0.69733409304E+02  0.40302017932E+02  0.80988094625E+02  0.00000000000E+00 0.  1.
         14    1    4    4    0    0  0.45225508863E+01  0.17924912871E+02 -0.35827231145E+02  0.40315585814E+02  0.00000000000E+00 0. -1.
         -5    1    5    5    0  502  0.86807172221E+02  0.42580887254E+01  0.53793955428E+02  0.10232055565E+03  0.47000000000E+01 0.  1.
         13    1    6    6    0    0 -0.15042196964E+02  0.29061566860E+01 -0.20252928707E+02  0.25394774214E+02  0.00000000000E+00 0. -1.
        -14    1    6    6    0    0 -0.76432694521E+01 -0.59695611599E+02  0.58297085550E+02  0.83788637629E+02  0.00000000000E+00 0.  1.
</event>
<event>
12    1  0.8494789E-002  0.2134903E+03  0.7818608E-02  0.1138952E+00
         21   -1    0    0  501  502  0.00000000000E+00  0.00000000000E+00  0.95955045754E+02  0.95955045754E+02  0.00000000000E+00 0.  1.
         21   -1    0    0  502  503 -0.00000000000E+00 -0.00000000000E+00 -0.12033680439E+04  0.12033680439E+04  0.00000000000E+00 0. -1.
         -6    2    1    2    0  503  0.53160477760E+02  0.11533346935E+03 -0.10599356101E+04  0.10812222816E+04  0.17161083662E+03 0.  0.
        -24    2    3    3    0    0 -0.98527152765E+01  0.10639218227E+03 -0.88453637080E+03  0.89457396996E+03  0.80259728481E+02 0.  0.
          6    2    1    2  501    0 -0.53160477760E+02 -0.11533346935E+03 -0.47477388126E+02  0.21810080808E+03  0.17083914818E+03 0.  0.
         24    2    5    5    0    0 -0.96973200935E+02 -0.11168519945E+03 -0.29022163354E+02  0.17018891074E+03  0.79022742907E+02 0.  0.
          5    1    5    5  501    0  0.43812723175E+02 -0.36482699040E+01 -0.18455224772E+02  0.47911897340E+02  0.47000000000E+01 0. -1.
        -11    1    6    6    0    0 -0.10110588968E+03 -0.76973148959E+02 -0.40541816238E+02  0.13338255303E+03  0.00000000000E+00 0.  1.
         12    1    6    6    0    0  0.41326887403E+01 -0.34712050490E+02  0.11519652884E+02  0.36806357712E+02  0.00000000000E+00 0. -1.
         -5    1    3    3    0  503  0.63013193036E+02  0.89412870831E+01 -0.17539923925E+03  0.18664831164E+03  0.47000000000E+01 0.  1.
         13    1    4    4    0    0 -0.19268017159E+02  0.11267302432E+03 -0.66552194771E+03  0.67526730246E+03  0.00000000000E+00 0. -1.
        -14    1    4    4    0    0  0.94153018826E+01 -0.62808420496E+01 -0.21901442310E+03  0.21930666750E+03  0.00000000000E+00 0.  1.
</event>
<event>
12    1  0.8494789E-002  0.1853845E+03  0.7818608E-02  0.1163272E+00
         21   -1    0    0  501  502  0.00000000000E+00  0.00000000000E+00  0.16906406271E+04  0.16906406271E+04  0.00000000000E+00 0.  1.
         21   -1    0    0  502  503 -0.00000000000E+00 -0.00000000000E+00 -0.46186478900E+02  0.46186478900E+02  0.00000000000E+00 0.  1.
         -6    2    1    2    0  503  0.56151033250E+02 -0.34343161882E+02  0.17145752012E+03  0.25251749046E+03  0.17330611783E+03 0.  0.
        -24    2    3    3    0    0  0.47187722953E+01 -0.51781692856E+02  0.17322666289E+03  0.19797759959E+03  0.80523553551E+02 0.  0.
          6    2    1    2  501    0 -0.56151033250E+02  0.34343161882E+02  0.14729966281E+04  0.14843096155E+04  0.17065631302E+03 0.  0.
         24    2    5    5    0    0 -0.19824704546E+02 -0.39085172341E+02  0.53247288192E+03  0.54021304765E+03  0.79888029553E+02 0.  0.
          5    1    5    5  501    0 -0.36326328704E+02  0.73428334224E+02  0.94052374614E+03  0.94409656787E+03  0.47000000000E+01 0. -1.
        -11    1    6    6    0    0 -0.35164419851E+02  0.27634267611E+01  0.37189837645E+03  0.37356736389E+03  0.00000000000E+00 0.  1.
         12    1    6    6    0    0  0.15339715304E+02 -0.41848599103E+02  0.16057450547E+03  0.16664568377E+03  0.00000000000E+00 0. -1.
         -5    1    3    3    0  503  0.51432260955E+02  0.17438530974E+02 -0.17691427660E+01  0.54539890865E+02  0.47000000000E+01 0.  1.
         13    1    4    4    0    0  0.38567189967E+02 -0.67490437877E+01  0.62669891315E+02  0.73895148768E+02  0.00000000000E+00 0. -1.
        -14    1    4    4    0    0 -0.33848417672E+02 -0.45032649068E+02  0.11055677158E+03  0.12408245082E+03  0.00000000000E+00 0.  1.
</event>
<event>
12    1  0.8494789E-002  0.2092635E+03  0.7818608E-02  0.1143603E+00
         21   -1    0    0  501  502  0.00000000000E+00  0.00000000000E+00  0.51499636980E+03  0.51499636980E+03  0.00000000000E+00 0.  1.
         21   -1    0    0  502  503 -0.00000000000E+00 -0.00000000000E+00 -0.83785865900E+02  0.83785865900E+02  0.00000000000E+00 0.  1.
         -6    2    1    2    0  503 -0.54282354434E+02  0.90855472233E+02  0.17738211599E+03  0.27432757779E+03  0.18052676817E+03 0.  0.
        -24    2    3    3    0    0 -0.37851200547E+02  0.12565776235E+03  0.18422958474E+03  0.23495550592E+03  0.63568571197E+02 0.  0.
          6    2    1    2  501    0  0.54282354434E+02 -0.90855472233E+02  0.25382838792E+03  0.32445465791E+03  0.17216469932E+03 0.  0.
         24    2    5    5    0    0  0.84450638297E+02 -0.12655036053E+02  0.11771459111E+03  0.16453439887E+03  0.76959620618E+02 0.  0.
          5    1    5    5  501    0 -0.30168283863E+02 -0.78200436181E+02  0.13611379681E+03  0.15992025904E+03  0.47000000000E+01 0. -1.
        -11    1    6    6    0    0 -0.25385347892E+01 -0.23220280317E+02  0.44855200048E+02  0.50572863753E+02  0.00000000000E+00 0.  1.
         12    1    6    6    0    0  0.86989173086E+02  0.10565244265E+02  0.72859391058E+02  0.11396153512E+03  0.00000000000E+00 0. -1.
         -5    1    3    3    0  503 -0.16431153887E+02 -0.34802290115E+02 -0.68474687583E+01  0.39372071875E+02  0.47000000000E+01 0.  1.
         13    1    4    4    0    0  0.14892605039E+02  0.57438152799E+02  0.81935130884E+02  0.10116470113E+03  0.00000000000E+00 0. -1.
        -14    1    4    4    0    0 -0.52743805585E+02  0.68219609550E+02  0.10229445386E+03  0.13379080479E+03  0.00000000000E+00 0.  1.
</event>
<event>
12    1  0.8494789E-002  0.1971771E+03  0.7818608E-02  0.1152761E+00
         21   -1    0    0  501  502  0.00000000000E+00  0.00000000000E+00  0.14481447914E+04  0.14481447914E+04  0.00000000000E+00 0.  1.
         21   -1    0    0  502  503 -0.00000000000E+00 -0.00000000000E+00 -0.27415305872E+02  0.27415305872E+02  0.00000000000E+00 0.  1.
         -6    2    1    2    0  503 -0.19525575201E+02 -0.89347332721E+02  0.56763073831E+03  0.59997099998E+03  0.17145364326E+03 0.  0.
        -24    2    3    3    0    0  0.48619432077E+02 -0.79140536760E+02  0.41156218133E+03  0.42930347179E+03  0.79315623004E+02 0.  0.
          6    2    1    2  501    0  0.19525575201E+02  0.89347332721E+02  0.85309874724E+03  0.87558909731E+03  0.17468428907E+03 0.  0.
         24    2    5    5    0    0  0.78061774886E+02  0.30666746837E+02  0.48410373754E+03  0.49737050309E+03  0.77375051451E+02 0.  0.
          5    1    5    5  501    0 -0.58536199685E+02  0.58680585884E+02  0.36899500970E+03  0.37821859422E+03  0.47000000000E+01 0. -1.
        -13    1    6    6    0    0  0.28848676278E+02  0.32340612555E+02  0.86704102094E+02  0.96931742290E+02  0.00000000000E+00 0.  1.
         14    1    6    6    0    0  0.49213098608E+02 -0.16738657186E+01  0.39739963544E+03  0.40043876080E+03  0.00000000000E+00 0. -1.
         -5    1    3    3    0  503 -0.68145007277E+02 -0.10206795961E+02  0.15606855698E+03  0.17066752819E+03  0.47000000000E+01 0.  1.
         11    1    4    4    0    0  0.41979968876E+02 -0.32243145116E+01  0.98916820449E+02  0.10750465738E+03  0.00000000000E+00 0. -1.
        -12    1    4    4    0    0  0.66394632005E+01 -0.75916222248E+02  0.31264536088E+03  0.32179881441E+03  0.00000000000E+00 0.  1.
</event>
<event>
12    1  0.8494789E-002  0.2396727E+03  0.7818608E-02  0.1120107E+00
         21   -1    0    0  501  502  0.00000000000E+00  0.00000000000E+00  0.12388623159E+03  0.12388623159E+03  0.00000000000E+00 0.  1.
         21   -1    0    0  502  503 -0.00000000000E+00 -0.00000000000E+00 -0.56332847364E+03  0.56332847364E+03  0.00000000000E+00 0. -1.
         -6    2    1    2    0  503 -0.16625979358E+03 -0.51165788765E+01 -0.36482925754E+03  0.43619656980E+03  0.17175145416E+03 0.  0.
        -24    2    3    3    0    0 -0.19171117924E+03 -0.11081301595E+02 -0.34564764843E+03  0.40343416639E+03  0.80067835363E+02 0.  0.
          6    2    1    2  501    0  0.16625979358E+03  0.51165788765E+01 -0.74612984508E+02  0.25101813543E+03  0.17255291511E+03 0.  0.
         24    2    5    5    0    0  0.75291418127E+02 -0.60700338858E+02 -0.55097689004E+02  0.13695653474E+03  0.79799801333E+02 0.  0.
          5    1    5    5  501    0  0.90968375454E+02  0.65816917735E+02 -0.19515295504E+02  0.11406160069E+03  0.47000000000E+01 0. -1.
        -13    1    6    6    0    0 -0.47645770029E+01 -0.17839619792E+02 -0.41125233535E+02  0.45080351170E+02  0.00000000000E+00 0.  1.
         14    1    6    6    0    0  0.80055995130E+02 -0.42860719067E+02 -0.13972455469E+02  0.91876183568E+02  0.00000000000E+00 0. -1.
         -5    1    3    3    0  503  0.25451385656E+02  0.59647227187E+01 -0.19181609119E+02  0.32762403412E+02  0.47000000000E+01 0.  1.
         11    1    4    4    0    0 -0.52219674623E+02  0.22914535709E+02 -0.15216931837E+03  0.16250375940E+03  0.00000000000E+00 0. -1.
        -12    1    4    4    0    0 -0.13949150461E+03 -0.33995837304E+02 -0.19347833005E+03  0.24093040699E+03  0.00000000000E+00 0.  1.
</event>
<event>
12    1  0.8494789E-002  0.1742217E+03  0.7818608E-02  0.1173520E+00
         21   -1    0    0  501  502  0.00000000000E+00  0.00000000000E+00  0.12388249893E+04  0.12388249893E+04  0.00000000000E+00 0.  1.
         21   -1    0    0  502  503 -0.00000000000E+00 -0.00000000000E+00 -0.29778040179E+02  0.29778040179E+02  0.00000000000E+00 0.  1.
         -6    2    1    2    0  503 -0.28804437753E+01 -0.24047090194E+02  0.33748138153E+03  0.37979845797E+03  0.17253007360E+03 0.  0.
        -24    2    3    3    0    0  0.18177101186E+02 -0.37986505954E+02  0.34178663346E+03  0.35375325293E+03  0.80931325845E+02 0.  0.
          6    2    1    2  501    0  0.28804437753E+01  0.24047090194E+02  0.87156556763E+03  0.88880457155E+03  0.17251222629E+03 0.  0.
         24    2    5    5    0    0  0.46005173451E+02  0.66760378297E+02  0.59202250282E+03  0.60270916373E+03  0.78703672752E+02 0.  0.
          5    1    5    5  501    0 -0.43124729676E+02 -0.42713288103E+02  0.27954306482E+03  0.28609540782E+03  0.47000000000E+01 0. -1.
        -11    1    6    6    0    0  0.15919644520E+02  0.56448664709E+02  0.17688089011E+03  0.18635110978E+03  0.00000000000E+00 0.  1.
         12    1    6    6    0    0  0.30085528931E+02  0.10311713587E+02  0.41514161271E+03  0.41635805395E+03  0.00000000000E+00 0. -1.
         -5    1    3    3    0  503 -0.21057544961E+02  0.13939415761E+02 -0.43052519309E+01  0.26045205043E+02  0.47000000000E+01 0.  1.
         11    1    4    4    0    0  0.42814822182E+02 -0.28293111005E+01  0.23076544018E+03  0.23472069014E+03  0.00000000000E+00 0. -1.
        -12    1    4    4    0    0 -0.24637720996E+02 -0.35157194854E+02  0.11102119328E+03  0.11903256279E+03  0.00000000000E+00 0.  1.
</event>
<event>
12    1  0.8494789E-002  0.3018349E+03  0.7818608E-02  0.1085862E+00
         21   -1    0    0  503  502  0.00000000000E+00  0.00000000000E+00  0.34456700292E+04  0.34456700292E+04  0.00000000000E+00 0. -1.
         21   -1    0    0  501  503 -0.00000000000E+00 -0.00000000000E+00 -0.31985718326E+02  0.31985718326E+02  0.00000000000E+00 0.  1.
          6    2    1    2  501    0 -0.24468077525E+03 -0.71490605911E+01  0.94511054280E+03  0.99213820909E+03  0.17659132760E+03 0.  0.
         24    2    3    3    0    0 -0.18445733920E+03  0.23285859765E+02  0.45872793376E+03  0.50107479261E+03  0.77960819202E+02 0.  0.
         -6    2    1    2    0  502  0.24468077525E+03  0.71490605911E+01  0.24685737680E+04  0.24855175384E+04  0.15498772401E+03 0.  0.
        -24    2    5    5    0    0  0.18090765519E+03 -0.48184367650E+02  0.17506591882E+04  0.17626397942E+04  0.83917446644E+02 0.  0.
          5    1    3    3  501    0 -0.60223436046E+02 -0.30434920356E+02  0.48638260904E+03  0.49106341647E+03  0.47000000000E+01 0. -1.
        -11    1    4    4    0    0 -0.96848506523E+02 -0.24237580509E+02  0.26563132697E+03  0.28377296452E+03  0.00000000000E+00 0.  1.
         12    1    4    4    0    0 -0.87608832680E+02  0.47523440274E+02  0.19309660679E+03  0.21730182809E+03  0.00000000000E+00 0. -1.
         -5    1    5    5    0  502  0.63773120058E+02  0.55333428241E+02  0.71791457989E+03  0.72287774425E+03  0.47000000000E+01 0.  1.
         13    1    6    6    0    0  0.45698388406E+02 -0.32489921856E+02  0.83939627879E+03  0.84126693182E+03  0.00000000000E+00 0. -1.
        -14    1    6    6    0    0  0.13520926678E+03 -0.15694445793E+02  0.91126290937E+03  0.92137286234E+03  0.00000000000E+00 0.  1.
</event>
<event>
12    1  0.8494789E-002  0.2307190E+03  0.7818608E-02  0.1127279E+00
         21   -1    0    0  501  502  0.00000000000E+00  0.00000000000E+00  0.40635740777E+03  0.40635740777E+03  0.00000000000E+00 0. -1.
         21   -1    0    0  502  503 -0.00000000000E+00 -0.00000000000E+00 -0.13780292693E+03  0.13780292693E+03  0.00000000000E+00 0. -1.
         -6    2    1    2    0  503  0.89237113191E+02  0.12403486724E+03  0.57666283999E+02  0.23158217919E+03  0.16418585428E+03 0.  0.
        -24    2    3    3    0    0  0.26279170910E+02  0.13597788291E+03  0.48015698537E+02  0.16660863135E+03  0.79198164553E+02 0.  0.
          6    2    1    2  501    0 -0.89237113191E+02 -0.12403486724E+03  0.21088819685E+03  0.31257815551E+03  0.17286804526E+03 0.  0.
         24    2    5    5    0    0 -0.59678759665E+02  0.22921961517E+01  0.10156558334E+03  0.14285559652E+03  0.80779608923E+02 0.  0.
          5    1    5    5  501    0 -0.29558353525E+02 -0.12632706339E+03  0.10932261350E+03  0.16972255899E+03  0.47000000000E+01 0. -1.
        -11    1    6    6    0    0 -0.54946131201E+02 -0.26514626426E+02  0.35398744565E+02  0.70534912385E+02  0.00000000000E+00 0.  1.
         12    1    6    6    0    0 -0.47326284647E+01  0.28806822578E+02  0.66166838779E+02  0.72320684131E+02  0.00000000000E+00 0. -1.
         -5    1    3    3    0  503  0.62957942281E+02 -0.11943015669E+02  0.96505854621E+01  0.64973547842E+02  0.47000000000E+01 0.  1.
         11    1    4    4    0    0  0.17540937664E+02  0.68247562788E+02 -0.16815993858E+02  0.72444406065E+02  0.00000000000E+00 0. -1.
        -12    1    4    4    0    0  0.87382332464E+01  0.67730320121E+02  0.64831692395E+02  0.94164225280E+02  0.00000000000E+00 0.  1.
</event>
<event>
12    1  0.8494789E-002  0.2011003E+03  0.7818608E-02  0.1149284E+00
         21   -1    0    0  503  502  0.00000000000E+00  0.00000000000E+00  0.20255753879E+03  0.20255753879E+03  0.00000000000E+00 0. -1.
         21   -1    0    0  501  503 -0.00000000000E+00 -0.00000000000E+00 -0.96989469033E+03  0.96989469033E+03  0.00000000000E+00 0. -1.
          6    2    1    2  501    0 -0.18433114641E+02 -0.98371741084E+02 -0.90726617335E+03  0.92928641687E+03  0.17442636300E+03 0.  0.
         24    2    3    3    0    0  0.62494359888E+02 -0.50361251248E+02 -0.36929668797E+03  0.38312936942E+03  0.62978324265E+02 0.  0.
         -6    2    1    2    0  502  0.18433114641E+02  0.98371741084E+02  0.13992902181E+03  0.24316581225E+03  0.17185081305E+03 0.  0.
        -24    2    5    5    0    0 -0.43625579168E+02  0.17325717145E+02  0.44197232179E+02  0.10314293905E+03  0.80508998951E+02 0.  0.
          5    1    3    3  501    0 -0.80927474529E+02 -0.48010489836E+02 -0.53796948539E+03  0.54615704745E+03  0.47000000000E+01 0. -1.
        -11    1    4    4    0    0  0.47863325021E+00  0.50750069224E+01 -0.56150630338E+00  0.51283598137E+01  0.00000000000E+00 0.  1.
         12    1    4    4    0    0  0.62015726638E+02 -0.55436258171E+02 -0.36873518166E+03  0.37800100961E+03  0.00000000000E+00 0. -1.
         -5    1    5    5    0  502  0.62058693808E+02  0.81046023939E+02  0.95731789627E+02  0.14002287320E+03  0.47000000000E+01 0.  1.
         11    1    6    6    0    0  0.13784565651E+02  0.10760092945E+02  0.41798251229E+02  0.45308803296E+02  0.00000000000E+00 0. -1.
        -12    1    6    6    0    0 -0.57410144819E+02  0.65656242008E+01  0.23989809504E+01  0.57834135758E+02  0.00000000000E+00 0.  1.
</event>
<event>
12    1  0.8494789E-002  0.2922513E+03  0.7818608E-02  0.1089182E+00
         21   -1    0    0  501  502  0.00000000000E+00  0.00000000000E+00  0.25219075913E+03  0.25219075913E+03  0.00000000000E+00 0.  1.
         21   -1    0    0  502  503 -0.00000000000E+00 -0.00000000000E+00 -0.36584240812E+03  0.36584240812E+03  0.00000000000E+00 0.  1.
         -6    2    1    2    0  503 -0.13508832877E+02 -0.23581204632E+03  0.27417363840E+02  0.29353450509E+03  0.17210747829E+03 0.  0.
        -24    2    3    3    0    0 -0.86444228030E+01 -0.86145621773E+02  0.72182756751E+02  0.13717040587E+03  0.78163774726E+02 0.  0.
          6    2    1    2  501    0  0.13508832877E+02  0.23581204632E+03 -0.14106901283E+03  0.32449866215E+03  0.17207296593E+03 0.  0.
         24    2    5    5    0    0 -0.34294460010E+02  0.60724052840E+02 -0.81864352093E+02  0.13353206266E+03  0.79155031632E+02 0.  0.
          5    1    5    5  501    0  0.47803292887E+02  0.17508799348E+03 -0.59204660736E+02  0.19096659950E+03  0.47000000000E+01 0. -1.
        -11    1    6    6    0    0  0.31783092327E+01  0.61889592674E+02 -0.28241547136E+02  0.68102924427E+02  0.00000000000E+00 0.  1.
         12    1    6    6    0    0 -0.37472769242E+02 -0.11655398336E+01 -0.53622804958E+02  0.65429138229E+02  0.00000000000E+00 0. -1.
         -5    1    3    3    0  503 -0.48644100739E+01 -0.14966642454E+03 -0.44765392911E+02  0.15636409922E+03  0.47000000000E+01 0.  1.
         13    1    4    4    0    0 -0.23789642398E+02 -0.10524836413E+02 -0.66877820588E+01  0.26859741172E+02  0.00000000000E+00 0. -1.
        -14    1    4    4    0    0  0.15145219595E+02 -0.75620785360E+02  0.78870538809E+02  0.11031066470E+03  0.00000000000E+00 0.  1.
</event>
<event>
12    1  0.8494789E-002  0.3733966E+03  0.7818608E-02  0.1053406E+00
         21   -1    0    0  503  502  0.00000000000E+00  0.00000000000E+00  0.40200450934E+03  0.40200450934E+03  0.00000000000E+00 0. -1.
         21   -1    0    0  501  503 -0.00000000000E+00 -0.00000000000E+00 -0.14667556179E+04  0.14667556179E+04  0.00000000000E+00 0.  1.
          6    2    1    2  501    0 -0.73958345978E+02  0.32294987573E+03 -0.13488540111E+04  0.13995699035E+04  0.17211133742E+03 0.  0.
         24    2    3    3    0    0  0.28294250151E+02  0.13207700730E+03 -0.57076079368E+03  0.59189472730E+03  0.79539827501E+02 0.  0.
         -6    2    1    2    0  502  0.73958345978E+02 -0.32294987573E+03  0.28410290251E+03  0.46919022373E+03  0.17221657195E+03 0.  0.
        -24    2    5    5    0    0  0.97994214865E+02 -0.19864084226E+03  0.23698654204E+03  0.33401441148E+03  0.79636396221E+02 0.  0.
          5    1    3    3  501    0 -0.10225259613E+03  0.19087286843E+03 -0.77809321740E+03  0.80767517622E+03  0.47000000000E+01 0. -1.
        -11    1    4    4    0    0  0.14164557206E+02  0.10582210909E+03 -0.28092195175E+03  0.30052636561E+03  0.00000000000E+00 0.  1.
         12    1    4    4    0    0  0.14129692945E+02  0.26254898205E+02 -0.28983884193E+03  0.29136836169E+03  0.00000000000E+00 0. -1.
         -5    1    5    5    0  502 -0.24035868887E+02 -0.12430903347E+03  0.47116360466E+02  0.13517581225E+03  0.47000000000E+01 0.  1.
         11    1    6    6    0    0  0.65568628452E+02 -0.17192266866E+03  0.14993711103E+03  0.23735582213E+03  0.00000000000E+00 0. -1.
        -12    1    6    6    0    0  0.32425586413E+02 -0.26718173606E+02  0.87049431008E+02  0.96658589344E+02  0.00000000000E+00 0.  1.
</event>
<event>
12    1  0.8494789E-002  0.1833211E+03  0.7818608E-02  0.1165214E+00
         21   -1    0    0  503  502  0.00000000000E+00  0.00000000000E+00  0.18028569653E+03  0.18028569653E+03  0.00000000000E+00 0. -1.
         21   -1    0    0  501  503 -0.00000000000E+00 -0.00000000000E+00 -0.18610772969E+03  0.18610772969E+03  0.00000000000E+00 0. -1.
          6    2    1    2  501    0  0.56235670920E+02 -0.98761077482E+01 -0.22839271434E+02  0.18473833505E+03  0.17420284707E+03 0.  0.
         24    2    3    3    0    0 -0.23782079772E+02 -0.42198731542E+02  0.44689914918E+01  0.94099360766E+02  0.80550590001E+02 0.  0.
         -6    2    1    2    0  502 -0.56235670920E+02  0.98761077482E+01  0.17017238280E+02  0.18165509117E+03  0.17160710231E+03 0.  0.
        -24    2    5    5    0    0 -0.39808023245E+02 -0.60640397347E+02  0.11137994341E+02  0.10886016959E+03  0.80402394864E+02 0.  0.
          5    1    3    3  501    0  0.80017750692E+02  0.32322623794E+02 -0.27308262926E+02  0.90638974281E+02  0.47000000000E+01 0. -1.
        -11    1    4    4    0    0  0.22570748170E+02 -0.33926398633E+02 -0.14619975187E+02  0.43291833776E+02  0.00000000000E+00 0.  1.
         12    1    4    4    0    0 -0.46352827942E+02 -0.82723329085E+01  0.19088966679E+02  0.50807526990E+02  0.00000000000E+00 0. -1.
         -5    1    5    5    0  502 -0.16427647675E+02  0.70516505096E+02  0.58792439392E+01  0.72794921583E+02  0.47000000000E+01 0.  1.
         13    1    6    6    0    0 -0.51547730106E+02 -0.46973896615E+02  0.35741385182E+02  0.78365566782E+02  0.00000000000E+00 0. -1.
        -14    1    6    6    0    0  0.11739706861E+02 -0.13666500733E+02 -0.24603390842E+02  0.30494602807E+02  0.00000000000E+00 0.  1.
</event>
<event>
12    1  0.8494789E-002  0.1906732E+03  0.7818608E-02  0.1159565E+00
         21   -1    0    0  501  502  0.00000000000E+00  0.00000000000E+00  0.96532688957E+03  0.96532688957E+03  0.00000000000E+00 0.  1.
         21   -1    0    0  502  503 -0.00000000000E+00 -0.00000000000E+00 -0.95207167228E+02  0.95207167228E+02  0.00000000000E+00 0.  1.
         -6    2    1    2    0  503 -0.54461412925E+02 -0.32740459031E+02  0.14349924141E+02  0.18377969723E+03  0.17184607542E+03 0.  0.
        -24    2    3    3    0    0 -0.32345624820E+02 -0.55776868481E+02  0.64847672990E+02  0.12384726125E+03  0.83520206686E+02 0.  0.
          6    2    1    2  501    0  0.54461412925E+02  0.32740459031E+02  0.85576979820E+03  0.87675435957E+03  0.17977284652E+03 0.  0.
         24    2    5    5    0    0  0.28675555783E+02  0.59218384173E+01  0.16742863365E+03  0.18739248242E+03  0.78906523386E+02 0.  0.
          5    1    5    5  501    0  0.25785857141E+02  0.26818620614E+02  0.68834116455E+03  0.68936187714E+03  0.47000000000E+01 0. -1.
        -11    1    6    6    0    0 -0.23531170156E+02 -0.14558266950E+02  0.64326854657E+02  0.70025733381E+02  0.00000000000E+00 0.  1.
         12    1    6    6    0    0  0.52206725939E+02  0.20480105367E+02  0.10310177899E+03  0.11736674904E+03  0.00000000000E+00 0. -1.
         -5    1    3    3    0  503 -0.22115788105E+02  0.23036409450E+02 -0.50497748849E+02  0.59932435981E+02  0.47000000000E+01 0.  1.
         11    1    4    4    0    0 -0.35789671045E+01  0.78479151172E+01  0.52172142368E+02  0.52880348113E+02  0.00000000000E+00 0. -1.
        -12    1    4    4    0    0 -0.28766657715E+02 -0.63624783598E+02  0.12675530622E+02  0.70966913140E+02  0.00000000000E+00 0.  1.
</event>
<event>
12    1  0.8494789E-002  0.2609622E+03  0.7818608E-02  0.1106603E+00
         21   -1    0    0  501  502  0.00000000000E+00  0.00000000000E+00  0.17662100113E+03  0.17662100113E+03  0.00000000000E+00 0. -1.
         21   -1    0    0  502  503 -0.00000000000E+00 -0.00000000000E+00 -0.63408325470E+03  0.63408325470E+03  0.00000000000E+00 0. -1.
         -6    2    1    2    0  503 -0.12776149369E+03  0.14875241953E+03 -0.48261239680E+03  0.54853297059E+03  0.17182378383E+03 0.  0.
        -24    2    3    3    0    0 -0.76570052667E+01  0.41220310305E+02 -0.11033440175E+03  0.14282218906E+03  0.80416128764E+02 0.  0.
          6    2    1    2  501    0  0.12776149369E+03 -0.14875241953E+03  0.25150143230E+02  0.26217128524E+03  0.17219457457E+03 0.  0.
         24    2    5    5    0    0  0.28377255572E+02 -0.66110914300E+02 -0.43591250619E+02  0.11569837170E+03  0.79435473557E+02 0.  0.
          5    1    5    5  501    0  0.99384238117E+02 -0.82641505235E+02  0.68741393849E+02  0.14647291354E+03  0.47000000000E+01 0. -1.
        -11    1    6    6    0    0 -0.27226911676E+02 -0.14333975377E+02 -0.17302567961E+02  0.35300799248E+02  0.00000000000E+00 0.  1.
         12    1    6    6    0    0  0.55604167248E+02 -0.51776938923E+02 -0.26288682658E+02  0.80397572448E+02  0.00000000000E+00 0. -1.
         -5    1    3    3    0  503 -0.12010448842E+03  0.10753210923E+03 -0.37227799505E+03  0.40571078153E+03  0.47000000000E+01 0.  1.
         13    1    4    4    0    0 -0.31304083088E+02  0.51741267417E+02 -0.95365389732E+02  0.11292325682E+03  0.00000000000E+00 0. -1.
        -14    1    4    4    0    0  0.23647077821E+02 -0.10520957112E+02 -0.14969012021E+02  0.29898932237E+02  0.00000000000E+00 0.  1.
</event>
<event>
12    1  0.8494789E-002  0.3083930E+03  0.7818608E-02  0.1081132E+00
         21   -1    0    0  503  502  0.00000000000E+00  0.00000000000E+00  0.91898089221E+03  0.91898089221E+03  0.00000000000E+00 0.  1.
         21   -1    0    0  501  503 -0.00000000000E+00 -0.00000000000E+00 -0.12857858289E+03  0.12857858289E+03  0.00000000000E+00 0.  1.
          6    2    1    2  501    0 -0.39554640318E+02  0.25314301414E+03  0.62679175984E+03  0.69855147264E+03  0.17164001443E+03 0.  0.
         24    2    3    3    0    0  0.62914861640E+01  0.22040341870E+03  0.38859076245E+03  0.45373408441E+03  0.79085959092E+02 0.  0.
         -6    2    1    2    0  502  0.39554640318E+02 -0.25314301414E+03  0.16361054948E+03  0.34900800246E+03  0.17144158976E+03 0.  0.
        -24    2    5    5    0    0  0.83557854982E+02 -0.23595756759E+03  0.14415664124E+03  0.29770335335E+03  0.72029581094E+02 0.  0.
          5    1    3    3  501    0 -0.45846126482E+02  0.32739595447E+02  0.23820099739E+03  0.24481738823E+03  0.47000000000E+01 0. -1.
        -11    1    4    4    0    0  0.33895814676E+02  0.90441547983E+02  0.11967550359E+03  0.15378825057E+03  0.00000000000E+00 0.  1.
         12    1    4    4    0    0 -0.27604328512E+02  0.12996187071E+03  0.26891525886E+03  0.29994583384E+03  0.00000000000E+00 0. -1.
         -5    1    5    5    0  502 -0.44003214664E+02 -0.17185446554E+02  0.19453908239E+02  0.51304649105E+02  0.47000000000E+01 0.  1.
         13    1    6    6    0    0  0.61391638375E+02 -0.73764222354E+02  0.42118126342E+02  0.10480472474E+03  0.00000000000E+00 0. -1.
        -14    1    6    6    0    0  0.22166216606E+02 -0.16219334524E+03  0.10203851490E+03  0.19289862861E+03  0.00000000000E+00 0.  1.
</event>
<event>
12    1  0.8494789E-002  0.2059681E+03  0.7818608E-02  0.1144929E+00
         21   -1    0    0  503  502  0.00000000000E+00  0.00000000000E+00  0.13611715586E+03  0.13611715586E+03  0.00000000000E+00 0. -1.
         21   -1    0    0  501  503 -0.00000000000E+00 -0.00000000000E+00 -0.44134103668E+03  0.44134103668E+03  0.00000000000E+00 0.  1.
          6    2    1    2  501    0 -0.95882296687E+02  0.59436955563E+02 -0.30953371145E+03  0.37144499252E+03  0.17156368333E+03 0.  0.
         24    2    3    3    0    0 -0.75202584941E+02  0.99554195584E+02 -0.17544236231E+03  0.22988361594E+03  0.80622501480E+02 0.  0.
         -6    2    1    2    0  502  0.95882296687E+02 -0.59436955563E+02  0.43098306224E+01  0.20601320002E+03  0.17232729742E+03 0.  0.
        -24    2    5    5    0    0  0.11372747731E+03 -0.62160565812E+02  0.46826439285E+02  0.15958453930E+03  0.80477541780E+02 0.  0.
          5    1    3    3  501    0 -0.20679711746E+02 -0.40117240020E+02 -0.13409134914E+03  0.14156137658E+03  0.47000000000E+01 0. -1.
        -13    1    4    4    0    0 -0.10316350522E+02 -0.13136904905E+02 -0.10052304316E+02  0.19494978344E+02  0.00000000000E+00 0.  1.
         14    1    4    4    0    0 -0.64886234419E+02  0.11269110049E+03 -0.16539005799E+03  0.21038863760E+03  0.00000000000E+00 0. -1.
         -5    1    5    5    0  502 -0.17845180618E+02  0.27236102489E+01 -0.42516608663E+02  0.46428660720E+02  0.47000000000E+01 0.  1.
         13    1    6    6    0    0  0.27689012100E+02 -0.22237939863E+02  0.53816174377E+02  0.64477810020E+02  0.00000000000E+00 0. -1.
        -14    1    6    6    0    0  0.86038465205E+02 -0.39922625950E+02 -0.69897350919E+01  0.95106729279E+02  0.00000000000E+00 0.  1.
</event>
<event>
12    1  0.8494789E-002  0.2113237E+03  0.7818608E-02  0.1140535E+00
         21   -1    0    0  503  502  0.00000000000E+00  0.00000000000E+00  0.85425310754E+03  0.85425310754E+03  0.00000000000E+00 0. -1.
         21   -1    0    0  501  503 -0.00000000000E+00 -0.00000000000E+00 -0.60406625348E+02  0.60406625348E+02  0.00000000000E+00 0. -1.
          6    2    1    2  501    0 -0.11462782611E+03  0.46797524441E+02  0.22903709779E+03  0.31163390540E+03  0.17125464087E+03 0.  0.
         24    2    3    3    0    0 -0.14364658593E+03  0.27222208123E+02  0.21818998335E+03  0.27468757511E+03  0.80442556046E+02 0.  0.
         -6    2    1    2    0  502  0.11462782611E+03 -0.46797524441E+02  0.56480938440E+03  0.60302582748E+03  0.17117523504E+03 0.  0.
        -24    2    5    5    0    0  0.77781240029E+02 -0.50705549430E+02  0.18819323249E+03  0.22456214436E+03  0.79940539656E+02 0.  0.
          5    1    3    3  501    0  0.29018759815E+02  0.19575316318E+02  0.10847114439E+02  0.36946330289E+02  0.47000000000E+01 0. -1.
        -11    1    4    4    0    0  0.42834212334E+01  0.82836461641E+01 -0.12044701216E+01  0.94030441618E+01  0.00000000000E+00 0.  1.
         12    1    4    4    0    0 -0.14793000716E+03  0.18938561958E+02  0.21939445347E+03  0.26528453095E+03  0.00000000000E+00 0. -1.
         -5    1    5    5    0  502  0.36846586085E+02  0.39080249892E+01  0.37661615191E+03  0.37846368312E+03  0.47000000000E+01 0.  1.
         13    1    6    6    0    0  0.31392429800E+02 -0.12060761693E+02  0.14860808363E+03  0.15236570855E+03  0.00000000000E+00 0. -1.
        -14    1    6    6    0    0  0.46388810228E+02 -0.38644787737E+02  0.39585148865E+02  0.72196435814E+02  0.00000000000E+00 0.  1.
</event>
<event>
12    1  0.8494789E-002  0.2217666E+03  0.7818608E-02  0.1132840E+00
         21   -1    0    0  501  502  0.00000000000E+00  0.00000000000E+00  0.13434925494E+03  0.13434925494E+03  0.00000000000E+00 0. -1.
         21   -1    0    0  502  503 -0.00000000000E+00 -0.00000000000E+00 -0.43450045867E+03  0.43450045867E+03  0.00000000000E+00 0.  1.
         -6    2    1    2    0  503 -0.40384140142E+02 -0.13410598169E+03 -0.34840037547E+02  0.22306011830E+03  0.17007849676E+03 0.  0.
        -24    2    3    3    0    0 -0.65634825624E+02 -0.29453049181E+02  0.78772498987E+00  0.10956447582E+03  0.82633778867E+02 0.  0.
          6    2    1    2  501    0  0.40384140142E+02  0.13410598169E+03 -0.26531116619E+03  0.34578959531E+03  0.17194515467E+03 0.  0.
         24    2    5    5    0    0  0.51971626813E+02  0.83880851470E+01 -0.12314157931E+03  0.15559616536E+03  0.79214317869E+02 0.  0.
          5    1    5    5  501    0 -0.11587486671E+02  0.12571789654E+03 -0.14216958688E+03  0.19019342994E+03  0.47000000000E+01 0. -1.
        -13    1    6    6    0    0  0.10095789495E+02  0.29808848884E+02 -0.96579139205E+02  0.10157766766E+03  0.00000000000E+00 0.  1.
         14    1    6    6    0    0  0.41875837318E+02 -0.21420763737E+02 -0.26562440104E+02  0.54018497706E+02  0.00000000000E+00 0. -1.
         -5    1    3    3    0  503  0.25250685482E+02 -0.10465293251E+03 -0.35627762537E+02  0.11349564249E+03  0.47000000000E+01 0.  1.
         11    1    4    4    0    0  0.20437521046E+01 -0.34124778892E+02  0.19282308564E+02  0.39249011207E+02  0.00000000000E+00 0. -1.
        -12    1    4    4    0    0 -0.67678577728E+02  0.46717297119E+01 -0.18494583574E+02  0.70315464611E+02  0.00000000000E+00 0.  1.
</event>
<event>
12    1  0.8494789E-002  0.1900092E+03  0.7818608E-02  0.1158989E+00
         21   -1    0    0  501  502  0.00000000000E+00  0.00000000000E+00  0.64006510483E+02  0.64006510483E+02  0.00000000000E+00 0. -1.
         21   -1    0    0  502  503 -0.00000000000E+00 -0.00000000000E+00 -0.59003497308E+03  0.59003497308E+03  0.00000000000E+00 0. -1.
         -6    2    1    2    0  503  0.72938950993E+02  0.35655558095E+02 -0.18727179109E+03  0.26678495983E+03  0.17179080783E+03 0.  0.
        -24    2    3    3    0    0  0.63566841901E+02  0.48332968827E+02 -0.41152911876E+02  0.11974289090E+03  0.79170565866E+02 0.  0.
          6    2    1    2  501    0 -0.72938950993E+02 -0.35655558095E+02 -0.33875667150E+03  0.38725652373E+03  0.16917483055E+03 0.  0.
         24    2    5    5    0    0 -0.41358888733E+02 -0.36336985414E+02 -0.34198975852E+03  0.35515811992E+03  0.78417861660E+02 0.  0.
          5    1    5    5  501    0 -0.31580062260E+02  0.68142731947E+00  0.32330870202E+01  0.32098403811E+02  0.47000000000E+01 0. -1.
        -13    1    6    6    0    0  0.21082988486E+02  0.32887386338E+01 -0.93074625089E+02  0.95489235208E+02  0.00000000000E+00 0.  1.
         14    1    6    6    0    0 -0.62441877219E+02 -0.39625724048E+02 -0.24891513343E+03  0.25966888471E+03  0.00000000000E+00 0. -1.
         -5    1    3    3    0  503  0.93721090921E+01 -0.12677410732E+02 -0.14611887922E+03  0.14704206893E+03  0.47000000000E+01 0.  1.
         13    1    4    4    0    0  0.50174337896E+02  0.27202378650E+02  0.14360482925E+02  0.58852842390E+02  0.00000000000E+00 0. -1.
        -14    1    4    4    0    0  0.13392504004E+02  0.21130590176E+02 -0.55513394801E+02  0.60890048506E+02  0.00000000000E+00 0.  1.
</event>
<event>
12    1  0.8494789E-002  0.2338496E+03  0.7818608E-02  0.1124389E+00
         21   -1    0    0  501  502  0.00000000000E+00  0.00000000000E+00  0.56082361420E+03  0.56082361420E+03  0.00000000000E+00 0.  1.
         21   -1    0    0  502  503 -0.00000000000E+00 -0.00000000000E+00 -0.13446789584E+03  0.13446789584E+03  0.00000000000E+00 0.  1.
         -6    2    1    2    0  503  0.13261315769E+03  0.82804073700E+02  0.27579584594E+02  0.23300582151E+03  0.17055296878E+03 0.  0.
        -24    2    3    3    0    0  0.10055193090E+03 -0.12895027329E+02  0.80608107325E+01  0.13010143514E+03  0.81144526741E+02 0.  0.
          6    2    1    2  501    0 -0.13261315769E+03 -0.82804073700E+02  0.39877613376E+03  0.46228568853E+03  0.17390482670E+03 0.  0.
         24    2    5    5    0    0 -0.39871676299E+01 -0.64317018710E+02  0.14934312253E+03  0.18099343195E+03  0.79389405845E+02 0.  0.
          5    1    5    5  501    0 -0.12862599006E+03 -0.18487054991E+02  0.24943301123E+03  0.28129225658E+03  0.47000000000E+01 0. -1.
        -11    1    6    6    0    0  0.25894644976E+02 -0.60532129888E+02  0.12843693526E+03  0.14432850628E+03  0.00000000000E+00 0.  1.
         12    1    6    6    0    0 -0.29881812605E+02 -0.37848888219E+01  0.20906187275E+02  0.36664925670E+02  0.00000000000E+00 0. -1.
         -5    1    3    3    0  503  0.32061226789E+02  0.95699101029E+02  0.19518773862E+02  0.10290438637E+03  0.47000000000E+01 0.  1.
         13    1    4    4    0    0  0.45880720623E+01  0.45231827208E+01  0.29538343087E+02  0.30232818253E+02  0.00000000000E+00 0. -1.
        -14    1    4    4    0    0  0.95963858835E+02 -0.17418210050E+02 -0.21477532355E+02  0.99868616892E+02  0.00000000000E+00 0.  1.
</event>
<event>
12    1  0.8494789E-002  0.2675033E+03  0.7818608E-02  0.1102753E+00
         21   -1    0    0  501  502  0.00000000000E+00  0.00000000000E+00  0.10689225064E+03  0.10689225064E+03  0.00000000000E+00 0.  1.
         21   -1    0    0  502  503 -0.00000000000E+00 -0.00000000000E+00 -0.72105819888E+03  0.72105819888E+03  0.00000000000E+00 0.  1.
         -6    2    1    2    0  503  0.19988762927E+03  0.45570288273E+02 -0.41837948411E+03  0.49645334673E+03  0.17144333538E+03 0.  0.
        -24    2    3    3    0    0  0.21814030334E+03  0.48725390145E+02 -0.41387255326E+03  0.47681875470E+03  0.78142683031E+02 0.  0.
          6    2    1    2  501    0 -0.19988762927E+03 -0.45570288273E+02 -0.19578646414E+03  0.33149710279E+03  0.17183211023E+03 0.  0.
         24    2    5    5    0    0 -0.14727344989E+03 -0.73285246513E+02 -0.75363101153E+02  0.19710868389E+03  0.78179535999E+02 0.  0.
          5    1    5    5  501    0 -0.52614179385E+02  0.27714958239E+02 -0.12042336298E+03  0.13438841890E+03  0.47000000000E+01 0. -1.
        -11    1    6    6    0    0 -0.16478292124E+02  0.11441089156E+02  0.64851709063E+01  0.21082933242E+02  0.00000000000E+00 0.  1.
         12    1    6    6    0    0 -0.13079515776E+03 -0.84726335668E+02 -0.81848272060E+02  0.17602575064E+03  0.00000000000E+00 0. -1.
         -5    1    3    3    0  503 -0.18252674064E+02 -0.31551018716E+01 -0.45069308497E+01  0.19634592025E+02  0.47000000000E+01 0.  1.
         13    1    4    4    0    0  0.94503215420E+02  0.53564224902E+02 -0.23975128603E+03  0.26321220160E+03  0.00000000000E+00 0. -1.
        -14    1    4    4    0    0  0.12363708792E+03 -0.48388347569E+01 -0.17412126722E+03  0.21360655311E+03  0.00000000000E+00 0.  1.
</event>
<event>
12    1  0.8494789E-002  0.2230953E+03  0.7818608E-02  0.1131625E+00
         21   -1    0    0  501  502  0.00000000000E+00  0.00000000000E+00  0.35944466401E+03  0.35944466401E+03  0.00000000000E+00 0.  1.
         21   -1    0    0  502  503 -0.00000000000E+00 -0.00000000000E+00 -0.42667371805E+03  0.42667371805E+03  0.00000000000E+00 0. -1.
         -6    2    1    2    0  503  0.14177380012E+03  0.10527265547E+02 -0.35671638698E+03  0.42073515862E+03  0.17193271718E+03 0.  0.
        -24    2    3    3    0    0  0.38597301815E+02 -0.24540123331E+02 -0.25191565318E+03  0.26947248850E+03  0.84035447169E+02 0.  0.
          6    2    1    2  501    0 -0.14177380012E+03 -0.10527265547E+02  0.28948733294E+03  0.36538322344E+03  0.17173045834E+03 0.  0.
         24    2    5    5    0    0 -0.12087382860E+02  0.74493870501E+01  0.58587883274E+02  0.99905592153E+02  0.79667992852E+02 0.  0.
          5    1    5    5  501    0 -0.12968641726E+03 -0.17976652597E+02  0.23089944966E+03  0.26547763129E+03  0.47000000000E+01 0. -1.
        -11    1    6    6    0    0 -0.44570351092E+01 -0.27263353288E+02  0.58130935735E+02  0.64361178391E+02  0.00000000000E+00 0.  1.
         12    1    6    6    0    0 -0.76303477513E+01  0.34712740338E+02  0.45694753922E+00  0.35544413762E+02  0.00000000000E+00 0. -1.
         -5    1    3    3    0  503  0.10317649831E+03  0.35067388878E+02 -0.10480073380E+03  0.15126267012E+03  0.47000000000E+01 0.  1.
         13    1    4    4    0    0  0.20722536424E+02  0.99559187002E+01 -0.21384444026E+03  0.21507670368E+03  0.00000000000E+00 0. -1.
        -14    1    4    4    0    0  0.17874765391E+02 -0.34496042032E+02 -0.38071212919E+02  0.54395784825E+02  0.00000000000E+00 0.  1.
</event>
<event>
12    1  0.8494789E-002  0.4787333E+03  0.7818608E-02  0.1019515E+00
         21   -1    0    0  501  502  0.00000000000E+00  0.00000000000E+00  0.18452958836E+03  0.18452958836E+03  0.00000000000E+00 0.  1.
         21   -1    0    0  502  503 -0.00000000000E+00 -0.00000000000E+00 -0.13584122304E+04  0.13584122304E+04  0.00000000000E+00 0. -1.
         -6    2    1    2    0  503 -0.35254900605E+03  0.27401564894E+03 -0.81417914149E+03  0.94449627011E+03  0.17265616783E+03 0.  0.
        -24    2    3    3    0    0 -0.34402990307E+03  0.29104637692E+03 -0.79451664491E+03  0.91672353920E+03  0.77851015066E+02 0.  0.
          6    2    1    2  501    0  0.35254900605E+03 -0.27401564894E+03 -0.35970350051E+03  0.59844554861E+03  0.17139162417E+03 0.  0.
         24    2    5    5    0    0  0.30139586395E+03 -0.16355801163E+03 -0.30253772871E+03  0.46388125523E+03  0.77884861709E+02 0.  0.
          5    1    5    5  501    0  0.51153142100E+02 -0.11045763731E+03 -0.57165771802E+02  0.13456429338E+03  0.47000000000E+01 0. -1.
        -13    1    6    6    0    0  0.20735026405E+03 -0.92364903932E+02 -0.24012897108E+03  0.33043506205E+03  0.00000000000E+00 0.  1.
         14    1    6    6    0    0  0.94045599898E+02 -0.71193107702E+02 -0.62408757627E+02  0.13344619317E+03  0.00000000000E+00 0. -1.
         -5    1    3    3    0  503 -0.85191029813E+01 -0.17030727977E+02 -0.19662496575E+02  0.27772730917E+02  0.47000000000E+01 0.  1.
         13    1    4    4    0    0 -0.11113657899E+03  0.13352564371E+03 -0.35014884264E+03  0.39087676922E+03  0.00000000000E+00 0. -1.
        -14    1    4    4    0    0 -0.23289332408E+03  0.15752073322E+03 -0.44436780227E+03  0.52584676997E+03  0.00000000000E+00 0.  1.
</event>
<event>
12    1  0.8494789E-002  0.2103773E+03  0.7818608E-02  0.1141438E+00
         21   -1    0    0  501  502  0.00000000000E+00  0.00000000000E+00  0.23266055449E+03  0.23266055449E+03  0.00000000000E+00 0. -1.
         21   -1    0    0  502  503 -0.00000000000E+00 -0.00000000000E+00 -0.22586264334E+03  0.22586264334E+03  0.00000000000E+00 0. -1.
         -6    2    1    2    0  503 -0.11000380542E+03  0.52666536995E+02 -0.88646631181E+02  0.22829110880E+03  0.17141762981E+03 0.  0.
        -24    2    3    3    0    0 -0.11239660578E+03  0.93572497017E+02 -0.85744060691E+02  0.18694454940E+03  0.78787127229E+02 0.  0.
          6    2    1    2  501    0  0.11000380542E+03 -0.52666536995E+02  0.95444542327E+02  0.23023208903E+03  0.17036006819E+03 0.  0.
         24    2    5    5    0    0  0.51175668997E+02  0.24748807014E+02  0.90952104421E+02  0.13278386113E+03  0.78280367476E+02 0.  0.
          5    1    5    5  501    0  0.58828136424E+02 -0.77415344010E+02  0.44924379053E+01  0.97448227904E+02  0.47000000000E+01 0. -1.
        -11    1    6    6    0    0  0.15295249256E+02  0.20366506005E+02 -0.85915596246E+01  0.26880366691E+02  0.00000000000E+00 0.  1.
         12    1    6    6    0    0  0.35880419741E+02  0.43823010095E+01  0.99543664046E+02  0.10590349444E+03  0.00000000000E+00 0. -1.
         -5    1    3    3    0  503  0.23928003590E+01 -0.40905960022E+02 -0.29025704896E+01  0.41346559401E+02  0.47000000000E+01 0.  1.
         11    1    4    4    0    0 -0.57370216784E+02  0.93865017039E+02 -0.46904678638E+02  0.11959110366E+03  0.00000000000E+00 0. -1.
        -12    1    4    4    0    0 -0.55026388996E+02 -0.29252002208E+00 -0.38839382054E+02  0.67353445734E+02  0.00000000000E+00 0.  1.
</event>
<event>
12    1  0.8494789E-002  0.2063599E+03  0.7818608E-02  0.1144583E+00
         21   -1    0    0  503  502  0.00000000000E+00  0.00000000000E+00  0.56318560682E+02  0.56318560682E+02  0.00000000000E+00 0. -1.
         21   -1    0    0  501  503 -0.00000000000E+00 -0.00000000000E+00 -0.12825022082E+04  0.12825022082E+04  0.00000000000E+00 0. -1.
          6    2    1    2  501    0  0.72177773672E+02 -0.86416163087E+02 -0.10422527716E+04  0.10623881785E+04  0.17233809100E+03 0.  0.
         24    2    3    3    0    0  0.85260146402E+02 -0.95375702912E+02 -0.55338060268E+03  0.57323635197E+03  0.77485524638E+02 0.  0.
         -6    2    1    2    0  502 -0.72177773672E+02  0.86416163087E+02 -0.18393087583E+03  0.27643259031E+03  0.17293647866E+03 0.  0.
        -24    2    5    5    0    0 -0.11624279161E+03  0.77321816963E+02 -0.14499161841E+03  0.21674348992E+03  0.80399757667E+02 0.  0.
          5    1    3    3  501    0 -0.13082372730E+02  0.89595398249E+01 -0.48887216896E+03  0.48915182655E+03  0.47000000000E+01 0. -1.
        -11    1    4    4    0    0  0.35858142708E+02 -0.13272224155E+01 -0.74199136783E+02  0.82420142060E+02  0.00000000000E+00 0.  1.
         12    1    4    4    0    0  0.49402003694E+02 -0.94048480496E+02 -0.47918146589E+03  0.49081620991E+03  0.00000000000E+00 0. -1.
         -5    1    5    5    0  502  0.44065017942E+02  0.90943461238E+01 -0.38939257421E+02  0.59689100396E+02  0.47000000000E+01 0.  1.
         11    1    6    6    0    0 -0.83671052371E+02  0.57437987307E+02 -0.47510563191E+02  0.11205900680E+03  0.00000000000E+00 0. -1.
        -12    1    6    6    0    0 -0.32571739242E+02  0.19883829656E+02 -0.97481055217E+02  0.10468448312E+03  0.00000000000E+00 0.  1.
</event>
<event>
12    1  0.8494789E-002  0.1858435E+03  0.7818608E-02  0.1162667E+00
         21   -1    0    0  503  502  0.00000000000E+00  0.00000000000E+00  0.52929091973E+03  0.52929091973E+03  0.00000000000E+00 0.  1.
         21   -1    0    0  501  503 -0.00000000000E+00 -0.00000000000E+00 -0.78004951523E+02  0.78004951523E+02  0.00000000000E+00 0.  1.
          6    2    1    2  501    0  0.58667632357E+02  0.38074882094E+02  0.99127321255E+02  0.20910805566E+03  0.17031842352E+03 0.  0.
         24    2    3    3    0    0 -0.22426508058E+02 -0.16991132677E+02  0.44696921804E+02  0.96888253590E+02  0.81227286127E+02 0.  0.
         -6    2    1    2    0  502 -0.58667632357E+02 -0.38074882094E+02  0.35215864695E+03  0.39818781559E+03  0.17218082393E+03 0.  0.
        -24    2    5    5    0    0 -0.33379608021E+02 -0.17651186625E+02  0.35438640184E+03  0.36526875723E+03  0.80036120451E+02 0.  0.
          5    1    3    3  501    0  0.81094140416E+02  0.55066014772E+02  0.54430399451E+02  0.11221980207E+03  0.47000000000E+01 0. -1.
        -13    1    4    4    0    0  0.24573445840E+02  0.12209696924E+02  0.27733676797E+02  0.39013943253E+02  0.00000000000E+00 0.  1.
         14    1    4    4    0    0 -0.46999953898E+02 -0.29200829602E+02  0.16963245006E+02  0.57874310337E+02  0.00000000000E+00 0. -1.
         -5    1    5    5    0  502 -0.25288024337E+02 -0.20423695469E+02 -0.22277548910E+01  0.32919058360E+02  0.47000000000E+01 0.  1.
         11    1    6    6    0    0 -0.52154647725E+02  0.94017129429E+01  0.17363756268E+03  0.18154476765E+03  0.00000000000E+00 0. -1.
        -12    1    6    6    0    0  0.18775039704E+02 -0.27052899568E+02  0.18074883916E+03  0.18372398958E+03  0.00000000000E+00 0.  1.
</event>
<event>
12    1  0.8494789E-002  0.2101710E+03  0.7818608E-02  0.1141556E+00
         21   -1    0    0  503  502  0.00000000000E+00  0.00000000000E+00  0.18180805320E+02  0.18180805320E+02  0.00000000000E+00 0.  1.
         21   -1    0    0  501  503 -0.00000000000E+00 -0.00000000000E+00 -0.37849554509E+04  0.37849554509E+04  0.00000000000E+00 0. -1.
          6    2    1    2  501    0  0.70707048433E+02  0.97127877706E+02 -0.74058437938E+03  0.76965650614E+03  0.17167586650E+03 0.  0.
         24    2    3    3    0    0 -0.23548898431E+02  0.70226854985E+02 -0.44810131576E+03  0.46114997291E+03  0.79863299136E+02 0.  0.
         -6    2    1    2    0  502 -0.70707048433E+02 -0.97127877706E+02 -0.30261902662E+04  0.30334797501E+04  0.17244870418E+03 0.  0.
        -24    2    5    5    0    0 -0.93365130829E+02 -0.11148188810E+03 -0.19659365221E+04  0.19728763755E+04  0.78673534369E+02 0.  0.
          5    1    3    3  501    0  0.94255946864E+02  0.26901022720E+02 -0.29248306362E+03  0.30850653323E+03  0.47000000000E+01 0. -1.
        -13    1    4    4    0    0  0.21194145628E+02  0.24712938194E+02 -0.64237944985E+02  0.72016905647E+02  0.00000000000E+00 0.  1.
         14    1    4    4    0    0 -0.44743044059E+02  0.45513916791E+02 -0.38386337078E+03  0.38913306727E+03  0.00000000000E+00 0. -1.
         -5    1    5    5    0  502  0.22658082396E+02  0.14354010395E+02 -0.10602537441E+04  0.10606033746E+04  0.47000000000E+01 0.  1.
         11    1    6    6    0    0 -0.10438711601E+03 -0.80936779807E+02 -0.16483940047E+04  0.16536777882E+04  0.00000000000E+00 0. -1.
        -12    1    6    6    0    0  0.11021985184E+02 -0.30545108294E+02 -0.31754251734E+03  0.31919858727E+03  0.00000000000E+00 0.  1.
</event>
<event>
12    1  0.8494789E-002  0.2332608E+03  0.7818608E-02  0.1124380E+00
         21   -1    0    0  501  502  0.00000000000E+00  0.00000000000E+00  0.34508131932E+02  0.34508131932E+02  0.00000000000E+00 0.  1.
         21   -1    0    0  502  503 -0.00000000000E+00 -0.00000000000E+00 -0.15983793318E+04  0.15983793318E+04  0.00000000000E+00 0. -1.
         -6    2    1    2    0  503  0.13236289238E+03  0.84529822927E+02 -0.68586923941E+03  0.72444957893E+03  0.17246841042E+03 0.  0.
        -24    2    3    3    0    0  0.38132569713E+02  0.22998014709E+01 -0.43601129798E+03  0.44499974258E+03  0.80371244658E+02 0.  0.
          6    2    1    2  501    0 -0.13236289238E+03 -0.84529822927E+02 -0.87800196045E+03  0.90843788480E+03  0.17235638003E+03 0.  0.
         24    2    5    5    0    0 -0.27311420284E+02 -0.85371071732E+02 -0.35268145055E+03  0.37269517826E+03  0.80519294382E+02 0.  0.
          5    1    5    5  501    0 -0.10505147210E+03  0.84124880420E+00 -0.52532050990E+03  0.53574270655E+03  0.47000000000E+01 0. -1.
        -13    1    6    6    0    0 -0.16502717487E+02 -0.98968801425E+02 -0.32383556470E+03  0.33902306161E+03  0.00000000000E+00 0.  1.
         14    1    6    6    0    0 -0.10808702796E+02  0.13597729693E+02 -0.28845885851E+02  0.33672116647E+02  0.00000000000E+00 0. -1.
         -5    1    3    3    0  503  0.94230322671E+02  0.82230021457E+02 -0.24985794143E+03  0.27944983635E+03  0.47000000000E+01 0.  1.
         11    1    4    4    0    0 -0.22709906998E+02  0.13834144744E+02 -0.15286860707E+03  0.15516421773E+03  0.00000000000E+00 0. -1.
        -12    1    4    4    0    0  0.60842476710E+02 -0.11534343273E+02 -0.28314269092E+03  0.28983552485E+03  0.00000000000E+00 0.  1.
</event>
<event>
12    1  0.8494789E-002  0.1821039E+03  0.7818608E-02  0.1166686E+00
         21   -1    0    0  501  502  0.00000000000E+00  0.00000000000E+00  0.13439164892E+03  0.13439164892E+03  0.00000000000E+00 0. -1.
         21   -1    0    0  502  503 -0.00000000000E+00 -0.00000000000E+00 -0.24193875812E+03  0.24193875812E+03  0.00000000000E+00 0. -1.
         -6    2    1    2    0  503  0.51828443580E+02 -0.29202101857E+02 -0.47332262318E+02  0.18452926953E+03  0.16814207665E+03 0.  0.
        -24    2    3    3    0    0  0.23758459780E+02 -0.38839815027E+02 -0.90849528332E+02  0.13164588890E+03  0.83689949360E+02 0.  0.
          6    2    1    2  501    0 -0.51828443580E+02  0.29202101857E+02 -0.60214846883E+02  0.19180113751E+03  0.17211303916E+03 0.  0.
         24    2    5    5    0    0 -0.81857150743E+02  0.52781757447E+02 -0.80600864295E+02  0.14826490987E+03  0.77456291709E+02 0.  0.
          5    1    5    5  501    0  0.30028707163E+02 -0.23579655590E+02  0.20386017412E+02  0.43536227645E+02  0.47000000000E+01 0. -1.
        -13    1    6    6    0    0 -0.62350637125E+02  0.19362001628E+02 -0.87279932237E+02  0.10899667714E+03  0.00000000000E+00 0.  1.
         14    1    6    6    0    0 -0.19506513618E+02  0.33419755819E+02  0.66790679422E+01  0.39268232722E+02  0.00000000000E+00 0. -1.
         -5    1    3    3    0  503  0.28069983800E+02  0.96377131700E+01  0.43517266014E+02  0.52883380632E+02  0.47000000000E+01 0.  1.
         11    1    4    4    0    0  0.40428746247E+02 -0.53243301440E+02 -0.44449578118E+02  0.80281365622E+02  0.00000000000E+00 0. -1.
        -12    1    4    4    0    0 -0.16670286467E+02  0.14403486413E+02 -0.46399950214E+02  0.51364523278E+02  0.00000000000E+00 0.  1.
</event>
<event>
12    1  0.8494789E-002  0.1860777E+03  0.7818608E-02  0.1162255E+00
         21   -1    0    0  503  502  0.00000000000E+00  0.00000000000E+00  0.60231418754E+03  0.60231418754E+03  0.00000000000E+00 0. -1.
         21   -1    0    0  501  503 -0.00000000000E+00 -0.00000000000E+00 -0.81267388663E+02  0.81267388663E+02  0.00000000000E+00 0. -1.
          6    2    1    2  501    0  0.60210218507E+02  0.38510093254E+02  0.74119275008E+02  0.19946473073E+03  0.17083387891E+03 0.  0.
         24    2    3    3    0    0 -0.72898724039E+01 -0.32298626007E+02  0.21071673766E+02  0.88081271486E+02  0.78853988293E+02 0.  0.
         -6    2    1    2    0  502 -0.60210218507E+02 -0.38510093254E+02  0.44692752387E+03  0.48411684547E+03  0.17180398942E+03 0.  0.
        -24    2    5    5    0    0 -0.93849776322E+02 -0.42454471720E+02  0.22651641776E+03  0.26106903968E+03  0.78975903158E+02 0.  0.
          5    1    3    3  501    0  0.67500090911E+02  0.70808719261E+02  0.53047601242E+02  0.11138345925E+03  0.47000000000E+01 0. -1.
        -11    1    4    4    0    0 -0.32521816482E+02 -0.39509366590E+02 -0.45890149836E+01  0.51378182667E+02  0.00000000000E+00 0.  1.
         12    1    4    4    0    0  0.25231944079E+02  0.72107405831E+01  0.25660688750E+02  0.36703088819E+02  0.00000000000E+00 0. -1.
         -5    1    5    5    0  502  0.33639557815E+02  0.39443784658E+01  0.22041110611E+03  0.22304780579E+03  0.47000000000E+01 0.  1.
         13    1    6    6    0    0 -0.10495814500E+02  0.18420069583E+02  0.15831665349E+02  0.26459454136E+02  0.00000000000E+00 0. -1.
        -14    1    6    6    0    0 -0.83353961823E+02 -0.60874541303E+02  0.21068475242E+03  0.23460958555E+03  0.00000000000E+00 0.  1.
</event>
<event>
12    1  0.8494789E-002  0.2381939E+03  0.7818608E-02  0.1121056E+00
         21   -1    0    0  503  502  0.00000000000E+00  0.00000000000E+00  0.43235331735E+03  0.43235331735E+03  0.00000000000E+00 0.  1.
         21   -1    0    0  501  503 -0.00000000000E+00 -0.00000000000E+00 -0.14375734585E+03  0.14375734585E+03  0.00000000000E+00 0.  1.
          6    2    1    2  501    0 -0.13332736914E+03  0.97655891485E+02  0.58741109964E+02  0.24533006457E+03  0.17153268516E+03 0.  0.
         24    2    3    3    0    0 -0.11611790663E+03  0.67750982317E+02 -0.21338628160E+02  0.15800696539E+03  0.80232787657E+02 0.  0.
         -6    2    1    2    0  502  0.13332736914E+03 -0.97655891485E+02  0.22985486153E+03  0.33078059863E+03  0.17108385826E+03 0.  0.
        -24    2    5    5    0    0  0.71656410333E+02  0.12607905496E+02  0.13274347097E+03  0.17136251853E+03  0.80316145645E+02 0.  0.
          5    1    3    3  501    0 -0.17209462510E+02  0.29904909168E+02  0.80079738124E+02  0.87323099179E+02  0.47000000000E+01 0. -1.
        -11    1    4    4    0    0 -0.14800770471E+02 -0.18235113624E+02 -0.45869096022E+00  0.23490265490E+02  0.00000000000E+00 0.  1.
         12    1    4    4    0    0 -0.10131713616E+03  0.85986095940E+02 -0.20879937200E+02  0.13451669990E+03  0.00000000000E+00 0. -1.
         -5    1    5    5    0  502  0.61670958808E+02 -0.11026379698E+03  0.97111390562E+02  0.15941808010E+03  0.47000000000E+01 0.  1.
         11    1    6    6    0    0  0.13980259481E+01  0.32061163048E+02  0.22494428861E+02  0.39190202631E+02  0.00000000000E+00 0. -1.
        -12    1    6    6    0    0  0.70258384385E+02 -0.19453257552E+02  0.11024904211E+03  0.13217231590E+03  0.00000000000E+00 0.  1.
</event>
<event>
12    1  0.8494789E-002  0.2432601E+03  0.7818608E-02  0.1119157E+00
         21   -1    0    0  503  502  0.00000000000E+00  0.00000000000E+00  0.75142559566E+02  0.75142559566E+02  0.00000000000E+00 0. -1.
         21   -1    0    0  501  503 -0.00000000000E+00 -0.00000000000E+00 -0.84387491505E+03  0.84387491505E+03  0.00000000000E+00 0. -1.
          6    2    1    2  501    0  0.46702860334E+02 -0.16344328429E+03 -0.52403309246E+03  0.57397656733E+03  0.16107002670E+03 0.  0.
         24    2    3    3    0    0  0.97048175108E+01 -0.16726545823E+03 -0.48659360436E+03  0.52099289573E+03  0.81168618302E+02 0.  0.
         -6    2    1    2    0  502 -0.46702860334E+02  0.16344328429E+03 -0.24469926303E+03  0.34504090730E+03  0.17401331569E+03 0.  0.
        -24    2    5    5    0    0  0.23578485569E+02  0.13475007143E+03 -0.20225648134E+03  0.25794183862E+03  0.83143136438E+02 0.  0.
          5    1    3    3  501    0  0.36998042823E+02  0.38221739389E+01 -0.37439488100E+02  0.52983671594E+02  0.47000000000E+01 0. -1.
        -13    1    4    4    0    0  0.11266606720E+02 -0.27593134636E+02 -0.25558905389E+02  0.39262897890E+02  0.00000000000E+00 0.  1.
         14    1    4    4    0    0 -0.15617892091E+01 -0.13967232359E+03 -0.46103469897E+03  0.48172999784E+03  0.00000000000E+00 0. -1.
         -5    1    5    5    0  502 -0.70281345903E+02  0.28693212862E+02 -0.42442781688E+02  0.87099068673E+02  0.47000000000E+01 0.  1.
         13    1    6    6    0    0  0.25590809817E+02  0.10650477493E+03 -0.20181143340E+03  0.22962145213E+03  0.00000000000E+00 0. -1.
        -14    1    6    6    0    0 -0.20123242477E+01  0.28245296502E+02 -0.44504794202E+00  0.28320386491E+02  0.00000000000E+00 0.  1.
</event>
<event>
12    1  0.8494789E-002  0.2471437E+03  0.7818608E-02  0.1115431E+00
         21   -1    0    0  503  502  0.00000000000E+00  0.00000000000E+00  0.17657565008E+03  0.17657565008E+03  0.00000000000E+00 0.  1.
         21   -1    0    0  501  503 -0.00000000000E+00 -0.00000000000E+00 -0.39557498988E+03  0.39557498988E+03  0.00000000000E+00 0. -1.
          6    2    1    2  501    0  0.90685438919E+02 -0.15132763243E+03 -0.50842415141E+01  0.24528722936E+03  0.17034105261E+03 0.  0.
         24    2    3    3    0    0  0.81471872626E+02 -0.11433446720E+03  0.59451103916E+02  0.17018539923E+03  0.75621425118E+02 0.  0.
         -6    2    1    2    0  502 -0.90685438919E+02  0.15132763243E+03 -0.21391509829E+03  0.32686341061E+03  0.17307836013E+03 0.  0.
        -24    2    5    5    0    0 -0.67114047116E+02  0.11062397584E+02 -0.77359527252E+02  0.12963394881E+03  0.78700649718E+02 0.  0.
          5    1    3    3  501    0  0.92135662928E+01 -0.36993165235E+02 -0.64535345430E+02  0.75101830122E+02  0.47000000000E+01 0. -1.
        -13    1    4    4    0    0  0.28618270346E+02  0.48817527126E+01  0.11990483374E+02  0.31410326306E+02  0.00000000000E+00 0.  1.
         14    1    4    4    0    0  0.52853602281E+02 -0.11921621991E+03  0.47460620542E+02  0.13877507293E+03  0.00000000000E+00 0. -1.
         -5    1    5    5    0  502 -0.23571391804E+02  0.14026523485E+03 -0.13655557104E+03  0.19722946180E+03  0.47000000000E+01 0.  1.
         11    1    6    6    0    0 -0.34840099863E+02  0.57873802691E+01 -0.88339426590E+02  0.95137692946E+02  0.00000000000E+00 0. -1.
        -12    1    6    6    0    0 -0.32273947252E+02  0.52750173145E+01  0.10979899338E+02  0.34496255861E+02  0.00000000000E+00 0.  1.
</event>
<event>
12    1  0.8494789E-002  0.1969446E+03  0.7818608E-02  0.1152569E+00
         21   -1    0    0  501  502  0.00000000000E+00  0.00000000000E+00  0.21024805545E+04  0.21024805545E+04  0.00000000000E+00 0. -1.
         21   -1    0    0  502  503 -0.00000000000E+00 -0.00000000000E+00 -0.19128014376E+02  0.19128014376E+02  0.00000000000E+00 0. -1.
         -6    2    1    2    0  503 -0.79048589612E+02  0.54673474852E+02  0.12529304042E+04  0.12681520176E+04  0.17069585062E+03 0.  0.
        -24    2    3    3    0    0 -0.79255836086E+02  0.73156176041E+01  0.11415472520E+04  0.11470276757E+04  0.78786765494E+02 0.  0.
          6    2    1    2  501    0  0.79048589612E+02 -0.54673474852E+02  0.83042213590E+03  0.85345655132E+03  0.17189907747E+03 0.  0.
         24    2    5    5    0    0  0.75745083111E+02  0.76273402237E+01  0.70331794076E+03  0.71178837870E+03  0.78683392873E+02 0.  0.
          5    1    5    5  501    0  0.33035065013E+01 -0.62300815075E+02  0.12710419514E+03  0.14166817263E+03  0.47000000000E+01 0. -1.
        -13    1    6    6    0    0  0.18515089597E+02  0.16216814695E+01  0.25619135120E+02  0.31650884314E+02  0.00000000000E+00 0.  1.
         14    1    6    6    0    0  0.57229993514E+02  0.60056587542E+01  0.67769880564E+03  0.68013749438E+03  0.00000000000E+00 0. -1.
         -5    1    3    3    0  503  0.20724647388E+00  0.47357857248E+02  0.11138315223E+03  0.12112434188E+03  0.47000000000E+01 0.  1.
         11    1    4    4    0    0  0.83765085231E+01  0.16221773753E+02  0.37350607788E+03  0.37395200501E+03  0.00000000000E+00 0. -1.
        -12    1    4    4    0    0 -0.87632344609E+02 -0.89061561494E+01  0.76804117411E+03  0.77307567066E+03  0.00000000000E+00 0.  1.
</event>
<event>
12    1  0.8494789E-002  0.1894285E+03  0.7818608E-02  0.1159085E+00
         21   -1    0    0  503  502  0.00000000000E+00  0.00000000000E+00  0.16969495470E+03  0.16969495470E+03  0.00000000000E+00 0. -1.
         21   -1    0    0  501  503 -0.00000000000E+00 -0.00000000000E+00 -0.44902437917E+03  0.44902437917E+03  0.00000000000E+00 0. -1.
          6    2    1    2  501    0  0.70982839193E+02 -0.38590654164E+02 -0.36501629642E+03  0.41124206356E+03  0.17133399004E+03 0.  0.
         24    2    3    3    0    0  0.87197249255E+02 -0.81223005997E+02 -0.28852385138E+03  0.32205905697E+03  0.79217967541E+02 0.  0.
         -6    2    1    2    0  502 -0.70982839193E+02  0.38590654164E+02  0.85686871949E+02  0.20747727030E+03  0.17081210618E+03 0.  0.
        -24    2    5    5    0    0 -0.58014204822E+02 -0.38860101007E+02  0.31991159868E+02  0.11222956980E+03  0.81830841478E+02 0.  0.
          5    1    3    3  501    0 -0.16214410062E+02  0.42632351833E+02 -0.76492445038E+02  0.89183006589E+02  0.47000000000E+01 0. -1.
        -11    1    4    4    0    0  0.30710039497E+02 -0.47477281924E+01 -0.19396296181E+02  0.36631458536E+02  0.00000000000E+00 0.  1.
         12    1    4    4    0    0  0.56487209758E+02 -0.76475277804E+02 -0.26912755520E+03  0.28542759844E+03  0.00000000000E+00 0. -1.
         -5    1    5    5    0  502 -0.12968634371E+02  0.77450755171E+02  0.53695712082E+02  0.95247700497E+02  0.47000000000E+01 0.  1.
         13    1    6    6    0    0 -0.14577940957E+02 -0.25949133769E+02  0.54147427395E+02  0.61788492451E+02  0.00000000000E+00 0. -1.
        -14    1    6    6    0    0 -0.43436263866E+02 -0.12910967238E+02 -0.22156267527E+02  0.50441077351E+02  0.00000000000E+00 0.  1.
</event>
<event>
12    1  0.8494789E-002  0.2211628E+03  0.7818608E-02  0.1133527E+00
         21   -1    0    0  503  502  0.00000000000E+00  0.00000000000E+00  0.70110995706E+03  0.70110995706E+03  0.00000000000E+00 0. -1.
         21   -1    0    0  501  503 -0.00000000000E+00 -0.00000000000E+00 -0.69694326943E+02  0.69694326943E+02  0.00000000000E+00 0. -1.
          6    2    1    2  501    0 -0.14272359746E+02 -0.13696289776E+03  0.35857152554E+03  0.42129147929E+03  0.17306194260E+03 0.  0.
         24    2    3    3    0    0 -0.26376641726E+02 -0.16532771929E+03  0.27189142174E+03  0.32916869635E+03  0.79988145650E+02 0.  0.
         -6    2    1    2    0  502  0.14272359746E+02  0.13696289776E+03  0.27284410458E+03  0.34951280472E+03  0.16956638712E+03 0.  0.
        -24    2    5    5    0    0  0.34750165832E+02  0.12497101998E+03  0.28435797404E+03  0.32272092414E+03  0.80399052338E+02 0.  0.
          5    1    3    3  501    0  0.12104281981E+02  0.28364821528E+02  0.86680103793E+02  0.92122782938E+02  0.47000000000E+01 0. -1.
        -11    1    4    4    0    0 -0.23637534666E+02 -0.17057825720E+02  0.15588348033E+02  0.33055998817E+02  0.00000000000E+00 0.  1.
         12    1    4    4    0    0 -0.27391070604E+01 -0.14826989357E+03  0.25630307371E+03  0.29611269753E+03  0.00000000000E+00 0. -1.
         -5    1    5    5    0  502 -0.20477806086E+02  0.11991877779E+02 -0.11513869462E+02  0.26791880576E+02  0.47000000000E+01 0.  1.
         11    1    6    6    0    0  0.44968450037E+01  0.62916032848E+02  0.21808081892E+03  0.22701958590E+03  0.00000000000E+00 0. -1.
        -12    1    6    6    0    0  0.30253320828E+02  0.62054987133E+02  0.66277155130E+02  0.95701338242E+02  0.00000000000E+00 0.  1.
</event>
<event>
12    1  0.8494789E-002  0.1741233E+03  0.7818608E-02  0.1173946E+00
         21   -1    0    0  503  502  0.00000000000E+00  0.00000000000E+00  0.31069945116E+03  0.31069945116E+03  0.00000000000E+00 0.  1.
         21   -1    0    0  501  503 -0.00000000000E+00 -0.00000000000E+00 -0.14740671556E+03  0.14740671556E+03  0.00000000000E+00 0.  1.
          6    2    1    2  501    0  0.91394294962E+01  0.18989525299E+02 -0.52291205646E+02  0.18180561296E+03  0.17284322223E+03 0.  0.
         24    2    3    3    0    0 -0.53881238667E+02  0.17877991782E+02 -0.66857208751E+02  0.11694346245E+03  0.77350349555E+02 0.  0.
         -6    2    1    2    0  502 -0.91394294962E+01 -0.18989525299E+02  0.21558394125E+03  0.27630055376E+03  0.17152675897E+03 0.  0.
        -24    2    5    5    0    0 -0.48106064521E+02 -0.40943377983E+02  0.20614993623E+03  0.23034992000E+03  0.81072410785E+02 0.  0.
          5    1    3    3  501    0  0.63020668163E+02  0.11115335173E+01  0.14566003105E+02  0.64862150511E+02  0.47000000000E+01 0. -1.
        -13    1    4    4    0    0  0.12721601123E+01 -0.20831961179E+02 -0.38590062710E+02  0.43872336818E+02  0.00000000000E+00 0.  1.
         14    1    4    4    0    0 -0.55153398779E+02  0.38709952961E+02 -0.28267146041E+02  0.73071125627E+02  0.00000000000E+00 0. -1.
         -5    1    5    5    0  502  0.38966635025E+02  0.21953852684E+02  0.94340050172E+01  0.45950633766E+02  0.47000000000E+01 0.  1.
         13    1    6    6    0    0  0.94123519588E+01 -0.37532154139E+02  0.45775348344E+02  0.59938614262E+02  0.00000000000E+00 0. -1.
        -14    1    6    6    0    0 -0.57518416480E+02 -0.34112238447E+01  0.16037458789E+03  0.17041130573E+03  0.00000000000E+00 0.  1.
</event>
<event>
12    1  0.8494789E-002  0.1933464E+03  0.7818608E-02  0.1155729E+00
         21   -1    0    0  501  502  0.00000000000E+00  0.00000000000E+00  0.20494708990E+03  0.20494708990E+03  0.00000000000E+00 0.  1.
         21   -1    0    0  502  503 -0.00000000000E+00 -0.00000000000E+00 -0.20097184442E+03  0.20097184442E+03  0.00000000000E+00 0.  1.
         -6    2    1    2    0  503  0.82909685523E+02  0.29806567175E+02 -0.61464546065E+02  0.20179836408E+03  0.17082810636E+03 0.  0.
        -24    2    3    3    0    0  0.23775252083E+02 -0.43850450965E+02 -0.48482223961E+02  0.10633701993E+03  0.80429541256E+02 0.  0.
          6    2    1    2  501    0 -0.82909685523E+02 -0.29806567175E+02  0.65439791546E+02  0.20412057024E+03  0.17210576247E+03 0.  0.
         24    2    5    5    0    0 -0.80683899845E+01 -0.72196961227E+02  0.41957507296E+02  0.11483634599E+03  0.78418453279E+02 0.  0.
          5    1    5    5  501    0 -0.74841295539E+02  0.42390394052E+02  0.23482284250E+02  0.89284224247E+02  0.47000000000E+01 0. -1.
        -11    1    6    6    0    0 -0.17649315188E+02 -0.26876370452E+02 -0.19706439931E+02  0.37711820296E+02  0.00000000000E+00 0.  1.
         12    1    6    6    0    0  0.95809252039E+01 -0.45320590775E+02  0.61663947227E+02  0.77124525695E+02  0.00000000000E+00 0. -1.
         -5    1    3    3    0  503  0.59134433440E+02  0.73657018140E+02 -0.12982322104E+02  0.95461344149E+02  0.47000000000E+01 0.  1.
         13    1    4    4    0    0 -0.21598227296E+02 -0.93498521998E+00 -0.36976018612E+02  0.42832039084E+02  0.00000000000E+00 0. -1.
        -14    1    4    4    0    0  0.45373479379E+02 -0.42915465745E+02 -0.11506205349E+02  0.63504980849E+02  0.00000000000E+00 0.  1.
</event>
<event>
12    1  0.8494789E-002  0.1895448E+03  0.7818608E-02  0.1158918E+00
         21   -1    0    0  501  502  0.00000000000E+00  0.00000000000E+00  0.78113545479E+02  0.78113545479E+02  0.00000000000E+00 0.  1.
         21   -1    0    0  502  503 -0.00000000000E+00 -0.00000000000E+00 -0.12680741809E+04  0.12680741809E+04  0.00000000000E+00 0.  1.
         -6    2    1    2    0  503 -0.18447159661E+02  0.77705423713E+02 -0.11325906169E+04  0.11483417369E+04  0.17189766911E+03 0.  0.
        -24    2    3    3    0    0  0.74603236700E+01 -0.12561828566E+02 -0.74508509819E+03  0.74959119889E+03  0.80757079911E+02 0.  0.
          6    2    1    2  501    0  0.18447159661E+02 -0.77705423713E+02 -0.57370018568E+02  0.19784598952E+03  0.17167785520E+03 0.  0.
         24    2    5    5    0    0 -0.45090103459E+02 -0.54935541348E+02  0.78624948169E+01  0.10386289450E+03  0.75330278747E+02 0.  0.
          5    1    5    5  501    0  0.63537263121E+02 -0.22769882364E+02 -0.65232513385E+02  0.93983095024E+02  0.47000000000E+01 0. -1.
        -13    1    6    6    0    0  0.82999381200E+01 -0.21887496516E+02  0.29309950331E+02  0.37510327444E+02  0.00000000000E+00 0.  1.
         14    1    6    6    0    0 -0.53390041579E+02 -0.33048044832E+02 -0.21447455514E+02  0.66352567057E+02  0.00000000000E+00 0. -1.
         -5    1    3    3    0  503 -0.25907483331E+02  0.90267252279E+02 -0.38750551871E+03  0.39875053800E+03  0.47000000000E+01 0.  1.
         13    1    4    4    0    0 -0.28065000859E+02 -0.27093099247E+02 -0.25051031502E+03  0.25352928476E+03  0.00000000000E+00 0. -1.
        -14    1    4    4    0    0  0.35525324529E+02  0.14531270681E+02 -0.49457478317E+03  0.49606191414E+03  0.00000000000E+00 0.  1.
</event>
<event>
12    1  0.8494789E-002  0.1787015E+03  0.7818608E-02  0.1169301E+00
         21   -1    0    0  501  502  0.00000000000E+00  0.00000000000E+00  0.29089384363E+03  0.29089384363E+03  0.00000000000E+00 0.  1.
         21   -1    0    0  502  503 -0.00000000000E+00 -0.00000000000E+00 -0.14112766381E+03  0.14112766381E+03  0.00000000000E+00 0.  1.
         -6    2    1    2    0  503 -0.49977764308E+02  0.10774517707E+02 -0.27720844685E+02  0.18083881928E+03  0.17123190758E+03 0.  0.
        -24    2    3    3    0    0 -0.28613101819E+02  0.58062665369E+01  0.50663821305E+02  0.99307364092E+02  0.80266477728E+02 0.  0.
          6    2    1    2  501    0  0.49977764308E+02 -0.10774517707E+02  0.17748702451E+03  0.25118268817E+03  0.17022700082E+03 0.  0.
         24    2    5    5    0    0 -0.11098284944E+02  0.46096074538E+02  0.71213685712E+02  0.11597669498E+03  0.78301882031E+02 0.  0.
          5    1    5    5  501    0  0.61076049252E+02 -0.56870592245E+02  0.10627333879E+03  0.13520599318E+03  0.47000000000E+01 0. -1.
        -11    1    6    6    0    0 -0.36773167075E+02  0.21907504688E+02  0.79396670700E+01  0.43534387460E+02  0.00000000000E+00 0.  1.
         12    1    6    6    0    0  0.25674882131E+02  0.24188569850E+02  0.63274018642E+02  0.72442307521E+02  0.00000000000E+00 0. -1.
         -5    1    3    3    0  503 -0.21364662489E+02  0.49682511706E+01 -0.78384665990E+02  0.81531455190E+02  0.47000000000E+01 0.  1.
         13    1    4    4    0    0 -0.56426231589E+02  0.39898573753E+01  0.26709874450E+02  0.62556022623E+02  0.00000000000E+00 0. -1.
        -14    1    4    4    0    0  0.27813129770E+02  0.18164091616E+01  0.23953946855E+02  0.36751341469E+02  0.00000000000E+00 0.  1.
</event>
<event>
12    1  0.8494789E-002  0.1885342E+03  0.7818608E-02  0.1163903E+00
         21   -1    0    0  501  502  0.00000000000E+00  0.00000000000E+00  0.41901356579E+03  0.41901356579E+03  0.00000000000E+00 0. -1.
         21   -1    0    0  502  503 -0.00000000000E+00 -0.00000000000E+00 -0.20406171021E+03  0.20406171021E+03  0.00000000000E+00 0. -1.
         -6    2    1    2    0  503 -0.31790624767E+02  0.61458695215E+02 -0.13991541326E+03  0.22123462409E+03  0.15678208121E+03 0.  0.
        -24    2    3    3    0    0 -0.34322207008E+02  0.98071235097E+02 -0.89459201921E+02  0.15866621155E+03  0.79850089742E+02 0.  0.
          6    2    1    2  501    0  0.31790624767E+02 -0.61458695215E+02  0.35486726884E+03  0.40184065192E+03  0.17537763826E+03 0.  0.
         24    2    5    5    0    0  0.12955285748E+02 -0.76216683071E+02  0.35980623123E+03  0.37695990532E+03  0.81617547014E+02 0.  0.
          5    1    5    5  501    0  0.18835339019E+02  0.14757987856E+02 -0.49389623981E+01  0.24880746594E+02  0.47000000000E+01 0. -1.
        -11    1    6    6    0    0 -0.25343373950E+02  0.18514970815E+01  0.76636401704E+02  0.80739412376E+02  0.00000000000E+00 0.  1.
         12    1    6    6    0    0  0.38298659698E+02 -0.78068180153E+02  0.28316982953E+03  0.29622049295E+03  0.00000000000E+00 0. -1.
         -5    1    3    3    0  503  0.25315822412E+01 -0.36612539882E+02 -0.50456211337E+02  0.62568412539E+02  0.47000000000E+01 0.  1.
         13    1    4    4    0    0 -0.44703881008E+01  0.20657124725E+02 -0.70441966755E+02  0.73544352958E+02  0.00000000000E+00 0. -1.
        -14    1    4    4    0    0 -0.29851818907E+02  0.77414110372E+02 -0.19017235165E+02  0.85121858591E+02  0.00000000000E+00 0.  1.
</event>
<event>
12    1  0.8494789E-002  0.2036477E+03  0.7818608E-02  0.1146713E+00
         21   -1    0    0  501  502  0.00000000000E+00  0.00000000000E+00  0.62879877283E+03  0.62879877283E+03  0.00000000000E+00 0. -1.
         21   -1    0    0  502  503 -0.00000000000E+00 -0.00000000000E+00 -0.14402961838E+03  0.14402961838E+03  0.00000000000E+00 0.  1.
         -6    2    1    2    0  503 -0.10964584198E+03 -0.10569658337E+02 -0.42181833535E+02  0.20789499653E+03  0.17119314870E+03 0.  0.
        -24    2    3    3    0    0 -0.98359396469E+02  0.44135191897E+02  0.49899448523E+01  0.13463333420E+03  0.80490677047E+02 0.  0.
          6    2    1    2  501    0  0.10964584198E+03  0.10569658337E+02  0.52695098798E+03  0.56493339468E+03  0.17128475807E+03 0.  0.
         24    2    5    5    0    0  0.19361773008E+02  0.16166757941E+00  0.11508457822E+03  0.14313300483E+03  0.82871542395E+02 0.  0.
          5    1    5    5  501    0  0.90284068970E+02  0.10407990757E+02  0.41186640976E+03  0.42180038985E+03  0.47000000000E+01 0. -1.
        -11    1    6    6    0    0  0.29496260691E+02  0.35356777601E+02  0.80616298351E+02  0.92839208726E+02  0.00000000000E+00 0.  1.
         12    1    6    6    0    0 -0.10134487683E+02 -0.35195110022E+02  0.34468279868E+02  0.50293796109E+02  0.00000000000E+00 0. -1.
         -5    1    3    3    0  503 -0.11286445509E+02 -0.54704850234E+02 -0.47171778388E+02  0.73261662331E+02  0.47000000000E+01 0.  1.
         11    1    4    4    0    0 -0.93474371809E+02  0.36130970304E+01  0.25855920038E+00  0.93544532219E+02  0.00000000000E+00 0. -1.
        -12    1    4    4    0    0 -0.48850246602E+01  0.40522094867E+02  0.47313856519E+01  0.41088801984E+02  0.00000000000E+00 0.  1.
</event>
<event>
12    1  0.8494789E-002  0.3388229E+03  0.7818608E-02  0.1067343E+00
         21   -1    0    0  503  502  0.00000000000E+00  0.00000000000E+00  0.52379959404E+03  0.52379959404E+03  0.00000000000E+00 0. -1.
         21   -1    0    0  501  503 -0.00000000000E+00 -0.00000000000E+00 -0.26855253423E+03  0.26855253423E+03  0.00000000000E+00 0.  1.
          6    2    1    2  501    0  0.25077510519E+03  0.14906061868E+03 -0.42796415712E+02  0.34109734503E+03  0.17148948705E+03 0.  0.
         24    2    3    3    0    0  0.15656941392E+03  0.10461385509E+03  0.38979897450E+02  0.20858439300E+03  0.80808270294E+02 0.  0.
         -6    2    1    2    0  502 -0.25077510519E+03 -0.14906061868E+03  0.29804347553E+03  0.45125478324E+03  0.17231872988E+03 0.  0.
        -24    2    5    5    0    0 -0.22062508767E+03 -0.11434210817E+03  0.16059160604E+03  0.30623924975E+03  0.79014347699E+02 0.  0.
          5    1    3    3  501    0  0.94205691264E+02  0.44446763595E+02 -0.81776313162E+02  0.13251295203E+03  0.47000000000E+01 0. -1.
        -11    1    4    4    0    0  0.11618410134E+03  0.42046210922E+02 -0.20196527367E+01  0.12357470718E+03  0.00000000000E+00 0.  1.
         12    1    4    4    0    0  0.40385312580E+02  0.62567644164E+02  0.40999550187E+02  0.85009685824E+02  0.00000000000E+00 0. -1.
         -5    1    5    5    0  502 -0.30150017512E+02 -0.34718510514E+02  0.13745186949E+03  0.14501553349E+03  0.47000000000E+01 0.  1.
         13    1    6    6    0    0 -0.67293802842E+02 -0.72341431630E+02  0.84410201552E+02  0.12994930072E+03  0.00000000000E+00 0. -1.
        -14    1    6    6    0    0 -0.15333128483E+03 -0.42000676537E+02  0.76181404489E+02  0.17628994903E+03  0.00000000000E+00 0.  1.
</event>
<event>
12    1  0.8494789E-002  0.2605523E+03  0.7818608E-02  0.1106842E+00
         21   -1    0    0  503  502  0.00000000000E+00  0.00000000000E+00  0.31586337146E+03  0.31586337146E+03  0.00000000000E+00 0. -1.
         21   -1    0    0  501  503 -0.00000000000E+00 -0.00000000000E+00 -0.44571952914E+03  0.44571952914E+03  0.00000000000E+00 0. -1.
          6    2    1    2  501    0  0.16396300671E+03 -0.10711248308E+03 -0.33902398876E+03  0.42745918606E+03  0.17154340324E+03 0.  0.
         24    2    3    3    0    0  0.13958421689E+03 -0.16075609489E+02 -0.24813381737E+03  0.29644334350E+03  0.81031387487E+02 0.  0.
         -6    2    1    2    0  502 -0.16396300671E+03  0.10711248308E+03  0.20916783108E+03  0.33412371454E+03  0.17184447463E+03 0.  0.
        -24    2    5    5    0    0 -0.16544129162E+03  0.41058821146E+02  0.18481264757E+03  0.26355079803E+03  0.79035818918E+02 0.  0.
          5    1    3    3  501    0  0.24378789812E+02 -0.91036873594E+02 -0.90890171392E+02  0.13101584256E+03  0.47000000000E+01 0. -1.
        -11    1    4    4    0    0  0.10779391222E+03 -0.39563711066E+02 -0.21921662800E+03  0.24746867425E+03  0.00000000000E+00 0.  1.
         12    1    4    4    0    0  0.31790304677E+02  0.23488101577E+02 -0.28917189369E+02  0.48974669250E+02  0.00000000000E+00 0. -1.
         -5    1    5    5    0  502  0.14782849152E+01  0.66053661937E+02  0.24355183505E+02  0.70572916513E+02  0.47000000000E+01 0.  1.
         13    1    6    6    0    0 -0.10925162357E+03  0.64604162628E+02  0.12754835557E+03  0.17993942895E+03  0.00000000000E+00 0. -1.
        -14    1    6    6    0    0 -0.56189668050E+02 -0.23545341481E+02  0.57264292001E+02  0.83611369080E+02  0.00000000000E+00 0.  1.
</event>
<event>
12    1  0.8494789E-002  0.1848296E+03  0.7818608E-02  0.1163285E+00
         21   -1    0    0  501  502  0.00000000000E+00  0.00000000000E+00  0.20230038231E+03  0.20230038231E+03  0.00000000000E+00 0.  1.
         21   -1    0    0  502  503 -0.00000000000E+00 -0.00000000000E+00 -0.19784096685E+03  0.19784096685E+03  0.00000000000E+00 0.  1.
         -6    2    1    2    0  503 -0.47922772461E+02  0.48840504822E+02 -0.74724826061E+02  0.19906397948E+03  0.17134958788E+03 0.  0.
        -24    2    3    3    0    0  0.36714319858E+01  0.12635508531E+02  0.21694541424E+02  0.83775002928E+02  0.79840231082E+02 0.  0.
          6    2    1    2  501    0  0.47922772461E+02 -0.48840504822E+02  0.79184241515E+02  0.20107736968E+03  0.17169734262E+03 0.  0.
         24    2    5    5    0    0  0.61428547811E+02  0.29197810142E+02  0.50540584336E+02  0.11672730349E+03  0.80280346980E+02 0.  0.
          5    1    5    5  501    0 -0.13505775351E+02 -0.78038314964E+02  0.28643657179E+02  0.84350066193E+02  0.47000000000E+01 0. -1.
        -11    1    6    6    0    0  0.13733033050E+02  0.14978998182E+02 -0.21230097501E+02  0.29388494741E+02  0.00000000000E+00 0.  1.
         12    1    6    6    0    0  0.47695514762E+02  0.14218811960E+02  0.71770681837E+02  0.87338808746E+02  0.00000000000E+00 0. -1.
         -5    1    3    3    0  503 -0.51594204446E+02  0.36204996291E+02 -0.96419367485E+02  0.11528897655E+03  0.47000000000E+01 0.  1.
         11    1    4    4    0    0 -0.73810512879E+01  0.43019208614E+02 -0.19952894836E+01  0.43693402340E+02  0.00000000000E+00 0. -1.
        -12    1    4    4    0    0  0.11052483274E+02 -0.30383700083E+02  0.23689830907E+02  0.40081600588E+02  0.00000000000E+00 0.  1.
</event>
<event>
12    1  0.8494789E-002  0.2018286E+03  0.7818608E-02  0.1152995E+00
         21   -1    0    0  503  502  0.00000000000E+00  0.00000000000E+00  0.18319522370E+02  0.18319522370E+02  0.00000000000E+00 0.  1.
         21   -1    0    0  501  503 -0.00000000000E+00 -0.00000000000E+00 -0.21226080775E+04  0.21226080775E+04  0.00000000000E+00 0.  1.
          6    2    1    2  501    0  0.25474491518E+01 -0.62744402560E+02 -0.12617586386E+04  0.12745607958E+04  0.16889941003E+03 0.  0.
         24    2    3    3    0    0  0.16843457299E+02  0.29441788114E+02 -0.68855007930E+03  0.69379164029E+03  0.78071169436E+02 0.  0.
         -6    2    1    2    0  502 -0.25474491518E+01  0.62744402560E+02 -0.84252991656E+03  0.86636680404E+03  0.19181092069E+03 0.  0.
        -24    2    5    5    0    0  0.53211232219E+01 -0.39725676848E+02 -0.52499721575E+03  0.53258373424E+03  0.80105640717E+02 0.  0.
          5    1    3    3  501    0 -0.14296008147E+02 -0.92186190673E+02 -0.57320855927E+03  0.58076915554E+03  0.47000000000E+01 0. -1.
        -11    1    4    4    0    0  0.14167928261E+02 -0.21878036021E+02 -0.38843821377E+03  0.38931173186E+03  0.00000000000E+00 0.  1.
         12    1    4    4    0    0  0.26755290377E+01  0.51319824135E+02 -0.30011186553E+03  0.30447990843E+03  0.00000000000E+00 0. -1.
         -5    1    5    5    0  502 -0.78685723737E+01  0.10247007941E+03 -0.31753270080E+03  0.33378306980E+03  0.47000000000E+01 0.  1.
         11    1    6    6    0    0  0.23807801258E+02 -0.25112428046E+02 -0.82550781774E+02  0.89510206204E+02  0.00000000000E+00 0. -1.
        -12    1    6    6    0    0 -0.18486678036E+02 -0.14613248801E+02 -0.44244643398E+03  0.44307352804E+03  0.00000000000E+00 0.  1.
</event>
<event>
12    1  0.8494789E-002  0.2031201E+03  0.7818608E-02  0.1147384E+00
         21   -1    0    0  503  502  0.00000000000E+00  0.00000000000E+00  0.93427435466E+03  0.93427435466E+03  0.00000000000E+00 0. -1.
         21   -1    0    0  501  503 -0.00000000000E+00 -0.00000000000E+00 -0.44155311071E+02  0.44155311071E+02  0.00000000000E+00 0.  1.
          6    2    1    2  501    0 -0.76989747421E+02  0.75179748147E+02  0.48377213523E+03  0.52468397472E+03  0.17227413840E+03 0.  0.
         24    2    3    3    0    0 -0.65938179933E+02  0.51521675975E+01  0.14428781436E+03  0.17784439610E+03  0.80220118716E+02 0.  0.
         -6    2    1    2    0  502  0.76989747421E+02 -0.75179748147E+02  0.40634690836E+03  0.45374569101E+03  0.17084474367E+03 0.  0.
        -24    2    5    5    0    0  0.89985554176E+02 -0.10903329632E+03  0.30085962149E+03  0.34210066691E+03  0.80812714266E+02 0.  0.
          5    1    3    3  501    0 -0.11051567487E+02  0.70027580550E+02  0.33948432086E+03  0.34683957862E+03  0.47000000000E+01 0. -1.
        -11    1    4    4    0    0 -0.18993026722E+02 -0.34689590866E+02  0.77481109936E+02  0.86990948813E+02  0.00000000000E+00 0.  1.
         12    1    4    4    0    0 -0.46945153212E+02  0.39841758464E+02  0.66806704426E+02  0.90853447287E+02  0.00000000000E+00 0. -1.
         -5    1    5    5    0  502 -0.12995806755E+02  0.33853548173E+02  0.10548728687E+03  0.11164502411E+03  0.47000000000E+01 0.  1.
         11    1    6    6    0    0  0.44966542374E+02 -0.31719149843E+02  0.19928753386E+03  0.20674529149E+03  0.00000000000E+00 0. -1.
        -12    1    6    6    0    0  0.45019011801E+02 -0.77314146477E+02  0.10157208763E+03  0.13535537542E+03  0.00000000000E+00 0.  1.
</event>
<event>
12    1  0.8494789E-002  0.1725975E+03  0.7818608E-02  0.1175943E+00
         21   -1    0    0  503  502  0.00000000000E+00  0.00000000000E+00  0.50887365316E+02  0.50887365316E+02  0.00000000000E+00 0. -1.
         21   -1    0    0  501  503 -0.00000000000E+00 -0.00000000000E+00 -0.57549119118E+03  0.57549119118E+03  0.00000000000E+00 0. -1.
          6    2    1    2  501    0 -0.31366197712E+01  0.40167030739E+01 -0.26658332691E+03  0.31595230316E+03  0.16950874727E+03 0.  0.
         24    2    3    3    0    0  0.50204350816E+02  0.30371367135E+02 -0.21768239243E+03  0.23879519815E+03  0.78705945792E+02 0.  0.
         -6    2    1    2    0  502  0.31366197712E+01 -0.40167030739E+01 -0.25802049895E+03  0.31042625333E+03  0.17252219738E+03 0.  0.
        -24    2    5    5    0    0  0.64497270845E+02  0.14314287237E+02 -0.21254490276E+03  0.23174160073E+03  0.64529350324E+02 0.  0.
          5    1    3    3  501    0 -0.53340970588E+02 -0.26354664061E+02 -0.48900934476E+02  0.77157105011E+02  0.47000000000E+01 0. -1.
        -11    1    4    4    0    0 -0.15743827024E+01  0.35127941167E+02 -0.38143733050E+02  0.51878659413E+02  0.00000000000E+00 0.  1.
         12    1    4    4    0    0  0.51778733519E+02 -0.47565740321E+01 -0.17953865938E+03  0.18691653874E+03  0.00000000000E+00 0. -1.
         -5    1    5    5    0  502 -0.61360651074E+02 -0.18330990311E+02 -0.45475596191E+02  0.78684652601E+02  0.47000000000E+01 0.  1.
         13    1    6    6    0    0 -0.73183459209E+01  0.18637967743E+02 -0.38056095547E+02  0.43002307344E+02  0.00000000000E+00 0. -1.
        -14    1    6    6    0    0  0.71815616766E+02 -0.43236805059E+01 -0.17448880722E+03  0.18873929339E+03  0.00000000000E+00 0.  1.
</event>
<event>
12    1  0.8494789E-002  0.1884402E+03  0.7818608E-02  0.1159893E+00
         21   -1    0    0  501  502  0.00000000000E+00  0.00000000000E+00  0.17771685439E+03  0.17771685439E+03  0.00000000000E+00 0.  1.
         21   -1    0    0  502  503 -0.00000000000E+00 -0.00000000000E+00 -0.21364943241E+03  0.21364943241E+03  0.00000000000E+00 0. -1.
         -6    2    1    2    0  503 -0.21069884457E+02 -0.74405667588E+02  0.31980495447E+02  0.19106175207E+03  0.17176058225E+03 0.  0.
        -24    2    3    3    0    0 -0.22523090785E+02 -0.11757278792E+03  0.30985012999E+02  0.14760380605E+03  0.80598774504E+02 0.  0.
          6    2    1    2  501    0  0.21069884457E+02  0.74405667588E+02 -0.67913073464E+02  0.20030453474E+03  0.17184172278E+03 0.  0.
         24    2    5    5    0    0  0.73637207760E+02  0.40247701709E+02 -0.12388914656E+02  0.11642895830E+03  0.79748989107E+02 0.  0.
          5    1    5    5  501    0 -0.52567323304E+02  0.34157965878E+02 -0.55524158808E+02  0.83875576442E+02  0.47000000000E+01 0. -1.
        -11    1    6    6    0    0  0.24729996770E+01  0.22295813463E+02  0.25392150519E+02  0.33881858470E+02  0.00000000000E+00 0.  1.
         12    1    6    6    0    0  0.71164208084E+02  0.17951888246E+02 -0.37781065175E+02  0.82547099825E+02  0.00000000000E+00 0. -1.
         -5    1    3    3    0  503  0.14532063284E+01  0.43167120336E+02  0.99548244806E+00  0.43457946018E+02  0.47000000000E+01 0.  1.
         11    1    4    4    0    0 -0.37592440727E+02 -0.35673831857E+02  0.37659627690E+02  0.64062949018E+02  0.00000000000E+00 0. -1.
        -12    1    4    4    0    0  0.15069349942E+02 -0.81898956067E+02 -0.66746146906E+01  0.83540857033E+02  0.00000000000E+00 0.  1.
</event>
<event>
12    1  0.8494789E-002  0.2541070E+03  0.7818608E-02  0.1110987E+00
         21   -1    0    0  503  502  0.00000000000E+00  0.00000000000E+00  0.55349279579E+02  0.55349279579E+02  0.00000000000E+00 0.  1.
         21   -1    0    0  501  503 -0.00000000000E+00 -0.00000000000E+00 -0.12280275423E+04  0.12280275423E+04  0.00000000000E+00 0. -1.
          6    2    1    2  501    0 -0.57375569949E+02 -0.17865150470E+03 -0.74003305190E+03  0.78244444108E+03  0.17135363817E+03 0.  0.
         24    2    3    3    0    0 -0.51198096658E+02 -0.19759702930E+03 -0.56518232585E+03  0.60639910465E+03  0.81381702971E+02 0.  0.
         -6    2    1    2    0  502  0.57375569949E+02  0.17865150470E+03 -0.43264521086E+03  0.50093238083E+03  0.16894690152E+03 0.  0.
        -24    2    5    5    0    0  0.39109017429E+02  0.16637526796E+03 -0.43942554288E+03  0.47742842730E+03  0.75052317932E+02 0.  0.
          5    1    3    3  501    0 -0.61774732911E+01  0.18945524597E+02 -0.17485072605E+03  0.17604533643E+03  0.47000000000E+01 0. -1.
        -11    1    4    4    0    0  0.16396897747E+02 -0.93055531324E+02 -0.21906946312E+03  0.23857833062E+03  0.00000000000E+00 0.  1.
         12    1    4    4    0    0 -0.67594994405E+02 -0.10454149797E+03 -0.34611286273E+03  0.36782077403E+03  0.00000000000E+00 0. -1.
         -5    1    5    5    0  502  0.18266552520E+02  0.12276236745E+02  0.67803320200E+01  0.23503953537E+02  0.47000000000E+01 0.  1.
         13    1    6    6    0    0  0.19819628840E+02  0.14437890121E+03 -0.28330527336E+03  0.31859058792E+03  0.00000000000E+00 0. -1.
        -14    1    6    6    0    0  0.19289388590E+02  0.21996366750E+02 -0.15612026952E+03  0.15883783937E+03  0.00000000000E+00 0.  1.
</event>
<event>
12    1  0.8494789E-002  0.1963743E+03  0.7818608E-02  0.1152997E+00
         21   -1    0    0  501  502  0.00000000000E+00  0.00000000000E+00  0.15661044403E+03  0.15661044403E+03  0.00000000000E+00 0.  1.
         21   -1    0    0  502  503 -0.00000000000E+00 -0.00000000000E+00 -0.55534695008E+03  0.55534695008E+03  0.00000000000E+00 0.  1.
         -6    2    1    2    0  503  0.78284116318E+02 -0.50530785806E+02 -0.46518609557E+03  0.50464499294E+03  0.17200785507E+03 0.  0.
        -24    2    3    3    0    0  0.55194419553E+02  0.25140172460E+02 -0.35570314918E+03  0.36948644319E+03  0.79479866256E+02 0.  0.
          6    2    1    2  501    0 -0.78284116318E+02  0.50530785806E+02  0.66449589530E+02  0.20731240117E+03  0.17286156469E+03 0.  0.
         24    2    5    5    0    0 -0.31887946252E+01  0.52369580394E+02  0.86940742643E+02  0.12930813294E+03  0.80057224232E+02 0.  0.
          5    1    5    5  501    0 -0.75095321693E+02 -0.18387945876E+01 -0.20491153113E+02  0.78004268227E+02  0.47000000000E+01 0. -1.
        -13    1    6    6    0    0 -0.20647128518E+02  0.63521459661E+02  0.85562875510E+02  0.10854623632E+03  0.00000000000E+00 0.  1.
         14    1    6    6    0    0  0.17458333893E+02 -0.11151879267E+02  0.13778671328E+01  0.20761896622E+02  0.00000000000E+00 0. -1.
         -5    1    3    3    0  503  0.23089696765E+02 -0.75670958266E+02 -0.10948294639E+03  0.13515854975E+03  0.47000000000E+01 0.  1.
         11    1    4    4    0    0  0.13976880978E+02  0.47598465304E+02 -0.13447508158E+03  0.14333357830E+03  0.00000000000E+00 0. -1.
        -12    1    4    4    0    0  0.41217538575E+02 -0.22458292844E+02 -0.22122806760E+03  0.22615286489E+03  0.00000000000E+00 0.  1.
</event>
<event>
12    1  0.8494789E-002  0.1847124E+03  0.7818608E-02  0.1164462E+00
         21   -1    0    0  503  502  0.00000000000E+00  0.00000000000E+00  0.87458675159E+02  0.87458675159E+02  0.00000000000E+00 0.  1.
         21   -1    0    0  501  503 -0.00000000000E+00 -0.00000000000E+00 -0.54991506955E+03  0.54991506955E+03  0.00000000000E+00 0. -1.
          6    2    1    2  501    0 -0.41188887426E+02 -0.39277540421E+02 -0.40625204072E+03  0.44429968325E+03  0.17065239032E+03 0.  0.
         24    2    3    3    0    0 -0.55148988205E+02  0.14443968883E+02 -0.13195843627E+03  0.16440692448E+03  0.79790781265E+02 0.  0.
         -6    2    1    2    0  502  0.41188887426E+02  0.39277540421E+02 -0.56204353674E+02  0.19307406146E+03  0.17572539431E+03 0.  0.
        -24    2    5    5    0    0  0.83332285849E+02  0.21836616335E+02 -0.78704148582E+02  0.14199977600E+03  0.80922714386E+02 0.  0.
          5    1    3    3  501    0  0.13960100779E+02 -0.53721509304E+02 -0.27429360444E+03  0.27989275877E+03  0.47000000000E+01 0. -1.
        -13    1    4    4    0    0 -0.35463532929E+02 -0.28189535134E+02 -0.37076401309E+02  0.58540341584E+02  0.00000000000E+00 0.  1.
         14    1    4    4    0    0 -0.19685455276E+02  0.42633504016E+02 -0.94882034966E+02  0.10586658289E+03  0.00000000000E+00 0. -1.
         -5    1    5    5    0  502 -0.42143398423E+02  0.17440924086E+02  0.22499794908E+02  0.51074285453E+02  0.47000000000E+01 0.  1.
         13    1    6    6    0    0 -0.68185468614E+01 -0.18277022379E+02 -0.13778237563E+02  0.23882670677E+02  0.00000000000E+00 0. -1.
        -14    1    6    6    0    0  0.90150832710E+02  0.40113638714E+02 -0.64925911019E+02  0.11811710533E+03  0.00000000000E+00 0.  1.
</event>
<event>
12    1  0.8494789E-002  0.1775964E+03  0.7818608E-02  0.1170450E+00
         21   -1    0    0  503  502  0.00000000000E+00  0.00000000000E+00  0.32426271816E+03  0.32426271816E+03  0.00000000000E+00 0.  1.
         21   -1    0    0  501  503 -0.00000000000E+00 -0.00000000000E+00 -0.73184017000E+03  0.73184017000E+03  0.00000000000E+00 0.  1.
          6    2    1    2  501    0 -0.19982929063E+02  0.32759232028E+02 -0.69584732810E+03  0.71815317084E+03  0.17340123421E+03 0.  0.
         24    2    3    3    0    0 -0.31440834858E+02  0.86052732745E+02 -0.43004327378E+03  0.44677637353E+03  0.79235798185E+02 0.  0.
         -6    2    1    2    0  502  0.19982929063E+02 -0.32759232028E+02  0.28826987627E+03  0.33794971732E+03  0.17215692008E+03 0.  0.
        -24    2    5    5    0    0 -0.88085118612E+01 -0.71176834864E+02  0.11301820353E+03  0.15618036325E+03  0.80470241917E+02 0.  0.
          5    1    3    3  501    0  0.11457905795E+02 -0.53293500717E+02 -0.26580405432E+03  0.27137679731E+03  0.47000000000E+01 0. -1.
        -11    1    4    4    0    0  0.14096970831E+02  0.59405607345E+02 -0.30511089447E+03  0.31115978001E+03  0.00000000000E+00 0.  1.
         12    1    4    4    0    0 -0.45537805689E+02  0.26647125400E+02 -0.12493237931E+03  0.13561659353E+03  0.00000000000E+00 0. -1.
         -5    1    5    5    0  502  0.28791440924E+02  0.38417602836E+02  0.17525167274E+03  0.18176935406E+03  0.47000000000E+01 0.  1.
         13    1    6    6    0    0  0.35859614147E+02 -0.35454067224E+02  0.57333524019E+02  0.76354671016E+02  0.00000000000E+00 0. -1.
        -14    1    6    6    0    0 -0.44668126008E+02 -0.35722767639E+02  0.55684679513E+02  0.79825692238E+02  0.00000000000E+00 0.  1.
</event>
<event>
12    1  0.8494789E-002  0.2153541E+03  0.7818608E-02  0.1137577E+00
         21   -1    0    0  501  502  0.00000000000E+00  0.00000000000E+00  0.37258042433E+03  0.37258042433E+03  0.00000000000E+00 0. -1.
         21   -1    0    0  502  503 -0.00000000000E+00 -0.00000000000E+00 -0.12456371558E+03  0.12456371558E+03  0.00000000000E+00 0.  1.
         -6    2    1    2    0  503 -0.12436064409E+03 -0.34317601004E+02  0.10600018642E+03  0.23917888396E+03  0.17125195319E+03 0.  0.
        -24    2    3    3    0    0 -0.71955804604E+02 -0.28875485079E+02  0.13973574118E+03  0.17644084540E+03  0.74792132656E+02 0.  0.
          6    2    1    2  501    0  0.12436064409E+03  0.34317601004E+02  0.14201652233E+03  0.25796525596E+03  0.17243582322E+03 0.  0.
         24    2    5    5    0    0  0.14833587388E+03  0.16312932240E+02  0.76416802921E+02  0.18568529381E+03  0.79811385968E+02 0.  0.
          5    1    5    5  501    0 -0.23975229793E+02  0.18004668764E+02  0.65599719408E+02  0.72279962143E+02  0.47000000000E+01 0. -1.
        -13    1    6    6    0    0  0.10055115547E+02  0.18330438057E+02 -0.94044465800E+01  0.22924962890E+02  0.00000000000E+00 0.  1.
         14    1    6    6    0    0  0.13828075834E+03 -0.20175058168E+01  0.85821249501E+02  0.16276033092E+03  0.00000000000E+00 0. -1.
         -5    1    3    3    0  503 -0.52404839487E+02 -0.54421159256E+01 -0.33735554757E+02  0.62738038559E+02  0.47000000000E+01 0.  1.
         13    1    4    4    0    0 -0.91031021447E+01 -0.13997114665E+02  0.98288135809E+02  0.99696255338E+02  0.00000000000E+00 0. -1.
        -14    1    4    4    0    0 -0.62852702459E+02 -0.14878370413E+02  0.41447605370E+02  0.76744590060E+02  0.00000000000E+00 0.  1.
</event>
<event>
12    1  0.8494789E-002  0.2040785E+03  0.7818608E-02  0.1146442E+00
         21   -1    0    0  501  502  0.00000000000E+00  0.00000000000E+00  0.39199221594E+03  0.39199221594E+03  0.00000000000E+00 0. -1.
         21   -1    0    0  502  503 -0.00000000000E+00 -0.00000000000E+00 -0.17221559960E+03  0.17221559960E+03  0.00000000000E+00 0.  1.
         -6    2    1    2    0  503 -0.10093157059E+03  0.47335716794E+02 -0.65120777590E+02  0.21375870728E+03  0.17036495307E+03 0.  0.
        -24    2    3    3    0    0 -0.84300251031E+02  0.61784452776E+02  0.11980522707E+02  0.13343394603E+03  0.82080656063E+02 0.  0.
          6    2    1    2  501    0  0.10093157059E+03 -0.47335716794E+02  0.28489739394E+03  0.35044910826E+03  0.17093917159E+03 0.  0.
         24    2    5    5    0    0  0.19074461483E+02 -0.54153220331E+02  0.23460662979E+03  0.25402133412E+03  0.78677576837E+02 0.  0.
          5    1    5    5  501    0  0.81857109111E+02  0.68175035372E+01  0.50290764150E+02  0.96427774139E+02  0.47000000000E+01 0. -1.
        -13    1    6    6    0    0 -0.20935711646E+02 -0.53229211403E+02  0.13035995527E+03  0.14235649232E+03  0.00000000000E+00 0.  1.
         14    1    6    6    0    0  0.40010173129E+02 -0.92400892754E+00  0.10424667452E+03  0.11166484180E+03  0.00000000000E+00 0. -1.
         -5    1    3    3    0  503 -0.16631319562E+02 -0.14448735983E+02 -0.77101300297E+02  0.80324761247E+02  0.47000000000E+01 0.  1.
         11    1    4    4    0    0 -0.78746171213E+02  0.14969301661E+02 -0.11139023869E+02  0.80926616918E+02  0.00000000000E+00 0. -1.
        -12    1    4    4    0    0 -0.55540798180E+01  0.46815151115E+02  0.23119546576E+02  0.52507329112E+02  0.00000000000E+00 0.  1.
</event>
<event>
12    1  0.8494789E-002  0.1866374E+03  0.7818608E-02  0.1164834E+00
         21   -1    0    0  501  502  0.00000000000E+00  0.00000000000E+00  0.16875954604E+03  0.16875954604E+03  0.00000000000E+00 0. -1.
         21   -1    0    0  502  503 -0.00000000000E+00 -0.00000000000E+00 -0.25140484568E+03  0.25140484568E+03  0.00000000000E+00 0. -1.
         -6    2    1    2    0  503 -0.26423658873E+02 -0.67224541118E+02 -0.14262206529E+03  0.22412679432E+03  0.15708092739E+03 0.  0.
        -24    2    3    3    0    0 -0.20035338696E+02 -0.87986486574E+02 -0.56384095106E+02  0.13507093256E+03  0.83198281382E+02 0.  0.
          6    2    1    2  501    0  0.26423658873E+02  0.67224541118E+02  0.59976765643E+02  0.19603759740E+03  0.17209351673E+03 0.  0.
         24    2    5    5    0    0  0.74678567363E+02  0.11030834077E+02  0.21886804153E+02  0.11261575331E+03  0.80651769817E+02 0.  0.
          5    1    5    5  501    0 -0.48254908490E+02  0.56193707041E+02  0.38089961490E+02  0.83421844086E+02  0.47000000000E+01 0. -1.
        -13    1    6    6    0    0 -0.13562384850E+02 -0.13198612557E+02  0.48511388829E+01  0.19536509533E+02  0.00000000000E+00 0.  1.
         14    1    6    6    0    0  0.88240952213E+02  0.24229446634E+02  0.17035665270E+02  0.93079243782E+02  0.00000000000E+00 0. -1.
         -5    1    3    3    0  503 -0.63883201769E+01  0.20761945455E+02 -0.86237970182E+02  0.89055861766E+02  0.47000000000E+01 0.  1.
         13    1    4    4    0    0 -0.55818625012E+01 -0.10219511650E+03 -0.49283913948E+02  0.11359534849E+03  0.00000000000E+00 0. -1.
        -14    1    4    4    0    0 -0.14453476195E+02  0.14208629925E+02 -0.71001811577E+01  0.21475584065E+02  0.00000000000E+00 0.  1.
</event>
<event>
12    1  0.8494789E-002  0.2968295E+03  0.7818608E-02  0.1087202E+00
         21   -1    0    0  501  502  0.00000000000E+00  0.00000000000E+00  0.71857346127E+03  0.71857346127E+03  0.00000000000E+00 0. -1.
         21   -1    0    0  502  503 -0.00000000000E+00 -0.00000000000E+00 -0.14480470150E+03  0.14480470150E+03  0.00000000000E+00 0. -1.
         -6    2    1    2    0  503  0.24081295900E+03 -0.69203543017E+01  0.11228353929E+03  0.31467392350E+03  0.16844379599E+03 0.  0.
        -24    2    3    3    0    0  0.18648206490E+03  0.18766951603E+02  0.14116512440E+03  0.24783142431E+03  0.79781348262E+02 0.  0.
          6    2    1    2  501    0 -0.24081295900E+03  0.69203543017E+01  0.46148522048E+03  0.54870423927E+03  0.17340403961E+03 0.  0.
         24    2    5    5    0    0 -0.40548578533E+02 -0.14722750143E+02  0.75886844029E+02  0.11363821673E+03  0.72759086113E+02 0.  0.
          5    1    5    5  501    0 -0.20026438046E+03  0.21643104444E+02  0.38559837645E+03  0.43506602254E+03  0.47000000000E+01 0. -1.
        -13    1    6    6    0    0  0.26725826823E+01 -0.34611547783E+02  0.19339764811E+02  0.39738249094E+02  0.00000000000E+00 0.  1.
         14    1    6    6    0    0 -0.43221161216E+02  0.19888797640E+02  0.56547079218E+02  0.73899967635E+02  0.00000000000E+00 0. -1.
         -5    1    3    3    0  503  0.54330894100E+02 -0.25687305904E+02 -0.28881585110E+02  0.66842499181E+02  0.47000000000E+01 0.  1.
         11    1    4    4    0    0  0.10020787021E+03 -0.29621483385E+02  0.79074907045E+02  0.13104156002E+03  0.00000000000E+00 0. -1.
        -12    1    4    4    0    0  0.86274194692E+02  0.48388434987E+02  0.62090217352E+02  0.11678986429E+03  0.00000000000E+00 0.  1.
</event>
<event>
12    1  0.8494789E-002  0.2052849E+03  0.7818608E-02  0.1145582E+00
         21   -1    0    0  503  502  0.00000000000E+00  0.00000000000E+00  0.16468183343E+04  0.16468183343E+04  0.00000000000E+00 0.  1.
         21   -1    0    0  501  503 -0.00000000000E+00 -0.00000000000E+00 -0.25471190336E+02  0.25471190336E+02  0.00000000000E+00 0. -1.
          6    2    1    2  501    0  0.11270859833E+03  0.33741932396E+01  0.78558873506E+03  0.81168857575E+03  0.17021771362E+03 0.  0.
         24    2    3    3    0    0  0.10317223489E+03 -0.24433130896E+02  0.33482854734E+03  0.35994636349E+03  0.78801906940E+02 0.  0.
         -6    2    1    2    0  502 -0.11270859833E+03 -0.33741932396E+01  0.83575840892E+03  0.86060094891E+03  0.17154376077E+03 0.  0.
        -24    2    5    5    0    0 -0.61796209401E+02  0.21482975411E+02  0.22760399038E+03  0.24979505750E+03  0.79458823221E+02 0.  0.
          5    1    3    3  501    0  0.95363634363E+01  0.27807324136E+02  0.45076018772E+03  0.45174221226E+03  0.47000000000E+01 0. -1.
        -13    1    4    4    0    0  0.17806461339E+02 -0.15072923111E+02  0.19108170922E+03  0.19250060435E+03  0.00000000000E+00 0.  1.
         14    1    4    4    0    0  0.85365773554E+02 -0.93602077851E+01  0.14374683811E+03  0.16744575913E+03  0.00000000000E+00 0. -1.
         -5    1    5    5    0  502 -0.50912388928E+02 -0.24857168651E+02  0.60815441854E+03  0.61080589140E+03  0.47000000000E+01 0.  1.
         13    1    6    6    0    0 -0.73751221507E+02  0.20549748625E+02  0.12564456395E+03  0.14713290350E+03  0.00000000000E+00 0. -1.
        -14    1    6    6    0    0  0.11955012106E+02  0.93322678622E+00  0.10195942643E+03  0.10266215400E+03  0.00000000000E+00 0.  1.
</event>
<event>
12    1  0.8494789E-002  0.2015860E+03  0.7818608E-02  0.1148572E+00
         21   -1    0    0  503  502  0.00000000000E+00  0.00000000000E+00  0.69455872348E+03  0.69455872348E+03  0.00000000000E+00 0.  1.
         21   -1    0    0  501  503 -0.00000000000E+00 -0.00000000000E+00 -0.58495705037E+02  0.58495705037E+02  0.00000000000E+00 0. -1.
          6    2    1    2  501    0 -0.29450617705E+02 -0.10077218676E+03  0.29577114303E+03  0.35793503116E+03  0.17208877062E+03 0.  0.
         24    2    3    3    0    0 -0.62413562371E+02 -0.12488343515E+03  0.23464618384E+03  0.28427188803E+03  0.79122370980E+02 0.  0.
         -6    2    1    2    0  502  0.29450617705E+02  0.10077218676E+03  0.34029187542E+03  0.39511939736E+03  0.17116776913E+03 0.  0.
        -24    2    5    5    0    0  0.70126054555E+02  0.27535496012E+02  0.13390445031E+03  0.17232809753E+03  0.78042964577E+02 0.  0.
          5    1    3    3  501    0  0.32962944666E+02  0.24111248387E+02  0.61124959188E+02  0.73663143129E+02  0.47000000000E+01 0. -1.
        -13    1    4    4    0    0 -0.25342313200E+02 -0.91642913118E+02  0.20586090648E+03  0.22675839385E+03  0.00000000000E+00 0.  1.
         14    1    4    4    0    0 -0.37071249172E+02 -0.33240522031E+02  0.28785277356E+02  0.57513494178E+02  0.00000000000E+00 0. -1.
         -5    1    5    5    0  502 -0.40675436850E+02  0.73236690750E+02  0.20638742511E+03  0.22279129983E+03  0.47000000000E+01 0.  1.
         13    1    6    6    0    0  0.77084493607E+02  0.59096793038E+01  0.69221398360E+02  0.10377160235E+03  0.00000000000E+00 0. -1.
        -14    1    6    6    0    0 -0.69584390525E+01  0.21625816708E+02  0.64683051946E+02  0.68556495180E+02  0.00000000000E+00 0.  1.
</event>
<event>
12    1  0.8494789E-002  0.1832761E+03  0.7818608E-02  0.1164857E+00
         21   -1    0    0  503  502  0.00000000000E+00  0.00000000000E+00  0.10808335002E+03  0.10808335002E+03  0.00000000000E+00 0. -1.
         21   -1    0    0  501  503 -0.00000000000E+00 -0.00000000000E+00 -0.62802720225E+03  0.62802720225E+03  0.00000000000E+00 0. -1.
          6    2    1    2  501    0  0.60963509126E+02  0.17016863127E+02 -0.52183688714E+03  0.55282470117E+03  0.17115867015E+03 0.  0.
         24    2    3    3    0    0 -0.32712664725E+02 -0.23140300489E+02 -0.14076121725E+03  0.15832681839E+03  0.60399248333E+02 0.  0.
         -6    2    1    2    0  502 -0.60963509126E+02 -0.17016863127E+02  0.18930349217E+01  0.18328585110E+03  0.17199998999E+03 0.  0.
        -24    2    5    5    0    0 -0.72149680227E+01 -0.70087558520E+02 -0.20015883480E+01  0.10750549434E+03  0.81173292001E+02 0.  0.
          5    1    3    3  501    0  0.93676173851E+02  0.40157163616E+02 -0.38107566989E+03  0.39449788278E+03  0.47000000000E+01 0. -1.
        -13    1    4    4    0    0 -0.14769255030E+01 -0.33369571360E+02 -0.10291844480E+03  0.10820312325E+03  0.00000000000E+00 0.  1.
         14    1    4    4    0    0 -0.31235739222E+02  0.10229270871E+02 -0.37842772447E+02  0.50123695133E+02  0.00000000000E+00 0. -1.
         -5    1    5    5    0  502 -0.53748541103E+02  0.53070695393E+02  0.38946232697E+01  0.75780356759E+02  0.47000000000E+01 0.  1.
         11    1    6    6    0    0  0.13692223018E+02 -0.36198465005E+02  0.35712345900E+02  0.52660967420E+02  0.00000000000E+00 0. -1.
        -12    1    6    6    0    0 -0.20907191040E+02 -0.33889093515E+02 -0.37713934248E+02  0.54844526919E+02  0.00000000000E+00 0.  1.
</event>
<event>
12    1  0.8494789E-002  0.1900338E+03  0.7818608E-02  0.1160596E+00
         21   -1    0    0  503  502  0.00000000000E+00  0.00000000000E+00  0.27046766090E+03  0.27046766090E+03  0.00000000000E+00 0. -1.
         21   -1    0    0  501  503 -0.00000000000E+00 -0.00000000000E+00 -0.27488592654E+03  0.27488592654E+03  0.00000000000E+00 0. -1.
          6    2    1    2  501    0 -0.25515052519E+02 -0.77589005598E+02 -0.20218692973E+03  0.27747502604E+03  0.17158602458E+03 0.  0.
         24    2    3    3    0    0 -0.55256385860E+02 -0.19152306065E+01 -0.15733801605E+03  0.18449878076E+03  0.78915223611E+02 0.  0.
         -6    2    1    2    0  502  0.25515052519E+02  0.77589005598E+02  0.19776866409E+03  0.26787856139E+03  0.16116887871E+03 0.  0.
        -24    2    5    5    0    0 -0.70242109616E+01  0.87844611818E+02  0.77305432897E+02  0.14258905187E+03  0.81175688437E+02 0.  0.
          5    1    3    3  501    0  0.29741333341E+02 -0.75673774991E+02 -0.44848913671E+02  0.92976245288E+02  0.47000000000E+01 0. -1.
        -11    1    4    4    0    0  0.74776014410E+00  0.37603901230E+01 -0.11241311826E+03  0.11247848166E+03  0.00000000000E+00 0.  1.
         12    1    4    4    0    0 -0.56004146004E+02 -0.56756207296E+01 -0.44924897796E+02  0.72020299099E+02  0.00000000000E+00 0. -1.
         -5    1    5    5    0  502  0.32539263480E+02 -0.10255606220E+02  0.12046323119E+03  0.12528950952E+03  0.47000000000E+01 0.  1.
         11    1    6    6    0    0  0.27596985487E+02  0.48935314396E+02  0.70372372577E+02  0.90047373227E+02  0.00000000000E+00 0. -1.
        -12    1    6    6    0    0 -0.34621196449E+02  0.38909297422E+02  0.69330603200E+01  0.52541678645E+02  0.00000000000E+00 0.  1.
</event>
<event>
12    1  0.8494789E-002  0.1747455E+03  0.7818608E-02  0.1173622E+00
         21   -1    0    0  501  502  0.00000000000E+00  0.00000000000E+00  0.21871579126E+03  0.21871579126E+03  0.00000000000E+00 0.  1.
         21   -1    0    0  502  503 -0.00000000000E+00 -0.00000000000E+00 -0.13875225055E+03  0.13875225055E+03  0.00000000000E+00 0.  1.
         -6    2    1    2    0  503 -0.11104677602E+02  0.11853744966E+02  0.56410636548E+02  0.18362503230E+03  0.17398898654E+03 0.  0.
        -24    2    3    3    0    0  0.57725163281E+02 -0.20170969623E+02  0.23887559398E+02  0.10090278688E+03  0.76626982284E+02 0.  0.
          6    2    1    2  501    0  0.11104677602E+02 -0.11853744966E+02  0.23552904159E+02  0.17384300952E+03  0.17147252704E+03 0.  0.
         24    2    5    5    0    0 -0.37654806098E+01 -0.80414370726E+01 -0.55943439167E+02  0.92741752443E+02  0.73433784500E+02 0.  0.
          5    1    5    5  501    0  0.14870158212E+02 -0.38123078937E+01  0.79496343326E+02  0.81101257074E+02  0.47000000000E+01 0. -1.
        -13    1    6    6    0    0 -0.23957579190E+01 -0.39449366267E+02 -0.17891863071E+02  0.43383302306E+02  0.00000000000E+00 0.  1.
         14    1    6    6    0    0 -0.13697226908E+01  0.31407929194E+02 -0.38051576096E+02  0.49358450137E+02  0.00000000000E+00 0. -1.
         -5    1    3    3    0  503 -0.68829840883E+02  0.32024714589E+02  0.32523077150E+02  0.82722245423E+02  0.47000000000E+01 0.  1.
         11    1    4    4    0    0  0.19238278582E+02 -0.47148817149E+02  0.14822386995E+02  0.53036077132E+02  0.00000000000E+00 0. -1.
        -12    1    4    4    0    0  0.38486884699E+02  0.26977847526E+02  0.90651724030E+01  0.47866709744E+02  0.00000000000E+00 0.  1.
</event>
<event>
12    1  0.8494789E-002  0.2043799E+03  0.7818608E-02  0.1146378E+00
         21   -1    0    0  503  502  0.00000000000E+00  0.00000000000E+00  0.13079127042E+03  0.13079127042E+03  0.00000000000E+00 0. -1.
         21   -1    0    0  501  503 -0.00000000000E+00 -0.00000000000E+00 -0.32335217525E+03  0.32335217525E+03  0.00000000000E+00 0.  1.
          6    2    1    2  501    0 -0.54923776212E+02 -0.95940114354E+02 -0.65356425352E+02  0.21457543699E+03  0.17190121899E+03 0.  0.
         24    2    3    3    0    0  0.20971606535E+02 -0.65031246656E+02  0.57506701713E+01  0.10597628295E+03  0.80802419633E+02 0.  0.
         -6    2    1    2    0  502  0.54923776212E+02  0.95940114354E+02 -0.12720447947E+03  0.23956800868E+03  0.17026662752E+03 0.  0.
        -24    2    5    5    0    0  0.69291253342E+02  0.15659969839E+01 -0.77379445876E+02  0.13178339753E+03  0.81089796418E+02 0.  0.
          5    1    3    3  501    0 -0.75895382747E+02 -0.30908867698E+02 -0.71107095523E+02  0.10859915404E+03  0.47000000000E+01 0. -1.
        -11    1    4    4    0    0  0.29741357309E+02 -0.11641759905E+01 -0.20741994070E+02  0.36278560588E+02  0.00000000000E+00 0.  1.
         12    1    4    4    0    0 -0.87697507740E+01 -0.63867070666E+02  0.26492664241E+02  0.69697722364E+02  0.00000000000E+00 0. -1.
         -5    1    5    5    0  502 -0.14367477130E+02  0.94374117370E+02 -0.49825033597E+02  0.10778461115E+03  0.47000000000E+01 0.  1.
         11    1    6    6    0    0 -0.69057765722E+01 -0.93729069721E+00  0.12263512121E+02  0.14105388809E+02  0.00000000000E+00 0. -1.
        -12    1    6    6    0    0  0.76197029914E+02  0.25032876812E+01 -0.89642957998E+02  0.11767800872E+03  0.00000000000E+00 0.  1.
</event>
<event>
12    1  0.8494789E-002  0.2746796E+03  0.7818608E-02  0.1098763E+00
         21   -1    0    0  501  502  0.00000000000E+00  0.00000000000E+00  0.31214647220E+03  0.31214647220E+03  0.00000000000E+00 0. -1.
         21   -1    0    0  502  503 -0.00000000000E+00 -0.00000000000E+00 -0.34812460733E+03  0.34812460733E+03  0.00000000000E+00 0. -1.
         -6    2    1    2    0  503  0.14072945393E+03  0.16056081845E+03 -0.20124787853E+03  0.34051375360E+03  0.17281305551E+03 0.  0.
        -24    2    3    3    0    0  0.17000894199E+03  0.15691122386E+03 -0.18364445496E+03  0.30583554023E+03  0.79283789642E+02 0.  0.
          6    2    1    2  501    0 -0.14072945393E+03 -0.16056081845E+03  0.16526974339E+03  0.31975732593E+03  0.17130704532E+03 0.  0.
         24    2    5    5    0    0 -0.13303004223E+03 -0.11247650201E+03  0.56366540171E+02  0.20036980522E+03  0.81381302239E+02 0.  0.
          5    1    5    5  501    0 -0.76994117070E+01 -0.48084316443E+02  0.10890320322E+03  0.11938752071E+03  0.47000000000E+01 0. -1.
        -13    1    6    6    0    0 -0.80009848980E+02 -0.43412002921E+02 -0.90317976638E+01  0.91475413639E+02  0.00000000000E+00 0.  1.
         14    1    6    6    0    0 -0.53020193246E+02 -0.69064499086E+02  0.65398337835E+02  0.10889439158E+03  0.00000000000E+00 0. -1.
         -5    1    3    3    0  503 -0.29279488057E+02  0.36495945931E+01 -0.17603423565E+02  0.34678213374E+02  0.47000000000E+01 0.  1.
         13    1    4    4    0    0  0.49531592607E+02  0.21825333792E+02 -0.81970486587E+02  0.98228735778E+02  0.00000000000E+00 0. -1.
        -14    1    4    4    0    0  0.12047734938E+03  0.13508589007E+03 -0.10167396837E+03  0.20760680445E+03  0.00000000000E+00 0.  1.
</event>
<event>
12    1  0.8494789E-002  0.1950534E+03  0.7818608E-02  0.1154031E+00
         21   -1    0    0  501  502  0.00000000000E+00  0.00000000000E+00  0.17122582685E+03  0.17122582685E+03  0.00000000000E+00 0.  1.
         21   -1    0    0  502  503 -0.00000000000E+00 -0.00000000000E+00 -0.46537172682E+03  0.46537172682E+03  0.00000000000E+00 0.  1.
         -6    2    1    2    0  503  0.53021319287E+02  0.74617481025E+02 -0.37724433774E+03  0.42458058245E+03  0.17197776562E+03 0.  0.
        -24    2    3    3    0    0  0.15846070040E+02 -0.23757731785E+02 -0.13310904759E+03  0.15871630966E+03  0.81592405573E+02 0.  0.
          6    2    1    2  501    0 -0.53021319287E+02 -0.74617481025E+02  0.83098437769E+02  0.21201697122E+03  0.17224057871E+03 0.  0.
         24    2    5    5    0    0 -0.97699022628E+02 -0.52227901708E+02  0.43510569410E+02  0.14808982707E+03  0.88116822987E+02 0.  0.
          5    1    5    5  501    0  0.44677703341E+02 -0.22389579316E+02  0.39587868359E+02  0.63927144149E+02  0.47000000000E+01 0. -1.
        -13    1    6    6    0    0 -0.58879825293E+02 -0.50208637752E+02 -0.14037580162E+02  0.78643466278E+02  0.00000000000E+00 0.  1.
         14    1    6    6    0    0 -0.38819197335E+02 -0.20192639565E+01  0.57548149572E+02  0.69446360796E+02  0.00000000000E+00 0. -1.
         -5    1    3    3    0  503  0.37175249247E+02  0.98375212810E+02 -0.24413529014E+03  0.26586427279E+03  0.47000000000E+01 0.  1.
         11    1    4    4    0    0 -0.26110208278E+01 -0.18085835470E+02 -0.13766883994E+03  0.13887629159E+03  0.00000000000E+00 0. -1.
        -12    1    4    4    0    0  0.18457090868E+02 -0.56718963152E+01  0.45597923469E+01  0.19840018079E+02  0.00000000000E+00 0.  1.
</event>
<event>
12    1  0.8494789E-002  0.2116385E+03  0.7818608E-02  0.1140361E+00
         21   -1    0    0  501  502  0.00000000000E+00  0.00000000000E+00  0.55682324920E+03  0.55682324920E+03  0.00000000000E+00 0. -1.
         21   -1    0    0  502  503 -0.00000000000E+00 -0.00000000000E+00 -0.35820945702E+03  0.35820945702E+03  0.00000000000E+00 0. -1.
         -6    2    1    2    0  503 -0.95849783563E+02 -0.76735993043E+02 -0.30367525893E+03  0.37014796505E+03  0.17238114603E+03 0.  0.
        -24    2    3    3    0    0 -0.12236307535E+02  0.83159092520E+01 -0.18380967725E+03  0.20098861080E+03  0.79947124108E+02 0.  0.
          6    2    1    2  501    0  0.95849783563E+02  0.76735993043E+02  0.50228905112E+03  0.54488474117E+03  0.17184148698E+03 0.  0.
         24    2    5    5    0    0  0.10740962972E+03  0.16869934258E+02  0.41818232479E+03  0.44089624925E+03  0.87701896198E+02 0.  0.
          5    1    5    5  501    0 -0.11559846159E+02  0.59866058786E+02  0.84106726330E+02  0.10398849192E+03  0.47000000000E+01 0. -1.
        -11    1    6    6    0    0  0.76453620490E+01  0.24534792652E+02  0.27643930218E+02  0.37743800673E+02  0.00000000000E+00 0.  1.
         12    1    6    6    0    0  0.99764267673E+02 -0.76648583942E+01  0.39053839457E+03  0.40315244857E+03  0.00000000000E+00 0. -1.
         -5    1    3    3    0  503 -0.83613476028E+02 -0.85051902295E+02 -0.11986558168E+03  0.16915935425E+03  0.47000000000E+01 0.  1.
         11    1    4    4    0    0 -0.35195288562E+02  0.15625566429E+02 -0.41342784145E+02  0.56498605859E+02  0.00000000000E+00 0. -1.
        -12    1    4    4    0    0  0.22958981026E+02 -0.73096571770E+01 -0.14246689310E+03  0.14449000494E+03  0.00000000000E+00 0.  1.
</event>
<event>
12    1  0.8494789E-002  0.2467493E+03  0.7818608E-02  0.1116247E+00
         21   -1    0    0  503  502  0.00000000000E+00  0.00000000000E+00  0.22347463307E+03  0.22347463307E+03  0.00000000000E+00 0.  1.
         21   -1    0    0  501  503 -0.00000000000E+00 -0.00000000000E+00 -0.28528631988E+03  0.28528631988E+03  0.00000000000E+00 0. -1.
          6    2    1    2  501    0  0.14514734686E+03  0.92890570001E+02 -0.95741588915E+02  0.25968980285E+03  0.16904417045E+03 0.  0.
         24    2    3    3    0    0  0.15777004739E+03  0.80031862722E+02 -0.12057141782E+03  0.22865290022E+03  0.80300654297E+02 0.  0.
         -6    2    1    2    0  502 -0.14514734686E+03 -0.92890570001E+02  0.33929902101E+02  0.24907115010E+03  0.17660348032E+03 0.  0.
        -24    2    5    5    0    0 -0.17134719520E+03 -0.82531196018E+02  0.16687364968E+01  0.20598261928E+03  0.79087262828E+02 0.  0.
          5    1    3    3  501    0 -0.12622700528E+02  0.12858707279E+02  0.24829828906E+02  0.31036902632E+02  0.47000000000E+01 0. -1.
        -11    1    4    4    0    0  0.39504681904E+02 -0.13684469272E+02 -0.14682012484E+02  0.44310789682E+02  0.00000000000E+00 0.  1.
         12    1    4    4    0    0  0.11826536548E+03  0.93716331994E+02 -0.10588940534E+03  0.18434211054E+03  0.00000000000E+00 0. -1.
         -5    1    5    5    0  502  0.26199848345E+02 -0.10359373983E+02  0.32261165604E+02  0.43088530826E+02  0.47000000000E+01 0.  1.
         11    1    6    6    0    0 -0.11594104475E+02 -0.36693398845E+02 -0.87268881679E+01  0.39458679077E+02  0.00000000000E+00 0. -1.
        -12    1    6    6    0    0 -0.15975309073E+03 -0.45837797173E+02  0.10395624665E+02  0.16652394020E+03  0.00000000000E+00 0.  1.
</event>
<event>
12    1  0.8494789E-002  0.1822597E+03  0.7818608E-02  0.1165942E+00
         21   -1    0    0  501  502  0.00000000000E+00  0.00000000000E+00  0.54058698114E+03  0.54058698114E+03  0.00000000000E+00 0.  1.
         21   -1    0    0  502  503 -0.00000000000E+00 -0.00000000000E+00 -0.80935742133E+02  0.80935742133E+02  0.00000000000E+00 0.  1.
         -6    2    1    2    0  503 -0.10165786799E+02  0.59024427801E+02  0.76268927522E+02  0.19757412792E+03  0.17213762059E+03 0.  0.
        -24    2    3    3    0    0  0.51923560638E+02  0.17095128766E+02  0.76019631856E+02  0.12250545716E+03  0.78995588664E+02 0.  0.
          6    2    1    2  501    0  0.10165786799E+02 -0.59024427801E+02  0.38338231148E+03  0.42394859535E+03  0.17077232926E+03 0.  0.
         24    2    5    5    0    0 -0.46610509961E+01 -0.14756117679E+02  0.35902072329E+03  0.37107993375E+03  0.92547118116E+02 0.  0.
          5    1    5    5  501    0  0.14826837796E+02 -0.44268310122E+02  0.24361588190E+02  0.52868661599E+02  0.47000000000E+01 0. -1.
        -13    1    6    6    0    0  0.64863524167E+01 -0.52901827540E+02  0.22904247394E+03  0.23516192505E+03  0.00000000000E+00 0.  1.
         14    1    6    6    0    0 -0.11147403413E+02  0.38145709861E+02  0.12997824936E+03  0.13591800870E+03  0.00000000000E+00 0. -1.
         -5    1    3    3    0  503 -0.62089347437E+02  0.41929299035E+02  0.24929566583E+00  0.75068670769E+02  0.47000000000E+01 0.  1.
         11    1    4    4    0    0 -0.10404754336E+02  0.28181924269E+02  0.11648874796E+02  0.32220739475E+02  0.00000000000E+00 0. -1.
        -12    1    4    4    0    0  0.62328314974E+02 -0.11086795503E+02  0.64370757060E+02  0.90284717680E+02  0.00000000000E+00 0.  1.
</event>
<event>
12    1  0.8494789E-002  0.1986749E+03  0.7818608E-02  0.1151233E+00
         21   -1    0    0  501  502  0.00000000000E+00  0.00000000000E+00  0.31864014640E+03  0.31864014640E+03  0.00000000000E+00 0.  1.
         21   -1    0    0  502  503 -0.00000000000E+00 -0.00000000000E+00 -0.19445528164E+03  0.19445528164E+03  0.00000000000E+00 0.  1.
         -6    2    1    2    0  503  0.65471385885E+00  0.97862529327E+02 -0.93818115288E+02  0.21814283069E+03  0.17090041699E+03 0.  0.
        -24    2    3    3    0    0 -0.46986727110E+02  0.77173739418E+01 -0.59225586356E+02  0.11037182812E+03  0.80043488038E+02 0.  0.
          6    2    1    2  501    0 -0.65471385885E+00 -0.97862529327E+02  0.21800298005E+03  0.29495259736E+03  0.17289948548E+03 0.  0.
         24    2    5    5    0    0  0.11500555993E+02 -0.13540235741E+03  0.18465538077E+03  0.24307638262E+03  0.80761729551E+02 0.  0.
          5    1    5    5  501    0 -0.12155269852E+02  0.37539828083E+02  0.33347599280E+02  0.51876214737E+02  0.47000000000E+01 0. -1.
        -13    1    6    6    0    0 -0.33948257068E+02 -0.49719037741E+02  0.58484333899E+02  0.83933808346E+02  0.00000000000E+00 0.  1.
         14    1    6    6    0    0  0.45448813061E+02 -0.85683319669E+02  0.12617104687E+03  0.15914257428E+03  0.00000000000E+00 0. -1.
         -5    1    3    3    0  503  0.47641440969E+02  0.90145155385E+02 -0.34592528932E+02  0.10777100257E+03  0.47000000000E+01 0.  1.
         11    1    4    4    0    0 -0.26144745838E+02 -0.84510365374E+00 -0.77223646243E+02  0.81533756655E+02  0.00000000000E+00 0. -1.
        -12    1    4    4    0    0 -0.20841981271E+02  0.85624775955E+01  0.17998059887E+02  0.28838071461E+02  0.00000000000E+00 0.  1.
</event>
<event>
12    1  0.8494789E-002  0.2223779E+03  0.7818608E-02  0.1132291E+00
         21   -1    0    0  501  502  0.00000000000E+00  0.00000000000E+00  0.62005437455E+03  0.62005437455E+03  0.00000000000E+00 0. -1.
         21   -1    0    0  502  503 -0.00000000000E+00 -0.00000000000E+00 -0.25470616914E+03  0.25470616914E+03  0.00000000000E+00 0.  1.
         -6    2    1    2    0  503 -0.13895278448E+03 -0.20169903569E+02 -0.18027403926E+03  0.28556144188E+03  0.17126560231E+03 0.  0.
        -24    2    3    3    0    0 -0.62042522797E+02 -0.66581666374E+02 -0.61183106938E+02  0.13631674268E+03  0.80972148472E+02 0.  0.
          6    2    1    2  501    0  0.13895278448E+03  0.20169903569E+02  0.54562224467E+03  0.58919910181E+03  0.17244490822E+03 0.  0.
         24    2    5    5    0    0  0.40670770482E+02  0.38680653456E+02  0.13479895225E+03  0.16635176561E+03  0.79698480981E+02 0.  0.
          5    1    5    5  501    0  0.98282013998E+02 -0.18510749886E+02  0.41082329242E+03  0.42284733620E+03  0.47000000000E+01 0. -1.
        -11    1    6    6    0    0  0.23918265337E+02  0.19075948480E+02  0.15526813185E+01  0.30633087445E+02  0.00000000000E+00 0.  1.
         12    1    6    6    0    0  0.16752505145E+02  0.19604704976E+02  0.13324627093E+03  0.13571867817E+03  0.00000000000E+00 0. -1.
         -5    1    3    3    0  503 -0.76910261683E+02  0.46411762804E+02 -0.11909093232E+03  0.14924469920E+03  0.47000000000E+01 0.  1.
         11    1    4    4    0    0 -0.53791796612E+01  0.18066729141E+02 -0.16625447642E+02  0.25134593392E+02  0.00000000000E+00 0. -1.
        -12    1    4    4    0    0 -0.56663343136E+02 -0.84648395514E+02 -0.44557659296E+02  0.11118214929E+03  0.00000000000E+00 0.  1.
</event>
<event>
12    1  0.8494789E-002  0.2021889E+03  0.7818608E-02  0.1148465E+00
         21   -1    0    0  501  502  0.00000000000E+00  0.00000000000E+00  0.77245068640E+03  0.77245068640E+03  0.00000000000E+00 0.  1.
         21   -1    0    0  502  503 -0.00000000000E+00 -0.00000000000E+00 -0.22563600642E+03  0.22563600642E+03  0.00000000000E+00 0.  1.
         -6    2    1    2    0  503  0.27792087078E+02 -0.95578788194E+02  0.71047783339E+03  0.73795985700E+03  0.17291123139E+03 0.  0.
        -24    2    3    3    0    0  0.71098950327E+02 -0.10635984032E+03  0.48607473534E+03  0.50911371676E+03  0.80997851069E+02 0.  0.
          6    2    1    2  501    0 -0.27792087078E+02  0.95578788194E+02 -0.16366315342E+03  0.26012683582E+03  0.17599044881E+03 0.  0.
         24    2    5    5    0    0  0.27152639134E+02 -0.78288538906E+01 -0.61258671963E+02  0.10449640434E+03  0.79801734725E+02 0.  0.
          5    1    5    5  501    0 -0.54944726212E+02  0.10340764208E+03 -0.10240448145E+03  0.15563043148E+03  0.47000000000E+01 0. -1.
        -11    1    6    6    0    0 -0.15357593287E+02 -0.28470060151E+01 -0.59654294646E+02  0.61665192649E+02  0.00000000000E+00 0.  1.
         12    1    6    6    0    0  0.42510232421E+02 -0.49818478754E+01 -0.16043773174E+01  0.42831211695E+02  0.00000000000E+00 0. -1.
         -5    1    3    3    0  503 -0.43306863248E+02  0.10781052131E+02  0.22440309805E+03  0.22884614024E+03  0.47000000000E+01 0.  1.
         13    1    4    4    0    0  0.57909904824E+02 -0.22526907442E+02  0.14726536859E+03  0.15983775343E+03  0.00000000000E+00 0. -1.
        -14    1    4    4    0    0  0.13189045502E+02 -0.83832932882E+02  0.33880936675E+03  0.34927596332E+03  0.00000000000E+00 0.  1.
</event>
<event>
12    1  0.8494789E-002  0.3726379E+03  0.7818608E-02  0.1053865E+00
         21   -1    0    0  501  502  0.00000000000E+00  0.00000000000E+00  0.74100219441E+03  0.74100219441E+03  0.00000000000E+00 0. -1.
         21   -1    0    0  502  503 -0.00000000000E+00 -0.00000000000E+00 -0.58943472640E+03  0.58943472640E+03  0.00000000000E+00 0. -1.
         -6    2    1    2    0  503 -0.24347701546E+03 -0.22023273154E+03 -0.47430384664E+03  0.60203189869E+03  0.17232166143E+03 0.  0.
        -24    2    3    3    0    0 -0.17502184639E+03 -0.16843557134E+03 -0.42814746934E+03  0.50445343209E+03  0.11027157949E+03 0.  0.
          6    2    1    2  501    0  0.24347701546E+03  0.22023273154E+03  0.62587131465E+03  0.72840502212E+03  0.17628233219E+03 0.  0.
         24    2    5    5    0    0  0.33181617514E+02  0.42305026180E+02  0.18681815605E+03  0.21006904149E+03  0.79606807390E+02 0.  0.
          5    1    5    5  501    0  0.21029539795E+03  0.17792770536E+03  0.43905315861E+03  0.51833598063E+03  0.47000000000E+01 0. -1.
        -11    1    6    6    0    0  0.41662859055E+02  0.44132342550E+02  0.19101959928E+03  0.20042940102E+03  0.00000000000E+00 0.  1.
         12    1    6    6    0    0 -0.84812415408E+01 -0.18273163696E+01 -0.42014432328E+01  0.96396404718E+01  0.00000000000E+00 0. -1.
         -5    1    3    3    0  503 -0.68455169074E+02 -0.51797160194E+02 -0.46156377305E+02  0.97578466595E+02  0.47000000000E+01 0.  1.
         11    1    4    4    0    0 -0.13036354413E+03 -0.16938273204E+03 -0.39394690577E+03  0.44819563599E+03  0.00000000000E+00 0. -1.
        -12    1    4    4    0    0 -0.44658302260E+02  0.94716070232E+00 -0.34200563566E+02  0.56257796103E+02  0.00000000000E+00 0.  1.
</event>
<event>
12    1  0.8494789E-002  0.2105695E+03  0.7818608E-02  0.1141425E+00
         21   -1    0    0  501  502  0.00000000000E+00  0.00000000000E+00  0.53636942312E+03  0.53636942312E+03  0.00000000000E+00 0.  1.
         21   -1    0    0  502  503 -0.00000000000E+00 -0.00000000000E+00 -0.32058854080E+03  0.32058854080E+03  0.00000000000E+00 0.  1.
         -6    2    1    2    0  503 -0.45827321348E+02 -0.10959096090E+03 -0.26160473956E+03  0.33582221893E+03  0.17386546774E+03 0.  0.
        -24    2    3    3    0    0 -0.82455413278E+02 -0.63407582854E+02 -0.10222242627E+03  0.16582417978E+03  0.78922857427E+02 0.  0.
          6    2    1    2  501    0  0.45827321348E+02  0.10959096090E+03  0.47738562188E+03  0.52113574500E+03  0.17197415691E+03 0.  0.
         24    2    5    5    0    0  0.77277721474E+02  0.87007914122E+02  0.22618374901E+03  0.26692403677E+03  0.80914335754E+02 0.  0.
          5    1    5    5  501    0 -0.31450400125E+02  0.22583046778E+02  0.25120187286E+03  0.25421170823E+03  0.47000000000E+01 0. -1.
        -13    1    6    6    0    0  0.34923545715E+02  0.61886088589E+02  0.19759212867E+03  0.20998140707E+03  0.00000000000E+00 0.  1.
         14    1    6    6    0    0  0.42354175758E+02  0.25121825533E+02  0.28591620347E+02  0.56942629693E+02  0.00000000000E+00 0. -1.
         -5    1    3    3    0  503  0.36628091929E+02 -0.46183378046E+02 -0.15938231328E+03  0.16999803915E+03  0.47000000000E+01 0.  1.
         11    1    4    4    0    0 -0.69662148442E+01  0.13271736657E+02 -0.37187959273E+02  0.40095030341E+02  0.00000000000E+00 0. -1.
        -12    1    4    4    0    0 -0.75489198434E+02 -0.76679319511E+02 -0.65034467000E+02  0.12572914944E+03  0.00000000000E+00 0.  1.
</event>
<event>
12    1  0.8494789E-002  0.1807314E+03  0.7818608E-02  0.1169208E+00
         21   -1    0    0  501  502  0.00000000000E+00  0.00000000000E+00  0.65352574921E+02  0.65352574921E+02  0.00000000000E+00 0.  1.
         21   -1    0    0  502  503 -0.00000000000E+00 -0.00000000000E+00 -0.48394521997E+03  0.48394521997E+03  0.00000000000E+00 0.  1.
         -6    2    1    2    0  503  0.41830858239E+02 -0.32238813686E+01 -0.23845936298E+03  0.29412758257E+03  0.16699686501E+03 0.  0.
        -24    2    3    3    0    0  0.32278746027E+02  0.91806516720E+01 -0.42788504138E+02  0.97775118137E+02  0.81258327759E+02 0.  0.
          6    2    1    2  501    0 -0.41830858239E+02  0.32238813686E+01 -0.18013328207E+03  0.25517021232E+03  0.17579426565E+03 0.  0.
         24    2    5    5    0    0  0.35083153773E+02 -0.32302514889E+02 -0.11411445211E+03  0.14765990591E+03  0.80666346686E+02 0.  0.
          5    1    5    5  501    0 -0.76914012012E+02  0.35526396257E+02 -0.66018829958E+02  0.10751030641E+03  0.47000000000E+01 0. -1.
        -13    1    6    6    0    0 -0.18515880268E+02 -0.29758973566E+02 -0.23009290565E+02  0.41926862297E+02  0.00000000000E+00 0.  1.
         14    1    6    6    0    0  0.53599034041E+02 -0.25435413233E+01 -0.91105161544E+02  0.10573304362E+03  0.00000000000E+00 0. -1.
         -5    1    3    3    0  503  0.95521122115E+01 -0.12404533041E+02 -0.19567085885E+03  0.19635246443E+03  0.47000000000E+01 0.  1.
         13    1    4    4    0    0 -0.12948081669E+02 -0.26823771667E+02 -0.18561361128E+02  0.35095465124E+02  0.00000000000E+00 0. -1.
        -14    1    4    4    0    0  0.45226827696E+02  0.36004423339E+02 -0.24227143010E+02  0.62679653013E+02  0.00000000000E+00 0.  1.
</event>
<event>
12    1  0.8494789E-002  0.1740921E+03  0.7818608E-02  0.1174008E+00
         21   -1    0    0  501  502  0.00000000000E+00  0.00000000000E+00  0.27733998446E+03  0.27733998446E+03  0.00000000000E+00 0.  1.
         21   -1    0    0  502  503 -0.00000000000E+00 -0.00000000000E+00 -0.10857479497E+03  0.10857479497E+03  0.00000000000E+00 0. -1.
         -6    2    1    2    0  503 -0.20906943789E+02 -0.48875863081E+01  0.76037953533E+02  0.18866769298E+03  0.17132641127E+03 0.  0.
        -24    2    3    3    0    0  0.49031354950E+02 -0.13181405655E+02  0.66513503278E+02  0.11744299065E+03  0.82407443298E+02 0.  0.
          6    2    1    2  501    0  0.20906943789E+02  0.48875863081E+01  0.92727235957E+02  0.19724708645E+03  0.17276308642E+03 0.  0.
         24    2    5    5    0    0  0.75837123125E+02  0.14912874045E+02  0.34219541917E+02  0.11623430192E+03  0.79785793457E+02 0.  0.
          5    1    5    5  501    0 -0.54930179336E+02 -0.10025287737E+02  0.58507694040E+02  0.81012784534E+02  0.47000000000E+01 0. -1.
        -13    1    6    6    0    0  0.20732049169E+01 -0.18216343131E+01  0.40260615970E+02  0.40355095446E+02  0.00000000000E+00 0.  1.
         14    1    6    6    0    0  0.73763918208E+02  0.16734508358E+02 -0.60410740524E+01  0.75879206474E+02  0.00000000000E+00 0. -1.
         -5    1    3    3    0  503 -0.69938298739E+02  0.82938193467E+01  0.95244502549E+01  0.71224702333E+02  0.47000000000E+01 0.  1.
         13    1    4    4    0    0  0.10988949047E+02  0.34132732201E+02  0.20884142884E+02  0.41496359270E+02  0.00000000000E+00 0. -1.
        -14    1    4    4    0    0  0.38042405903E+02 -0.47314137856E+02  0.45629360394E+02  0.75946631379E+02  0.00000000000E+00 0.  1.
</event>
<event>
12    1  0.8494789E-002  0.1818022E+03  0.7818608E-02  0.1167703E+00
         21   -1    0    0  503  502  0.00000000000E+00  0.00000000000E+00  0.25805429978E+03  0.25805429978E+03  0.00000000000E+00 0. -1.
         21   -1    0    0  501  503 -0.00000000000E+00 -0.00000000000E+00 -0.14829406001E+03  0.14829406001E+03  0.00000000000E+00 0. -1.
          6    2    1    2  501    0 -0.23775173165E+02  0.30796628439E+02 -0.29202008060E+02  0.17751973191E+03  0.17072435901E+03 0.  0.
         24    2    3    3    0    0 -0.27430728130E+02 -0.47138627905E+02 -0.17220063770E+02  0.98444297971E+02  0.80126488256E+02 0.  0.
         -6    2    1    2    0  502  0.23775173165E+02 -0.30796628439E+02  0.13896224783E+03  0.22882862789E+03  0.17759038104E+03 0.  0.
        -24    2    5    5    0    0  0.39615712799E+02 -0.76344968141E+00 -0.15005215031E+01  0.84243725183E+02  0.74328770419E+02 0.  0.
          5    1    3    3  501    0  0.36555549649E+01  0.77935256344E+02 -0.11981944289E+02  0.79075433937E+02  0.47000000000E+01 0. -1.
        -11    1    4    4    0    0 -0.23392349029E+02 -0.76616746965E+01  0.28662643579E+02  0.37781614433E+02  0.00000000000E+00 0.  1.
         12    1    4    4    0    0 -0.40383791007E+01 -0.39476953208E+02 -0.45882707349E+02  0.60662683538E+02  0.00000000000E+00 0. -1.
         -5    1    5    5    0  502 -0.15840539634E+02 -0.30033178757E+02  0.14046276933E+03  0.14458490270E+03  0.47000000000E+01 0.  1.
         13    1    6    6    0    0  0.44569045373E+02  0.12983887449E+02  0.25923476318E+02  0.53169613156E+02  0.00000000000E+00 0. -1.
        -14    1    6    6    0    0 -0.49533325744E+01 -0.13747337131E+02 -0.27423997821E+02  0.31074112027E+02  0.00000000000E+00 0.  1.
</event>
<event>
12    1  0.8494789E-002  0.1966620E+03  0.7818608E-02  0.1152864E+00
         21   -1    0    0  503  502  0.00000000000E+00  0.00000000000E+00  0.65477871340E+02  0.65477871340E+02  0.00000000000E+00 0. -1.
         21   -1    0    0  501  503 -0.00000000000E+00 -0.00000000000E+00 -0.13954713316E+04  0.13954713316E+04  0.00000000000E+00 0. -1.
          6    2    1    2  501    0 -0.44918578166E+02 -0.82436714243E+02 -0.12219780486E+04  0.12377020191E+04  0.17280754104E+03 0.  0.
         24    2    3    3    0    0  0.32380808894E+02  0.13784741826E+02 -0.28800591807E+03  0.29559809993E+03  0.56500371248E+02 0.  0.
         -6    2    1    2    0  502  0.44918578166E+02  0.82436714243E+02 -0.10801541164E+03  0.22324718385E+03  0.17134318027E+03 0.  0.
        -24    2    5    5    0    0  0.60748831984E+02  0.70878510208E+01 -0.10473910770E+02  0.98890911319E+02  0.77000333215E+02 0.  0.
          5    1    3    3  501    0 -0.77299387059E+02 -0.96221456069E+02 -0.93397213056E+03  0.94210391917E+03  0.47000000000E+01 0. -1.
        -13    1    4    4    0    0  0.45646473444E+02  0.11382642690E+02 -0.26314486862E+03  0.26731701587E+03  0.00000000000E+00 0.  1.
         14    1    4    4    0    0 -0.13265664550E+02  0.24020991360E+01 -0.24861049443E+02  0.28281084060E+02  0.00000000000E+00 0. -1.
         -5    1    5    5    0  502 -0.15830253818E+02  0.75348863222E+02 -0.97541500872E+02  0.12435627253E+03  0.47000000000E+01 0.  1.
         13    1    6    6    0    0  0.37224308984E+02  0.41020453677E+02  0.29584051602E+01  0.55471424718E+02  0.00000000000E+00 0. -1.
        -14    1    6    6    0    0  0.23524523000E+02 -0.33932602656E+02 -0.13432315930E+02  0.43419486601E+02  0.00000000000E+00 0.  1.
</event>
<event>
12    1  0.8494789E-002  0.3811522E+03  0.7818608E-02  0.1050626E+00
         21   -1    0    0  503  502  0.00000000000E+00  0.00000000000E+00  0.47273948040E+03  0.47273948040E+03  0.00000000000E+00 0. -1.
         21   -1    0    0  501  503 -0.00000000000E+00 -0.00000000000E+00 -0.55725186945E+03  0.55725186945E+03  0.00000000000E+00 0. -1.
          6    2    1    2  501    0 -0.18904532166E+03  0.28085301591E+03 -0.38782680121E+03  0.54288085708E+03  0.17231786634E+03 0.  0.
         24    2    3    3    0    0 -0.12785947976E+03  0.19384510960E+03 -0.16516511906E+03  0.29607243399E+03  0.80345482353E+02 0.  0.
         -6    2    1    2    0  502  0.18904532166E+03 -0.28085301591E+03  0.30331441216E+03  0.48711049277E+03  0.17510125459E+03 0.  0.
        -24    2    5    5    0    0  0.45776851478E+02 -0.39590544714E+02  0.66570891384E+02  0.11995518615E+03  0.79338715278E+02 0.  0.
          5    1    3    3  501    0 -0.61185841901E+02  0.87007906307E+02 -0.22266168215E+03  0.24680842309E+03  0.47000000000E+01 0. -1.
        -11    1    4    4    0    0  0.80227267885E+01  0.18811375584E+01  0.71277306731E+00  0.82710863302E+01  0.00000000000E+00 0.  1.
         12    1    4    4    0    0 -0.13588220654E+03  0.19196397204E+03 -0.16587789213E+03  0.28780134766E+03  0.00000000000E+00 0. -1.
         -5    1    5    5    0  502  0.14326847018E+03 -0.24126247119E+03  0.23674352077E+03  0.36715530662E+03  0.47000000000E+01 0.  1.
         13    1    6    6    0    0  0.46181380023E+02 -0.53754244590E+02  0.23577334912E+02  0.74686875646E+02  0.00000000000E+00 0. -1.
        -14    1    6    6    0    0 -0.40452854489E+00  0.14163699875E+02  0.42993556472E+02  0.45268310501E+02  0.00000000000E+00 0.  1.
</event>
<event>
12    1  0.8494789E-002  0.1869535E+03  0.7818608E-02  0.1161436E+00
         21   -1    0    0  503  502  0.00000000000E+00  0.00000000000E+00  0.84981576179E+02  0.84981576179E+02  0.00000000000E+00 0.  1.
         21   -1    0    0  501  503 -0.00000000000E+00 -0.00000000000E+00 -0.42789316481E+03  0.42789316481E+03  0.00000000000E+00 0. -1.
          6    2    1    2  501    0 -0.19817927709E+02 -0.66968134323E+02 -0.22514388948E+03  0.29264547001E+03  0.17341891152E+03 0.  0.
         24    2    3    3    0    0 -0.16847718665E+02 -0.66313399107E+02 -0.49223069069E+02  0.11663559564E+03  0.80620339351E+02 0.  0.
         -6    2    1    2    0  502  0.19817927709E+02  0.66968134323E+02 -0.11776769915E+03  0.22022927097E+03  0.17249411456E+03 0.  0.
        -24    2    5    5    0    0 -0.31131198928E+02 -0.18002095918E+02 -0.34037823828E+02  0.90427362079E+02  0.75665760800E+02 0.  0.
          5    1    3    3  501    0 -0.29702090440E+01 -0.65473521539E+00 -0.17592082041E+03  0.17600987437E+03  0.47000000000E+01 0. -1.
        -13    1    4    4    0    0  0.17450007350E+02 -0.76852552252E+01 -0.44658800726E+02  0.48558978435E+02  0.00000000000E+00 0.  1.
         14    1    4    4    0    0 -0.34297726016E+02 -0.58628143882E+02 -0.45642683427E+01  0.68076617208E+02  0.00000000000E+00 0. -1.
         -5    1    5    5    0  502  0.50949126638E+02  0.84970230241E+02 -0.83729875317E+02  0.12980190890E+03  0.47000000000E+01 0.  1.
         13    1    6    6    0    0  0.72282157199E+01  0.24574531028E+02 -0.16603996161E+02  0.30526175101E+02  0.00000000000E+00 0. -1.
        -14    1    6    6    0    0 -0.38359414648E+02 -0.42576626946E+02 -0.17433827667E+02  0.59901186978E+02  0.00000000000E+00 0.  1.
</event>
<event>
12    1  0.8494789E-002  0.2160317E+03  0.7818608E-02  0.1136905E+00
         21   -1    0    0  503  502  0.00000000000E+00  0.00000000000E+00  0.86404785341E+02  0.86404785341E+02  0.00000000000E+00 0.  1.
         21   -1    0    0  501  503 -0.00000000000E+00 -0.00000000000E+00 -0.53997630346E+03  0.53997630346E+03  0.00000000000E+00 0.  1.
          6    2    1    2  501    0 -0.57481795845E+02 -0.11467176453E+03 -0.23301650603E+03  0.31765111245E+03  0.17364264085E+03 0.  0.
         24    2    3    3    0    0  0.94026511030E+01 -0.65790622562E+02 -0.49511160513E+02  0.11625797176E+03  0.81533705403E+02 0.  0.
         -6    2    1    2    0  502  0.57481795845E+02  0.11467176453E+03 -0.22055501209E+03  0.30872997635E+03  0.17382725479E+03 0.  0.
        -24    2    5    5    0    0  0.92311861928E+00 -0.74019324306E+01 -0.67334944845E+02  0.10477078812E+03  0.79920476059E+02 0.  0.
          5    1    3    3  501    0 -0.66884446948E+02 -0.48881141973E+02 -0.18350534552E+03  0.20139314069E+03  0.47000000000E+01 0. -1.
        -11    1    4    4    0    0 -0.25471727236E+02 -0.64771121751E+02 -0.26553280766E+02  0.74492844091E+02  0.00000000000E+00 0.  1.
         12    1    4    4    0    0  0.34874378339E+02 -0.10195008109E+01 -0.22957879747E+02  0.41765127666E+02  0.00000000000E+00 0. -1.
         -5    1    5    5    0  502  0.56558677226E+02  0.12207369697E+03 -0.15322006724E+03  0.20395918824E+03  0.47000000000E+01 0.  1.
         13    1    6    6    0    0  0.21243767319E+02  0.10384965339E+02 -0.73380883140E+02  0.77096687123E+02  0.00000000000E+00 0. -1.
        -14    1    6    6    0    0 -0.20320648700E+02 -0.17786897769E+02  0.60459382951E+01  0.27674100992E+02  0.00000000000E+00 0.  1.
</event>
<event>
12    1  0.8494789E-002  0.1722697E+03  0.7818608E-02  0.1176096E+00
         21   -1    0    0  503  502  0.00000000000E+00  0.00000000000E+00  0.10369115498E+04  0.10369115498E+04  0.00000000000E+00 0. -1.
         21   -1    0    0  501  503 -0.00000000000E+00 -0.00000000000E+00 -0.62910290264E+02  0.62910290264E+02  0.00000000000E+00 0. -1.
          6    2    1    2  501    0 -0.22059486150E+02  0.17618425123E+01  0.77293127765E+02  0.18671596560E+03  0.16851972938E+03 0.  0.
         24    2    3    3    0    0 -0.59682594455E+02 -0.40804076694E+02  0.26993383817E+02  0.11069287701E+03  0.79355437721E+02 0.  0.
         -6    2    1    2    0  502  0.22059486150E+02 -0.17618425123E+01  0.89670813182E+03  0.91310587452E+03  0.17084244024E+03 0.  0.
        -24    2    5    5    0    0 -0.25809411526E+02  0.38313072507E+02  0.31262430070E+03  0.32567635368E+03  0.78721767691E+02 0.  0.
          5    1    3    3  501    0  0.37623108305E+02  0.42565919206E+02  0.50299743947E+02  0.76023088582E+02  0.47000000000E+01 0. -1.
        -11    1    4    4    0    0  0.27991633305E+01  0.10903705026E+02  0.27364140712E+02  0.29589226004E+02  0.00000000000E+00 0.  1.
         12    1    4    4    0    0 -0.62481757785E+02 -0.51707781720E+02 -0.37075689454E+00  0.81103651009E+02  0.00000000000E+00 0. -1.
         -5    1    5    5    0  502  0.47868897676E+02 -0.40074915019E+02  0.58408383112E+03  0.58742952084E+03  0.47000000000E+01 0.  1.
         13    1    6    6    0    0 -0.14273359621E+02  0.49772134649E+02  0.30164472398E+03  0.30605642239E+03  0.00000000000E+00 0. -1.
        -14    1    6    6    0    0 -0.11536051905E+02 -0.11459062142E+02  0.10979576721E+02  0.19619931287E+02  0.00000000000E+00 0.  1.
</event>
<event>
12    1  0.8494789E-002  0.1985625E+03  0.7818608E-02  0.1151233E+00
         21   -1    0    0  503  502  0.00000000000E+00  0.00000000000E+00  0.16427048983E+03  0.16427048983E+03  0.00000000000E+00 0. -1.
         21   -1    0    0  501  503 -0.00000000000E+00 -0.00000000000E+00 -0.30073471482E+03  0.30073471482E+03  0.00000000000E+00 0. -1.
          6    2    1    2  501    0 -0.20431805955E+02 -0.96184220728E+02 -0.17385742187E+03  0.26295242167E+03  0.17102254211E+03 0.  0.
         24    2    3    3    0    0 -0.69017174716E+02 -0.35121814801E+02 -0.13982388014E+03  0.17769089789E+03  0.77630055086E+02 0.  0.
         -6    2    1    2    0  502  0.20431805955E+02  0.96184220728E+02  0.37393196888E+02  0.20205278298E+03  0.17250568954E+03 0.  0.
        -24    2    5    5    0    0  0.90994058464E+01 -0.14171854150E+02 -0.73833933667E+01  0.82328434624E+02  0.80248464243E+02 0.  0.
          5    1    3    3  501    0  0.48585368761E+02 -0.61062405927E+02 -0.34033541726E+02  0.85261523782E+02  0.47000000000E+01 0. -1.
        -13    1    4    4    0    0 -0.80614979885E+01 -0.57210777064E+01  0.95229320187E+01  0.13726059674E+02  0.00000000000E+00 0.  1.
         14    1    4    4    0    0 -0.60955676728E+02 -0.29400737095E+02 -0.14934681216E+03  0.16396483821E+03  0.00000000000E+00 0. -1.
         -5    1    5    5    0  502  0.11332400109E+02  0.11035607488E+03  0.44776590255E+02  0.11972434836E+03  0.47000000000E+01 0.  1.
         13    1    6    6    0    0  0.49805599769E+01  0.32855365973E+02  0.47968481829E+01  0.33575151576E+02  0.00000000000E+00 0. -1.
        -14    1    6    6    0    0  0.41188458694E+01 -0.47027220123E+02 -0.12180241550E+02  0.48753283048E+02  0.00000000000E+00 0.  1.
</event>
<event>
12    1  0.8494789E-002  0.1781190E+03  0.7818608E-02  0.1170561E+00
         21   -1    0    0  501  502  0.00000000000E+00  0.00000000000E+00  0.20108038518E+03  0.20108038518E+03  0.00000000000E+00 0. -1.
         21   -1    0    0  502  503 -0.00000000000E+00 -0.00000000000E+00 -0.32217364548E+03  0.32217364548E+03  0.00000000000E+00 0. -1.
         -6    2    1    2    0  503  0.23795368410E+02 -0.99836063105E+01 -0.24959538744E+03  0.30663372089E+03  0.17623986327E+03 0.  0.
        -24    2    3    3    0    0  0.70116950338E+02  0.28953997906E+02 -0.20342235359E+03  0.23037190195E+03  0.77044393347E+02 0.  0.
          6    2    1    2  501    0 -0.23795368410E+02  0.99836063105E+01  0.12850212713E+03  0.21662030977E+03  0.17246933053E+03 0.  0.
         24    2    5    5    0    0 -0.50223334038E+01 -0.25192449626E+02  0.94582293955E+01  0.90988620525E+02  0.86773196384E+02 0.  0.
          5    1    5    5  501    0 -0.18773035007E+02  0.35176055936E+02  0.11904389773E+03  0.12563168924E+03  0.47000000000E+01 0. -1.
        -13    1    6    6    0    0  0.26063154422E+02  0.56919970452E+01  0.32040277685E+02  0.41692520228E+02  0.00000000000E+00 0.  1.
         14    1    6    6    0    0 -0.31085487826E+02 -0.30884446671E+02 -0.22582048289E+02  0.49296100297E+02  0.00000000000E+00 0. -1.
         -5    1    3    3    0  503 -0.46321581928E+02 -0.38937604216E+02 -0.46173033845E+02  0.76261818946E+02  0.47000000000E+01 0.  1.
         13    1    4    4    0    0  0.32321133711E+02  0.25250452767E+02 -0.25177706081E+02  0.48126478500E+02  0.00000000000E+00 0. -1.
        -14    1    4    4    0    0  0.37795816628E+02  0.37035451391E+01 -0.17824464751E+03  0.18224542345E+03  0.00000000000E+00 0.  1.
</event>
<event>
12    1  0.8494789E-002  0.3770920E+03  0.7818608E-02  0.1052715E+00
         21   -1    0    0  503  502  0.00000000000E+00  0.00000000000E+00  0.20917774883E+03  0.20917774883E+03  0.00000000000E+00 0.  1.
         21   -1    0    0  501  503 -0.00000000000E+00 -0.00000000000E+00 -0.67133120570E+03  0.67133120570E+03  0.00000000000E+00 0. -1.
          6    2    1    2  501    0 -0.10545994243E+02  0.32715728053E+03 -0.27087295204E+03  0.46429573683E+03  0.18723052874E+03 0.  0.
         24    2    3    3    0    0 -0.35088931762E+02  0.79577177031E+02 -0.39995393252E+02  0.12484794912E+03  0.80147480817E+02 0.  0.
         -6    2    1    2    0  502  0.10545994243E+02 -0.32715728053E+03 -0.19128050483E+03  0.41621321770E+03  0.17176177358E+03 0.  0.
        -24    2    5    5    0    0  0.63433887953E+02 -0.27957184814E+03 -0.16389912174E+03  0.33983695950E+03  0.80261824809E+02 0.  0.
          5    1    3    3  501    0  0.24542937519E+02  0.24758010350E+03 -0.23087755878E+03  0.33944778771E+03  0.47000000000E+01 0. -1.
        -11    1    4    4    0    0 -0.37464791371E+02  0.95262600891E+02 -0.33525788504E+02  0.10771514386E+03  0.00000000000E+00 0.  1.
         12    1    4    4    0    0  0.23758596094E+01 -0.15685423861E+02 -0.64696047488E+01  0.17132805263E+02  0.00000000000E+00 0. -1.
         -5    1    5    5    0  502 -0.52887893710E+02 -0.47585432388E+02 -0.27381383092E+02  0.76376258200E+02  0.47000000000E+01 0.  1.
         13    1    6    6    0    0  0.16270315276E+02 -0.39495289098E+02 -0.60872694166E+02  0.74364547435E+02  0.00000000000E+00 0. -1.
        -14    1    6    6    0    0  0.47163572677E+02 -0.24007655904E+03 -0.10302642758E+03  0.26547241207E+03  0.00000000000E+00 0.  1.
</event>
<event>
12    1  0.8494789E-002  0.3109146E+03  0.7818608E-02  0.1079992E+00
         21   -1    0    0  501  502  0.00000000000E+00  0.00000000000E+00  0.25654178201E+04  0.25654178201E+04  0.00000000000E+00 0.  1.
         21   -1    0    0  502  503 -0.00000000000E+00 -0.00000000000E+00 -0.46110655541E+02  0.46110655541E+02  0.00000000000E+00 0.  1.
         -6    2    1    2    0  503 -0.81031809961E+02 -0.24515117296E+03  0.69737942368E+03  0.76326210535E+03  0.17194687859E+03 0.  0.
        -24    2    3    3    0    0  0.14460389523E+02 -0.13299963384E+03  0.43432274664E+03  0.46173659527E+03  0.81648206961E+02 0.  0.
          6    2    1    2  501    0  0.81031809961E+02  0.24515117296E+03  0.18219277409E+04  0.18482663703E+04  0.17321267489E+03 0.  0.
         24    2    5    5    0    0  0.48319117718E+02  0.10130811444E+03  0.12493735370E+04  0.12569954069E+04  0.80654491160E+02 0.  0.
          5    1    5    5  501    0  0.32712692243E+02  0.14384305852E+03  0.57255420398E+03  0.59127096344E+03  0.47000000000E+01 0. -1.
        -11    1    6    6    0    0  0.42280922885E+02  0.16663906783E+02  0.65759784725E+03  0.65916636059E+03  0.00000000000E+00 0.  1.
         12    1    6    6    0    0  0.60381948332E+01  0.84644207659E+02  0.59177568971E+03  0.59782904631E+03  0.00000000000E+00 0. -1.
         -5    1    3    3    0  503 -0.95492199484E+02 -0.11215153913E+03  0.26305667704E+03  0.30152551008E+03  0.47000000000E+01 0.  1.
         13    1    4    4    0    0 -0.15102382129E+02 -0.50912789611E+02  0.27507673499E+03  0.28015603550E+03  0.00000000000E+00 0. -1.
        -14    1    4    4    0    0  0.29562771652E+02 -0.82086844225E+02  0.15924601164E+03  0.18158055977E+03  0.00000000000E+00 0.  1.
</event>
<event>
12    1  0.8494789E-002  0.1914847E+03  0.7818608E-02  0.1157141E+00
         21   -1    0    0  503  502  0.00000000000E+00  0.00000000000E+00  0.75289354738E+03  0.75289354738E+03  0.00000000000E+00 0.  1.
         21   -1    0    0  501  503 -0.00000000000E+00 -0.00000000000E+00 -0.49063023592E+02  0.49063023592E+02  0.00000000000E+00 0.  1.
          6    2    1    2  501    0 -0.77949952702E+02  0.28919866217E+02  0.38695548005E+03  0.43171853952E+03  0.17243491536E+03 0.  0.
         24    2    3    3    0    0 -0.57077501194E+02 -0.47004164079E+02  0.26162400496E+03  0.28363009886E+03  0.80818812327E+02 0.  0.
         -6    2    1    2    0  502  0.77949952702E+02 -0.28919866217E+02  0.31687504374E+03  0.37023803145E+03  0.17249305146E+03 0.  0.
        -24    2    5    5    0    0  0.53196689374E+02 -0.35368010016E+02  0.32682192197E+03  0.34239322960E+03  0.79622679569E+02 0.  0.
          5    1    3    3  501    0 -0.20872451508E+02  0.75924030296E+02  0.12533147510E+03  0.14808844066E+03  0.47000000000E+01 0. -1.
        -11    1    4    4    0    0 -0.11379060078E+00 -0.41814591224E+02  0.17425975171E+03  0.17920640070E+03  0.00000000000E+00 0.  1.
         12    1    4    4    0    0 -0.56963710593E+02 -0.51895728547E+01  0.87364253248E+02  0.10442369816E+03  0.00000000000E+00 0. -1.
         -5    1    5    5    0  502  0.24753263328E+02  0.64481437985E+01 -0.99468782307E+01  0.27844801856E+02  0.47000000000E+01 0.  1.
         11    1    6    6    0    0  0.70309981945E+02 -0.30628129714E+02  0.19766496965E+03  0.21202126337E+03  0.00000000000E+00 0. -1.
        -12    1    6    6    0    0 -0.17113292571E+02 -0.47398803020E+01  0.12915695231E+03  0.13037196623E+03  0.00000000000E+00 0.  1.
</event>
<event>
12    1  0.8494789E-002  0.2467551E+03  0.7818608E-02  0.1116680E+00
         21   -1    0    0  503  502  0.00000000000E+00  0.00000000000E+00  0.20503789729E+03  0.20503789729E+03  0.00000000000E+00 0. -1.
         21   -1    0    0  501  503 -0.00000000000E+00 -0.00000000000E+00 -0.39297142254E+03  0.39297142254E+03  0.00000000000E+00 0.  1.
          6    2    1    2  501    0 -0.32452452249E+01  0.17631226581E+03 -0.25004810396E+03  0.35130062121E+03  0.17260221748E+03 0.  0.
         24    2    3    3    0    0 -0.66063251524E+02  0.14654226754E+03 -0.18433542735E+03  0.25552692660E+03  0.73996426023E+02 0.  0.
         -6    2    1    2    0  502  0.32452452249E+01 -0.17631226581E+03  0.62114578702E+02  0.24670869862E+03  0.16096712210E+03 0.  0.
        -24    2    5    5    0    0  0.94116726846E+01 -0.17009019108E+03  0.44590713811E+01  0.18820240352E+03  0.79881216134E+02 0.  0.
          5    1    3    3  501    0  0.62818006299E+02  0.29769998272E+02 -0.65712676604E+02  0.95773694609E+02  0.47000000000E+01 0. -1.
        -13    1    4    4    0    0 -0.16315632606E+02  0.79150339089E+02 -0.13767969125E+03  0.15964546166E+03  0.00000000000E+00 0.  1.
         14    1    4    4    0    0 -0.49747618918E+02  0.67391928452E+02 -0.46655736098E+02  0.95881464941E+02  0.00000000000E+00 0. -1.
         -5    1    5    5    0  502 -0.61664274597E+01 -0.62220747343E+01  0.57655507321E+02  0.58506295098E+02  0.47000000000E+01 0.  1.
         11    1    6    6    0    0  0.20600436138E+02 -0.70082632689E+02  0.37726440817E+02  0.82214583320E+02  0.00000000000E+00 0. -1.
        -12    1    6    6    0    0 -0.11188763453E+02 -0.10000755839E+03 -0.33267369436E+02  0.10598782020E+03  0.00000000000E+00 0.  1.
</event>
<event>
12    1  0.8494789E-002  0.2290079E+03  0.7818608E-02  0.1129013E+00
         21   -1    0    0  501  502  0.00000000000E+00  0.00000000000E+00  0.48916491544E+03  0.48916491544E+03  0.00000000000E+00 0. -1.
         21   -1    0    0  502  503 -0.00000000000E+00 -0.00000000000E+00 -0.16024974445E+03  0.16024974445E+03  0.00000000000E+00 0.  1.
         -6    2    1    2    0  503 -0.38810491056E+01 -0.13892693172E+03 -0.27544466248E+02  0.23065841903E+03  0.18201333399E+03 0.  0.
        -24    2    3    3    0    0 -0.37908072850E+01 -0.18478914542E+02 -0.68913680368E+02  0.10321731552E+03  0.74490793925E+02 0.  0.
          6    2    1    2  501    0  0.38810491056E+01  0.13892693172E+03  0.35645963723E+03  0.41875624086E+03  0.17022796886E+03 0.  0.
         24    2    5    5    0    0 -0.85870215422E+01  0.12121200694E+03  0.13808159290E+03  0.19925605500E+03  0.76618284971E+02 0.  0.
          5    1    5    5  501    0  0.12468070648E+02  0.17714924783E+02  0.21837804433E+03  0.21950018586E+03  0.47000000000E+01 0. -1.
        -11    1    6    6    0    0  0.29693597490E+02  0.88301677390E+02  0.90711719439E+02  0.13002888912E+03  0.00000000000E+00 0.  1.
         12    1    6    6    0    0 -0.38280619032E+02  0.32910329549E+02  0.47369873462E+02  0.69227165884E+02  0.00000000000E+00 0. -1.
         -5    1    3    3    0  503 -0.90241820511E-01 -0.12044801718E+03  0.41369214120E+02  0.12744110351E+03  0.47000000000E+01 0.  1.
         11    1    4    4    0    0  0.23740611890E+02  0.52690108148E+01  0.10814721603E+01  0.24342323429E+02  0.00000000000E+00 0. -1.
        -12    1    4    4    0    0 -0.27531419175E+02 -0.23747925357E+02 -0.69995152528E+02  0.78874992095E+02  0.00000000000E+00 0.  1.
</event>
<event>
12    1  0.8494789E-002  0.1782995E+03  0.7818608E-02  0.1169642E+00
         21   -1    0    0  503  502  0.00000000000E+00  0.00000000000E+00  0.25272922389E+03  0.25272922389E+03  0.00000000000E+00 0.  1.
         21   -1    0    0  501  503 -0.00000000000E+00 -0.00000000000E+00 -0.29211702022E+03  0.29211702022E+03  0.00000000000E+00 0.  1.
          6    2    1    2  501    0 -0.33589439679E+02 -0.27115090213E+02 -0.22559932720E+03  0.28755134953E+03  0.17299492364E+03 0.  0.
         24    2    3    3    0    0  0.40072740512E+02 -0.49218779347E+02 -0.12041876740E+03  0.15716833674E+03  0.78567765394E+02 0.  0.
         -6    2    1    2    0  502  0.33589439679E+02  0.27115090213E+02  0.18621153086E+03  0.25729489458E+03  0.17222790127E+03 0.  0.
        -24    2    5    5    0    0 -0.27808247831E+02 -0.34470235168E+02  0.10238255307E+03  0.13641555039E+03  0.78520821799E+02 0.  0.
          5    1    3    3  501    0 -0.73662180191E+02  0.22103689134E+02 -0.10518055980E+03  0.13038301279E+03  0.47000000000E+01 0. -1.
        -11    1    4    4    0    0  0.21583114183E+02 -0.40580214193E+02 -0.12752752140E+03  0.13555756459E+03  0.00000000000E+00 0.  1.
         12    1    4    4    0    0  0.18489626329E+02 -0.86385651536E+01  0.71087539997E+01  0.21610772155E+02  0.00000000000E+00 0. -1.
         -5    1    5    5    0  502  0.61397687509E+02  0.61585325380E+02  0.83828977791E+02  0.12087934419E+03  0.47000000000E+01 0.  1.
         11    1    6    6    0    0  0.34946134894E+01 -0.10924779979E+02 -0.11344216810E+02  0.16132402055E+02  0.00000000000E+00 0. -1.
        -12    1    6    6    0    0 -0.31302861320E+02 -0.23545455188E+02  0.11372676988E+03  0.12028314834E+03  0.00000000000E+00 0.  1.
</event>
<event>
12    1  0.8494789E-002  0.2260851E+03  0.7818608E-02  0.1130097E+00
         21   -1    0    0  503  502  0.00000000000E+00  0.00000000000E+00  0.13311324819E+03  0.13311324819E+03  0.00000000000E+00 0.  1.
         21   -1    0    0  501  503 -0.00000000000E+00 -0.00000000000E+00 -0.45838297378E+03  0.45838297378E+03  0.00000000000E+00 0. -1.
          6    2    1    2  501    0 -0.10184032975E+03  0.10630743735E+03 -0.28778361174E+03  0.36596976992E+03  0.17158595896E+03 0.  0.
         24    2    3    3    0    0 -0.11161117290E+03  0.13223906610E+03 -0.21021755042E+03  0.28346823894E+03  0.78858097026E+02 0.  0.
         -6    2    1    2    0  502  0.10184032975E+03 -0.10630743735E+03 -0.37486113851E+02  0.22552645204E+03  0.16668607572E+03 0.  0.
        -24    2    5    5    0    0  0.11454420299E+03 -0.13255987208E+03 -0.37429589874E+02  0.19598543108E+03  0.79478430247E+02 0.  0.
          5    1    3    3  501    0  0.97708431422E+01 -0.25931628755E+02 -0.77566061318E+02  0.82501530979E+02  0.47000000000E+01 0. -1.
        -13    1    4    4    0    0 -0.88597586374E+02  0.61077983188E+02 -0.83023033253E+02  0.13591496015E+03  0.00000000000E+00 0.  1.
         14    1    4    4    0    0 -0.23013586522E+02  0.71161082916E+02 -0.12719451716E+03  0.14755327879E+03  0.00000000000E+00 0. -1.
         -5    1    5    5    0  502 -0.12703873239E+02  0.26252434727E+02 -0.56523977240E-01  0.29541020959E+02  0.47000000000E+01 0.  1.
         13    1    6    6    0    0  0.19354069156E+02 -0.74144841145E+02 -0.35076990846E+02  0.84275932200E+02  0.00000000000E+00 0. -1.
        -14    1    6    6    0    0  0.95190133837E+02 -0.58415030931E+02 -0.23525990277E+01  0.11170949888E+03  0.00000000000E+00 0.  1.
</event>
<event>
12    1  0.8494789E-002  0.1826845E+03  0.7818608E-02  0.1165486E+00
         21   -1    0    0  501  502  0.00000000000E+00  0.00000000000E+00  0.89517613421E+02  0.89517613421E+02  0.00000000000E+00 0.  1.
         21   -1    0    0  502  503 -0.00000000000E+00 -0.00000000000E+00 -0.42657322088E+03  0.42657322088E+03  0.00000000000E+00 0. -1.
         -6    2    1    2    0  503  0.55818075228E+02  0.94461724889E+01 -0.26155028805E+03  0.31841771000E+03  0.17255838770E+03 0.  0.
        -24    2    3    3    0    0 -0.11317144590E+02  0.50807922406E+02 -0.18713862977E+03  0.20989528382E+03  0.79533896395E+02 0.  0.
          6    2    1    2  501    0 -0.55818075228E+02 -0.94461724889E+01 -0.75505319414E+02  0.19767312431E+03  0.17369145954E+03 0.  0.
         24    2    5    5    0    0  0.32155492119E+02  0.20592764902E+02 -0.30305194107E+02  0.94199322601E+02  0.80604404030E+02 0.  0.
          5    1    5    5  501    0 -0.87973567347E+02 -0.30038937391E+02 -0.45200125308E+02  0.10347380170E+03  0.47000000000E+01 0. -1.
        -13    1    6    6    0    0 -0.23830766453E+02  0.23021465765E+02 -0.12177263277E+02  0.35301261403E+02  0.00000000000E+00 0.  1.
         14    1    6    6    0    0  0.55986258572E+02 -0.24287008624E+01 -0.18127930829E+02  0.58898061199E+02  0.00000000000E+00 0. -1.
         -5    1    3    3    0  503  0.67135219818E+02 -0.41361749917E+02 -0.74411658277E+02  0.10852242618E+03  0.47000000000E+01 0.  1.
         11    1    4    4    0    0  0.12468702166E+01  0.45801857759E+00 -0.13932853481E+03  0.13933486670E+03  0.00000000000E+00 0. -1.
        -12    1    4    4    0    0 -0.12564014807E+02  0.50349903829E+02 -0.47810094962E+02  0.70560417118E+02  0.00000000000E+00 0.  1.
</event>
<event>
12    1  0.8494789E-002  0.2034914E+03  0.7818608E-02  0.1147681E+00
         21   -1    0    0  503  502  0.00000000000E+00  0.00000000000E+00  0.66615199216E+03  0.66615199216E+03  0.00000000000E+00 0.  1.
         21   -1    0    0  501  503 -0.00000000000E+00 -0.00000000000E+00 -0.16786061364E+03  0.16786061364E+03  0.00000000000E+00 0.  1.
          6    2    1    2  501    0 -0.98070844958E+02 -0.43806350302E+02 -0.82778191256E+02  0.21968379098E+03  0.17283475378E+03 0.  0.
         24    2    3    3    0    0 -0.39911226589E+02 -0.92348997605E+02 -0.51301674796E+02  0.13751450898E+03  0.78467413471E+02 0.  0.
         -6    2    1    2    0  502  0.98070844958E+02  0.43806350302E+02  0.58106956977E+03  0.61432881482E+03  0.16799154993E+03 0.  0.
        -24    2    5    5    0    0  0.68475929144E+02 -0.91731160358E+01  0.51286455916E+03  0.52291384686E+03  0.75071540968E+02 0.  0.
          5    1    3    3  501    0 -0.58159618369E+02  0.48542647303E+02 -0.31476516460E+02  0.82169282001E+02  0.47000000000E+01 0. -1.
        -11    1    4    4    0    0 -0.61338887908E+02 -0.72314258976E+02 -0.24879827864E+02  0.98034774726E+02  0.00000000000E+00 0.  1.
         12    1    4    4    0    0  0.21427661319E+02 -0.20034738629E+02 -0.26421846932E+02  0.39479734255E+02  0.00000000000E+00 0. -1.
         -5    1    5    5    0  502  0.29594915814E+02  0.52979466338E+02  0.68205010611E+02  0.91414967965E+02  0.47000000000E+01 0.  1.
         13    1    6    6    0    0 -0.13368938960E+02  0.26760218644E+01  0.29149509206E+02  0.32180483354E+02  0.00000000000E+00 0. -1.
        -14    1    6    6    0    0  0.81844868104E+02 -0.11849137900E+02  0.48371504995E+03  0.49073336350E+03  0.00000000000E+00 0.  1.
</event>
<event>
12    1  0.8494789E-002  0.2140471E+03  0.7818608E-02  0.1138549E+00
         21   -1    0    0  503  502  0.00000000000E+00  0.00000000000E+00  0.25592459153E+03  0.25592459153E+03  0.00000000000E+00 0. -1.
         21   -1    0    0  501  503 -0.00000000000E+00 -0.00000000000E+00 -0.25237847784E+03  0.25237847784E+03  0.00000000000E+00 0. -1.
          6    2    1    2  501    0 -0.42487066759E+02 -0.11933166334E+03 -0.13584017508E+03  0.25351271252E+03  0.17254259046E+03 0.  0.
         24    2    3    3    0    0  0.31577192802E+02 -0.97958614022E+02 -0.11941582090E+03  0.17455594465E+03  0.74944181666E+02 0.  0.
         -6    2    1    2    0  502  0.42487066759E+02  0.11933166334E+03  0.13938628877E+03  0.25479035686E+03  0.17159368209E+03 0.  0.
        -24    2    5    5    0    0  0.42030825251E+02  0.12951743563E+03  0.16373934636E+03  0.22797395279E+03  0.81364569694E+02 0.  0.
          5    1    3    3  501    0 -0.74064259561E+02 -0.21373049319E+02 -0.16424354183E+02  0.78956767866E+02  0.47000000000E+01 0. -1.
        -11    1    4    4    0    0  0.16153940685E+02 -0.37050498524E+02 -0.10145309131E+03  0.10920814520E+03  0.00000000000E+00 0.  1.
         12    1    4    4    0    0  0.15423252117E+02 -0.60908115498E+02 -0.17962729589E+02  0.65347799456E+02  0.00000000000E+00 0. -1.
         -5    1    5    5    0  502  0.45624150862E+00 -0.10185772288E+02 -0.24353057585E+02  0.26816404068E+02  0.47000000000E+01 0.  1.
         11    1    6    6    0    0 -0.12585876396E+02  0.78853676935E+02  0.11082943448E+03  0.13659967129E+03  0.00000000000E+00 0. -1.
        -12    1    6    6    0    0  0.54616701646E+02  0.50663758694E+02  0.52909911881E+02  0.91374281496E+02  0.00000000000E+00 0.  1.
</event>
<event>
12    1  0.8494789E-002  0.1828001E+03  0.7818608E-02  0.1165504E+00
         21   -1    0    0  503  502  0.00000000000E+00  0.00000000000E+00  0.33497608557E+02  0.33497608557E+02  0.00000000000E+00 0.  1.
         21   -1    0    0  501  503 -0.00000000000E+00 -0.00000000000E+00 -0.11058252860E+04  0.11058252860E+04  0.00000000000E+00 0.  1.
          6    2    1    2  501    0 -0.49805970666E+02 -0.30784948738E+02 -0.71936979692E+03  0.74183684660E+03  0.17146619044E+03 0.  0.
         24    2    3    3    0    0 -0.68495269288E+02  0.18611282064E+02 -0.28476790088E+03  0.30401248051E+03  0.79327480715E+02 0.  0.
         -6    2    1    2    0  502  0.49805970666E+02  0.30784948738E+02 -0.35295788054E+03  0.39748604798E+03  0.17316912288E+03 0.  0.
        -24    2    5    5    0    0 -0.37312508479E+02  0.38712555832E+02 -0.15767691280E+03  0.18345515599E+03  0.76830333609E+02 0.  0.
          5    1    3    3  501    0  0.18689298622E+02 -0.49396230802E+02 -0.43460189604E+03  0.43782436609E+03  0.47000000000E+01 0. -1.
        -11    1    4    4    0    0 -0.12087805914E+02 -0.10454568984E+02 -0.44324252885E+01  0.16584916593E+02  0.00000000000E+00 0.  1.
         12    1    4    4    0    0 -0.56407463374E+02  0.29065851048E+02 -0.28033547560E+03  0.28742756392E+03  0.00000000000E+00 0. -1.
         -5    1    5    5    0  502  0.87118479145E+02 -0.79276070943E+01 -0.19528096774E+03  0.21403089199E+03  0.47000000000E+01 0.  1.
         13    1    6    6    0    0 -0.30205390757E+02 -0.18652034814E+02 -0.51256150018E+02  0.62349474321E+02  0.00000000000E+00 0. -1.
        -14    1    6    6    0    0 -0.71071177226E+01  0.57364590646E+02 -0.10642076278E+03  0.12110568167E+03  0.00000000000E+00 0.  1.
</event>
<event>
12    1  0.8494789E-002  0.3698654E+03  0.7818608E-02  0.1054757E+00
         21   -1    0    0  503  502  0.00000000000E+00  0.00000000000E+00  0.18587230266E+03  0.18587230266E+03  0.00000000000E+00 0.  1.
         21   -1    0    0  501  503 -0.00000000000E+00 -0.00000000000E+00 -0.77853014540E+03  0.77853014540E+03  0.00000000000E+00 0.  1.
          6    2    1    2  501    0  0.16714007268E+03 -0.28194926383E+03 -0.18322074965E+03  0.41264238665E+03  0.17109267923E+03 0.  0.
         24    2    3    3    0    0  0.16476150222E+03 -0.24434190739E+03 -0.10035976401E+03  0.32149413490E+03  0.80231391743E+02 0.  0.
         -6    2    1    2    0  502 -0.16714007268E+03  0.28194926383E+03 -0.40943709308E+03  0.55176006142E+03  0.17137456320E+03 0.  0.
        -24    2    5    5    0    0 -0.12092842925E+03  0.20100883947E+03 -0.18591702130E+03  0.30954077900E+03  0.78880393702E+02 0.  0.
          5    1    3    3  501    0  0.23785704630E+01 -0.37607356440E+02 -0.82860985639E+02  0.91148251750E+02  0.47000000000E+01 0. -1.
        -13    1    4    4    0    0  0.11261541811E+02 -0.59146764791E+02 -0.43628666815E+02  0.74354708508E+02  0.00000000000E+00 0.  1.
         14    1    4    4    0    0  0.15349996041E+03 -0.18519514260E+03 -0.56731097197E+02  0.24713942639E+03  0.00000000000E+00 0. -1.
         -5    1    5    5    0  502 -0.46211643430E+02  0.80940424362E+02 -0.22352007178E+03  0.24221928241E+03  0.47000000000E+01 0.  1.
         11    1    6    6    0    0 -0.59364299144E+02  0.37803645869E+02 -0.74901695861E+02  0.10277888741E+03  0.00000000000E+00 0. -1.
        -12    1    6    6    0    0 -0.61564130109E+02  0.16320519360E+03 -0.11101532544E+03  0.20676189160E+03  0.00000000000E+00 0.  1.
</event>
<event>
12    1  0.8494789E-002  0.1834970E+03  0.7818608E-02  0.1164591E+00
         21   -1    0    0  503  502  0.00000000000E+00  0.00000000000E+00  0.13980411890E+03  0.13980411890E+03  0.00000000000E+00 0. -1.
         21   -1    0    0  501  503 -0.00000000000E+00 -0.00000000000E+00 -0.27953027734E+03  0.27953027734E+03  0.00000000000E+00 0. -1.
          6    2    1    2  501    0 -0.63691717887E+02  0.23527102127E+02 -0.14867412271E+03  0.23616757994E+03  0.17047278842E+03 0.  0.
         24    2    3    3    0    0 -0.93877429275E+02  0.15943760295E+02 -0.15831986605E+03  0.20324624021E+03  0.84715281697E+02 0.  0.
         -6    2    1    2    0  502  0.63691717887E+02 -0.23527102127E+02  0.89479642703E+01  0.18316681630E+03  0.16988189152E+03 0.  0.
        -24    2    5    5    0    0  0.57446726388E+02  0.43978987895E+02  0.11083406404E+02  0.11517621237E+03  0.88929411613E+02 0.  0.
          5    1    3    3  501    0  0.30185711388E+02  0.75833418312E+01  0.96457433409E+01  0.32921339735E+02  0.47000000000E+01 0. -1.
        -13    1    4    4    0    0 -0.19645014063E+02  0.39005511506E+01  0.73277985362E+01  0.21326919801E+02  0.00000000000E+00 0.  1.
         14    1    4    4    0    0 -0.74232415212E+02  0.12043209145E+02 -0.16564766458E+03  0.18191932040E+03  0.00000000000E+00 0. -1.
         -5    1    5    5    0  502  0.62449914991E+01 -0.67506090021E+02 -0.21354421336E+01  0.67990603923E+02  0.47000000000E+01 0.  1.
         13    1    6    6    0    0 -0.24189787235E+02  0.10307603833E+02  0.38158502711E+01  0.26569780137E+02  0.00000000000E+00 0. -1.
        -14    1    6    6    0    0  0.81636513623E+02  0.33671384061E+02  0.72675561328E+01  0.88606432235E+02  0.00000000000E+00 0.  1.
</event>
<event>
12    1  0.8494789E-002  0.1779934E+03  0.7818608E-02  0.1170441E+00
         21   -1    0    0  501  502  0.00000000000E+00  0.00000000000E+00  0.22249013636E+03  0.22249013636E+03  0.00000000000E+00 0.  1.
         21   -1    0    0  502  503 -0.00000000000E+00 -0.00000000000E+00 -0.14506769306E+03  0.14506769306E+03  0.00000000000E+00 0.  1.
         -6    2    1    2    0  503 -0.31637859459E+02 -0.36049939364E+02  0.72660589805E+02  0.19225298684E+03  0.17140915191E+03 0.  0.
        -24    2    3    3    0    0 -0.88587537705E+02 -0.32273761474E+02  0.47861691426E+02  0.12984625056E+03  0.75365507779E+02 0.  0.
          6    2    1    2  501    0  0.31637859459E+02  0.36049939364E+02  0.47618534942E+01  0.17530484258E+03  0.16854839158E+03 0.  0.
         24    2    5    5    0    0 -0.40862186134E+01  0.72111272795E+02 -0.32164779367E+02  0.11235807350E+03  0.79831264568E+02 0.  0.
          5    1    5    5  501    0  0.35724078073E+02 -0.36061333431E+02  0.36926632861E+02  0.62946769079E+02  0.47000000000E+01 0. -1.
        -11    1    6    6    0    0 -0.35956750663E+02  0.49040877451E+02  0.11237501401E+01  0.60820706949E+02  0.00000000000E+00 0.  1.
         12    1    6    6    0    0  0.31870532049E+02  0.23070395344E+02 -0.33288529507E+02  0.51537366552E+02  0.00000000000E+00 0. -1.
         -5    1    3    3    0  503  0.56949678245E+02 -0.37761778891E+01  0.24798898379E+02  0.62406736275E+02  0.47000000000E+01 0.  1.
         11    1    4    4    0    0 -0.71757588495E+02  0.12437041445E+02  0.31510871117E+02  0.79352167614E+02  0.00000000000E+00 0. -1.
        -12    1    4    4    0    0 -0.16829949210E+02 -0.44710802919E+02  0.16350820309E+02  0.50494082949E+02  0.00000000000E+00 0.  1.
</event>
<event>
12    1  0.8494789E-002  0.2008220E+03  0.7818608E-02  0.1149750E+00
         21   -1    0    0  501  502  0.00000000000E+00  0.00000000000E+00  0.99799505923E+03  0.99799505923E+03  0.00000000000E+00 0. -1.
         21   -1    0    0  502  503 -0.00000000000E+00 -0.00000000000E+00 -0.41744041010E+02  0.41744041010E+02  0.00000000000E+00 0.  1.
         -6    2    1    2    0  503 -0.55579277354E+02  0.80483316788E+02  0.36057493405E+03  0.41112197903E+03  0.17158198690E+03 0.  0.
        -24    2    3    3    0    0 -0.79958242133E+02  0.99486925594E+02  0.34460370427E+03  0.37601298799E+03  0.79643488710E+02 0.  0.
          6    2    1    2  501    0  0.55579277354E+02 -0.80483316788E+02  0.59567608417E+03  0.62861712121E+03  0.17539346472E+03 0.  0.
         24    2    5    5    0    0 -0.10310434122E+02  0.14958402473E+02  0.18686985663E+03  0.20365218438E+03  0.78891127702E+02 0.  0.
          5    1    5    5  501    0  0.65889711476E+02 -0.95441719260E+02  0.40880622755E+03  0.42496493683E+03  0.47000000000E+01 0. -1.
        -13    1    6    6    0    0 -0.95624237259E+01 -0.30881789888E+02  0.52279601176E+02  0.61467728064E+02  0.00000000000E+00 0.  1.
         14    1    6    6    0    0 -0.74801039602E+00  0.45840192361E+02  0.13459025545E+03  0.14218445631E+03  0.00000000000E+00 0. -1.
         -5    1    3    3    0  503  0.24378964778E+02 -0.19003608806E+02  0.15971229780E+02  0.35108991042E+02  0.47000000000E+01 0.  1.
         13    1    4    4    0    0 -0.82236103152E+02  0.58639896197E+02  0.29444305117E+03  0.31128463577E+03  0.00000000000E+00 0. -1.
        -14    1    4    4    0    0  0.22778610195E+01  0.40847029397E+02  0.50160653099E+02  0.64728352217E+02  0.00000000000E+00 0.  1.
</event>
<event>
12    1  0.8494789E-002  0.1989006E+03  0.7818608E-02  0.1150929E+00
         21   -1    0    0  501  502  0.00000000000E+00  0.00000000000E+00  0.13677687346E+03  0.13677687346E+03  0.00000000000E+00 0.  1.
         21   -1    0    0  502  503 -0.00000000000E+00 -0.00000000000E+00 -0.30420553689E+03  0.30420553689E+03  0.00000000000E+00 0.  1.
         -6    2    1    2    0  503  0.35830313798E+01 -0.99697625474E+02 -0.31769631011E+02  0.20022359873E+03  0.17066846632E+03 0.  0.
        -24    2    3    3    0    0  0.12748995113E+02  0.12135461521E+02 -0.34393695980E+02  0.87886472390E+02  0.78938579942E+02 0.  0.
          6    2    1    2  501    0 -0.35830313798E+01  0.99697625474E+02 -0.13565903242E+03  0.24075881162E+03  0.17207259415E+03 0.  0.
         24    2    5    5    0    0  0.21664978354E+02  0.59505461130E+02 -0.15769990510E+03  0.18821585645E+03  0.80905360504E+02 0.  0.
          5    1    5    5  501    0 -0.25248009734E+02  0.40192164345E+02  0.22040872679E+02  0.52542955176E+02  0.47000000000E+01 0. -1.
        -13    1    6    6    0    0  0.26153305984E+02  0.77646306029E+01 -0.60842371767E+01  0.27951795010E+02  0.00000000000E+00 0.  1.
         14    1    6    6    0    0 -0.44883276294E+01  0.51740830527E+02 -0.15161566792E+03  0.16026406143E+03  0.00000000000E+00 0. -1.
         -5    1    3    3    0  503 -0.91659637331E+01 -0.11183308700E+03  0.26240649684E+01  0.11233712634E+03  0.47000000000E+01 0.  1.
         13    1    4    4    0    0  0.25626965365E+02  0.41474045073E+02 -0.22702994877E+02  0.53779770778E+02  0.00000000000E+00 0. -1.
        -14    1    4    4    0    0 -0.12877970252E+02 -0.29338583551E+02 -0.11690701103E+02  0.34106701613E+02  0.00000000000E+00 0.  1.
</event>
<event>
12    1  0.8494789E-002  0.2161126E+03  0.7818608E-02  0.1137172E+00
         21   -1    0    0  501  502  0.00000000000E+00  0.00000000000E+00  0.16260431943E+03  0.16260431943E+03  0.00000000000E+00 0. -1.
         21   -1    0    0  502  503 -0.00000000000E+00 -0.00000000000E+00 -0.32393748339E+03  0.32393748339E+03  0.00000000000E+00 0. -1.
         -6    2    1    2    0  503 -0.71303313906E+02 -0.10604214898E+03 -0.16557864144E+03  0.27225161164E+03  0.17428583881E+03 0.  0.
        -24    2    3    3    0    0 -0.52830937472E+02 -0.14419606010E+03 -0.14269117510E+03  0.22384834997E+03  0.78509239144E+02 0.  0.
          6    2    1    2  501    0  0.71303313906E+02  0.10604214898E+03  0.42454774742E+01  0.21429019117E+03  0.17196849136E+03 0.  0.
         24    2    5    5    0    0  0.62358860778E+02 -0.36319995982E+01  0.10975935802E+02  0.10394613298E+03  0.82355986164E+02 0.  0.
          5    1    5    5  501    0  0.89444531286E+01  0.10967414858E+03 -0.67304583274E+01  0.11034405819E+03  0.47000000000E+01 0. -1.
        -13    1    6    6    0    0  0.23899311080E+02  0.22117120108E+02  0.38242783078E+02  0.50228025339E+02  0.00000000000E+00 0.  1.
         14    1    6    6    0    0  0.38459549698E+02 -0.25749119706E+02 -0.27266847276E+02  0.53718107645E+02  0.00000000000E+00 0. -1.
         -5    1    3    3    0  503 -0.18472376434E+02  0.38153911121E+02 -0.22887466336E+02  0.48403261670E+02  0.47000000000E+01 0.  1.
         11    1    4    4    0    0 -0.62323219077E+02 -0.88793432945E+02 -0.60316661746E+02  0.12412315277E+03  0.00000000000E+00 0. -1.
        -12    1    4    4    0    0  0.94922816055E+01 -0.55402627159E+02 -0.82374513356E+02  0.99725197201E+02  0.00000000000E+00 0.  1.
</event>
<event>
12    1  0.8494789E-002  0.1779530E+03  0.7818608E-02  0.1170078E+00
         21   -1    0    0  503  502  0.00000000000E+00  0.00000000000E+00  0.19548381289E+03  0.19548381289E+03  0.00000000000E+00 0.  1.
         21   -1    0    0  501  503 -0.00000000000E+00 -0.00000000000E+00 -0.19159526779E+03  0.19159526779E+03  0.00000000000E+00 0.  1.
          6    2    1    2  501    0 -0.33351091902E+02 -0.23104020158E+02 -0.75436200039E+02  0.19328188391E+03  0.17326619778E+03 0.  0.
         24    2    3    3    0    0 -0.58584570403E+02 -0.37461043194E+02  0.69712300666E+01  0.10578372916E+03  0.79411067615E+02 0.  0.
         -6    2    1    2    0  502  0.33351091902E+02  0.23104020158E+02  0.79324745141E+02  0.19379719676E+03  0.17210127020E+03 0.  0.
        -24    2    5    5    0    0 -0.17545833817E+02 -0.37538363402E+02  0.70933534733E+02  0.11404446550E+03  0.79104922418E+02 0.  0.
          5    1    3    3  501    0  0.25233478501E+02  0.14357023035E+02 -0.82407430106E+02  0.87498154748E+02  0.47000000000E+01 0. -1.
        -13    1    4    4    0    0 -0.73696052643E+02 -0.10481076020E+02  0.20114354532E+01  0.74464803782E+02  0.00000000000E+00 0.  1.
         14    1    4    4    0    0  0.15111482240E+02 -0.26979967174E+02  0.49597946133E+01  0.31318925378E+02  0.00000000000E+00 0. -1.
         -5    1    5    5    0  502  0.50896925719E+02  0.60642383561E+02  0.83912104082E+01  0.79752731261E+02  0.47000000000E+01 0.  1.
         11    1    6    6    0    0 -0.18930965084E+02 -0.10187905767E+02  0.81802978382E+02  0.84580743288E+02  0.00000000000E+00 0. -1.
        -12    1    6    6    0    0  0.13851312673E+01 -0.27350457635E+02 -0.10869443649E+02  0.29463722215E+02  0.00000000000E+00 0.  1.
</event>
<event>
12    1  0.8494789E-002  0.1783095E+03  0.7818608E-02  0.1169774E+00
         21   -1    0    0  501  502  0.00000000000E+00  0.00000000000E+00  0.43800486277E+03  0.43800486277E+03  0.00000000000E+00 0.  1.
         21   -1    0    0  502  503 -0.00000000000E+00 -0.00000000000E+00 -0.12126692553E+03  0.12126692553E+03  0.00000000000E+00 0.  1.
         -6    2    1    2    0  503 -0.47352916875E+02  0.76984466644E+00 -0.20122693518E+02  0.17812958690E+03  0.17053543778E+03 0.  0.
        -24    2    3    3    0    0  0.27806029049E+01 -0.33379566869E+02  0.37954367788E+02  0.94019021792E+02  0.79228247410E+02 0.  0.
          6    2    1    2  501    0  0.47352916875E+02 -0.76984466644E+00  0.33686063076E+03  0.38114220139E+03  0.17190521147E+03 0.  0.
         24    2    5    5    0    0  0.55707683107E+02  0.11165614356E+02  0.88665439322E+02  0.13247535528E+03  0.80375013073E+02 0.  0.
          5    1    5    5  501    0 -0.83547662317E+01 -0.11935459023E+02  0.24819519143E+03  0.24866684611E+03  0.47000000000E+01 0. -1.
        -13    1    6    6    0    0  0.31781345932E+02  0.46502032405E+01  0.10013018646E+03  0.10515575391E+03  0.00000000000E+00 0.  1.
         14    1    6    6    0    0  0.23926337175E+02  0.65154111157E+01 -0.11464747135E+02  0.27319601379E+02  0.00000000000E+00 0. -1.
         -5    1    3    3    0  503 -0.50133519780E+02  0.34149411535E+02 -0.58077061306E+02  0.84110565113E+02  0.47000000000E+01 0.  1.
         11    1    4    4    0    0 -0.26553259804E+02 -0.42811614658E+02  0.79319801044E+01  0.50998296680E+02  0.00000000000E+00 0. -1.
        -12    1    4    4    0    0  0.29333862709E+02  0.94320477897E+01  0.30022387683E+02  0.43020725112E+02  0.00000000000E+00 0.  1.
</event>
<event>
12    1  0.8494789E-002  0.2658609E+03  0.7818608E-02  0.1103944E+00
         21   -1    0    0  503  502  0.00000000000E+00  0.00000000000E+00  0.37914705513E+03  0.37914705513E+03  0.00000000000E+00 0.  1.
         21   -1    0    0  501  503 -0.00000000000E+00 -0.00000000000E+00 -0.18830988991E+03  0.18830988991E+03  0.00000000000E+00 0.  1.
          6    2    1    2  501    0  0.13516297403E+03  0.14838357291E+03  0.58193250101E+02  0.27034342864E+03  0.17150043963E+03 0.  0.
         24    2    3    3    0    0  0.87866090702E+02  0.13589923967E+03 -0.17779208662E+02  0.17986272219E+03  0.76455512115E+02 0.  0.
         -6    2    1    2    0  502 -0.13516297403E+03 -0.14838357291E+03  0.13264391512E+03  0.29711351640E+03  0.17434253397E+03 0.  0.
        -24    2    5    5    0    0 -0.11107301896E+03 -0.47537223432E+02  0.22748080105E+02  0.14595301663E+03  0.78662600786E+02 0.  0.
          5    1    3    3  501    0  0.47296883330E+02  0.12484333234E+02  0.75972458764E+02  0.90480706450E+02  0.47000000000E+01 0. -1.
        -13    1    4    4    0    0  0.27374114844E+02 -0.95110655960E+00  0.68281471308E+01  0.28228892299E+02  0.00000000000E+00 0.  1.
         14    1    4    4    0    0  0.60491975857E+02  0.13685034623E+03 -0.24607355793E+02  0.15163382989E+03  0.00000000000E+00 0. -1.
         -5    1    5    5    0  502 -0.24089955074E+02 -0.10084634948E+03  0.10989583502E+03  0.15116049977E+03  0.47000000000E+01 0.  1.
         11    1    6    6    0    0 -0.64888474620E+01 -0.34321759593E+02 -0.86037314287E+01  0.35973775413E+02  0.00000000000E+00 0. -1.
        -12    1    6    6    0    0 -0.10458417150E+03 -0.13215463839E+02  0.31351811534E+02  0.10997924122E+03  0.00000000000E+00 0.  1.
</event>
<event>
12    1  0.8494789E-002  0.1748279E+03  0.7818608E-02  0.1173340E+00
         21   -1    0    0  503  502  0.00000000000E+00  0.00000000000E+00  0.16353916125E+03  0.16353916125E+03  0.00000000000E+00 0. -1.
         21   -1    0    0  501  503 -0.00000000000E+00 -0.00000000000E+00 -0.18701404843E+03  0.18701404843E+03  0.00000000000E+00 0. -1.
          6    2    1    2  501    0  0.17466597217E+02  0.11904594552E+02 -0.29716980250E+02  0.17733558466E+03  0.17354540986E+03 0.  0.
         24    2    3    3    0    0  0.54412891059E+02 -0.26099177224E+02  0.22336408669E+02  0.10289795577E+03  0.80294111764E+02 0.  0.
         -6    2    1    2    0  502 -0.17466597217E+02 -0.11904594552E+02  0.62420930637E+01  0.17321762502E+03  0.17180972179E+03 0.  0.
        -24    2    5    5    0    0  0.45748714006E+02  0.18625856559E+02  0.32766104603E+02  0.98025223762E+02  0.78073423884E+02 0.  0.
          5    1    3    3  501    0 -0.36946293842E+02  0.38003771775E+02 -0.52053388918E+02  0.74437628896E+02  0.47000000000E+01 0. -1.
        -13    1    4    4    0    0  0.20028868526E+02  0.28719779017E+02  0.13765985175E+02  0.37622913618E+02  0.00000000000E+00 0.  1.
         14    1    4    4    0    0  0.34384022533E+02 -0.54818956241E+02  0.85704234935E+01  0.65275042151E+02  0.00000000000E+00 0. -1.
         -5    1    5    5    0  502 -0.63215311223E+02 -0.30530451111E+02 -0.26524011539E+02  0.75192401253E+02  0.47000000000E+01 0.  1.
         13    1    6    6    0    0  0.39076035569E+02  0.16848980254E+02 -0.18424358395E+02  0.46371129744E+02  0.00000000000E+00 0. -1.
        -14    1    6    6    0    0  0.66726784371E+01  0.17768763051E+01  0.51190462998E+02  0.51654094018E+02  0.00000000000E+00 0.  1.
</event>
<event>
12    1  0.8494789E-002  0.1971871E+03  0.7818608E-02  0.1152358E+00
         21   -1    0    0  503  502  0.00000000000E+00  0.00000000000E+00  0.43412462127E+03  0.43412462127E+03  0.00000000000E+00 0.  1.
         21   -1    0    0  501  503 -0.00000000000E+00 -0.00000000000E+00 -0.10225468110E+03  0.10225468110E+03  0.00000000000E+00 0.  1.
          6    2    1    2  501    0  0.86085892101E+02 -0.39502070453E+02  0.69338236332E+02  0.20804162346E+03  0.17176242803E+03 0.  0.
         24    2    3    3    0    0  0.52566937628E+02 -0.92436542616E+02  0.55242879869E+02  0.14364948321E+03  0.79218690387E+02 0.  0.
         -6    2    1    2    0  502 -0.86085892101E+02  0.39502070453E+02  0.26253170384E+03  0.32833767891E+03  0.17294953449E+03 0.  0.
        -24    2    5    5    0    0  0.24609820806E+02  0.28590212952E+02  0.99256992078E+02  0.13071852247E+03  0.76238691516E+02 0.  0.
          5    1    3    3  501    0  0.33518954474E+02  0.52934472162E+02  0.14095356463E+02  0.64392140250E+02  0.47000000000E+01 0. -1.
        -11    1    4    4    0    0  0.49786659322E+02 -0.92740882463E+02  0.18588231309E+02  0.10688828313E+03  0.00000000000E+00 0.  1.
         12    1    4    4    0    0  0.27802783051E+01  0.30433984673E+00  0.36654648560E+02  0.36761200080E+02  0.00000000000E+00 0. -1.
         -5    1    5    5    0  502 -0.11069571291E+03  0.10911857501E+02  0.16327471176E+03  0.19761915643E+03  0.47000000000E+01 0.  1.
         11    1    6    6    0    0  0.11557461293E+02 -0.26051980247E+02  0.39394858213E+02  0.48623404241E+02  0.00000000000E+00 0. -1.
        -12    1    6    6    0    0  0.13052359513E+02  0.54642193199E+02  0.59862133865E+02  0.82095118231E+02  0.00000000000E+00 0.  1.
</event>
<event>
12    1  0.8494789E-002  0.1941835E+03  0.7818608E-02  0.1154923E+00
         21   -1    0    0  503  502  0.00000000000E+00  0.00000000000E+00  0.46747272190E+02  0.46747272190E+02  0.00000000000E+00 0. -1.
         21   -1    0    0  501  503 -0.00000000000E+00 -0.00000000000E+00 -0.92742115878E+03  0.92742115878E+03  0.00000000000E+00 0. -1.
          6    2    1    2  501    0  0.87631596208E+02 -0.77770109826E+01 -0.61779949269E+03  0.64735015424E+03  0.17218080747E+03 0.  0.
         24    2    3    3    0    0  0.11797805870E+03 -0.37537215592E+02 -0.52589141615E+03  0.54598072049E+03  0.78773730862E+02 0.  0.
         -6    2    1    2    0  502 -0.87631596208E+02  0.77770109826E+01 -0.26287439390E+03  0.32681827674E+03  0.17311112179E+03 0.  0.
        -24    2    5    5    0    0 -0.58342614507E+02 -0.26663659797E+00 -0.27556489894E+03  0.29356645523E+03  0.82712262363E+02 0.  0.
          5    1    3    3  501    0 -0.30346462495E+02  0.29760204610E+02 -0.91908076539E+02  0.10136943374E+03  0.47000000000E+01 0. -1.
        -11    1    4    4    0    0  0.37452293514E+02 -0.33358820868E+01 -0.32096937114E+03  0.32316426103E+03  0.00000000000E+00 0.  1.
         12    1    4    4    0    0  0.80525765190E+02 -0.34201333505E+02 -0.20492204501E+03  0.22281645946E+03  0.00000000000E+00 0. -1.
         -5    1    5    5    0  502 -0.29288981701E+02  0.80436475805E+01  0.12690505041E+02  0.33251821509E+02  0.47000000000E+01 0.  1.
         13    1    6    6    0    0 -0.47359560253E+01  0.22603484034E+02 -0.17428886542E+02  0.28932902655E+02  0.00000000000E+00 0. -1.
        -14    1    6    6    0    0 -0.53606658482E+02 -0.22870120632E+02 -0.25813601240E+03  0.26463355258E+03  0.00000000000E+00 0.  1.
</event>
<event>
12    1  0.8494789E-002  0.1957627E+03  0.7818608E-02  0.1153472E+00
         21   -1    0    0  503  502  0.00000000000E+00  0.00000000000E+00  0.80716413872E+03  0.80716413872E+03  0.00000000000E+00 0. -1.
         21   -1    0    0  501  503 -0.00000000000E+00 -0.00000000000E+00 -0.67688320949E+02  0.67688320949E+02  0.00000000000E+00 0. -1.
          6    2    1    2  501    0  0.55533576943E+02  0.72822820352E+02  0.12968104572E+03  0.23440519355E+03  0.17245718255E+03 0.  0.
         24    2    3    3    0    0  0.44197173937E+02  0.22538677460E+02 -0.58808806260E+01  0.89297871428E+02  0.74014477766E+02 0.  0.
         -6    2    1    2    0  502 -0.55533576943E+02 -0.72822820352E+02  0.60979477206E+03  0.64044726612E+03  0.17301992753E+03 0.  0.
        -24    2    5    5    0    0 -0.82034992265E+02 -0.60803383315E+02  0.59240505742E+03  0.60622323866E+03  0.78333081453E+02 0.  0.
          5    1    3    3  501    0  0.11336403006E+02  0.50284142891E+02  0.13556192635E+03  0.14510732212E+03  0.47000000000E+01 0. -1.
        -13    1    4    4    0    0  0.11905944199E+02 -0.23500881878E+02 -0.17825159797E+02  0.31808478085E+02  0.00000000000E+00 0.  1.
         14    1    4    4    0    0  0.32291229738E+02  0.46039559338E+02  0.11944279171E+02  0.57489393343E+02  0.00000000000E+00 0. -1.
         -5    1    5    5    0  502  0.26501415323E+02 -0.12019437037E+02  0.17389714633E+02  0.34224027463E+02  0.47000000000E+01 0.  1.
         13    1    6    6    0    0 -0.91003370085E+02 -0.64329740352E+02  0.45381720989E+03  0.46730074776E+03  0.00000000000E+00 0. -1.
        -14    1    6    6    0    0  0.89683778193E+01  0.35263570370E+01  0.13858784753E+03  0.13892249090E+03  0.00000000000E+00 0.  1.
</event>
<event>
12    1  0.8494789E-002  0.2419912E+03  0.7818608E-02  0.1118531E+00
         21   -1    0    0  503  502  0.00000000000E+00  0.00000000000E+00  0.19382617859E+04  0.19382617859E+04  0.00000000000E+00 0. -1.
         21   -1    0    0  501  503 -0.00000000000E+00 -0.00000000000E+00 -0.39338521871E+02  0.39338521871E+02  0.00000000000E+00 0.  1.
          6    2    1    2  501    0  0.91621048308E+02 -0.14212818446E+03  0.47154821692E+03  0.52985749622E+03  0.17261636107E+03 0.  0.
         24    2    3    3    0    0  0.42041591710E+02 -0.73837203902E+02  0.40739037980E+03  0.42374388443E+03  0.79828127418E+02 0.  0.
         -6    2    1    2    0  502 -0.91621048308E+02  0.14212818446E+03  0.14273750471E+04  0.14477428115E+04  0.17310368561E+03 0.  0.
        -24    2    5    5    0    0 -0.67423722617E+02  0.15839438063E+03  0.92005957554E+03  0.93956845426E+03  0.81513922239E+02 0.  0.
          5    1    3    3  501    0  0.49579456598E+02 -0.68290980560E+02  0.64157837116E+02  0.10611361178E+03  0.47000000000E+01 0. -1.
        -13    1    4    4    0    0 -0.66960868215E+01 -0.60833471033E+02  0.16092808246E+03  0.17217257767E+03  0.00000000000E+00 0.  1.
         14    1    4    4    0    0  0.48737678531E+02 -0.13003732869E+02  0.24646229734E+03  0.25157130676E+03  0.00000000000E+00 0. -1.
         -5    1    5    5    0  502 -0.24197325691E+02 -0.16266196170E+02  0.50731547154E+03  0.50817435726E+03  0.47000000000E+01 0.  1.
         13    1    6    6    0    0 -0.66934436720E+02  0.70014090549E+02  0.58914981683E+03  0.59705920842E+03  0.00000000000E+00 0. -1.
        -14    1    6    6    0    0 -0.48928589672E+00  0.88380290083E+02  0.33090975871E+03  0.34250924584E+03  0.00000000000E+00 0.  1.
</event>
<event>
12    1  0.8494789E-002  0.2165005E+03  0.7818608E-02  0.1136864E+00
         21   -1    0    0  503  502  0.00000000000E+00  0.00000000000E+00  0.13007529439E+03  0.13007529439E+03  0.00000000000E+00 0.  1.
         21   -1    0    0  501  503 -0.00000000000E+00 -0.00000000000E+00 -0.71445869426E+03  0.71445869426E+03  0.00000000000E+00 0.  1.
          6    2    1    2  501    0 -0.12709665351E+03 -0.91617133838E+00 -0.59011605246E+03  0.62795762305E+03  0.17303011957E+03 0.  0.
         24    2    3    3    0    0 -0.14483173541E+03  0.39328651956E+02 -0.45555154131E+03  0.48631060900E+03  0.80298363510E+02 0.  0.
         -6    2    1    2    0  502  0.12709665351E+03  0.91617133838E+00  0.57326525832E+01  0.21657636560E+03  0.17526568440E+03 0.  0.
        -24    2    5    5    0    0  0.62436721456E+02 -0.19543998087E+02 -0.60823504517E+02  0.12143784872E+03  0.82263845969E+02 0.  0.
          5    1    3    3  501    0  0.17735081900E+02 -0.40244823295E+02 -0.13456451114E+03  0.14164701405E+03  0.47000000000E+01 0. -1.
        -13    1    4    4    0    0 -0.35019969116E+02  0.35034456226E+02 -0.23172708004E+03  0.23696255186E+03  0.00000000000E+00 0.  1.
         14    1    4    4    0    0 -0.10981176629E+03  0.42941957300E+01 -0.22382446127E+03  0.24934805713E+03  0.00000000000E+00 0. -1.
         -5    1    5    5    0  502  0.64659932050E+02  0.20460169425E+02  0.66556157100E+02  0.95138516877E+02  0.47000000000E+01 0.  1.
         13    1    6    6    0    0 -0.10208484647E+02 -0.25998754750E+02 -0.24798679463E+01  0.28041008405E+02  0.00000000000E+00 0. -1.
        -14    1    6    6    0    0  0.72645206103E+02  0.64547566631E+01 -0.58343636570E+02  0.93396840319E+02  0.00000000000E+00 0.  1.
</event>
<event>
12    1  0.8494789E-002  0.1912272E+03  0.7818608E-02  0.1157372E+00
         21   -1    0    0  501  502  0.00000000000E+00  0.00000000000E+00  0.41296256495E+03  0.41296256495E+03  0.00000000000E+00 0. -1.
         21   -1    0    0  502  503 -0.00000000000E+00 -0.00000000000E+00 -0.90842603242E+02  0.90842603242E+02  0.00000000000E+00 0.  1.
         -6    2    1    2    0  503  0.74150608380E+02  0.36237875653E+02  0.12083655257E+03  0.22620638468E+03  0.17250031790E+03 0.  0.
        -24    2    3    3    0    0  0.81526211042E+02 -0.24724921740E+02  0.11654385479E+03  0.16447001424E+03  0.78804001499E+02 0.  0.
          6    2    1    2  501    0 -0.74150608380E+02 -0.36237875653E+02  0.20128340914E+03  0.27759878351E+03  0.17243716960E+03 0.  0.
         24    2    5    5    0    0 -0.33407678657E+02  0.16519836099E+02  0.19054870272E+03  0.20991801524E+03  0.79798415001E+02 0.  0.
          5    1    5    5  501    0 -0.40742929723E+02 -0.52757711752E+02  0.10734706413E+02  0.67680768269E+02  0.47000000000E+01 0. -1.
        -11    1    6    6    0    0  0.29133795747E+01  0.36399679397E+02  0.41751284681E+02  0.55467055207E+02  0.00000000000E+00 0.  1.
         12    1    6    6    0    0 -0.36321058232E+02 -0.19879843298E+02  0.14879741804E+03  0.15445096004E+03  0.00000000000E+00 0. -1.
         -5    1    3    3    0  503 -0.73756026621E+01  0.60962797393E+02  0.42926977780E+01  0.61736370437E+02  0.47000000000E+01 0.  1.
         11    1    4    4    0    0 -0.13332857505E+02  0.79589650387E+01  0.18986285780E+02  0.24527316638E+02  0.00000000000E+00 0. -1.
        -12    1    4    4    0    0  0.94859068547E+02 -0.32683886779E+02  0.97557569011E+02  0.13994269760E+03  0.00000000000E+00 0.  1.
</event>
<event>
12    1  0.8494789E-002  0.2592937E+03  0.7818608E-02  0.1108921E+00
         21   -1    0    0  503  502  0.00000000000E+00  0.00000000000E+00  0.24342291365E+03  0.24342291365E+03  0.00000000000E+00 0. -1.
         21   -1    0    0  501  503 -0.00000000000E+00 -0.00000000000E+00 -0.27904986388E+03  0.27904986388E+03  0.00000000000E+00 0.  1.
          6    2    1    2  501    0  0.15015687679E+03 -0.10209166455E+03 -0.72620798407E+02  0.26927121333E+03  0.18510378265E+03 0.  0.
         24    2    3    3    0    0  0.15664791304E+02 -0.71000890398E+02  0.84245689538E+01  0.10913002917E+03  0.80943670413E+02 0.  0.
         -6    2    1    2    0  502 -0.15015687679E+03  0.10209166455E+03  0.36993848179E+02  0.25320156420E+03  0.17254765050E+03 0.  0.
        -24    2    5    5    0    0 -0.55066328283E+02  0.11903840218E+03  0.14029985775E+02  0.15380924403E+03  0.79107530261E+02 0.  0.
          5    1    3    3  501    0  0.13449208549E+03 -0.31090774147E+02 -0.81045367361E+02  0.16014118417E+03  0.47000000000E+01 0. -1.
        -11    1    4    4    0    0  0.15559216619E+02  0.15695977135E+02  0.12330937993E+01  0.22135343691E+02  0.00000000000E+00 0.  1.
         12    1    4    4    0    0  0.10557468585E+00 -0.86696867533E+02  0.71914751545E+01  0.86994685476E+02  0.00000000000E+00 0. -1.
         -5    1    5    5    0  502 -0.95090548510E+02 -0.16946737634E+02  0.22963862404E+02  0.99392320170E+02  0.47000000000E+01 0.  1.
         13    1    6    6    0    0 -0.49383436477E+02  0.52730503023E+02  0.39753939563E+02  0.82459720216E+02  0.00000000000E+00 0. -1.
        -14    1    6    6    0    0 -0.56828918057E+01  0.66307899157E+02 -0.25723953788E+02  0.71349523813E+02  0.00000000000E+00 0.  1.
</event>
<event>
12    1  0.8494789E-002  0.1957604E+03  0.7818608E-02  0.1153606E+00
         21   -1    0    0  503  502  0.00000000000E+00  0.00000000000E+00  0.18484494882E+03  0.18484494882E+03  0.00000000000E+00 0. -1.
         21   -1    0    0  501  503 -0.00000000000E+00 -0.00000000000E+00 -0.21505934718E+03  0.21505934718E+03  0.00000000000E+00 0.  1.
          6    2    1    2  501    0  0.45296708513E+02 -0.77647823155E+02 -0.55831250589E+02  0.20356640074E+03  0.17389989858E+03 0.  0.
         24    2    3    3    0    0  0.39844330333E+02 -0.70483050370E+02 -0.10448129003E+03  0.15386752012E+03  0.78761937073E+02 0.  0.
         -6    2    1    2    0  502 -0.45296708513E+02  0.77647823155E+02  0.25616852231E+02  0.19633789526E+03  0.17265969349E+03 0.  0.
        -24    2    5    5    0    0 -0.81177243571E+02  0.78484444416E+01  0.16128776959E+01  0.11413298751E+03  0.79827279231E+02 0.  0.
          5    1    3    3  501    0  0.54523781796E+01 -0.71647727845E+01  0.48650039444E+02  0.49698880619E+02  0.47000000000E+01 0. -1.
        -13    1    4    4    0    0 -0.19742593620E+02 -0.21153828678E+02 -0.54687964293E+02  0.61871058735E+02  0.00000000000E+00 0.  1.
         14    1    4    4    0    0  0.59586923953E+02 -0.49329221692E+02 -0.49793325741E+02  0.91996461385E+02  0.00000000000E+00 0. -1.
         -5    1    5    5    0  502  0.35880535059E+02  0.69799378713E+02  0.24003974535E+02  0.82204907751E+02  0.47000000000E+01 0.  1.
         13    1    6    6    0    0 -0.51233239612E+02  0.16917462972E+02  0.38113503071E+02  0.66058190339E+02  0.00000000000E+00 0. -1.
        -14    1    6    6    0    0 -0.29944003960E+02 -0.90690185304E+01 -0.36500625375E+02  0.48074797171E+02  0.00000000000E+00 0.  1.
</event>
<event>
12    1  0.8494789E-002  0.1837853E+03  0.7818608E-02  0.1164878E+00
         21   -1    0    0  501  502  0.00000000000E+00  0.00000000000E+00  0.40556792260E+02  0.40556792260E+02  0.00000000000E+00 0.  1.
         21   -1    0    0  502  503 -0.00000000000E+00 -0.00000000000E+00 -0.83130722202E+03  0.83130722202E+03  0.00000000000E+00 0.  1.
         -6    2    1    2    0  503 -0.52302866289E+02  0.24593494782E+02 -0.44369299253E+03  0.47914794675E+03  0.17140260630E+03 0.  0.
        -24    2    3    3    0    0  0.32696798496E+02  0.21551830815E+02 -0.28848874129E+03  0.30210375922E+03  0.80668243088E+02 0.  0.
          6    2    1    2  501    0  0.52302866289E+02 -0.24593494782E+02 -0.34705743723E+03  0.39271606753E+03  0.17446092730E+03 0.  0.
         24    2    5    5    0    0  0.67573477531E+02  0.18842797669E+02 -0.32441900382E+03  0.34119430769E+03  0.79023032557E+02 0.  0.
          5    1    5    5  501    0 -0.15270611241E+02 -0.43436292451E+02 -0.22638433414E+02  0.51521759840E+02  0.47000000000E+01 0. -1.
        -11    1    6    6    0    0  0.81624140405E+02  0.13368306178E+02 -0.20862930628E+03  0.22442682403E+03  0.00000000000E+00 0.  1.
         12    1    6    6    0    0 -0.14050662874E+02  0.54744914903E+01 -0.11578969754E+03  0.11676748366E+03  0.00000000000E+00 0. -1.
         -5    1    3    3    0  503 -0.84999664785E+02  0.30416639674E+01 -0.15520425124E+03  0.17704418752E+03  0.47000000000E+01 0.  1.
         11    1    4    4    0    0  0.49749121689E+02 -0.73616815388E+01 -0.11683984215E+03  0.12720345191E+03  0.00000000000E+00 0. -1.
        -12    1    4    4    0    0 -0.17052323193E+02  0.28913512354E+02 -0.17164889914E+03  0.17490030731E+03  0.00000000000E+00 0.  1.
</event>
<event>
12    1  0.8494789E-002  0.2456020E+03  0.7818608E-02  0.1116167E+00
         21   -1    0    0  503  502  0.00000000000E+00  0.00000000000E+00  0.48782581974E+02  0.48782581974E+02  0.00000000000E+00 0. -1.
         21   -1    0    0  501  503 -0.00000000000E+00 -0.00000000000E+00 -0.15163061039E+04  0.15163061039E+04  0.00000000000E+00 0. -1.
          6    2    1    2  501    0 -0.17381632842E+03 -0.20742230275E+02 -0.10704776411E+04  0.10982206624E+04  0.17182516434E+03 0.  0.
         24    2    3    3    0    0 -0.10390382992E+03  0.49639521261E+02 -0.50652590094E+03  0.52559076132E+03  0.80106629646E+02 0.  0.
         -6    2    1    2    0  502  0.17381632842E+03  0.20742230275E+02 -0.39704588078E+03  0.46686802343E+03  0.17227293376E+03 0.  0.
        -24    2    5    5    0    0  0.10215052505E+03  0.61328973540E+02 -0.32204776864E+03  0.35537776409E+03  0.91556633606E+02 0.  0.
          5    1    3    3  501    0 -0.69912498503E+02 -0.70381751537E+02 -0.56395174018E+03  0.57262990112E+03  0.47000000000E+01 0. -1.
        -13    1    4    4    0    0 -0.86959637202E+02  0.25162589363E+02 -0.22550105737E+03  0.24299354164E+03  0.00000000000E+00 0.  1.
         14    1    4    4    0    0 -0.16944192720E+02  0.24476931898E+02 -0.28102484358E+03  0.28259721968E+03  0.00000000000E+00 0. -1.
         -5    1    5    5    0  502  0.71665803375E+02 -0.40586743265E+02 -0.74998112143E+02  0.11149025934E+03  0.47000000000E+01 0.  1.
         13    1    6    6    0    0  0.49448958601E+02 -0.16257184247E+02 -0.76529580325E+02  0.92554158259E+02  0.00000000000E+00 0. -1.
        -14    1    6    6    0    0  0.52701566448E+02  0.77586157786E+02 -0.24551818832E+03  0.26282360583E+03  0.00000000000E+00 0.  1.
</event>
<event>
12    1  0.8494789E-002  0.3253982E+03  0.7818608E-02  0.1073980E+00
         21   -1    0    0  501  502  0.00000000000E+00  0.00000000000E+00  0.83401567078E+03  0.83401567078E+03  0.00000000000E+00 0. -1.
         21   -1    0    0  502  503 -0.00000000000E+00 -0.00000000000E+00 -0.14854391696E+03  0.14854391696E+03  0.00000000000E+00 0.  1.
         -6    2    1    2    0  503 -0.18394292506E+03  0.19554024143E+03  0.14723475343E+03  0.35715832540E+03  0.18388314519E+03 0.  0.
        -24    2    3    3    0    0 -0.14921242411E+02  0.56897033622E+02  0.83100206454E+02  0.12928643509E+03  0.79683260946E+02 0.  0.
          6    2    1    2  501    0  0.18394292506E+03 -0.19554024143E+03  0.53823700038E+03  0.62540126234E+03  0.17133792533E+03 0.  0.
         24    2    5    5    0    0  0.14353105838E+03 -0.66975621396E+02  0.24303991059E+03  0.30086252456E+03  0.79768176410E+02 0.  0.
          5    1    5    5  501    0  0.40411866679E+02 -0.12856462004E+03  0.29519708980E+03  0.32453873778E+03  0.47000000000E+01 0. -1.
        -11    1    6    6    0    0  0.10459076448E+03 -0.81173749658E+02  0.15708613047E+03  0.20543723624E+03  0.00000000000E+00 0.  1.
         12    1    6    6    0    0  0.38940293900E+02  0.14198128263E+02  0.85953780118E+02  0.95425288324E+02  0.00000000000E+00 0. -1.
         -5    1    3    3    0  503 -0.16902168265E+03  0.13864320781E+03  0.64134546980E+02  0.22787189031E+03  0.47000000000E+01 0.  1.
         13    1    4    4    0    0 -0.46410698202E+02  0.43506995422E+02  0.44114331611E+02  0.77413731416E+02  0.00000000000E+00 0. -1.
        -14    1    4    4    0    0  0.31489455791E+02  0.13390038200E+02  0.38985874842E+02  0.51872703672E+02  0.00000000000E+00 0.  1.
</event>
<event>
12    1  0.8494789E-002  0.1771577E+03  0.7818608E-02  0.1171098E+00
         21   -1    0    0  501  502  0.00000000000E+00  0.00000000000E+00  0.40402898555E+02  0.40402898555E+02  0.00000000000E+00 0. -1.
         21   -1    0    0  502  503 -0.00000000000E+00 -0.00000000000E+00 -0.93687805216E+03  0.93687805216E+03  0.00000000000E+00 0. -1.
         -6    2    1    2    0  503 -0.30740459578E+02 -0.14991052004E+02 -0.65801533909E+03  0.68144627177E+03  0.17382499055E+03 0.  0.
        -24    2    3    3    0    0 -0.71463727254E+02  0.25716363177E+02 -0.52589051821E+03  0.53724316337E+03  0.79378736405E+02 0.  0.
          6    2    1    2  501    0  0.30740459578E+02  0.14991052004E+02 -0.23845981452E+03  0.29583467895E+03  0.17171303571E+03 0.  0.
         24    2    5    5    0    0  0.46515808447E+02 -0.36502603381E+02 -0.21579460641E+03  0.23721505906E+03  0.78787763016E+02 0.  0.
          5    1    5    5  501    0 -0.15775348870E+02  0.51493655384E+02 -0.22665208110E+02  0.58619619885E+02  0.47000000000E+01 0. -1.
        -13    1    6    6    0    0  0.15931944566E+02 -0.57457876664E+02 -0.11013089489E+03  0.12523597110E+03  0.00000000000E+00 0.  1.
         14    1    6    6    0    0  0.30583863882E+02  0.20955273284E+02 -0.10566371152E+03  0.11197908796E+03  0.00000000000E+00 0. -1.
         -5    1    3    3    0  503  0.40723267677E+02 -0.40707415181E+02 -0.13212482087E+03  0.14420310840E+03  0.47000000000E+01 0.  1.
         11    1    4    4    0    0 -0.31953317474E+02  0.17556647714E+02 -0.44839624868E+03  0.44987603426E+03  0.00000000000E+00 0. -1.
        -12    1    4    4    0    0 -0.39510409780E+02  0.81597154628E+01 -0.77494269535E+02  0.87367129106E+02  0.00000000000E+00 0.  1.
</event>
<event>
12    1  0.8494789E-002  0.2415643E+03  0.7818608E-02  0.1118962E+00
         21   -1    0    0  501  502  0.00000000000E+00  0.00000000000E+00  0.89454651642E+02  0.89454651642E+02  0.00000000000E+00 0. -1.
         21   -1    0    0  502  503 -0.00000000000E+00 -0.00000000000E+00 -0.80179960186E+03  0.80179960186E+03  0.00000000000E+00 0. -1.
         -6    2    1    2    0  503  0.11678273975E+03  0.12071519904E+03 -0.16235463664E+03  0.29105385357E+03  0.17361725161E+03 0.  0.
        -24    2    3    3    0    0  0.10076450698E+03  0.10770474359E+03 -0.19174083687E+03  0.25483929164E+03  0.80154341007E+02 0.  0.
          6    2    1    2  501    0 -0.11678273975E+03 -0.12071519904E+03 -0.54999031358E+03  0.60020039993E+03  0.17187439445E+03 0.  0.
         24    2    5    5    0    0 -0.31330049947E+02 -0.12808065608E+03 -0.36825829830E+03  0.39919038146E+03  0.79702947797E+02 0.  0.
          5    1    5    5  501    0 -0.85452689804E+02  0.73654570407E+01 -0.18173201527E+03  0.20101001848E+03  0.47000000000E+01 0. -1.
        -13    1    6    6    0    0  0.20619744384E+02 -0.35181011759E+02 -0.16242129590E+03  0.16746209962E+03  0.00000000000E+00 0.  1.
         14    1    6    6    0    0 -0.51949794331E+02 -0.92899644318E+02 -0.20583700241E+03  0.23172828184E+03  0.00000000000E+00 0. -1.
         -5    1    3    3    0  503  0.16018232766E+02  0.13010455447E+02  0.29386200227E+02  0.36214561928E+02  0.47000000000E+01 0.  1.
         11    1    4    4    0    0  0.36037651333E+01 -0.12491664925E+02 -0.11027534496E+02  0.17048030173E+02  0.00000000000E+00 0. -1.
        -12    1    4    4    0    0  0.97160741851E+02  0.12019640851E+03 -0.18071330237E+03  0.23779126147E+03  0.00000000000E+00 0.  1.
</event>
<event>
12    1  0.8494789E-002  0.1960822E+03  0.7818608E-02  0.1153404E+00
         21   -1    0    0  501  502  0.00000000000E+00  0.00000000000E+00  0.38006618136E+03  0.38006618136E+03  0.00000000000E+00 0. -1.
         21   -1    0    0  502  503 -0.00000000000E+00 -0.00000000000E+00 -0.11075206484E+03  0.11075206484E+03  0.00000000000E+00 0. -1.
         -6    2    1    2    0  503  0.91791379318E+02  0.17268902656E+02  0.60123580172E+02  0.20509283012E+03  0.17240751653E+03 0.  0.
        -24    2    3    3    0    0  0.44666551305E+02 -0.32691368918E+00  0.10359030362E+03  0.13844593810E+03  0.80256582880E+02 0.  0.
          6    2    1    2  501    0 -0.91791379318E+02 -0.17268902656E+02  0.20919053635E+03  0.28572541609E+03  0.17074677328E+03 0.  0.
         24    2    5    5    0    0 -0.17472502616E+01 -0.50631782987E+02  0.13073218000E+03  0.16163339119E+03  0.80422757530E+02 0.  0.
          5    1    5    5  501    0 -0.90044129056E+02  0.33362880331E+02  0.78458356346E+02  0.12409202489E+03  0.47000000000E+01 0. -1.
        -13    1    6    6    0    0  0.26889222915E+02  0.32596227043E+01  0.15419605654E+02  0.31167606383E+02  0.00000000000E+00 0.  1.
         14    1    6    6    0    0 -0.28636473177E+02 -0.53891405691E+02  0.11531257435E+03  0.13046578481E+03  0.00000000000E+00 0. -1.
         -5    1    3    3    0  503  0.47124828013E+02  0.17595816345E+02 -0.43466723445E+02  0.66646892014E+02  0.47000000000E+01 0.  1.
         11    1    4    4    0    0  0.58208981704E+02 -0.51629014341E+01  0.34471403188E+02  0.67847024548E+02  0.00000000000E+00 0. -1.
        -12    1    4    4    0    0 -0.13542430399E+02  0.48359877449E+01  0.69118900430E+02  0.70598913555E+02  0.00000000000E+00 0.  1.
</event>
<event>
12    1  0.8494789E-002  0.1742290E+03  0.7818608E-02  0.1173656E+00
         21   -1    0    0  501  502  0.00000000000E+00  0.00000000000E+00  0.22789161981E+03  0.22789161981E+03  0.00000000000E+00 0.  1.
         21   -1    0    0  502  503 -0.00000000000E+00 -0.00000000000E+00 -0.21928752224E+03  0.21928752224E+03  0.00000000000E+00 0.  1.
         -6    2    1    2    0  503 -0.25499021206E+02 -0.26187929801E+01 -0.13615585672E+03  0.22065942067E+03  0.17174138830E+03 0.  0.
        -24    2    3    3    0    0  0.37793032796E+02  0.39562596734E+02 -0.89161058719E+02  0.13112867301E+03  0.79066567558E+02 0.  0.
          6    2    1    2  501    0  0.25499021206E+02  0.26187929801E+01  0.14475995430E+03  0.22651972138E+03  0.17233305442E+03 0.  0.
         24    2    5    5    0    0  0.67015399303E+02 -0.39617763425E+02  0.97940689345E+02  0.15087800063E+03  0.84327703171E+02 0.  0.
          5    1    5    5  501    0 -0.41516378097E+02  0.42236556405E+02  0.46819264952E+02  0.75641720749E+02  0.47000000000E+01 0. -1.
        -13    1    6    6    0    0  0.24735463560E+02 -0.59571212979E+02  0.74614473136E+02  0.98630077434E+02  0.00000000000E+00 0.  1.
         14    1    6    6    0    0  0.42279935743E+02  0.19953449554E+02  0.23326216208E+02  0.52247923195E+02  0.00000000000E+00 0. -1.
         -5    1    3    3    0  503 -0.63292054002E+02 -0.42181389714E+02 -0.46994798000E+02  0.89530747663E+02  0.47000000000E+01 0.  1.
         11    1    4    4    0    0  0.15385768570E+02  0.62314670881E+02 -0.61115859165E+02  0.88628371998E+02  0.00000000000E+00 0. -1.
        -12    1    4    4    0    0  0.22407264226E+02 -0.22752074148E+02 -0.28045199553E+02  0.42500301012E+02  0.00000000000E+00 0.  1.
</event>
<event>
12    1  0.8494789E-002  0.1819982E+03  0.7818608E-02  0.1165971E+00
         21   -1    0    0  503  502  0.00000000000E+00  0.00000000000E+00  0.25616247646E+03  0.25616247646E+03  0.00000000000E+00 0.  1.
         21   -1    0    0  501  503 -0.00000000000E+00 -0.00000000000E+00 -0.21685345403E+03  0.21685345403E+03  0.00000000000E+00 0.  1.
          6    2    1    2  501    0  0.55247985155E+02  0.37627500823E+01 -0.13083090416E+03  0.22414299703E+03  0.17336914224E+03 0.  0.
         24    2    3    3    0    0  0.75119156224E+02  0.51533922558E+02 -0.12295055783E+03  0.17159646320E+03  0.77652261429E+02 0.  0.
         -6    2    1    2    0  502 -0.55247985155E+02 -0.37627500823E+01  0.17013992659E+03  0.24887293346E+03  0.17298452023E+03 0.  0.
        -24    2    5    5    0    0  0.85310141381E+01  0.41128654268E+02  0.45822968437E+02  0.10204039273E+03  0.80920658101E+02 0.  0.
          5    1    3    3  501    0 -0.19871171070E+02 -0.47771172475E+02 -0.78803463273E+01  0.52546533830E+02  0.47000000000E+01 0. -1.
        -11    1    4    4    0    0  0.36687811026E+02  0.29109308172E+02 -0.69387473872E+01  0.47344413772E+02  0.00000000000E+00 0.  1.
         12    1    4    4    0    0  0.38431345198E+02  0.22424614386E+02 -0.11601181044E+03  0.12425204942E+03  0.00000000000E+00 0. -1.
         -5    1    5    5    0  502 -0.63778999293E+02 -0.44891404351E+02  0.12431695815E+03  0.14683254074E+03  0.47000000000E+01 0.  1.
         11    1    6    6    0    0 -0.34351924936E+01  0.39632154498E+02  0.66855615093E+02  0.77795767797E+02  0.00000000000E+00 0. -1.
        -12    1    6    6    0    0  0.11966206632E+02  0.14964997703E+01 -0.21032646656E+02  0.24244624931E+02  0.00000000000E+00 0.  1.
</event>
<event>
12    1  0.8494789E-002  0.2037521E+03  0.7818608E-02  0.1147016E+00
         21   -1    0    0  501  502  0.00000000000E+00  0.00000000000E+00  0.53496266216E+02  0.53496266216E+02  0.00000000000E+00 0. -1.
         21   -1    0    0  502  503 -0.00000000000E+00 -0.00000000000E+00 -0.87295668212E+03  0.87295668212E+03  0.00000000000E+00 0. -1.
         -6    2    1    2    0  503 -0.38627947401E+02 -0.10157143066E+03 -0.56814801349E+03  0.60292115147E+03  0.17003786579E+03 0.  0.
        -24    2    3    3    0    0 -0.78402978377E+02 -0.34016451121E+02 -0.40942341359E+03  0.42582988414E+03  0.79996329063E+02 0.  0.
          6    2    1    2  501    0  0.38627947401E+02  0.10157143066E+03 -0.25131240241E+03  0.32353179687E+03  0.17235436210E+03 0.  0.
         24    2    5    5    0    0 -0.40053560987E+02  0.86049080352E+02 -0.14306784216E+03  0.18873306563E+03  0.78377487988E+02 0.  0.
          5    1    5    5  501    0  0.78681508388E+02  0.15522350305E+02 -0.10824456025E+03  0.13479873124E+03  0.47000000000E+01 0. -1.
        -11    1    6    6    0    0  0.37465419669E+01  0.63723405334E+02 -0.11652432290E+03  0.13286318825E+03  0.00000000000E+00 0.  1.
         12    1    6    6    0    0 -0.43800102954E+02  0.22325675018E+02 -0.26543519265E+02  0.55869877382E+02  0.00000000000E+00 0. -1.
         -5    1    3    3    0  503  0.39775030976E+02 -0.67554979536E+02 -0.15872459990E+03  0.17709126733E+03  0.47000000000E+01 0.  1.
         13    1    4    4    0    0 -0.37675974009E+02 -0.52626195394E+02 -0.31152226368E+03  0.31817466308E+03  0.00000000000E+00 0. -1.
        -14    1    4    4    0    0 -0.40727004369E+02  0.18609744273E+02 -0.97901149911E+02  0.10765522106E+03  0.00000000000E+00 0.  1.
</event>
<event>
12    1  0.8494789E-002  0.2041921E+03  0.7818608E-02  0.1146329E+00
         21   -1    0    0  503  502  0.00000000000E+00  0.00000000000E+00  0.50423559792E+02  0.50423559792E+02  0.00000000000E+00 0. -1.
         21   -1    0    0  501  503 -0.00000000000E+00 -0.00000000000E+00 -0.12096527307E+04  0.12096527307E+04  0.00000000000E+00 0.  1.
          6    2    1    2  501    0  0.71013406089E+02  0.83913501260E+02 -0.93511754600E+03  0.95715162177E+03  0.17207563072E+03 0.  0.
         24    2    3    3    0    0 -0.15674670322E+02  0.82408080192E+02 -0.58589560860E+03  0.59729728951E+03  0.80334307192E+02 0.  0.
         -6    2    1    2    0  502 -0.71013406089E+02 -0.83913501260E+02 -0.22411162489E+03  0.30292466870E+03  0.17161863232E+03 0.  0.
        -24    2    5    5    0    0 -0.72409438300E+02 -0.16555019475E+01 -0.69480890384E+02  0.12770742808E+03  0.78966610773E+02 0.  0.
          5    1    3    3  501    0  0.86688076411E+02  0.15054210677E+01 -0.34922193740E+03  0.35985433226E+03  0.47000000000E+01 0. -1.
        -11    1    4    4    0    0  0.14476497131E+02  0.83790951241E+02 -0.46347674104E+03  0.47121245948E+03  0.00000000000E+00 0.  1.
         12    1    4    4    0    0 -0.30151167453E+02 -0.13828710485E+01 -0.12241886756E+03  0.12608483004E+03  0.00000000000E+00 0. -1.
         -5    1    5    5    0  502  0.13960322109E+01 -0.82257999312E+02 -0.15463073451E+03  0.17521724062E+03  0.47000000000E+01 0.  1.
         11    1    6    6    0    0 -0.19127997377E+02  0.35673173788E+02 -0.37651547006E+02  0.55281955498E+02  0.00000000000E+00 0. -1.
        -12    1    6    6    0    0 -0.53281440923E+02 -0.37328675735E+02 -0.31829343378E+02  0.72425472583E+02  0.00000000000E+00 0.  1.
</event>
<event>
12    1  0.8494789E-002  0.1883866E+03  0.7818608E-02  0.1160442E+00
         21   -1    0    0  503  502  0.00000000000E+00  0.00000000000E+00  0.35039832514E+03  0.35039832514E+03  0.00000000000E+00 0. -1.
         21   -1    0    0  501  503 -0.00000000000E+00 -0.00000000000E+00 -0.15277905217E+03  0.15277905217E+03  0.00000000000E+00 0. -1.
          6    2    1    2  501    0 -0.68006044358E+02 -0.24128815255E+02 -0.48567386976E+02  0.19454641064E+03  0.17401865710E+03 0.  0.
         24    2    3    3    0    0 -0.35437384714E+02  0.26542789989E+01  0.40338578341E+02  0.96035434612E+02  0.79578579820E+02 0.  0.
         -6    2    1    2    0  502  0.68006044358E+02  0.24128815255E+02  0.24618665995E+03  0.30863096667E+03  0.17157558176E+03 0.  0.
        -24    2    5    5    0    0 -0.43677218319E-01 -0.12270206005E+02  0.20764118275E+03  0.22223943255E+03  0.78262026187E+02 0.  0.
          5    1    3    3  501    0 -0.32568659644E+02 -0.26783094254E+02 -0.88905965316E+02  0.98510976026E+02  0.47000000000E+01 0. -1.
        -11    1    4    4    0    0 -0.51914847738E+02 -0.10169028450E+02  0.26717927064E+01  0.52968849634E+02  0.00000000000E+00 0.  1.
         12    1    4    4    0    0  0.16477463024E+02  0.12823307449E+02  0.37666785634E+02  0.43066584978E+02  0.00000000000E+00 0. -1.
         -5    1    5    5    0  502  0.68049721576E+02  0.36399021260E+02  0.38545477200E+02  0.86391534121E+02  0.47000000000E+01 0.  1.
         11    1    6    6    0    0  0.20005097019E+02  0.38533637973E+01  0.95775675969E+01  0.22511821791E+02  0.00000000000E+00 0. -1.
        -12    1    6    6    0    0 -0.20048774237E+02 -0.16123569802E+02  0.19806361516E+03  0.19972761076E+03  0.00000000000E+00 0.  1.
</event>
<event>
12    1  0.8494789E-002  0.1955882E+03  0.7818608E-02  0.1153544E+00
         21   -1    0    0  501  502  0.00000000000E+00  0.00000000000E+00  0.70655330876E+03  0.70655330876E+03  0.00000000000E+00 0. -1.
         21   -1    0    0  502  503 -0.00000000000E+00 -0.00000000000E+00 -0.72162400008E+02  0.72162400008E+02  0.00000000000E+00 0.  1.
         -6    2    1    2    0  503 -0.90624216236E+02  0.16324570184E+02  0.12251529413E+03  0.23079158644E+03  0.17255584290E+03 0.  0.
        -24    2    3    3    0    0 -0.89245349465E+02  0.57669966308E+02  0.37358142960E+02  0.13600143163E+03  0.76224675435E+02 0.  0.
          6    2    1    2  501    0  0.90624216236E+02 -0.16324570184E+02  0.51187561462E+03  0.54792412232E+03  0.17240927707E+03 0.  0.
         24    2    5    5    0    0  0.36976973030E+02 -0.44263295554E+02  0.12455011014E+03  0.15587599326E+03  0.73878680766E+02 0.  0.
          5    1    5    5  501    0  0.53647243206E+02  0.27938725371E+02  0.38732550448E+03  0.39204812906E+03  0.47000000000E+01 0. -1.
        -11    1    6    6    0    0  0.39630659934E+02  0.41168964840E+01  0.82916931638E+02  0.91993236684E+02  0.00000000000E+00 0.  1.
         12    1    6    6    0    0 -0.26536869033E+01 -0.48380192038E+02  0.41633178505E+02  0.63882756580E+02  0.00000000000E+00 0. -1.
         -5    1    3    3    0  503 -0.13788667711E+01 -0.41345396124E+02  0.85157151169E+02  0.94790154813E+02  0.47000000000E+01 0.  1.
         13    1    4    4    0    0 -0.70449527604E+02  0.49729049351E+02  0.60355993602E+02  0.10525663995E+03  0.00000000000E+00 0. -1.
        -14    1    4    4    0    0 -0.18795821861E+02  0.79409169572E+01 -0.22997850643E+02  0.30744791685E+02  0.00000000000E+00 0.  1.
</event>
<event>
12    1  0.8494789E-002  0.2573154E+03  0.7818608E-02  0.1108798E+00
         21   -1    0    0  503  502  0.00000000000E+00  0.00000000000E+00  0.33310714695E+03  0.33310714695E+03  0.00000000000E+00 0. -1.
         21   -1    0    0  501  503 -0.00000000000E+00 -0.00000000000E+00 -0.56673042083E+03  0.56673042083E+03  0.00000000000E+00 0. -1.
          6    2    1    2  501    0 -0.18788448731E+03 -0.28826461425E+02 -0.47943755501E+03  0.54412461184E+03  0.17343494057E+03 0.  0.
         24    2    3    3    0    0 -0.49813390346E+02  0.28962812448E+02 -0.26594558532E+03  0.28334857937E+03  0.78988256830E+02 0.  0.
         -6    2    1    2    0  502  0.18788448731E+03  0.28826461425E+02  0.24581428112E+03  0.35571295594E+03  0.17313434314E+03 0.  0.
        -24    2    5    5    0    0  0.28535388767E+02 -0.18965710424E+02  0.55238816920E+02  0.10269650499E+03  0.79506469291E+02 0.  0.
          5    1    3    3  501    0 -0.13807109696E+03 -0.57789273873E+02 -0.21349196969E+03  0.26077603247E+03  0.47000000000E+01 0. -1.
        -13    1    4    4    0    0 -0.42882245989E+00  0.31516706018E+02 -0.34715073731E+02  0.46889476336E+02  0.00000000000E+00 0.  1.
         14    1    4    4    0    0 -0.49384567886E+02 -0.25538935702E+01 -0.23123051159E+03  0.23645910303E+03  0.00000000000E+00 0. -1.
         -5    1    5    5    0  502  0.15934909854E+03  0.47792171848E+02  0.19057546420E+03  0.25301645095E+03  0.47000000000E+01 0.  1.
         13    1    6    6    0    0 -0.20202813941E+02  0.16309220336E+02  0.21550221330E+02  0.33742501366E+02  0.00000000000E+00 0. -1.
        -14    1    6    6    0    0  0.48738202708E+02 -0.35274930759E+02  0.33688595590E+02  0.68954003626E+02  0.00000000000E+00 0.  1.
</event>
<event>
12    1  0.8494789E-002  0.1793883E+03  0.7818608E-02  0.1168642E+00
         21   -1    0    0  501  502  0.00000000000E+00  0.00000000000E+00  0.75635259777E+03  0.75635259777E+03  0.00000000000E+00 0.  1.
         21   -1    0    0  502  503 -0.00000000000E+00 -0.00000000000E+00 -0.47413455424E+02  0.47413455424E+02  0.00000000000E+00 0.  1.
         -6    2    1    2    0  503  0.46856249828E+02  0.17814640967E+02  0.22169342434E+03  0.28454687981E+03  0.17119019491E+03 0.  0.
        -24    2    3    3    0    0 -0.17853819225E+02 -0.17239816401E+02  0.60275494303E+02  0.10708126016E+03  0.84954640451E+02 0.  0.
          6    2    1    2  501    0 -0.46856249828E+02 -0.17814640967E+02  0.48724571800E+03  0.51921917338E+03  0.17224195400E+03 0.  0.
         24    2    5    5    0    0  0.74490183130E+01  0.36774452887E+02  0.36501889534E+03  0.37468365009E+03  0.75770676585E+02 0.  0.
          5    1    5    5  501    0 -0.54305268141E+02 -0.54589093854E+02  0.12222682266E+03  0.14453552329E+03  0.47000000000E+01 0. -1.
        -13    1    6    6    0    0 -0.15679439317E+02 -0.11374583557E+02  0.20650832115E+03  0.20741483234E+03  0.00000000000E+00 0.  1.
         14    1    6    6    0    0  0.23128457630E+02  0.48149036444E+02  0.15851057419E+03  0.16726881775E+03  0.00000000000E+00 0. -1.
         -5    1    3    3    0  503  0.64710069053E+02  0.35054457369E+02  0.16141793004E+03  0.17746561965E+03  0.47000000000E+01 0.  1.
         11    1    4    4    0    0  0.13869075284E+02 -0.33407783007E+02 -0.10292162357E+01  0.36186882993E+02  0.00000000000E+00 0. -1.
        -12    1    4    4    0    0 -0.31722894509E+02  0.16167966605E+02  0.61304710539E+02  0.70894377171E+02  0.00000000000E+00 0.  1.
</event>
<event>
12    1  0.8494789E-002  0.2396140E+03  0.7818608E-02  0.1120267E+00
         21   -1    0    0  503  502  0.00000000000E+00  0.00000000000E+00  0.75165067352E+03  0.75165067352E+03  0.00000000000E+00 0.  1.
         21   -1    0    0  501  503 -0.00000000000E+00 -0.00000000000E+00 -0.10739149006E+03  0.10739149006E+03  0.00000000000E+00 0.  1.
          6    2    1    2  501    0 -0.29214971264E+02 -0.16392651085E+03  0.90424353750E+02  0.25610821199E+03  0.17230623028E+03 0.  0.
         24    2    3    3    0    0  0.33499072651E+02 -0.13955512647E+03  0.33969360604E+02  0.16815213243E+03  0.80767573865E+02 0.  0.
         -6    2    1    2    0  502  0.29214971264E+02  0.16392651085E+03  0.55383482971E+03  0.60293395159E+03  0.17050195267E+03 0.  0.
        -24    2    5    5    0    0  0.35156288489E+02  0.15235345122E+03  0.56072197629E+03  0.58748216374E+03  0.79237739175E+02 0.  0.
          5    1    3    3  501    0 -0.62714043915E+02 -0.24371384383E+02  0.56454993146E+02  0.87956079563E+02  0.47000000000E+01 0. -1.
        -13    1    4    4    0    0 -0.16195083414E+02 -0.62992030338E+02 -0.11705379129E+02  0.66085493971E+02  0.00000000000E+00 0.  1.
         14    1    4    4    0    0  0.49694156066E+02 -0.76563096130E+02  0.45674739732E+02  0.10206663846E+03  0.00000000000E+00 0. -1.
         -5    1    5    5    0  502 -0.59413172246E+01  0.11573059631E+02 -0.68871465722E+01  0.15451787841E+02  0.47000000000E+01 0.  1.
         13    1    6    6    0    0 -0.16938706609E+02  0.34207183510E+02  0.21650294456E+03  0.21984216199E+03  0.00000000000E+00 0. -1.
        -14    1    6    6    0    0  0.52094995098E+02  0.11814626771E+03  0.34421903172E+03  0.36764000175E+03  0.00000000000E+00 0.  1.
</event>
<event>
12    1  0.8494789E-002  0.1942043E+03  0.7818608E-02  0.1155078E+00
         21   -1    0    0  503  502  0.00000000000E+00  0.00000000000E+00  0.21847636544E+03  0.21847636544E+03  0.00000000000E+00 0.  1.
         21   -1    0    0  501  503 -0.00000000000E+00 -0.00000000000E+00 -0.40596341195E+03  0.40596341195E+03  0.00000000000E+00 0.  1.
          6    2    1    2  501    0 -0.79831666232E+02 -0.36033119957E+02 -0.33133610021E+03  0.38405588092E+03  0.17333155425E+03 0.  0.
         24    2    3    3    0    0 -0.85769876399E+02 -0.77084633335E+02 -0.18625607020E+03  0.23308967875E+03  0.79630159224E+02 0.  0.
         -6    2    1    2    0  502  0.79831666232E+02  0.36033119957E+02  0.14384905370E+03  0.24038389648E+03  0.17152372072E+03 0.  0.
        -24    2    5    5    0    0  0.12426883791E+02  0.71245904764E+02  0.11478087263E+03  0.15883394823E+03  0.82602469703E+02 0.  0.
          5    1    3    3  501    0  0.59382101672E+01  0.41051513378E+02 -0.14508003001E+03  0.15096620217E+03  0.47000000000E+01 0. -1.
        -11    1    4    4    0    0 -0.36813187211E+02 -0.61844096434E+02 -0.16009191311E+03  0.17552584898E+03  0.00000000000E+00 0.  1.
         12    1    4    4    0    0 -0.48956689188E+02 -0.15240536901E+02 -0.26164157088E+02  0.57563829766E+02  0.00000000000E+00 0. -1.
         -5    1    5    5    0  502  0.67404782441E+02 -0.35212784807E+02  0.29068181067E+02  0.81549948255E+02  0.47000000000E+01 0.  1.
         13    1    6    6    0    0 -0.33481876050E+02  0.38067850343E+02  0.37695994843E+02  0.63175828295E+02  0.00000000000E+00 0. -1.
        -14    1    6    6    0    0  0.45908759841E+02  0.33178054421E+02  0.77084877786E+02  0.95658119930E+02  0.00000000000E+00 0.  1.
</event>
<event>
12    1  0.8494789E-002  0.2093179E+03  0.7818608E-02  0.1142188E+00
         21   -1    0    0  503  502  0.00000000000E+00  0.00000000000E+00  0.27863848799E+03  0.27863848799E+03  0.00000000000E+00 0. -1.
         21   -1    0    0  501  503 -0.00000000000E+00 -0.00000000000E+00 -0.21007657543E+03  0.21007657543E+03  0.00000000000E+00 0. -1.
          6    2    1    2  501    0 -0.11847935588E+03 -0.14828838483E+02 -0.88589955399E+02  0.22729310727E+03  0.17192069158E+03 0.  0.
         24    2    3    3    0    0 -0.10228565956E+03  0.64306165420E+01 -0.12571661845E+03  0.18130746453E+03  0.81018637110E+02 0.  0.
         -6    2    1    2    0  502  0.11847935588E+03  0.14828838483E+02  0.15715186796E+03  0.26142195614E+03  0.17142776126E+03 0.  0.
        -24    2    5    5    0    0  0.66328703183E+01  0.37707436518E+02  0.34259049764E+02  0.93619091616E+02  0.78262418099E+02 0.  0.
          5    1    3    3  501    0 -0.16193696317E+02 -0.21259455025E+02  0.37126663053E+02  0.45985642736E+02  0.47000000000E+01 0. -1.
        -13    1    4    4    0    0 -0.46049577708E+02  0.98891998086E+01 -0.41047802920E+01  0.47277998067E+02  0.00000000000E+00 0.  1.
         14    1    4    4    0    0 -0.56236081853E+02 -0.34585832666E+01 -0.12161183816E+03  0.13402946647E+03  0.00000000000E+00 0. -1.
         -5    1    5    5    0  502  0.11184648556E+03 -0.22878598035E+02  0.12289281819E+03  0.16780286453E+03  0.47000000000E+01 0.  1.
         13    1    6    6    0    0 -0.20777051122E+02 -0.16256334334E+02  0.13481832908E+02  0.29626239685E+02  0.00000000000E+00 0. -1.
        -14    1    6    6    0    0  0.27409921441E+02  0.53963770852E+02  0.20777216856E+02  0.63992851930E+02  0.00000000000E+00 0.  1.
</event>
<event>
12    1  0.8494789E-002  0.1868195E+03  0.7818608E-02  0.1161427E+00
         21   -1    0    0  501  502  0.00000000000E+00  0.00000000000E+00  0.37219423280E+03  0.37219423280E+03  0.00000000000E+00 0. -1.
         21   -1    0    0  502  503 -0.00000000000E+00 -0.00000000000E+00 -0.93720310291E+02  0.93720310291E+02  0.00000000000E+00 0.  1.
         -6    2    1    2    0  503  0.72535189143E+02 -0.21329119495E+01  0.13189828778E+03  0.22845728284E+03  0.17184198785E+03 0.  0.
        -24    2    3    3    0    0  0.91011056289E+02  0.40128606279E+02  0.12909109775E+03  0.18200985121E+03  0.81054037584E+02 0.  0.
          6    2    1    2  501    0 -0.72535189143E+02  0.21329119495E+01  0.14657563473E+03  0.23745726025E+03  0.17215002402E+03 0.  0.
         24    2    5    5    0    0 -0.46169649705E+02 -0.15686350942E+02  0.59677747132E+01  0.93216738557E+02  0.79221511299E+02 0.  0.
          5    1    5    5  501    0 -0.26365539438E+02  0.17819262892E+02  0.14060786001E+03  0.14424052169E+03  0.47000000000E+01 0. -1.
        -11    1    6    6    0    0  0.11783642065E+02  0.82090073557E+01 -0.20617375542E+02  0.25126046174E+02  0.00000000000E+00 0.  1.
         12    1    6    6    0    0 -0.57953291770E+02 -0.23895358298E+02  0.26585150256E+02  0.68090692383E+02  0.00000000000E+00 0. -1.
         -5    1    3    3    0  503 -0.18475867146E+02 -0.42261518229E+02  0.28071900308E+01  0.46447431637E+02  0.47000000000E+01 0.  1.
         13    1    4    4    0    0  0.57383193646E+02  0.52560349071E+02  0.43354087898E+02  0.89078606551E+02  0.00000000000E+00 0. -1.
        -14    1    4    4    0    0  0.33627862643E+02 -0.12431742792E+02  0.85737009852E+02  0.92931244655E+02  0.00000000000E+00 0.  1.
</event>
<event>
12    1  0.8494789E-002  0.1866540E+03  0.7818608E-02  0.1162000E+00
         21   -1    0    0  503  502  0.00000000000E+00  0.00000000000E+00  0.14853130560E+03  0.14853130560E+03  0.00000000000E+00 0. -1.
         21   -1    0    0  501  503 -0.00000000000E+00 -0.00000000000E+00 -0.27918044097E+03  0.27918044097E+03  0.00000000000E+00 0.  1.
          6    2    1    2  501    0 -0.71297963235E+02 -0.55925944236E+01 -0.15298864576E+03  0.23972569183E+03  0.17014172010E+03 0.  0.
         24    2    3    3    0    0 -0.66780393509E+02 -0.65218114051E+02 -0.11027814983E+03  0.16609222465E+03  0.81928831318E+02 0.  0.
         -6    2    1    2    0  502  0.71297963235E+02  0.55925944236E+01  0.22339510396E+02  0.18798605473E+03  0.17240947299E+03 0.  0.
        -24    2    5    5    0    0  0.10190775838E+03  0.24050862573E+02 -0.18201014542E+02  0.13373394524E+03  0.81177927859E+02 0.  0.
          5    1    3    3  501    0 -0.45175697258E+01  0.59625519627E+02 -0.42710495932E+02  0.73633467186E+02  0.47000000000E+01 0. -1.
        -11    1    4    4    0    0  0.26011823700E+01  0.47770326794E+01 -0.50568999942E+02  0.50860691561E+02  0.00000000000E+00 0.  1.
         12    1    4    4    0    0 -0.69381575879E+02 -0.69995146730E+02 -0.59709149886E+02  0.11523153309E+03  0.00000000000E+00 0. -1.
         -5    1    5    5    0  502 -0.30609795145E+02 -0.18458268149E+02  0.40540524938E+02  0.54252109490E+02  0.47000000000E+01 0.  1.
         13    1    6    6    0    0  0.39144723849E+02  0.29007888603E+02  0.27491211314E+02  0.55942235439E+02  0.00000000000E+00 0. -1.
        -14    1    6    6    0    0  0.62763034531E+02 -0.49570260297E+01 -0.45692225856E+02  0.77791709805E+02  0.00000000000E+00 0.  1.
</event>
<event>
12    1  0.8494789E-002  0.2704157E+03  0.7818608E-02  0.1101093E+00
         21   -1    0    0  501  502  0.00000000000E+00  0.00000000000E+00  0.12965364762E+03  0.12965364762E+03  0.00000000000E+00 0. -1.
         21   -1    0    0  502  503 -0.00000000000E+00 -0.00000000000E+00 -0.57383916386E+03  0.57383916386E+03  0.00000000000E+00 0.  1.
         -6    2    1    2    0  503  0.62362065465E+01  0.20816991973E+03 -0.27001852049E+03  0.38214480750E+03  0.17248491742E+03 0.  0.
        -24    2    3    3    0    0  0.47202259473E+02  0.49843519842E+02 -0.84199474732E+02  0.13456396381E+03  0.79407046555E+02 0.  0.
          6    2    1    2  501    0 -0.62362065465E+01 -0.20816991973E+03 -0.17416699574E+03  0.32134800398E+03  0.17192088735E+03 0.  0.
         24    2    5    5    0    0 -0.65258889739E+02 -0.88931098814E+02 -0.60255313707E+02  0.14613517669E+03  0.74547461457E+02 0.  0.
          5    1    5    5  501    0  0.59022683193E+02 -0.11923882091E+03 -0.11391168204E+03  0.17521282730E+03  0.47000000000E+01 0. -1.
        -11    1    6    6    0    0 -0.13433467781E+02 -0.17126914509E+02 -0.52987387918E+02  0.57283964036E+02  0.00000000000E+00 0.  1.
         12    1    6    6    0    0 -0.51825421958E+02 -0.71804184304E+02 -0.72679257893E+01  0.88851212653E+02  0.00000000000E+00 0. -1.
         -5    1    3    3    0  503 -0.40966052926E+02  0.15832639989E+03 -0.18581904576E+03  0.24758084368E+03  0.47000000000E+01 0.  1.
         13    1    4    4    0    0  0.10575466409E+02 -0.20999623794E+02 -0.97184032688E+01  0.25441541843E+02  0.00000000000E+00 0. -1.
        -14    1    4    4    0    0  0.36626793064E+02  0.70843143636E+02 -0.74481071463E+02  0.10912242197E+03  0.00000000000E+00 0.  1.
</event>
<event>
12    1  0.8494789E-002  0.1800910E+03  0.7818608E-02  0.1168444E+00
         21   -1    0    0  501  502  0.00000000000E+00  0.00000000000E+00  0.10394903191E+04  0.10394903191E+04  0.00000000000E+00 0. -1.
         21   -1    0    0  502  503 -0.00000000000E+00 -0.00000000000E+00 -0.33381287703E+02  0.33381287703E+02  0.00000000000E+00 0. -1.
         -6    2    1    2    0  503  0.29107845715E+02 -0.33422068994E+02  0.34672640395E+03  0.38933797127E+03  0.17146590128E+03 0.  0.
        -24    2    3    3    0    0 -0.18057052331E+01  0.45318151204E+02  0.17082470992E+03  0.19409666962E+03  0.80221195690E+02 0.  0.
          6    2    1    2  501    0 -0.29107845715E+02  0.33422068994E+02  0.65938262744E+03  0.68353363553E+03  0.17455222755E+03 0.  0.
         24    2    5    5    0    0 -0.80235066014E+02 -0.10627126118E+02  0.42791164434E+03  0.44237968000E+03  0.77722611188E+02 0.  0.
          5    1    5    5  501    0  0.51127220299E+02  0.44049195112E+02  0.23147098310E+03  0.24115395552E+03  0.47000000000E+01 0. -1.
        -13    1    6    6    0    0 -0.35120602400E+02 -0.19753783350E+02  0.64412144141E+02  0.75977582104E+02  0.00000000000E+00 0.  1.
         14    1    6    6    0    0 -0.45114463614E+02  0.91266572325E+01  0.36349950020E+03  0.36640209790E+03  0.00000000000E+00 0. -1.
         -5    1    3    3    0  503  0.30913550949E+02 -0.78740220199E+02  0.17590169403E+03  0.19524130166E+03  0.47000000000E+01 0.  1.
         11    1    4    4    0    0 -0.26174705244E+02 -0.98240340547E+01  0.82910810109E+02  0.87497595811E+02  0.00000000000E+00 0. -1.
        -12    1    4    4    0    0  0.24369000011E+02  0.55142185259E+02  0.87913899807E+02  0.10659907380E+03  0.00000000000E+00 0.  1.
</event>
<event>
12    1  0.8494789E-002  0.2077657E+03  0.7818608E-02  0.1144046E+00
         21   -1    0    0  501  502  0.00000000000E+00  0.00000000000E+00  0.10807695206E+03  0.10807695206E+03  0.00000000000E+00 0. -1.
         21   -1    0    0  502  503 -0.00000000000E+00 -0.00000000000E+00 -0.56827293374E+03  0.56827293374E+03  0.00000000000E+00 0.  1.
         -6    2    1    2    0  503  0.43941911978E+02 -0.10683588619E+03 -0.41933876912E+03  0.46798674747E+03  0.17268987901E+03 0.  0.
        -24    2    3    3    0    0 -0.31882715482E+02 -0.19427402556E+02 -0.18480890683E+03  0.20642229376E+03  0.84035110510E+02 0.  0.
          6    2    1    2  501    0 -0.43941911978E+02  0.10683588619E+03 -0.40857212556E+02  0.20836313833E+03  0.16852622166E+03 0.  0.
         24    2    5    5    0    0 -0.77758214953E+02  0.41455123838E+02 -0.58712441631E+02  0.13247449861E+03  0.79608257699E+02 0.  0.
          5    1    5    5  501    0  0.33816302975E+02  0.65380762356E+02  0.17855229076E+02  0.75888639719E+02  0.47000000000E+01 0. -1.
        -13    1    6    6    0    0 -0.23332722235E+01 -0.16712360132E+02 -0.27458022707E+02  0.32228716255E+02  0.00000000000E+00 0.  1.
         14    1    6    6    0    0 -0.75424942729E+02  0.58167483970E+02 -0.31254418924E+02  0.10024578235E+03  0.00000000000E+00 0. -1.
         -5    1    3    3    0  503  0.75824627459E+02 -0.87408483638E+02 -0.23452986229E+03  0.26156445372E+03  0.47000000000E+01 0.  1.
         13    1    4    4    0    0 -0.10991876535E+02 -0.41994089729E+02 -0.16310515264E+03  0.16878274716E+03  0.00000000000E+00 0. -1.
        -14    1    4    4    0    0 -0.20890838947E+02  0.22566687173E+02 -0.21703754195E+02  0.37639546597E+02  0.00000000000E+00 0.  1.
</event>
<event>
12    1  0.8494789E-002  0.1828758E+03  0.7818608E-02  0.1165683E+00
         21   -1    0    0  501  502  0.00000000000E+00  0.00000000000E+00  0.19031209408E+03  0.19031209408E+03  0.00000000000E+00 0. -1.
         21   -1    0    0  502  503 -0.00000000000E+00 -0.00000000000E+00 -0.24610613029E+03  0.24610613029E+03  0.00000000000E+00 0. -1.
         -6    2    1    2    0  503  0.29761710921E+02  0.43955229365E+02 -0.14652861361E+03  0.23227044476E+03  0.17222399158E+03 0.  0.
        -24    2    3    3    0    0  0.47493005077E+02  0.46370901970E+02 -0.17147848307E+03  0.20120888889E+03  0.81696393623E+02 0.  0.
          6    2    1    2  501    0 -0.29761710921E+02 -0.43955229365E+02  0.90734577397E+02  0.20414777962E+03  0.17500208788E+03 0.  0.
         24    2    5    5    0    0  0.14657610932E+02 -0.88058389646E+02  0.64580088851E+02  0.13614548428E+03  0.79974242532E+02 0.  0.
          5    1    5    5  501    0 -0.44419321853E+02  0.44103160281E+02  0.26154488546E+02  0.68002295342E+02  0.47000000000E+01 0. -1.
        -11    1    6    6    0    0 -0.56603093450E+01 -0.68559598957E+02  0.34947974815E+01  0.68881574608E+02  0.00000000000E+00 0.  1.
         12    1    6    6    0    0  0.20317920277E+02 -0.19498790689E+02  0.61085291369E+02  0.67263909672E+02  0.00000000000E+00 0. -1.
         -5    1    3    3    0  503 -0.17731294156E+02 -0.24156726051E+01  0.24949869464E+02  0.31061555867E+02  0.47000000000E+01 0.  1.
         11    1    4    4    0    0 -0.49263628407E+01  0.48561585270E+00 -0.10434054964E+03  0.10445791101E+03  0.00000000000E+00 0. -1.
        -12    1    4    4    0    0  0.52419367918E+02  0.45885286117E+02 -0.67137933430E+02  0.96750977877E+02  0.00000000000E+00 0.  1.
</event>
<event>
12    1  0.8494789E-002  0.1857403E+03  0.7818608E-02  0.1162962E+00
         21   -1    0    0  501  502  0.00000000000E+00  0.00000000000E+00  0.28266462857E+04  0.28266462857E+04  0.00000000000E+00 0. -1.
         21   -1    0    0  502  503 -0.00000000000E+00 -0.00000000000E+00 -0.14101389983E+02  0.14101389983E+02  0.00000000000E+00 0. -1.
         -6    2    1    2    0  503 -0.58931797310E+02 -0.37070553759E+02  0.87115284818E+03  0.89073381854E+03  0.17219833888E+03 0.  0.
        -24    2    3    3    0    0 -0.33819586973E+02  0.36144233809E+02  0.30466445871E+03  0.31896269857E+03  0.80415176298E+02 0.  0.
          6    2    1    2  501    0  0.58931797310E+02  0.37070553759E+02  0.19413920475E+04  0.19500138571E+04  0.16942189385E+03 0.  0.
         24    2    5    5    0    0 -0.10686849141E+01  0.32977728588E+02  0.49597869793E+03  0.50334228062E+03  0.79182763225E+02 0.  0.
          5    1    5    5  501    0  0.60000482225E+02  0.40928251705E+01  0.14454133496E+04  0.14466715765E+04  0.47000000000E+01 0. -1.
        -11    1    6    6    0    0 -0.19400616285E+02  0.54278996326E+02  0.32642646313E+03  0.33147674003E+03  0.00000000000E+00 0.  1.
         12    1    6    6    0    0  0.18331931371E+02 -0.21301267737E+02  0.16955223480E+03  0.17186554058E+03  0.00000000000E+00 0. -1.
         -5    1    3    3    0  503 -0.25112210338E+02 -0.73214787568E+02  0.56648838946E+03  0.57177111996E+03  0.47000000000E+01 0.  1.
         13    1    4    4    0    0 -0.29635532189E+02  0.12927194668E+02  0.32729938897E+02  0.46006804174E+02  0.00000000000E+00 0. -1.
        -14    1    4    4    0    0 -0.41840547837E+01  0.23217039140E+02  0.27193451981E+03  0.27295589440E+03  0.00000000000E+00 0.  1.
</event>
<event>
12    1  0.8494789E-002  0.1907567E+03  0.7818608E-02  0.1158102E+00
         21   -1    0    0  501  502  0.00000000000E+00  0.00000000000E+00  0.10431004708E+04  0.10431004708E+04  0.00000000000E+00 0. -1.
         21   -1    0    0  502  503 -0.00000000000E+00 -0.00000000000E+00 -0.41092538729E+02  0.41092538729E+02  0.00000000000E+00 0. -1.
         -6    2    1    2    0  503 -0.54699099458E+02 -0.53142118316E+02  0.28434720165E+03  0.34161301712E+03  0.17329179485E+03 0.  0.
        -24    2    3    3    0    0 -0.36443356888E+02 -0.88923571882E+02  0.12801365248E+03  0.18013282282E+03  0.82612461155E+02 0.  0.
          6    2    1    2  501    0  0.54699099458E+02  0.53142118316E+02  0.71766073043E+03  0.74257999242E+03  0.17484863429E+03 0.  0.
         24    2    5    5    0    0  0.15936948828E+02  0.52128140236E+02  0.68437099391E+03  0.69125914840E+03  0.80648766879E+02 0.  0.
          5    1    5    5  501    0  0.38762150630E+02  0.10139780802E+01  0.33289736525E+02  0.51320844020E+02  0.47000000000E+01 0. -1.
        -13    1    6    6    0    0 -0.19889973122E+02  0.47302690059E+02  0.24022957502E+03  0.24564894511E+03  0.00000000000E+00 0.  1.
         14    1    6    6    0    0  0.35826921950E+02  0.48254501766E+01  0.44414141889E+03  0.44561020329E+03  0.00000000000E+00 0. -1.
         -5    1    3    3    0  503 -0.18255742570E+02  0.35781453566E+02  0.15633354917E+03  0.16148019430E+03  0.47000000000E+01 0.  1.
         11    1    4    4    0    0 -0.54324221293E+02 -0.41852876267E+02  0.41858188182E+02  0.80342343685E+02  0.00000000000E+00 0. -1.
        -12    1    4    4    0    0  0.17880864405E+02 -0.47070695616E+02  0.86155464294E+02  0.99790479131E+02  0.00000000000E+00 0.  1.
</event>
<event>
12    1  0.8494789E-002  0.1913057E+03  0.7818608E-02  0.1157520E+00
         21   -1    0    0  503  502  0.00000000000E+00  0.00000000000E+00  0.66279562568E+03  0.66279562568E+03  0.00000000000E+00 0. -1.
         21   -1    0    0  501  503 -0.00000000000E+00 -0.00000000000E+00 -0.58015932843E+02  0.58015932843E+02  0.00000000000E+00 0. -1.
          6    2    1    2  501    0 -0.16294628802E+02 -0.80003341756E+02  0.38642059548E+03  0.43118298423E+03  0.17300820691E+03 0.  0.
         24    2    3    3    0    0 -0.72705541766E+02 -0.31742026520E+02  0.18446782732E+03  0.21596598625E+03  0.79493873047E+02 0.  0.
         -6    2    1    2    0  502  0.16294628802E+02  0.80003341756E+02  0.21835909735E+03  0.28962857429E+03  0.17186612822E+03 0.  0.
        -24    2    5    5    0    0 -0.18869019871E+02  0.62751943627E+02  0.46083461611E+02  0.11289409096E+03  0.79545860992E+02 0.  0.
          5    1    3    3  501    0  0.56410912964E+02 -0.48261315236E+02  0.20195276816E+03  0.21521699798E+03  0.47000000000E+01 0. -1.
        -13    1    4    4    0    0 -0.53068176002E+02  0.17786283079E+02  0.11940513715E+03  0.13187179360E+03  0.00000000000E+00 0.  1.
         14    1    4    4    0    0 -0.19637365764E+02 -0.49528309599E+02  0.65062690167E+02  0.84094192651E+02  0.00000000000E+00 0. -1.
         -5    1    5    5    0  502  0.35163648673E+02  0.17251398130E+02  0.17227563574E+03  0.17673448332E+03  0.47000000000E+01 0.  1.
         11    1    6    6    0    0  0.13647244353E+02  0.68565265623E+02  0.33799473540E+02  0.77652091665E+02  0.00000000000E+00 0. -1.
        -12    1    6    6    0    0 -0.32516264224E+02 -0.58133219966E+01  0.12283988071E+02  0.35241999300E+02  0.00000000000E+00 0.  1.
</event>
<event>
12    1  0.8494789E-002  0.1974680E+03  0.7818608E-02  0.1151896E+00
         21   -1    0    0  503  502  0.00000000000E+00  0.00000000000E+00  0.14328942881E+03  0.14328942881E+03  0.00000000000E+00 0.  1.
         21   -1    0    0  501  503 -0.00000000000E+00 -0.00000000000E+00 -0.27584717832E+03  0.27584717832E+03  0.00000000000E+00 0.  1.
          6    2    1    2  501    0 -0.63661981090E+02 -0.70906032082E+02 -0.90658156959E+02  0.21728442505E+03  0.17295405958E+03 0.  0.
         24    2    3    3    0    0 -0.18664229086E+02  0.55696051275E+01 -0.98160876366E+02  0.12811211113E+03  0.79986132678E+02 0.  0.
         -6    2    1    2    0  502  0.63661981090E+02  0.70906032082E+02 -0.41899592554E+02  0.20185218208E+03  0.17293991538E+03 0.  0.
        -24    2    5    5    0    0  0.10301048502E+03  0.36954407552E+02 -0.93515911389E+00  0.13551069900E+03  0.79909240756E+02 0.  0.
          5    1    3    3  501    0 -0.44997752005E+02 -0.76475637209E+02  0.75027194068E+01  0.89172313924E+02  0.47000000000E+01 0. -1.
        -11    1    4    4    0    0  0.15198407836E+01 -0.34497762727E+02 -0.26340969126E+02  0.43431005097E+02  0.00000000000E+00 0.  1.
         12    1    4    4    0    0 -0.20184069869E+02  0.40067367855E+02 -0.71819907240E+02  0.84681106034E+02  0.00000000000E+00 0. -1.
         -5    1    5    5    0  502 -0.39348503933E+02  0.33951624530E+02 -0.40964433440E+02  0.66341483078E+02  0.47000000000E+01 0.  1.
         13    1    6    6    0    0  0.76886509819E+02 -0.13981163123E+02 -0.33085186715E+01  0.78217354917E+02  0.00000000000E+00 0. -1.
        -14    1    6    6    0    0  0.26123975204E+02  0.50935570675E+02  0.23733595576E+01  0.57293344081E+02  0.00000000000E+00 0.  1.
</event>
<event>
12    1  0.8494789E-002  0.2661762E+03  0.7818608E-02  0.1103949E+00
         21   -1    0    0  503  502  0.00000000000E+00  0.00000000000E+00  0.86736143013E+03  0.86736143013E+03  0.00000000000E+00 0. -1.
         21   -1    0    0  501  503 -0.00000000000E+00 -0.00000000000E+00 -0.28635882637E+03  0.28635882637E+03  0.00000000000E+00 0.  1.
          6    2    1    2  501    0 -0.16057375026E+03 -0.11729437285E+03  0.77884993509E+03  0.82206779091E+03  0.17218110320E+03 0.  0.
         24    2    3    3    0    0 -0.12944106915E+03 -0.15169044828E+03  0.60074658731E+03  0.63796122849E+03  0.79580678611E+02 0.  0.
         -6    2    1    2    0  502  0.16057375026E+03  0.11729437285E+03 -0.19784733133E+03  0.33165246558E+03  0.17694036351E+03 0.  0.
        -24    2    5    5    0    0  0.36254589453E+02  0.94874914491E+02 -0.62750433579E+02  0.14663585109E+03  0.85139950992E+02 0.  0.
          5    1    3    3  501    0 -0.31132681102E+02  0.34396075435E+02  0.17810334778E+03  0.18410656242E+03  0.47000000000E+01 0. -1.
        -13    1    4    4    0    0  0.95601577817E+01 -0.17787673644E+01  0.38204219491E+02  0.39422366964E+02  0.00000000000E+00 0.  1.
         14    1    4    4    0    0 -0.13900122694E+03 -0.14991168092E+03  0.56254236782E+03  0.59853886153E+03  0.00000000000E+00 0. -1.
         -5    1    5    5    0  502  0.12431916080E+03  0.22419458356E+02 -0.13509689775E+03  0.18501661449E+03  0.47000000000E+01 0.  1.
         11    1    6    6    0    0  0.10149319909E+02  0.54188680969E+02  0.13122947561E+02  0.56671276609E+02  0.00000000000E+00 0. -1.
        -12    1    6    6    0    0  0.26105269544E+02  0.40686233522E+02 -0.75873381141E+02  0.89964574483E+02  0.00000000000E+00 0.  1.
</event>
<event>
12    1  0.8494789E-002  0.2389237E+03  0.7818608E-02  0.1120756E+00
         21   -1    0    0  501  502  0.00000000000E+00  0.00000000000E+00  0.16493772881E+04  0.16493772881E+04  0.00000000000E+00 0. -1.
         21   -1    0    0  502  503 -0.00000000000E+00 -0.00000000000E+00 -0.10642546429E+03  0.10642546429E+03  0.00000000000E+00 0.  1.
         -6    2    1    2    0  503 -0.69820899839E+02 -0.14858097237E+03  0.48498125153E+02  0.24237076715E+03  0.17158163428E+03 0.  0.
        -24    2    3    3    0    0 -0.10142465094E+03 -0.15725593586E+03  0.39838044159E+02  0.20814885782E+03  0.81990780385E+02 0.  0.
          6    2    1    2  501    0  0.69820899839E+02  0.14858097237E+03  0.14944536987E+04  0.15134319852E+04  0.17358932312E+03 0.  0.
         24    2    5    5    0    0 -0.91930282815E+01  0.24144897351E+02  0.53019749916E+03  0.53796304884E+03  0.87334792416E+02 0.  0.
          5    1    5    5  501    0  0.79013928120E+02  0.12443607502E+03  0.96425619950E+03  0.97546893640E+03  0.47000000000E+01 0. -1.
        -13    1    6    6    0    0  0.11872703373E+02  0.21265639905E+02  0.36933697338E+02  0.44241231052E+02  0.00000000000E+00 0.  1.
         14    1    6    6    0    0 -0.21065731654E+02  0.28792574465E+01  0.49326380182E+03  0.49372181779E+03  0.00000000000E+00 0. -1.
         -5    1    3    3    0  503  0.31603751098E+02  0.86749634974E+01  0.86600809943E+01  0.34221909327E+02  0.47000000000E+01 0.  1.
         13    1    4    4    0    0 -0.14510061066E+02  0.63646941810E+01  0.13884867293E+02  0.21067528187E+02  0.00000000000E+00 0. -1.
        -14    1    4    4    0    0 -0.86914589871E+02 -0.16362063005E+03  0.25953176866E+02  0.18708132964E+03  0.00000000000E+00 0.  1.
</event>
<event>
12    1  0.8494789E-002  0.1984914E+03  0.7818608E-02  0.1151101E+00
         21   -1    0    0  503  502  0.00000000000E+00  0.00000000000E+00  0.12241977464E+04  0.12241977464E+04  0.00000000000E+00 0.  1.
         21   -1    0    0  501  503 -0.00000000000E+00 -0.00000000000E+00 -0.34441005022E+02  0.34441005022E+02  0.00000000000E+00 0. -1.
          6    2    1    2  501    0 -0.96670818583E+02 -0.14314962274E+02  0.43206600193E+03  0.47547856020E+03  0.17276766444E+03 0.  0.
         24    2    3    3    0    0  0.48918999244E+01  0.21228943922E+02  0.28248153423E+03  0.29115287552E+03  0.67078916163E+02 0.  0.
         -6    2    1    2    0  502  0.96670818583E+02  0.14314962274E+02  0.75769073948E+03  0.78316019125E+03  0.17232081465E+03 0.  0.
        -24    2    5    5    0    0  0.10189403361E+03  0.56801865579E+02  0.67848221882E+03  0.69300200431E+03  0.79402838150E+02 0.  0.
          5    1    3    3  501    0 -0.10156271851E+03 -0.35543906196E+02  0.14958446770E+03  0.18432568469E+03  0.47000000000E+01 0. -1.
        -11    1    4    4    0    0 -0.10492530336E+01  0.30135222764E+02  0.27786097559E+03  0.27949231535E+03  0.00000000000E+00 0.  1.
         12    1    4    4    0    0  0.59411529580E+01 -0.89062788423E+01  0.46205586459E+01  0.11660560170E+02  0.00000000000E+00 0. -1.
         -5    1    5    5    0  502 -0.52232150256E+01 -0.42486903305E+02  0.79208520661E+02  0.90158186944E+02  0.47000000000E+01 0.  1.
         11    1    6    6    0    0 -0.40231789272E+01  0.28698991802E+02  0.20284792511E+03  0.20490753725E+03  0.00000000000E+00 0. -1.
        -12    1    6    6    0    0  0.10591721254E+03  0.28102873777E+02  0.47563429371E+03  0.48809446706E+03  0.00000000000E+00 0.  1.
</event>
<event>
12    1  0.8494789E-002  0.3838329E+03  0.7818608E-02  0.1049530E+00
         21   -1    0    0  503  502  0.00000000000E+00  0.00000000000E+00  0.68931051535E+03  0.68931051535E+03  0.00000000000E+00 0.  1.
         21   -1    0    0  501  503 -0.00000000000E+00 -0.00000000000E+00 -0.12964811672E+04  0.12964811672E+04  0.00000000000E+00 0.  1.
          6    2    1    2  501    0 -0.30736774767E+03 -0.15334836969E+03 -0.12109666432E+04  0.12703416573E+04  0.17128064794E+03 0.  0.
         24    2    3    3    0    0 -0.27074142610E+03 -0.17626838993E+03 -0.11351945915E+04  0.11829900197E+04  0.80169576927E+02 0.  0.
         -6    2    1    2    0  502  0.30736774767E+03  0.15334836969E+03  0.60379599142E+03  0.71545002526E+03  0.17119720970E+03 0.  0.
        -24    2    5    5    0    0  0.18971945880E+03  0.98459698083E+02  0.25187626646E+03  0.34031875630E+03  0.81776629228E+02 0.  0.
          5    1    3    3  501    0 -0.36626321569E+02  0.22920020243E+02 -0.75772051751E+02  0.87351637570E+02  0.47000000000E+01 0. -1.
        -13    1    4    4    0    0  0.51140003138E+01 -0.50526239484E+01 -0.41662062649E+02  0.42277765695E+02  0.00000000000E+00 0.  1.
         14    1    4    4    0    0 -0.27585542641E+03 -0.17121576598E+03 -0.10935325288E+04  0.11407122540E+04  0.00000000000E+00 0. -1.
         -5    1    5    5    0  502  0.11764828887E+03  0.54888671604E+02  0.35191972496E+03  0.37513126897E+03  0.47000000000E+01 0.  1.
         11    1    6    6    0    0 -0.10086273535E+01 -0.73927990306E+01  0.47610986251E+00  0.74764622146E+01  0.00000000000E+00 0. -1.
        -12    1    6    6    0    0  0.19072808615E+03  0.10585249711E+03  0.25140015660E+03  0.33284229408E+03  0.00000000000E+00 0.  1.
</event>
<event>
12    1  0.8494789E-002  0.2010215E+03  0.7818608E-02  0.1148919E+00
         21   -1    0    0  501  502  0.00000000000E+00  0.00000000000E+00  0.57922045233E+03  0.57922045233E+03  0.00000000000E+00 0.  1.
         21   -1    0    0  502  503 -0.00000000000E+00 -0.00000000000E+00 -0.91952133180E+02  0.91952133180E+02  0.00000000000E+00 0.  1.
         -6    2    1    2    0  503 -0.95585120921E+02 -0.40561555829E+02  0.78466662540E+02  0.21561971204E+03  0.17191011586E+03 0.  0.
        -24    2    3    3    0    0 -0.58655494273E+02 -0.35062225092E+02 -0.20855182844E+02  0.10940785331E+03  0.82857184833E+02 0.  0.
          6    2    1    2  501    0  0.95585120921E+02  0.40561555829E+02  0.40880165661E+03  0.45555287347E+03  0.17212748453E+03 0.  0.
         24    2    5    5    0    0  0.25973682087E+02 -0.52387332267E+01  0.33381333300E+03  0.34335324080E+03  0.75881685483E+02 0.  0.
          5    1    5    5  501    0  0.69611438834E+02  0.45800289056E+02  0.74988323606E+02  0.11219963267E+03  0.47000000000E+01 0. -1.
        -13    1    6    6    0    0  0.46856119611E+02 -0.49988322106E+01  0.12651583525E+03  0.13500644739E+03  0.00000000000E+00 0.  1.
         14    1    6    6    0    0 -0.20882437525E+02 -0.23990101610E+00  0.20729749775E+03  0.20834679341E+03  0.00000000000E+00 0. -1.
         -5    1    3    3    0  503 -0.36929626648E+02 -0.54993307374E+01  0.99321845384E+02  0.10621185872E+03  0.47000000000E+01 0.  1.
         13    1    4    4    0    0  0.10651705216E+02  0.11014876235E+02  0.12471977927E+02  0.19756936906E+02  0.00000000000E+00 0. -1.
        -14    1    4    4    0    0 -0.69307199489E+02 -0.46077101327E+02 -0.33327160771E+02  0.89650916408E+02  0.00000000000E+00 0.  1.
</event>
<event>
12    1  0.8494789E-002  0.2002676E+03  0.7818608E-02  0.1149615E+00
         21   -1    0    0  501  502  0.00000000000E+00  0.00000000000E+00  0.31643595005E+03  0.31643595005E+03  0.00000000000E+00 0. -1.
         21   -1    0    0  502  503 -0.00000000000E+00 -0.00000000000E+00 -0.15744679833E+03  0.15744679833E+03  0.00000000000E+00 0.  1.
         -6    2    1    2    0  503 -0.81950026269E+01  0.10176435303E+03  0.18456345044E+03  0.27198878577E+03  0.17172970253E+03 0.  0.
        -24    2    3    3    0    0  0.58470170259E+02  0.45922785484E+02  0.12070580234E+03  0.16399612323E+03  0.82444979705E+02 0.  0.
          6    2    1    2  501    0  0.81950026269E+01 -0.10176435303E+03 -0.25574298724E+02  0.20189396261E+03  0.17229041113E+03 0.  0.
         24    2    5    5    0    0 -0.60577137431E+02 -0.40366035502E+02 -0.51722159610E+01  0.10735457598E+03  0.78735295546E+02 0.  0.
          5    1    5    5  501    0  0.68772140057E+02 -0.61398317525E+02 -0.20402082763E+02  0.94539386628E+02  0.47000000000E+01 0. -1.
        -11    1    6    6    0    0 -0.31915957932E+02 -0.21985705207E+02 -0.42034052086E+02  0.57173955075E+02  0.00000000000E+00 0.  1.
         12    1    6    6    0    0 -0.28661179499E+02 -0.18380330295E+02  0.36861836125E+02  0.50180620906E+02  0.00000000000E+00 0. -1.
         -5    1    3    3    0  503 -0.66665172886E+02  0.55841567543E+02  0.63857648101E+02  0.10799266254E+03  0.47000000000E+01 0.  1.
         13    1    4    4    0    0  0.14664598643E+02  0.36587232191E+02  0.11151139292E+03  0.11827284880E+03  0.00000000000E+00 0. -1.
        -14    1    4    4    0    0  0.43805571616E+02  0.93355532926E+01  0.91944094239E+01  0.45723274430E+02  0.00000000000E+00 0.  1.
</event>
<event>
12    1  0.8494789E-002  0.2344919E+03  0.7818608E-02  0.1123751E+00
         21   -1    0    0  501  502  0.00000000000E+00  0.00000000000E+00  0.38067754749E+03  0.38067754749E+03  0.00000000000E+00 0.  1.
         21   -1    0    0  502  503 -0.00000000000E+00 -0.00000000000E+00 -0.41787276598E+03  0.41787276598E+03  0.00000000000E+00 0.  1.
         -6    2    1    2    0  503  0.15708051855E+03  0.18181149288E+02 -0.34204921312E+03  0.41394346941E+03  0.17130875101E+03 0.  0.
        -24    2    3    3    0    0  0.11629153833E+03  0.59766130048E+02 -0.15389302046E+03  0.21692089616E+03  0.79220586067E+02 0.  0.
          6    2    1    2  501    0 -0.15708051855E+03 -0.18181149288E+02  0.30485399463E+03  0.38460684405E+03  0.17315202266E+03 0.  0.
         24    2    5    5    0    0 -0.14663004729E+03  0.36102065573E+02  0.17607556988E+03  0.24438611646E+03  0.76930083203E+02 0.  0.
          5    1    5    5  501    0 -0.10450471263E+02 -0.54283214862E+02  0.12877842476E+03  0.14022072760E+03  0.47000000000E+01 0. -1.
        -13    1    6    6    0    0 -0.13511639743E+03  0.24237186044E+02  0.18097064428E+03  0.22714369050E+03  0.00000000000E+00 0.  1.
         14    1    6    6    0    0 -0.11513649862E+02  0.11864879529E+02 -0.48950744069E+01  0.17242425955E+02  0.00000000000E+00 0. -1.
         -5    1    3    3    0  503  0.40788980224E+02 -0.41584980760E+02 -0.18815619267E+03  0.19702257325E+03  0.47000000000E+01 0.  1.
         13    1    4    4    0    0  0.11567403263E+02 -0.20932637354E+01 -0.65545321985E+02  0.66591109057E+02  0.00000000000E+00 0. -1.
        -14    1    4    4    0    0  0.10472413507E+03  0.61859393783E+02 -0.88347698473E+02  0.15032978710E+03  0.00000000000E+00 0.  1.
</event>
<event>
12    1  0.8494789E-002  0.1899515E+03  0.7818608E-02  0.1161901E+00
         21   -1    0    0  501  502  0.00000000000E+00  0.00000000000E+00  0.21028821404E+03  0.21028821404E+03  0.00000000000E+00 0.  1.
         21   -1    0    0  502  503 -0.00000000000E+00 -0.00000000000E+00 -0.18807561759E+03  0.18807561759E+03  0.00000000000E+00 0.  1.
         -6    2    1    2    0  503  0.17278667864E+02  0.35162631986E+02 -0.67805205619E+02  0.18816210691E+03  0.17109199138E+03 0.  0.
        -24    2    3    3    0    0  0.10590362999E+01 -0.46521871069E+02 -0.35210829547E+02  0.98608112920E+02  0.79488058037E+02 0.  0.
          6    2    1    2  501    0 -0.17278667864E+02 -0.35162631986E+02  0.90017802070E+02  0.21020172472E+03  0.18586714969E+03 0.  0.
         24    2    5    5    0    0 -0.18649297516E+02 -0.89086852007E+02  0.21097322940E+02  0.12255571754E+03  0.79312945785E+02 0.  0.
          5    1    5    5  501    0  0.13706296528E+01  0.53924220021E+02  0.68920479130E+02  0.87646007177E+02  0.47000000000E+01 0. -1.
        -11    1    6    6    0    0 -0.14236036332E+02 -0.21464574298E+02  0.44033623825E+02  0.51013260113E+02  0.00000000000E+00 0.  1.
         12    1    6    6    0    0 -0.44132611839E+01 -0.67622277710E+02 -0.22936300885E+02  0.71542457430E+02  0.00000000000E+00 0. -1.
         -5    1    3    3    0  503  0.16219631564E+02  0.81684503055E+02 -0.32594376072E+02  0.89553993987E+02  0.47000000000E+01 0.  1.
         13    1    4    4    0    0  0.35037181481E+01  0.20745967239E+02  0.29272531700E+01  0.21242410614E+02  0.00000000000E+00 0. -1.
        -14    1    4    4    0    0 -0.24446818482E+01 -0.67267838308E+02 -0.38138082717E+02  0.77365702306E+02  0.00000000000E+00 0.  1.
</event>
<event>
12    1  0.8494789E-002  0.2159141E+03  0.7818608E-02  0.1137103E+00
         21   -1    0    0  501  502  0.00000000000E+00  0.00000000000E+00  0.27611249105E+04  0.27611249105E+04  0.00000000000E+00 0. -1.
         21   -1    0    0  502  503 -0.00000000000E+00 -0.00000000000E+00 -0.17473653765E+02  0.17473653765E+02  0.00000000000E+00 0. -1.
         -6    2    1    2    0  503  0.74203534854E+02  0.10486049660E+03  0.16410374938E+04  0.16551806408E+04  0.17354252937E+03 0.  0.
        -24    2    3    3    0    0  0.54674893309E+02  0.31368749810E+02  0.50645254023E+03  0.51804058284E+03  0.88873660580E+02 0.  0.
          6    2    1    2  501    0 -0.74203534854E+02 -0.10486049660E+03  0.11026137629E+04  0.11234179234E+04  0.17265234454E+03 0.  0.
         24    2    5    5    0    0 -0.16624495751E+02 -0.15273130762E+02  0.23225285771E+03  0.24655337445E+03  0.79608631169E+02 0.  0.
          5    1    5    5  501    0 -0.57579039104E+02 -0.89587365835E+02  0.87036090524E+03  0.87686454897E+03  0.47000000000E+01 0. -1.
        -13    1    6    6    0    0 -0.16870990405E+02 -0.15215910326E+02  0.10896695548E+02  0.25197067650E+02  0.00000000000E+00 0.  1.
         14    1    6    6    0    0  0.24649465390E+00 -0.57220436171E-01  0.22135616216E+03  0.22135630680E+03  0.00000000000E+00 0. -1.
         -5    1    3    3    0  503  0.19528641545E+02  0.73491746787E+02  0.11345849535E+04  0.11371400580E+04  0.47000000000E+01 0.  1.
         11    1    4    4    0    0 -0.84150035758E+01  0.37459189052E+02  0.28899433954E+03  0.29153341389E+03  0.00000000000E+00 0. -1.
        -12    1    4    4    0    0  0.63089896885E+02 -0.60904392415E+01  0.21745820069E+03  0.22650716895E+03  0.00000000000E+00 0.  1.
</event>
<event>
12    1  0.8494789E-002  0.1828725E+03  0.7818608E-02  0.1165449E+00
         21   -1    0    0  503  502  0.00000000000E+00  0.00000000000E+00  0.13576249343E+04  0.13576249343E+04  0.00000000000E+00 0. -1.
         21   -1    0    0  501  503 -0.00000000000E+00 -0.00000000000E+00 -0.29510474365E+02  0.29510474365E+02  0.00000000000E+00 0. -1.
          6    2    1    2  501    0  0.44676860285E+02 -0.43158616441E+02  0.95495219842E+03  0.97230450316E+03  0.17199900456E+03 0.  0.
         24    2    3    3    0    0  0.36271036823E+01 -0.68162967026E+02  0.85329961789E+03  0.85976279003E+03  0.80077907497E+02 0.  0.
         -6    2    1    2    0  502 -0.44676860285E+02  0.43158616441E+02  0.37316226147E+03  0.41483090546E+03  0.17022314392E+03 0.  0.
        -24    2    5    5    0    0  0.96416060083E+01 -0.19719111386E+02  0.10121669392E+03  0.13043578218E+03  0.79289786386E+02 0.  0.
          5    1    3    3  501    0  0.41049756603E+02  0.25004350585E+02  0.10165258053E+03  0.11254171313E+03  0.47000000000E+01 0. -1.
        -11    1    4    4    0    0 -0.37806030957E+02 -0.28945924478E+02  0.43263719096E+03  0.43524947045E+03  0.00000000000E+00 0.  1.
         12    1    4    4    0    0  0.41433134639E+02 -0.39217042548E+02  0.42066242693E+03  0.42451331958E+03  0.00000000000E+00 0. -1.
         -5    1    5    5    0  502 -0.54318466294E+02  0.62877727826E+02  0.27194556755E+03  0.28439512328E+03  0.47000000000E+01 0.  1.
         11    1    6    6    0    0 -0.22432446528E+02  0.18163918372E+02  0.57300325055E+02  0.64159721315E+02  0.00000000000E+00 0. -1.
        -12    1    6    6    0    0  0.32074052536E+02 -0.37883029757E+02  0.43916368860E+02  0.66276060863E+02  0.00000000000E+00 0.  1.
</event>
<event>
12    1  0.8494789E-002  0.2041444E+03  0.7818608E-02  0.1146338E+00
         21   -1    0    0  503  502  0.00000000000E+00  0.00000000000E+00  0.40060895021E+02  0.40060895021E+02  0.00000000000E+00 0. -1.
         21   -1    0    0  501  503 -0.00000000000E+00 -0.00000000000E+00 -0.11681324237E+04  0.11681324237E+04  0.00000000000E+00 0. -1.
          6    2    1    2  501    0  0.10604556663E+03  0.28900417221E+02 -0.36352685803E+03  0.41692531296E+03  0.17202919450E+03 0.  0.
         24    2    3    3    0    0  0.11303102368E+03  0.73389797814E+02 -0.31408324255E+03  0.34988157569E+03  0.74878294686E+02 0.  0.
         -6    2    1    2    0  502 -0.10604556663E+03 -0.28900417221E+02 -0.76454467063E+03  0.79126800575E+03  0.17174285197E+03 0.  0.
        -24    2    5    5    0    0 -0.79950856736E+02  0.24061665877E+02 -0.66763891727E+03  0.67769542470E+03  0.80983094197E+02 0.  0.
          5    1    3    3  501    0 -0.69854570539E+01 -0.44489380593E+02 -0.49443615473E+02  0.67043737268E+02  0.47000000000E+01 0. -1.
        -13    1    4    4    0    0  0.42013394994E+02  0.71305189897E+02 -0.18087876304E+03  0.19891375615E+03  0.00000000000E+00 0.  1.
         14    1    4    4    0    0  0.71017628691E+02  0.20846079175E+01 -0.13320447951E+03  0.15096781954E+03  0.00000000000E+00 0. -1.
         -5    1    5    5    0  502 -0.26094709895E+02 -0.52962083098E+02 -0.96905753363E+02  0.11357258105E+03  0.47000000000E+01 0.  1.
         13    1    6    6    0    0 -0.84480895677E+02 -0.52204204482E+01 -0.43321073746E+03  0.44140210418E+03  0.00000000000E+00 0. -1.
        -14    1    6    6    0    0  0.45300389410E+01  0.29282086325E+02 -0.23442817982E+03  0.23629332052E+03  0.00000000000E+00 0.  1.
</event>
<event>
12    1  0.8494789E-002  0.2721898E+03  0.7818608E-02  0.1100043E+00
         21   -1    0    0  503  502  0.00000000000E+00  0.00000000000E+00  0.14377821633E+04  0.14377821633E+04  0.00000000000E+00 0. -1.
         21   -1    0    0  501  503 -0.00000000000E+00 -0.00000000000E+00 -0.54696787521E+02  0.54696787521E+02  0.00000000000E+00 0. -1.
          6    2    1    2  501    0  0.16912412840E+03 -0.12484807074E+03  0.51164389522E+03  0.57954012736E+03  0.17290827664E+03 0.  0.
         24    2    3    3    0    0  0.10454182717E+03 -0.99650317601E+02  0.19654745952E+03  0.25687365221E+03  0.80585295990E+02 0.  0.
         -6    2    1    2    0  502 -0.16912412840E+03  0.12484807074E+03  0.87144148057E+03  0.91293882347E+03  0.17279186835E+03 0.  0.
        -24    2    5    5    0    0 -0.16891269490E+03  0.86711934954E+02  0.52104426447E+03  0.56044100985E+03  0.80972475698E+02 0.  0.
          5    1    3    3  501    0  0.64582301222E+02 -0.25197753141E+02  0.31509643570E+03  0.32266647515E+03  0.47000000000E+01 0. -1.
        -13    1    4    4    0    0 -0.11808812087E+02 -0.15925086552E+02  0.39807099802E+02  0.44470907560E+02  0.00000000000E+00 0.  1.
         14    1    4    4    0    0  0.11635063926E+03 -0.83725231049E+02  0.15674035972E+03  0.21240274465E+03  0.00000000000E+00 0. -1.
         -5    1    5    5    0  502 -0.21143349229E+00  0.38136135788E+02  0.35039721610E+03  0.35249781362E+03  0.47000000000E+01 0.  1.
         11    1    6    6    0    0 -0.61661658308E+02  0.55331209048E+02  0.31867679163E+03  0.32926979868E+03  0.00000000000E+00 0. -1.
        -12    1    6    6    0    0 -0.10725103660E+03  0.31380725907E+02  0.20236747284E+03  0.23117121117E+03  0.00000000000E+00 0.  1.
</event>
<event>
12    1  0.8494789E-002  0.1756392E+03  0.7818608E-02  0.1172487E+00
         21   -1    0    0  503  502  0.00000000000E+00  0.00000000000E+00  0.18372765857E+04  0.18372765857E+04  0.00000000000E+00 0. -1.
         21   -1    0    0  501  503 -0.00000000000E+00 -0.00000000000E+00 -0.17192243077E+02  0.17192243077E+02  0.00000000000E+00 0. -1.
          6    2    1    2  501    0  0.50492549407E+01 -0.36819379187E+02  0.74786649364E+03  0.76821442972E+03  0.17166233154E+03 0.  0.
         24    2    3    3    0    0 -0.54620743662E+02  0.13641398703E+02  0.44375966611E+03  0.45419237414E+03  0.78730921958E+02 0.  0.
         -6    2    1    2    0  502 -0.50492549407E+01  0.36819379187E+02  0.10722178490E+04  0.10862543991E+04  0.17004805826E+03 0.  0.
        -24    2    5    5    0    0 -0.58960210263E+02  0.51608610916E+01  0.44147222831E+03  0.45240048775E+03  0.79155113964E+02 0.  0.
          5    1    3    3  501    0  0.59669998603E+02 -0.50460777889E+02  0.30410682753E+03  0.31402205558E+03  0.47000000000E+01 0. -1.
        -13    1    4    4    0    0 -0.49898479682E+02 -0.13448269044E+02  0.39370064525E+03  0.39707796752E+03  0.00000000000E+00 0.  1.
         14    1    4    4    0    0 -0.47222639804E+01  0.27089667747E+02  0.50059020853E+02  0.57114406628E+02  0.00000000000E+00 0. -1.
         -5    1    5    5    0  502  0.53910955322E+02  0.31658518095E+02  0.63074562068E+03  0.63385391130E+03  0.47000000000E+01 0.  1.
         13    1    6    6    0    0 -0.27964404169E+02  0.41072577894E+02  0.18380774121E+03  0.19040548912E+03  0.00000000000E+00 0. -1.
        -14    1    6    6    0    0 -0.30995806094E+02 -0.35911716802E+02  0.25766448710E+03  0.26199499863E+03  0.00000000000E+00 0.  1.
</event>
<event>
12    1  0.8494789E-002  0.1940067E+03  0.7818608E-02  0.1154934E+00
         21   -1    0    0  503  502  0.00000000000E+00  0.00000000000E+00  0.28770174367E+03  0.28770174367E+03  0.00000000000E+00 0. -1.
         21   -1    0    0  501  503 -0.00000000000E+00 -0.00000000000E+00 -0.19615227295E+03  0.19615227295E+03  0.00000000000E+00 0. -1.
          6    2    1    2  501    0  0.29946407118E+02  0.83735677008E+02 -0.93949774382E+02  0.21555782193E+03  0.17242437063E+03 0.  0.
         24    2    3    3    0    0  0.52802988935E+02  0.11761600469E+03 -0.83002382604E+02  0.17298746461E+03  0.80084874934E+02 0.  0.
         -6    2    1    2    0  502 -0.29946407118E+02 -0.83735677008E+02  0.18549924510E+03  0.26829619468E+03  0.17223364145E+03 0.  0.
        -24    2    5    5    0    0 -0.46394492250E+01 -0.95155778739E+02  0.20034197915E+03  0.23646448729E+03  0.81868177115E+02 0.  0.
          5    1    3    3  501    0 -0.22856581816E+02 -0.33880327681E+02 -0.10947391778E+02  0.42570357326E+02  0.47000000000E+01 0. -1.
        -11    1    4    4    0    0  0.12613626911E+02  0.89377302296E+02 -0.84783059394E+02  0.12383688025E+03  0.00000000000E+00 0.  1.
         12    1    4    4    0    0  0.40189362024E+02  0.28238702393E+02  0.17806767905E+01  0.49150584356E+02  0.00000000000E+00 0. -1.
         -5    1    5    5    0  502 -0.25306957894E+02  0.11420101731E+02 -0.14842734052E+02  0.31831707392E+02  0.47000000000E+01 0.  1.
         11    1    6    6    0    0 -0.30128735558E+02 -0.40821760477E+02  0.14927857316E+03  0.15766499053E+03  0.00000000000E+00 0. -1.
        -12    1    6    6    0    0  0.25489286333E+02 -0.54334018262E+02  0.51063405987E+02  0.78799496758E+02  0.00000000000E+00 0.  1.
</event>
<event>
12    1  0.8494789E-002  0.2442071E+03  0.7818608E-02  0.1117157E+00
         21   -1    0    0  501  502  0.00000000000E+00  0.00000000000E+00  0.81582310496E+02  0.81582310496E+02  0.00000000000E+00 0. -1.
         21   -1    0    0  502  503 -0.00000000000E+00 -0.00000000000E+00 -0.75434009851E+03  0.75434009851E+03  0.00000000000E+00 0. -1.
         -6    2    1    2    0  503 -0.11248748847E+03 -0.12961028124E+03 -0.41424964621E+03  0.48087406789E+03  0.17373784769E+03 0.  0.
        -24    2    3    3    0    0 -0.12028206638E+03 -0.99330099667E+02 -0.41385192333E+03  0.44925298277E+03  0.78870678227E+02 0.  0.
          6    2    1    2  501    0  0.11248748847E+03  0.12961028124E+03 -0.25850814180E+03  0.35504834111E+03  0.17257058001E+03 0.  0.
         24    2    5    5    0    0  0.14026486748E+02  0.95231565765E+02 -0.20538222963E+03  0.23791202104E+03  0.71794679865E+02 0.  0.
          5    1    5    5  501    0  0.98461001718E+02  0.34378715477E+02 -0.53125912173E+02  0.11713632008E+03  0.47000000000E+01 0. -1.
        -11    1    6    6    0    0 -0.54932406386E+01  0.52636022945E+02 -0.40894922001E+02  0.66881396887E+02  0.00000000000E+00 0.  1.
         12    1    6    6    0    0  0.19519727387E+02  0.42595542821E+02 -0.16448730763E+03  0.17103062415E+03  0.00000000000E+00 0. -1.
         -5    1    3    3    0  503  0.77945779114E+01 -0.30280181575E+02 -0.39772287422E+00  0.31621085126E+02  0.47000000000E+01 0.  1.
         13    1    4    4    0    0 -0.58413096944E+02 -0.59694378687E+02 -0.11900065524E+03  0.14538454075E+03  0.00000000000E+00 0. -1.
        -14    1    4    4    0    0 -0.61868969433E+02 -0.39635720980E+02 -0.29485126809E+03  0.30386844201E+03  0.00000000000E+00 0.  1.
</event>
<event>
12    1  0.8494789E-002  0.2383757E+03  0.7818608E-02  0.1121196E+00
         21   -1    0    0  501  502  0.00000000000E+00  0.00000000000E+00  0.47475401565E+03  0.47475401565E+03  0.00000000000E+00 0. -1.
         21   -1    0    0  502  503 -0.00000000000E+00 -0.00000000000E+00 -0.12101150754E+03  0.12101150754E+03  0.00000000000E+00 0. -1.
         -6    2    1    2    0  503  0.73788444189E+02 -0.14604706049E+03  0.21689856068E+03  0.32090332049E+03  0.17076146258E+03 0.  0.
        -24    2    3    3    0    0  0.10245630173E+03 -0.15767493449E+03  0.17147416475E+03  0.26574428446E+03  0.76537290352E+02 0.  0.
          6    2    1    2  501    0 -0.73788444189E+02  0.14604706049E+03  0.13684394743E+03  0.27486220271E+03  0.17334499173E+03 0.  0.
         24    2    5    5    0    0 -0.39813583388E+01  0.11752828720E+03  0.13985270635E+03  0.19924810155E+03  0.79449839447E+02 0.  0.
          5    1    5    5  501    0 -0.69807085850E+02  0.28518773285E+02 -0.30087589215E+01  0.75614101164E+02  0.47000000000E+01 0. -1.
        -13    1    6    6    0    0  0.33696161044E+02  0.24844603880E+02  0.41998705224E+02  0.59300732302E+02  0.00000000000E+00 0.  1.
         14    1    6    6    0    0 -0.37677519383E+02  0.92683683323E+02  0.97854001131E+02  0.13994736924E+03  0.00000000000E+00 0. -1.
         -5    1    3    3    0  503 -0.28667857542E+02  0.11627874006E+02  0.45424395930E+02  0.55159036028E+02  0.47000000000E+01 0.  1.
         13    1    4    4    0    0 -0.11211643157E+02 -0.29499621515E+02  0.23127557935E+02  0.39125599649E+02  0.00000000000E+00 0. -1.
        -14    1    4    4    0    0  0.11366794489E+03 -0.12817531298E+03  0.14834660681E+03  0.22661868481E+03  0.00000000000E+00 0.  1.
</event>
<event>
12    1  0.8494789E-002  0.1922085E+03  0.7818608E-02  0.1156661E+00
         21   -1    0    0  501  502  0.00000000000E+00  0.00000000000E+00  0.19862846131E+03  0.19862846131E+03  0.00000000000E+00 0. -1.
         21   -1    0    0  502  503 -0.00000000000E+00 -0.00000000000E+00 -0.20762281884E+03  0.20762281884E+03  0.00000000000E+00 0. -1.
         -6    2    1    2    0  503  0.82281520787E+02 -0.17091104863E+02 -0.71214371337E+02  0.20497709576E+03  0.17286343909E+03 0.  0.
        -24    2    3    3    0    0  0.32611929069E+01 -0.44051846882E+02  0.39861340549E+01  0.92512435360E+02  0.81187812132E+02 0.  0.
          6    2    1    2  501    0 -0.82281520787E+02  0.17091104863E+02  0.62220013808E+02  0.20127418438E+03  0.17198143113E+03 0.  0.
         24    2    5    5    0    0 -0.23148878194E+02 -0.40016430397E+02  0.69464610325E+02  0.11861516078E+03  0.84303256266E+02 0.  0.
          5    1    5    5  501    0 -0.59132642593E+02  0.57107535260E+02 -0.72445965173E+01  0.82659023598E+02  0.47000000000E+01 0. -1.
        -13    1    6    6    0    0  0.97735174018E+00  0.21620520750E+02  0.41409997083E+02  0.46724618696E+02  0.00000000000E+00 0.  1.
         14    1    6    6    0    0 -0.24126229934E+02 -0.61636951147E+02  0.28054613242E+02  0.71890542088E+02  0.00000000000E+00 0. -1.
         -5    1    3    3    0  503  0.79020327880E+02  0.26960742019E+02 -0.75200505392E+02  0.11246466040E+03  0.47000000000E+01 0.  1.
         13    1    4    4    0    0  0.41863458316E+02 -0.29312127175E+02  0.23710313668E+01  0.51160255388E+02  0.00000000000E+00 0. -1.
        -14    1    4    4    0    0 -0.38602265409E+02 -0.14739719707E+02  0.16151026881E+01  0.41352179972E+02  0.00000000000E+00 0.  1.
</event>
<event>
12    1  0.8494789E-002  0.1776207E+03  0.7818608E-02  0.1170891E+00
         21   -1    0    0  503  502  0.00000000000E+00  0.00000000000E+00  0.55877203326E+02  0.55877203326E+02  0.00000000000E+00 0.  1.
         21   -1    0    0  501  503 -0.00000000000E+00 -0.00000000000E+00 -0.89066014224E+03  0.89066014224E+03  0.00000000000E+00 0.  1.
          6    2    1    2  501    0 -0.25955744200E+02  0.20311493830E+02 -0.71024907557E+03  0.73212216634E+03  0.17453612708E+03 0.  0.
         24    2    3    3    0    0 -0.43537167536E+02 -0.46426362858E+02 -0.48067711906E+03  0.49235473490E+03  0.85509064236E+02 0.  0.
         -6    2    1    2    0  502  0.25955744200E+02 -0.20311493830E+02 -0.12453386334E+03  0.21441517923E+03  0.17140282531E+03 0.  0.
        -24    2    5    5    0    0  0.69723379993E+02  0.18696288880E+02 -0.45383452770E+02  0.11580437582E+03  0.78358756612E+02 0.  0.
          5    1    3    3  501    0  0.17581423336E+02  0.66737856688E+02 -0.22957195651E+03  0.23976743143E+03  0.47000000000E+01 0. -1.
        -11    1    4    4    0    0  0.45838997581E+01 -0.19711443597E+02 -0.34967488362E+03  0.35026001396E+03  0.00000000000E+00 0.  1.
         12    1    4    4    0    0 -0.48121067294E+02 -0.26714919261E+02 -0.13100223544E+03  0.14209472094E+03  0.00000000000E+00 0. -1.
         -5    1    5    5    0  502 -0.43767635794E+02 -0.39007782710E+02 -0.79150410573E+02  0.98610803408E+02  0.47000000000E+01 0.  1.
         13    1    6    6    0    0 -0.13564301452E+02  0.11068896523E+02 -0.23587364146E+02  0.29374725386E+02  0.00000000000E+00 0. -1.
        -14    1    6    6    0    0  0.83287681445E+02  0.76273923563E+01 -0.21796088624E+02  0.86429650433E+02  0.00000000000E+00 0.  1.
</event>
<event>
12    1  0.8494789E-002  0.1847970E+03  0.7818608E-02  0.1165625E+00
         21   -1    0    0  503  502  0.00000000000E+00  0.00000000000E+00  0.17620972328E+04  0.17620972328E+04  0.00000000000E+00 0.  1.
         21   -1    0    0  501  503 -0.00000000000E+00 -0.00000000000E+00 -0.20668462586E+02  0.20668462586E+02  0.00000000000E+00 0.  1.
          6    2    1    2  501    0 -0.94499233014E+01  0.32711019337E+02  0.59390125963E+03  0.62198763909E+03  0.18163316092E+03 0.  0.
         24    2    3    3    0    0  0.76046527325E+01  0.70690755535E+02  0.55364857882E+03  0.56388697439E+03  0.79917190891E+02 0.  0.
         -6    2    1    2    0  502  0.94499233014E+01 -0.32711019337E+02  0.11475275106E+04  0.11607780563E+04  0.17154298764E+03 0.  0.
        -24    2    5    5    0    0  0.40777594947E+02 -0.54500373738E+02  0.10596077844E+04  0.10648188606E+04  0.80233697860E+02 0.  0.
          5    1    3    3  501    0 -0.17054576034E+02 -0.37979736198E+02  0.40252680818E+02  0.58100664699E+02  0.47000000000E+01 0. -1.
        -13    1    4    4    0    0 -0.30597779785E+02  0.54366378577E+02  0.39465588840E+03  0.39955625073E+03  0.00000000000E+00 0.  1.
         14    1    4    4    0    0  0.38202432517E+02  0.16324376958E+02  0.15899269042E+03  0.16433072366E+03  0.00000000000E+00 0. -1.
         -5    1    5    5    0  502 -0.31327671646E+02  0.21789354402E+02  0.87919726210E+02  0.95959195666E+02  0.47000000000E+01 0.  1.
         11    1    6    6    0    0  0.34617273559E+02 -0.74338802838E+02  0.73826971798E+03  0.74281006302E+03  0.00000000000E+00 0. -1.
        -12    1    6    6    0    0  0.61603213885E+01  0.19838429099E+02  0.32133806639E+03  0.32200879762E+03  0.00000000000E+00 0.  1.
</event>
<event>
12    1  0.8494789E-002  0.2167981E+03  0.7818608E-02  0.1136429E+00
         21   -1    0    0  503  502  0.00000000000E+00  0.00000000000E+00  0.10407682317E+03  0.10407682317E+03  0.00000000000E+00 0.  1.
         21   -1    0    0  501  503 -0.00000000000E+00 -0.00000000000E+00 -0.45098723358E+03  0.45098723358E+03  0.00000000000E+00 0.  1.
          6    2    1    2  501    0 -0.61587617400E+02 -0.11608688301E+03 -0.16153609769E+03  0.27036147414E+03  0.17243032453E+03 0.  0.
         24    2    3    3    0    0  0.91510559301E+01 -0.21670700467E+01 -0.87630674465E+02  0.11717601376E+03  0.77218165450E+02 0.  0.
         -6    2    1    2    0  502  0.61587617400E+02  0.11608688301E+03 -0.18537431273E+03  0.28470258261E+03  0.17153053868E+03 0.  0.
        -24    2    5    5    0    0  0.92589510193E+02  0.83294682587E+02 -0.18882209928E+03  0.23920068158E+03  0.77796910913E+02 0.  0.
          5    1    3    3  501    0 -0.70738673330E+02 -0.11391981297E+03 -0.73905423225E+02  0.15318546038E+03  0.47000000000E+01 0. -1.
        -13    1    4    4    0    0  0.18291733375E+02 -0.24503218930E+02 -0.87872488081E+02  0.93040686849E+02  0.00000000000E+00 0.  1.
         14    1    4    4    0    0 -0.91406774448E+01  0.22336148883E+02  0.24181361674E+00  0.24135326907E+02  0.00000000000E+00 0. -1.
         -5    1    5    5    0  502 -0.31001892793E+02  0.32792200425E+02  0.34477865461E+01  0.45501901032E+02  0.47000000000E+01 0.  1.
         13    1    6    6    0    0  0.13262299595E+02  0.48521285280E+02 -0.11453171456E+03  0.12509083641E+03  0.00000000000E+00 0. -1.
        -14    1    6    6    0    0  0.79327210598E+02  0.34773397306E+02 -0.74290384720E+02  0.11410984516E+03  0.00000000000E+00 0.  1.
</event>
<event>
12    1  0.8494789E-002  0.2448021E+03  0.7818608E-02  0.1117096E+00
         21   -1    0    0  501  502  0.00000000000E+00  0.00000000000E+00  0.12332270608E+03  0.12332270608E+03  0.00000000000E+00 0. -1.
         21   -1    0    0  502  503 -0.00000000000E+00 -0.00000000000E+00 -0.49381860593E+03  0.49381860593E+03  0.00000000000E+00 0.  1.
         -6    2    1    2    0  503 -0.36537109224E+02 -0.16931543322E+03 -0.13324680193E+03  0.27623782101E+03  0.16896729641E+03 0.  0.
        -24    2    3    3    0    0 -0.19823822494E+02 -0.57778780327E+02  0.88514685292E+01  0.94761190672E+02  0.71902457315E+02 0.  0.
          6    2    1    2  501    0  0.36537109224E+02  0.16931543322E+03 -0.23724909792E+03  0.34090349100E+03  0.17298953563E+03 0.  0.
         24    2    5    5    0    0  0.35333664900E+02  0.14784191228E+03 -0.25849977233E+03  0.31030542664E+03  0.79759805672E+02 0.  0.
          5    1    5    5  501    0  0.12034443239E+01  0.21473520938E+02  0.21250674417E+02  0.30598064364E+02  0.47000000000E+01 0. -1.
        -11    1    6    6    0    0  0.13903061249E+02  0.30716540152E+02 -0.13341586707E+03  0.13761029953E+03  0.00000000000E+00 0.  1.
         12    1    6    6    0    0  0.21430603652E+02  0.11712537213E+03 -0.12508390526E+03  0.17269512710E+03  0.00000000000E+00 0. -1.
         -5    1    3    3    0  503 -0.16713286730E+02 -0.11153665289E+03 -0.14209827046E+03  0.18147663034E+03  0.47000000000E+01 0.  1.
         13    1    4    4    0    0 -0.18196948668E+02  0.12675474262E+02 -0.54849032488E+01  0.22844709502E+02  0.00000000000E+00 0. -1.
        -14    1    4    4    0    0 -0.16268738265E+01 -0.70454254589E+02  0.14336371778E+02  0.71916481170E+02  0.00000000000E+00 0.  1.
</event>
<event>
12    1  0.8494789E-002  0.1919030E+03  0.7818608E-02  0.1157949E+00
         21   -1    0    0  503  502  0.00000000000E+00  0.00000000000E+00  0.11643203389E+04  0.11643203389E+04  0.00000000000E+00 0. -1.
         21   -1    0    0  501  503 -0.00000000000E+00 -0.00000000000E+00 -0.40707594206E+02  0.40707594206E+02  0.00000000000E+00 0. -1.
          6    2    1    2  501    0 -0.77756820355E+02 -0.40749785034E+00  0.25814514791E+03  0.31853996852E+03  0.16965407447E+03 0.  0.
         24    2    3    3    0    0 -0.88984217304E+02 -0.52515000750E+02  0.17633558905E+03  0.22078445603E+03  0.83519577491E+02 0.  0.
         -6    2    1    2    0  502  0.77756820355E+02  0.40749785034E+00  0.86546759676E+03  0.88648796457E+03  0.17544361236E+03 0.  0.
        -24    2    5    5    0    0  0.55511479006E+02 -0.35261141395E+02  0.25988285842E+03  0.27942777616E+03  0.78841040057E+02 0.  0.
          5    1    3    3  501    0  0.11227396948E+02  0.52107502900E+02  0.81809558862E+02  0.97755512489E+02  0.47000000000E+01 0. -1.
        -11    1    4    4    0    0 -0.37217351322E+02 -0.58085545720E+02  0.53273785809E+02  0.87161678021E+02  0.00000000000E+00 0.  1.
         12    1    4    4    0    0 -0.51766865982E+02  0.55705449700E+01  0.12306180324E+03  0.13362277801E+03  0.00000000000E+00 0. -1.
         -5    1    5    5    0  502  0.22245341349E+02  0.35668639246E+02  0.60558473834E+03  0.60706018841E+03  0.47000000000E+01 0.  1.
         11    1    6    6    0    0  0.19023958598E+02 -0.54803805008E+02  0.18480102438E+03  0.19369250542E+03  0.00000000000E+00 0. -1.
        -12    1    6    6    0    0  0.36487520408E+02  0.19542663612E+02  0.75081834034E+02  0.85735270738E+02  0.00000000000E+00 0.  1.
</event>
<event>
12    1  0.8494789E-002  0.1977753E+03  0.7818608E-02  0.1152344E+00
         21   -1    0    0  503  502  0.00000000000E+00  0.00000000000E+00  0.13694403994E+03  0.13694403994E+03  0.00000000000E+00 0.  1.
         21   -1    0    0  501  503 -0.00000000000E+00 -0.00000000000E+00 -0.63942935459E+03  0.63942935459E+03  0.00000000000E+00 0.  1.
          6    2    1    2  501    0 -0.86705124064E+02 -0.39693668102E+02 -0.54099386048E+03  0.57488400385E+03  0.16948125260E+03 0.  0.
         24    2    3    3    0    0  0.11577486230E+02  0.71050546375E+01 -0.28787785355E+03  0.29931296964E+03  0.80808880938E+02 0.  0.
         -6    2    1    2    0  502  0.86705124064E+02  0.39693668102E+02  0.38508545824E+02  0.20148939068E+03  0.17326771375E+03 0.  0.
        -24    2    5    5    0    0 -0.19281757325E+02  0.35166353463E+02  0.34643782864E+02  0.95231487454E+02  0.79122600628E+02 0.  0.
          5    1    3    3  501    0 -0.98282610294E+02 -0.46798722740E+02 -0.25311600692E+03  0.27557103421E+03  0.47000000000E+01 0. -1.
        -11    1    4    4    0    0 -0.29816654167E+02 -0.70849778264E+00 -0.19577552089E+03  0.19803431373E+03  0.00000000000E+00 0.  1.
         12    1    4    4    0    0  0.41394140396E+02  0.78135524201E+01 -0.92102332665E+02  0.10127865591E+03  0.00000000000E+00 0. -1.
         -5    1    5    5    0  502  0.10598688139E+03  0.45273146396E+01  0.38647629593E+01  0.10625790322E+03  0.47000000000E+01 0.  1.
         13    1    6    6    0    0  0.19160656725E+02 -0.14764006067E+02  0.17715821023E+02  0.29982610890E+02  0.00000000000E+00 0. -1.
        -14    1    6    6    0    0 -0.38442414049E+02  0.49930359530E+02  0.16927961841E+02  0.65248876564E+02  0.00000000000E+00 0.  1.
</event>
<event>
12    1  0.8494789E-002  0.2013705E+03  0.7818608E-02  0.1150914E+00
         21   -1    0    0  501  502  0.00000000000E+00  0.00000000000E+00  0.46553738309E+02  0.46553738309E+02  0.00000000000E+00 0.  1.
         21   -1    0    0  502  503 -0.00000000000E+00 -0.00000000000E+00 -0.11132624431E+04  0.11132624431E+04  0.00000000000E+00 0. -1.
         -6    2    1    2    0  503  0.77874749825E+02 -0.23339501215E+02 -0.81750239214E+03  0.83941977817E+03  0.17235484868E+03 0.  0.
        -24    2    3    3    0    0  0.33165771752E+02 -0.63481278037E+02 -0.69125269585E+03  0.69952220572E+03  0.79819707428E+02 0.  0.
          6    2    1    2  501    0 -0.77874749825E+02  0.23339501215E+02 -0.24920631262E+03  0.32039640320E+03  0.18423045339E+03 0.  0.
         24    2    5    5    0    0 -0.74490820511E+02 -0.19577385181E+02 -0.77320654680E+02  0.14313930314E+03  0.92618681231E+02 0.  0.
          5    1    5    5  501    0 -0.33839293144E+01  0.42916886396E+02 -0.17188565794E+03  0.17725710006E+03  0.47000000000E+01 0. -1.
        -11    1    6    6    0    0 -0.41171753672E+02 -0.54600965916E+02 -0.62329620303E+02  0.92527619371E+02  0.00000000000E+00 0.  1.
         12    1    6    6    0    0 -0.33319066839E+02  0.35023580734E+02 -0.14991034377E+02  0.50611683771E+02  0.00000000000E+00 0. -1.
         -5    1    3    3    0  503  0.44708978074E+02  0.40141776822E+02 -0.12624969629E+03  0.13989757246E+03  0.47000000000E+01 0.  1.
         13    1    4    4    0    0  0.13638272482E+02 -0.27543380882E+02 -0.58285662958E+03  0.58366642096E+03  0.00000000000E+00 0. -1.
        -14    1    4    4    0    0  0.19527499269E+02 -0.35937897155E+02 -0.10839606627E+03  0.11585578476E+03  0.00000000000E+00 0.  1.
</event>
<event>
12    1  0.8494789E-002  0.1732517E+03  0.7818608E-02  0.1174821E+00
         21   -1    0    0  503  502  0.00000000000E+00  0.00000000000E+00  0.39333873118E+03  0.39333873118E+03  0.00000000000E+00 0. -1.
         21   -1    0    0  501  503 -0.00000000000E+00 -0.00000000000E+00 -0.95535400832E+02  0.95535400832E+02  0.00000000000E+00 0. -1.
          6    2    1    2  501    0 -0.19240240399E+01 -0.15306955774E+02  0.38112655532E+02  0.17739425271E+03  0.17256344230E+03 0.  0.
         24    2    3    3    0    0 -0.59505158488E+02  0.10507877947E+02  0.49333588871E+02  0.11312923867E+03  0.81933767557E+02 0.  0.
         -6    2    1    2    0  502  0.19240240399E+01  0.15306955774E+02  0.25969067482E+03  0.31147987930E+03  0.17129642103E+03 0.  0.
        -24    2    5    5    0    0  0.46811011164E+02 -0.40881108863E+02  0.13998150612E+03  0.17175044328E+03  0.77722949529E+02 0.  0.
          5    1    3    3  501    0  0.57581134448E+02 -0.25814833721E+02 -0.11220933338E+02  0.64265014038E+02  0.47000000000E+01 0. -1.
        -11    1    4    4    0    0 -0.36182152257E+02  0.26317784572E+02 -0.11406216584E+02  0.46172239533E+02  0.00000000000E+00 0.  1.
         12    1    4    4    0    0 -0.23323006231E+02 -0.15809906625E+02  0.60739805455E+02  0.66956999139E+02  0.00000000000E+00 0. -1.
         -5    1    5    5    0  502 -0.44886987124E+02  0.56188064637E+02  0.11970916869E+03  0.13972943602E+03  0.47000000000E+01 0.  1.
         13    1    6    6    0    0  0.55169392529E+02 -0.37103474850E+02  0.14624162422E+03  0.16064539325E+03  0.00000000000E+00 0. -1.
        -14    1    6    6    0    0 -0.83583813653E+01 -0.37776340126E+01 -0.62601180929E+01  0.11105050037E+02  0.00000000000E+00 0.  1.
</event>
<event>
12    1  0.8494789E-002  0.1848371E+03  0.7818608E-02  0.1163759E+00
         21   -1    0    0  503  502  0.00000000000E+00  0.00000000000E+00  0.10187287012E+04  0.10187287012E+04  0.00000000000E+00 0.  1.
         21   -1    0    0  501  503 -0.00000000000E+00 -0.00000000000E+00 -0.40940930904E+02  0.40940930904E+02  0.00000000000E+00 0. -1.
          6    2    1    2  501    0 -0.19648547908E+01 -0.79505964084E+02  0.72317224377E+03  0.74642002858E+03  0.16685234768E+03 0.  0.
         24    2    3    3    0    0  0.41860001234E+02 -0.61276150361E+00  0.27551450332E+03  0.28973162496E+03  0.79268769260E+02 0.  0.
         -6    2    1    2    0  502  0.19648547908E+01  0.79505964084E+02  0.25461552653E+03  0.31324960353E+03  0.16422907411E+03 0.  0.
        -24    2    5    5    0    0  0.44245790402E+02  0.75859668176E+02  0.10778888064E+03  0.16034071911E+03  0.79864411297E+02 0.  0.
          5    1    3    3  501    0 -0.43824856025E+02 -0.78893202581E+02  0.44765774045E+03  0.45668840362E+03  0.47000000000E+01 0. -1.
        -13    1    4    4    0    0  0.99187258468E+01 -0.17708563478E+02  0.23296731370E+03  0.23384983129E+03  0.00000000000E+00 0.  1.
         14    1    4    4    0    0  0.31941275387E+02  0.17095801974E+02  0.42547189621E+02  0.55881793664E+02  0.00000000000E+00 0. -1.
         -5    1    5    5    0  502 -0.42280935612E+02  0.36462959084E+01  0.14682664590E+03  0.15290888442E+03  0.47000000000E+01 0.  1.
         13    1    6    6    0    0 -0.10030932719E+02  0.27464620435E+02 -0.12635673312E+01  0.29266390096E+02  0.00000000000E+00 0. -1.
        -14    1    6    6    0    0  0.54276723122E+02  0.48395047741E+02  0.10905244797E+03  0.13107432901E+03  0.00000000000E+00 0.  1.
</event>
<event>
12    1  0.8494789E-002  0.1915859E+03  0.7818608E-02  0.1157502E+00
         21   -1    0    0  501  502  0.00000000000E+00  0.00000000000E+00  0.42301862343E+02  0.42301862343E+02  0.00000000000E+00 0. -1.
         21   -1    0    0  502  503 -0.00000000000E+00 -0.00000000000E+00 -0.87853976497E+03  0.87853976497E+03  0.00000000000E+00 0.  1.
         -6    2    1    2    0  503  0.75044773573E+02  0.35794202907E+02 -0.34616008645E+03  0.39464641089E+03  0.17031160024E+03 0.  0.
        -24    2    3    3    0    0  0.48802851543E+02  0.18530899144E+02 -0.70806449399E+02  0.11746709066E+03  0.77845048459E+02 0.  0.
          6    2    1    2  501    0 -0.75044773573E+02 -0.35794202907E+02 -0.49007781618E+03  0.52619521643E+03  0.17260416238E+03 0.  0.
         24    2    5    5    0    0 -0.84292325688E+01 -0.60182809534E+02 -0.39488505398E+03  0.40738365801E+03  0.79587790736E+02 0.  0.
          5    1    5    5  501    0 -0.66615541005E+02  0.24388606627E+02 -0.95192762202E+02  0.11881155841E+03  0.47000000000E+01 0. -1.
        -13    1    6    6    0    0 -0.32556307174E+02 -0.40133372378E+01 -0.21272843608E+03  0.21524267126E+03  0.00000000000E+00 0.  1.
         14    1    6    6    0    0  0.24127074605E+02 -0.56169472296E+02 -0.18215661790E+03  0.19214098676E+03  0.00000000000E+00 0. -1.
         -5    1    3    3    0  503  0.26241922031E+02  0.17263303763E+02 -0.27535363705E+03  0.27717932023E+03  0.47000000000E+01 0.  1.
         13    1    4    4    0    0  0.21043382362E+02 -0.28733270197E+02 -0.43527095705E+02  0.56240846526E+02  0.00000000000E+00 0. -1.
        -14    1    4    4    0    0  0.27759469181E+02  0.47264169341E+02 -0.27279353694E+02  0.61226244133E+02  0.00000000000E+00 0.  1.
</event>
<event>
12    1  0.8494789E-002  0.2512070E+03  0.7818608E-02  0.1112559E+00
         21   -1    0    0  501  502  0.00000000000E+00  0.00000000000E+00  0.11659203076E+04  0.11659203076E+04  0.00000000000E+00 0. -1.
         21   -1    0    0  502  503 -0.00000000000E+00 -0.00000000000E+00 -0.61787098783E+02  0.61787098783E+02  0.00000000000E+00 0.  1.
         -6    2    1    2    0  503  0.14371728282E+03  0.11271839907E+03  0.33570137372E+03  0.41928552024E+03  0.17246692524E+03 0.  0.
        -24    2    3    3    0    0  0.12750909110E+02  0.74133830147E+02  0.19419052810E+03  0.22259192750E+03  0.78605308516E+02 0.  0.
          6    2    1    2  501    0 -0.14371728282E+03 -0.11271839907E+03  0.76843183511E+03  0.80842188615E+03  0.17233213839E+03 0.  0.
         24    2    5    5    0    0 -0.11033155606E+03 -0.14463733978E+03  0.54750372798E+03  0.58266816182E+03  0.81540433700E+02 0.  0.
          5    1    5    5  501    0 -0.33385726758E+02  0.31918940704E+02  0.22092810714E+03  0.22575372433E+03  0.47000000000E+01 0. -1.
        -11    1    6    6    0    0 -0.83352763190E+02 -0.87102141350E+02  0.23897353004E+03  0.26766175337E+03  0.00000000000E+00 0.  1.
         12    1    6    6    0    0 -0.26978792871E+02 -0.57535198427E+02  0.30853019793E+03  0.31500640844E+03  0.00000000000E+00 0. -1.
         -5    1    3    3    0  503  0.13096637371E+03  0.38584568926E+02  0.14151084561E+03  0.19669359275E+03  0.47000000000E+01 0.  1.
         13    1    4    4    0    0  0.26055072907E+02  0.60088171645E+02  0.19230744201E+03  0.20315414701E+03  0.00000000000E+00 0. -1.
        -14    1    4    4    0    0 -0.13304163797E+02  0.14045658502E+02  0.18830860963E+01  0.19437780489E+02  0.00000000000E+00 0.  1.
</event>
<event>
12    1  0.8494789E-002  0.1886027E+03  0.7818608E-02  0.1159834E+00
         21   -1    0    0  503  502  0.00000000000E+00  0.00000000000E+00  0.15924682083E+04  0.15924682083E+04  0.00000000000E+00 0. -1.
         21   -1    0    0  501  503 -0.00000000000E+00 -0.00000000000E+00 -0.40880567554E+02  0.40880567554E+02  0.00000000000E+00 0. -1.
          6    2    1    2  501    0  0.66567379423E+02  0.39760887794E+02  0.13261182657E+04  0.13393973704E+04  0.17141620956E+03 0.  0.
         24    2    3    3    0    0 -0.28315963607E+02  0.36027592519E+02  0.71975475011E+03  0.72562576030E+03  0.79912843057E+02 0.  0.
         -6    2    1    2    0  502 -0.66567379423E+02 -0.39760887794E+02  0.22546937504E+03  0.29395140549E+03  0.17192686092E+03 0.  0.
        -24    2    5    5    0    0 -0.90891029841E+02 -0.74476182510E+02  0.14383447063E+03  0.20184744642E+03  0.79032623775E+02 0.  0.
          5    1    3    3  501    0  0.94883343030E+02  0.37332952757E+01  0.60636351560E+03  0.61377161007E+03  0.47000000000E+01 0. -1.
        -11    1    4    4    0    0 -0.35844384860E+02  0.20248697416E+02  0.14842555731E+03  0.15402913924E+03  0.00000000000E+00 0.  1.
         12    1    4    4    0    0  0.75284212529E+01  0.15778895102E+02  0.57132919280E+03  0.57159662106E+03  0.00000000000E+00 0. -1.
         -5    1    5    5    0  502  0.24323650418E+02  0.34715294716E+02  0.81634904417E+02  0.92103959068E+02  0.47000000000E+01 0.  1.
         11    1    6    6    0    0 -0.26825232870E+02 -0.87169661034E+01 -0.33218725430E+01  0.28400941072E+02  0.00000000000E+00 0. -1.
        -12    1    6    6    0    0 -0.64065796971E+02 -0.65759216407E+02  0.14715634317E+03  0.17344650535E+03  0.00000000000E+00 0.  1.
</event>
<event>
12    1  0.8494789E-002  0.2324456E+03  0.7818608E-02  0.1125060E+00
         21   -1    0    0  503  502  0.00000000000E+00  0.00000000000E+00  0.20515033251E+04  0.20515033251E+04  0.00000000000E+00 0. -1.
         21   -1    0    0  501  503 -0.00000000000E+00 -0.00000000000E+00 -0.30470785112E+02  0.30470785112E+02  0.00000000000E+00 0. -1.
          6    2    1    2  501    0 -0.13006104843E+03 -0.85575314948E+02  0.62459841869E+03  0.66644890520E+03  0.17260344079E+03 0.  0.
         24    2    3    3    0    0 -0.13015805278E+03 -0.10945844742E+02  0.37963563539E+03  0.41032701541E+03  0.84759151077E+02 0.  0.
         -6    2    1    2    0  502  0.13006104843E+03  0.85575314948E+02  0.13964341213E+04  0.14155252051E+04  0.17159353146E+03 0.  0.
        -24    2    5    5    0    0  0.11389017619E+03 -0.65112512603E+01  0.86845492805E+03  0.87931111410E+03  0.77205600183E+02 0.  0.
          5    1    3    3  501    0  0.97004353193E-01 -0.74629470206E+02  0.24496278329E+03  0.25612188980E+03  0.47000000000E+01 0. -1.
        -13    1    4    4    0    0 -0.82548337287E+01 -0.30876082268E+02  0.87298435247E+02  0.92965001654E+02  0.00000000000E+00 0.  1.
         14    1    4    4    0    0 -0.12190321906E+03  0.19930237526E+02  0.29233720015E+03  0.31736201375E+03  0.00000000000E+00 0. -1.
         -5    1    5    5    0  502  0.16170872240E+02  0.92086566208E+02  0.52797919329E+03  0.53621409095E+03  0.47000000000E+01 0.  1.
         11    1    6    6    0    0  0.11256128734E+02  0.15774028098E+02  0.33822893825E+03  0.33878361097E+03  0.00000000000E+00 0. -1.
        -12    1    6    6    0    0  0.10263404746E+03 -0.22285279359E+02  0.53022598981E+03  0.54052750313E+03  0.00000000000E+00 0.  1.
</event>
<event>
12    1  0.8494789E-002  0.2492797E+03  0.7818608E-02  0.1113857E+00
         21   -1    0    0  503  502  0.00000000000E+00  0.00000000000E+00  0.40369621055E+03  0.40369621055E+03  0.00000000000E+00 0.  1.
         21   -1    0    0  501  503 -0.00000000000E+00 -0.00000000000E+00 -0.57734936025E+03  0.57734936025E+03  0.00000000000E+00 0.  1.
          6    2    1    2  501    0  0.16715461737E+03  0.67693719602E+02 -0.50705723153E+03  0.56475400696E+03  0.17122192193E+03 0.  0.
         24    2    3    3    0    0  0.18623803502E+02  0.43730751495E+02 -0.14643775891E+03  0.17398026099E+03  0.81030175215E+02 0.  0.
         -6    2    1    2    0  502 -0.16715461737E+03 -0.67693719602E+02  0.33340408183E+03  0.41629156384E+03  0.17209671282E+03 0.  0.
        -24    2    5    5    0    0 -0.21767031775E+02  0.11423306397E+02  0.10354440155E+03  0.13299910636E+03  0.79768562720E+02 0.  0.
          5    1    3    3  501    0  0.14853081387E+03  0.23962968108E+02 -0.36061947262E+03  0.39077374597E+03  0.47000000000E+01 0. -1.
        -13    1    4    4    0    0  0.49443646447E+02  0.29487330169E+02 -0.11014384602E+03  0.12428130845E+03  0.00000000000E+00 0.  1.
         14    1    4    4    0    0 -0.30819842945E+02  0.14243421325E+02 -0.36293912892E+02  0.49698952536E+02  0.00000000000E+00 0. -1.
         -5    1    5    5    0  502 -0.14538758559E+03 -0.79117025999E+02  0.22985968028E+03  0.28329245748E+03  0.47000000000E+01 0.  1.
         13    1    6    6    0    0 -0.23984197634E+02  0.38480338162E+02  0.93748342492E+02  0.10413803283E+03  0.00000000000E+00 0. -1.
        -14    1    6    6    0    0  0.22171658593E+01 -0.27057031765E+02  0.97960590619E+01  0.28861073534E+02  0.00000000000E+00 0.  1.
</event>
<event>
12    1  0.8494789E-002  0.2456336E+03  0.7818608E-02  0.1116207E+00
         21   -1    0    0  501  502  0.00000000000E+00  0.00000000000E+00  0.13315304500E+03  0.13315304500E+03  0.00000000000E+00 0. -1.
         21   -1    0    0  502  503 -0.00000000000E+00 -0.00000000000E+00 -0.51528700408E+03  0.51528700408E+03  0.00000000000E+00 0. -1.
         -6    2    1    2    0  503  0.10735613297E+02 -0.17252765269E+03 -0.30504185230E+03  0.39164574103E+03  0.17451306677E+03 0.  0.
        -24    2    3    3    0    0 -0.26581805276E+00 -0.17899198544E+02 -0.15774099906E+03  0.17775179139E+03  0.79956391812E+02 0.  0.
          6    2    1    2  501    0 -0.10735613297E+02  0.17252765269E+03 -0.77092106779E+02  0.25679430806E+03  0.17354849290E+03 0.  0.
         24    2    5    5    0    0  0.19757352731E+02  0.18479389244E+03 -0.42449216567E+02  0.20880992042E+03  0.85208633432E+02 0.  0.
          5    1    5    5  501    0 -0.30492966028E+02 -0.12266239746E+02 -0.34642890212E+02  0.47984387638E+02  0.47000000000E+01 0. -1.
        -11    1    6    6    0    0 -0.19505299767E+02  0.88923540871E+02 -0.51880570317E+02  0.10478285364E+03  0.00000000000E+00 0.  1.
         12    1    6    6    0    0  0.39262652498E+02  0.95870351567E+02  0.94313537503E+01  0.10402706679E+03  0.00000000000E+00 0. -1.
         -5    1    3    3    0  503  0.11001431350E+02 -0.15462845415E+03 -0.14730085325E+03  0.21389394964E+03  0.47000000000E+01 0.  1.
         13    1    4    4    0    0  0.14149316202E+02 -0.46739235386E+02 -0.82098289018E+02  0.95524281380E+02  0.00000000000E+00 0. -1.
        -14    1    4    4    0    0 -0.14415134254E+02  0.28840036843E+02 -0.75642710037E+02  0.82227510010E+02  0.00000000000E+00 0.  1.
</event>
<event>
12    1  0.8494789E-002  0.2348465E+03  0.7818608E-02  0.1123380E+00
         21   -1    0    0  501  502  0.00000000000E+00  0.00000000000E+00  0.36629064749E+02  0.36629064749E+02  0.00000000000E+00 0.  1.
         21   -1    0    0  502  503 -0.00000000000E+00 -0.00000000000E+00 -0.16263862302E+04  0.16263862302E+04  0.00000000000E+00 0.  1.
         -6    2    1    2    0  503 -0.13592693684E+03  0.83180750257E+02 -0.56374783757E+03  0.61047170553E+03  0.17166510863E+03 0.  0.
        -24    2    3    3    0    0 -0.15349235031E+03  0.71778625427E+02 -0.55725549272E+03  0.58804866509E+03  0.80965892042E+02 0.  0.
          6    2    1    2  501    0  0.13592693684E+03 -0.83180750257E+02 -0.10260093279E+04  0.10525435894E+04  0.17250419516E+03 0.  0.
         24    2    5    5    0    0  0.51432167128E+02 -0.11042593749E+03 -0.64259156081E+03  0.65895377700E+03  0.80355526915E+02 0.  0.
          5    1    5    5  501    0  0.84494769711E+02  0.27245187229E+02 -0.38341776708E+03  0.39358981243E+03  0.47000000000E+01 0. -1.
        -11    1    6    6    0    0  0.46015199043E+02 -0.90880093483E+02 -0.62111792879E+03  0.62941565869E+03  0.00000000000E+00 0.  1.
         12    1    6    6    0    0  0.54169680845E+01 -0.19545844004E+02 -0.21473632017E+02  0.29538118306E+02  0.00000000000E+00 0. -1.
         -5    1    3    3    0  503  0.17565413468E+02  0.11402124830E+02 -0.64923448436E+01  0.22423040439E+02  0.47000000000E+01 0.  1.
         13    1    4    4    0    0 -0.90065255561E+02  0.23152149312E+01 -0.33042388186E+03  0.34248657226E+03  0.00000000000E+00 0. -1.
        -14    1    4    4    0    0 -0.63427094747E+02  0.69463410496E+02 -0.22683161087E+03  0.24556209283E+03  0.00000000000E+00 0.  1.
</event>
<event>
12    1  0.8494789E-002  0.2135671E+03  0.7818608E-02  0.1139123E+00
         21   -1    0    0  503  502  0.00000000000E+00  0.00000000000E+00  0.17886776157E+03  0.17886776157E+03  0.00000000000E+00 0.  1.
         21   -1    0    0  501  503 -0.00000000000E+00 -0.00000000000E+00 -0.84032080659E+03  0.84032080659E+03  0.00000000000E+00 0.  1.
          6    2    1    2  501    0 -0.91507144556E+02  0.85458957414E+02 -0.75723119711E+03  0.78677188924E+03  0.17301482281E+03 0.  0.
         24    2    3    3    0    0 -0.85207906593E+02  0.18261721792E+02 -0.64570106355E+03  0.65632569510E+03  0.78991624526E+02 0.  0.
         -6    2    1    2    0  502  0.91507144556E+02 -0.85458957414E+02  0.95778152099E+02  0.23241667892E+03  0.17078427127E+03 0.  0.
        -24    2    5    5    0    0 -0.17296048577E+02 -0.21630363879E+02  0.38683938576E+02  0.93874037806E+02  0.80925038971E+02 0.  0.
          5    1    3    3  501    0 -0.62992379629E+01  0.67197235622E+02 -0.11153013356E+03  0.13044619414E+03  0.47000000000E+01 0. -1.
        -13    1    4    4    0    0 -0.77384713352E+02 -0.46144336427E+01 -0.30254526544E+03  0.31231926693E+03  0.00000000000E+00 0.  1.
         14    1    4    4    0    0 -0.78231932413E+01  0.22876155435E+02 -0.34315579812E+03  0.34400642817E+03  0.00000000000E+00 0. -1.
         -5    1    5    5    0  502  0.10880319313E+03 -0.63828593535E+02  0.57094213523E+02  0.13854264111E+03  0.47000000000E+01 0.  1.
         13    1    6    6    0    0 -0.22384649167E+02  0.26858871368E+02  0.68007987480E+01  0.35619129034E+02  0.00000000000E+00 0. -1.
        -14    1    6    6    0    0  0.50886005903E+01 -0.48489235247E+02  0.31883139828E+02  0.58254908772E+02  0.00000000000E+00 0.  1.
</event>
<event>
12    1  0.8494789E-002  0.2086037E+03  0.7818608E-02  0.1142789E+00
         21   -1    0    0  503  502  0.00000000000E+00  0.00000000000E+00  0.86366679923E+02  0.86366679923E+02  0.00000000000E+00 0. -1.
         21   -1    0    0  501  503 -0.00000000000E+00 -0.00000000000E+00 -0.69922035473E+03  0.69922035473E+03  0.00000000000E+00 0. -1.
          6    2    1    2  501    0  0.18961805642E+02  0.11662652383E+03 -0.51447963129E+03  0.55495102692E+03  0.17123099935E+03 0.  0.
         24    2    3    3    0    0 -0.75237338703E+01  0.45849672902E+00 -0.97251489065E+02  0.12101795952E+03  0.71628748491E+02 0.  0.
         -6    2    1    2    0  502 -0.18961805642E+02 -0.11662652383E+03 -0.98374043523E+02  0.23063600773E+03  0.17191340695E+03 0.  0.
        -24    2    5    5    0    0  0.26984897502E+02 -0.22649053004E+02 -0.91847879695E+02  0.12571915795E+03  0.78282241768E+02 0.  0.
          5    1    3    3  501    0  0.26485539512E+02  0.11616802711E+03 -0.41722814222E+03  0.43393306740E+03  0.47000000000E+01 0. -1.
        -11    1    4    4    0    0 -0.72903728084E+01  0.24899062339E+02 -0.61074289081E+01  0.26653583791E+02  0.00000000000E+00 0.  1.
         12    1    4    4    0    0 -0.23336106189E+00 -0.24440565610E+02 -0.91144060157E+02  0.94364375728E+02  0.00000000000E+00 0. -1.
         -5    1    5    5    0  502 -0.45946703144E+02 -0.93977470831E+02 -0.65261638282E+01  0.10491684978E+03  0.47000000000E+01 0.  1.
         13    1    6    6    0    0  0.36306437268E+02 -0.46194536722E+02 -0.51755670302E+02  0.78299055029E+02  0.00000000000E+00 0. -1.
        -14    1    6    6    0    0 -0.93215397655E+01  0.23545483718E+02 -0.40092209393E+02  0.47420102922E+02  0.00000000000E+00 0.  1.
</event>
<event>
12    1  0.8494789E-002  0.1947108E+03  0.7818608E-02  0.1156515E+00
         21   -1    0    0  501  502  0.00000000000E+00  0.00000000000E+00  0.22136765461E+03  0.22136765461E+03  0.00000000000E+00 0. -1.
         21   -1    0    0  502  503 -0.00000000000E+00 -0.00000000000E+00 -0.16263150191E+03  0.16263150191E+03  0.00000000000E+00 0. -1.
         -6    2    1    2    0  503  0.29392914516E+02  0.84397959501E+02  0.29987490401E+02  0.18717747740E+03  0.16170714107E+03 0.  0.
        -24    2    3    3    0    0  0.16035085979E+01  0.10520703177E+03  0.55182101303E+02  0.14402510796E+03  0.81406858711E+02 0.  0.
          6    2    1    2  501    0 -0.29392914516E+02 -0.84397959501E+02  0.28748662299E+02  0.19682167912E+03  0.17298938926E+03 0.  0.
         24    2    5    5    0    0  0.27227611653E+02 -0.45512896214E+02 -0.36386950404E+02  0.10204472953E+03  0.79223418934E+02 0.  0.
          5    1    5    5  501    0 -0.56620526168E+02 -0.38885063287E+02  0.65135612704E+02  0.94776949585E+02  0.47000000000E+01 0. -1.
        -11    1    6    6    0    0 -0.25640651985E+02 -0.86527978886E+00 -0.14488638664E+02  0.29463747109E+02  0.00000000000E+00 0.  1.
         12    1    6    6    0    0  0.52868263638E+02 -0.44647616425E+02 -0.21898311741E+02  0.72580982424E+02  0.00000000000E+00 0. -1.
         -5    1    3    3    0  503  0.27789405918E+02 -0.20809072266E+02 -0.25194610902E+02  0.43152369441E+02  0.47000000000E+01 0.  1.
         13    1    4    4    0    0 -0.39066558509E+02  0.44090209391E+02  0.32008407216E+02  0.67042379808E+02  0.00000000000E+00 0. -1.
        -14    1    4    4    0    0  0.40670067107E+02  0.61116822377E+02  0.23173694087E+02  0.76982728150E+02  0.00000000000E+00 0.  1.
</event>
<event>
12    1  0.8494789E-002  0.2455037E+03  0.7818608E-02  0.1116413E+00
         21   -1    0    0  501  502  0.00000000000E+00  0.00000000000E+00  0.97070428926E+03  0.97070428926E+03  0.00000000000E+00 0. -1.
         21   -1    0    0  502  503 -0.00000000000E+00 -0.00000000000E+00 -0.45476143122E+03  0.45476143122E+03  0.00000000000E+00 0. -1.
         -6    2    1    2    0  503  0.16326753096E+03  0.62873025559E+02 -0.40472783859E+03  0.47262438109E+03  0.17017602142E+03 0.  0.
        -24    2    3    3    0    0  0.17508298086E+03  0.37284923627E+02 -0.26174801641E+03  0.32681740126E+03  0.79078277407E+02 0.  0.
          6    2    1    2  501    0 -0.16326753096E+03 -0.62873025559E+02  0.92067069662E+03  0.95284133938E+03  0.17222886636E+03 0.  0.
         24    2    5    5    0    0 -0.43101556114E+02 -0.61405054139E+02  0.60505893814E+03  0.61509159690E+03  0.81320533370E+02 0.  0.
          5    1    5    5  501    0 -0.12016597485E+03 -0.14679714204E+01  0.31561175849E+03  0.33774974248E+03  0.47000000000E+01 0. -1.
        -13    1    6    6    0    0 -0.39582700402E+02 -0.77684743827E+02  0.56531288566E+03  0.57199682541E+03  0.00000000000E+00 0.  1.
         14    1    6    6    0    0 -0.35188557119E+01  0.16279689688E+02  0.39746052480E+02  0.43094771488E+02  0.00000000000E+00 0. -1.
         -5    1    3    3    0  503 -0.11815449896E+02  0.25588101932E+02 -0.14297982218E+03  0.14580697983E+03  0.47000000000E+01 0.  1.
         13    1    4    4    0    0  0.16071154629E+03  0.35125711791E+02 -0.18024658865E+03  0.24403042732E+03  0.00000000000E+00 0. -1.
        -14    1    4    4    0    0  0.14371434570E+02  0.21592118369E+01 -0.81501427760E+02  0.82786973941E+02  0.00000000000E+00 0.  1.
</event>
<event>
12    1  0.8494789E-002  0.1812278E+03  0.7818608E-02  0.1167790E+00
         21   -1    0    0  503  502  0.00000000000E+00  0.00000000000E+00  0.36464622283E+03  0.36464622283E+03  0.00000000000E+00 0. -1.
         21   -1    0    0  501  503 -0.00000000000E+00 -0.00000000000E+00 -0.11019116561E+03  0.11019116561E+03  0.00000000000E+00 0. -1.
          6    2    1    2  501    0 -0.39944224552E+02  0.76412750590E+01  0.18603137191E+02  0.17739890768E+03  0.17166934955E+03 0.  0.
         24    2    3    3    0    0  0.37150851093E+02 -0.85809724190E+01  0.39632365974E+02  0.95721919093E+02  0.78346298813E+02 0.  0.
         -6    2    1    2    0  502  0.39944224552E+02 -0.76412750590E+01  0.23585192003E+03  0.29743848075E+03  0.17660575159E+03 0.  0.
        -24    2    5    5    0    0  0.43707555232E+00  0.48782288851E+02  0.88796410300E+02  0.13498280579E+03  0.89194465281E+02 0.  0.
          5    1    3    3  501    0 -0.77095075645E+02  0.16222247478E+02 -0.21029228783E+02  0.81676988590E+02  0.47000000000E+01 0. -1.
        -11    1    4    4    0    0  0.16676722270E+02  0.14854582632E+02  0.56194442071E+02  0.60469719782E+02  0.00000000000E+00 0.  1.
         12    1    4    4    0    0  0.20474128823E+02 -0.23435555051E+02 -0.16562076098E+02  0.35252199311E+02  0.00000000000E+00 0. -1.
         -5    1    5    5    0  502  0.39507149000E+02 -0.56423563910E+02  0.14705550972E+03  0.16245567496E+03  0.47000000000E+01 0.  1.
         13    1    6    6    0    0 -0.10456486768E+01  0.59987511345E+02  0.10154519590E+03  0.11794499442E+03  0.00000000000E+00 0. -1.
        -14    1    6    6    0    0  0.14827242291E+01 -0.11205222494E+02 -0.12748785596E+02  0.17037811375E+02  0.00000000000E+00 0.  1.
</event>
<event>
12    1  0.8494789E-002  0.1789905E+03  0.7818608E-02  0.1168890E+00
         21   -1    0    0  501  502  0.00000000000E+00  0.00000000000E+00  0.84108934661E+02  0.84108934661E+02  0.00000000000E+00 0. -1.
         21   -1    0    0  502  503 -0.00000000000E+00 -0.00000000000E+00 -0.77589872149E+03  0.77589872149E+03  0.00000000000E+00 0.  1.
         -6    2    1    2    0  503  0.29710365989E+02 -0.27975071747E+02 -0.65285469291E+03  0.67683135473E+03  0.17382785220E+03 0.  0.
        -24    2    3    3    0    0 -0.12257181355E+02 -0.40353057401E+01 -0.12958839159E+03  0.15131817741E+03  0.77055287912E+02 0.  0.
          6    2    1    2  501    0 -0.29710365989E+02  0.27975071747E+02 -0.38935093919E+02  0.18317630143E+03  0.17427651987E+03 0.  0.
         24    2    5    5    0    0  0.19700343247E+02 -0.13200887554E+02  0.26112949442E+02  0.91578180502E+02  0.84512188821E+02 0.  0.
          5    1    5    5  501    0 -0.49410709236E+02  0.41175959301E+02 -0.65048043361E+02  0.91598120923E+02  0.47000000000E+01 0. -1.
        -13    1    6    6    0    0  0.40232361580E+02  0.98920429130E+01 -0.11406422305E+02  0.42972106081E+02  0.00000000000E+00 0.  1.
         14    1    6    6    0    0 -0.20532018332E+02 -0.23092930467E+02  0.37519371747E+02  0.48606074421E+02  0.00000000000E+00 0. -1.
         -5    1    3    3    0  503  0.41967547344E+02 -0.23939766007E+02 -0.52326630133E+03  0.52551317732E+03  0.47000000000E+01 0.  1.
         13    1    4    4    0    0  0.29056614664E+02  0.86029359186E+01 -0.29445278186E+02  0.42253068168E+02  0.00000000000E+00 0. -1.
        -14    1    4    4    0    0 -0.41313796019E+02 -0.12638241659E+02 -0.10014311340E+03  0.10906510925E+03  0.00000000000E+00 0.  1.
</event>
<event>
12    1  0.8494789E-002  0.1997683E+03  0.7818608E-02  0.1150166E+00
         21   -1    0    0  501  502  0.00000000000E+00  0.00000000000E+00  0.94441869893E+02  0.94441869893E+02  0.00000000000E+00 0. -1.
         21   -1    0    0  502  503 -0.00000000000E+00 -0.00000000000E+00 -0.58207978297E+03  0.58207978297E+03  0.00000000000E+00 0. -1.
         -6    2    1    2    0  503  0.70397992740E+02  0.73572188284E+02 -0.42169163278E+03  0.46614984941E+03  0.17059632084E+03 0.  0.
        -24    2    3    3    0    0  0.10079837721E+03  0.15897239268E+02 -0.23308573154E+03  0.26653807847E+03  0.79376028876E+02 0.  0.
          6    2    1    2  501    0 -0.70397992740E+02 -0.73572188284E+02 -0.65946280298E+02  0.21037180345E+03  0.17186808758E+03 0.  0.
         24    2    5    5    0    0 -0.42292314261E+01 -0.29906286386E+02  0.24282176861E+02  0.90170803270E+02  0.81417917471E+02 0.  0.
          5    1    5    5  501    0 -0.66168761314E+02 -0.43665901898E+02 -0.90228457160E+02  0.12020100018E+03  0.47000000000E+01 0. -1.
        -13    1    6    6    0    0 -0.25037307404E+02 -0.28566598756E+02  0.46272207362E+02  0.59866806334E+02  0.00000000000E+00 0.  1.
         14    1    6    6    0    0  0.20808075978E+02 -0.13396876299E+01 -0.21990030500E+02  0.30303996935E+02  0.00000000000E+00 0. -1.
         -5    1    3    3    0  503 -0.30400384467E+02  0.57674949016E+02 -0.18860590124E+03  0.19961177095E+03  0.47000000000E+01 0.  1.
         13    1    4    4    0    0  0.83683381921E+02 -0.17015648550E+02 -0.19732763301E+03  0.21501310531E+03  0.00000000000E+00 0. -1.
        -14    1    4    4    0    0  0.17114995287E+02  0.32912887817E+02 -0.35758098527E+02  0.51524973153E+02  0.00000000000E+00 0.  1.
</event>
<event>
12    1  0.8494789E-002  0.3155506E+03  0.7818608E-02  0.1077753E+00
         21   -1    0    0  501  502  0.00000000000E+00  0.00000000000E+00  0.46922899191E+03  0.46922899191E+03  0.00000000000E+00 0. -1.
         21   -1    0    0  502  503 -0.00000000000E+00 -0.00000000000E+00 -0.21352416878E+03  0.21352416878E+03  0.00000000000E+00 0.  1.
         -6    2    1    2    0  503 -0.25675940875E+03  0.61757824270E+02  0.98990289544E+02  0.33071322019E+03  0.17272154973E+03 0.  0.
        -24    2    3    3    0    0 -0.26700456127E+03  0.28220013447E+02  0.90777513537E+02  0.29439122141E+03  0.79610485401E+02 0.  0.
          6    2    1    2  501    0  0.25675940875E+03 -0.61757824270E+02  0.15671453358E+03  0.35203994051E+03  0.17214311441E+03 0.  0.
         24    2    5    5    0    0  0.16256777816E+03 -0.98737368689E+02  0.76341912750E+02  0.22272869522E+03  0.87193082076E+02 0.  0.
          5    1    5    5  501    0  0.94191630589E+02  0.36979544418E+02  0.80372620832E+02  0.12931124529E+03  0.47000000000E+01 0. -1.
        -11    1    6    6    0    0  0.31165836786E+02  0.14807523393E+01 -0.14214234328E+02  0.34286243124E+02  0.00000000000E+00 0.  1.
         12    1    6    6    0    0  0.13140194137E+03 -0.10021812103E+03  0.90556147078E+02  0.18844245210E+03  0.00000000000E+00 0. -1.
         -5    1    3    3    0  503  0.10245152520E+02  0.33537810824E+02  0.82127760074E+01  0.36321998771E+02  0.47000000000E+01 0.  1.
         11    1    4    4    0    0 -0.22369009103E+03  0.49640379505E+02  0.89681232745E+02  0.24605720394E+03  0.00000000000E+00 0. -1.
        -12    1    4    4    0    0 -0.43314470233E+02 -0.21420366058E+02  0.10962807913E+01  0.48334017475E+02  0.00000000000E+00 0.  1.
</event>
<event>
12    1  0.8494789E-002  0.3039379E+03  0.7818608E-02  0.1083437E+00
         21   -1    0    0  501  502  0.00000000000E+00  0.00000000000E+00  0.54724719619E+03  0.54724719619E+03  0.00000000000E+00 0.  1.
         21   -1    0    0  502  503 -0.00000000000E+00 -0.00000000000E+00 -0.17079922775E+03  0.17079922775E+03  0.00000000000E+00 0. -1.
         -6    2    1    2    0  503 -0.15109517199E+03  0.20053612724E+03  0.14302044428E+03  0.33481458270E+03  0.16911968536E+03 0.  0.
        -24    2    3    3    0    0 -0.95767889269E+02  0.19526699316E+03  0.68423938383E+02  0.24167167809E+03  0.80141608493E+02 0.  0.
          6    2    1    2  501    0  0.15109517199E+03 -0.20053612724E+03  0.23342752416E+03  0.38323184125E+03  0.17127097181E+03 0.  0.
         24    2    5    5    0    0  0.60634225137E+02 -0.17793343780E+02  0.81491342642E+02  0.12889977275E+03  0.77338219200E+02 0.  0.
          5    1    5    5  501    0  0.90460946849E+02 -0.18274278346E+03  0.15193618152E+03  0.25433206850E+03  0.47000000000E+01 0. -1.
        -13    1    6    6    0    0  0.28436282821E+02 -0.22948918855E+02  0.88323098436E+02  0.95583705592E+02  0.00000000000E+00 0.  1.
         14    1    6    6    0    0  0.32197942316E+02  0.51555750757E+01 -0.68317557940E+01  0.33316067160E+02  0.00000000000E+00 0. -1.
         -5    1    3    3    0  503 -0.55327282718E+02  0.52691340800E+01  0.74596505900E+02  0.93142904611E+02  0.47000000000E+01 0.  1.
         13    1    4    4    0    0 -0.61043479001E+02  0.60848811285E+02 -0.15467797536E+01  0.86204853059E+02  0.00000000000E+00 0. -1.
        -14    1    4    4    0    0 -0.34724410268E+02  0.13441818188E+03  0.69970718137E+02  0.15546682503E+03  0.00000000000E+00 0.  1.
</event>
<event>
12    1  0.8494789E-002  0.2677606E+03  0.7818608E-02  0.1102689E+00
         21   -1    0    0  503  502  0.00000000000E+00  0.00000000000E+00  0.87626685690E+03  0.87626685690E+03  0.00000000000E+00 0.  1.
         21   -1    0    0  501  503 -0.00000000000E+00 -0.00000000000E+00 -0.88971346938E+02  0.88971346938E+02  0.00000000000E+00 0.  1.
          6    2    1    2  501    0 -0.79140494016E+02  0.18826949934E+03  0.25495963386E+03  0.36972986767E+03  0.17316794730E+03 0.  0.
         24    2    3    3    0    0 -0.35057699158E+02  0.19454747004E+03  0.16466587089E+03  0.26894415762E+03  0.78347626073E+02 0.  0.
         -6    2    1    2    0  502  0.79140494016E+02 -0.18826949934E+03  0.53233587610E+03  0.59550833617E+03  0.17187225281E+03 0.  0.
        -24    2    5    5    0    0 -0.14437284617E+02 -0.58148961013E+02  0.24352401308E+03  0.26517133042E+03  0.86151916247E+02 0.  0.
          5    1    3    3  501    0 -0.44082794857E+02 -0.62779707004E+01  0.90293762966E+02  0.10078571004E+03  0.47000000000E+01 0. -1.
        -13    1    4    4    0    0 -0.35195153135E+02  0.15996194836E+03  0.16746446278E+03  0.23424532017E+03  0.00000000000E+00 0.  1.
         14    1    4    4    0    0  0.13745397646E+00  0.34585521686E+02 -0.27985918902E+01  0.34698837451E+02  0.00000000000E+00 0. -1.
         -5    1    5    5    0  502  0.93577778633E+02 -0.13012053833E+03  0.28881186301E+03  0.33033700575E+03  0.47000000000E+01 0.  1.
         11    1    6    6    0    0 -0.25080408300E+02 -0.66144754696E+02  0.10869758760E+03  0.12968932494E+03  0.00000000000E+00 0. -1.
        -12    1    6    6    0    0  0.10643123683E+02  0.79957936830E+01  0.13482642549E+03  0.13548200548E+03  0.00000000000E+00 0.  1.
</event>
<event>
12    1  0.8494789E-002  0.1778877E+03  0.7818608E-02  0.1171648E+00
         21   -1    0    0  503  502  0.00000000000E+00  0.00000000000E+00  0.22223046267E+03  0.22223046267E+03  0.00000000000E+00 0. -1.
         21   -1    0    0  501  503 -0.00000000000E+00 -0.00000000000E+00 -0.33371517632E+03  0.33371517632E+03  0.00000000000E+00 0. -1.
          6    2    1    2  501    0  0.22735027585E+02  0.35612502820E+02 -0.26880740484E+03  0.31847042857E+03  0.16547163244E+03 0.  0.
         24    2    3    3    0    0  0.34313298634E+02 -0.25429124583E+02 -0.83843493645E+02  0.12329390570E+03  0.79671907945E+02 0.  0.
         -6    2    1    2    0  502 -0.22735027585E+02 -0.35612502820E+02  0.15732269119E+03  0.23747521042E+03  0.17279732221E+03 0.  0.
        -24    2    5    5    0    0 -0.53021134509E+02 -0.79375045170E+02  0.10358530067E+03  0.16169786865E+03  0.79401811758E+02 0.  0.
          5    1    3    3  501    0 -0.11578271048E+02  0.61041627403E+02 -0.18496391119E+03  0.19517652287E+03  0.47000000000E+01 0. -1.
        -13    1    4    4    0    0 -0.31489270570E+01 -0.36662016870E+02 -0.74486920476E+02  0.83080205492E+02  0.00000000000E+00 0.  1.
         14    1    4    4    0    0  0.37462225691E+02  0.11232892287E+02 -0.93565731687E+01  0.40213700207E+02  0.00000000000E+00 0. -1.
         -5    1    5    5    0  502  0.30286106924E+02  0.43762542350E+02  0.53737390519E+02  0.75777341767E+02  0.47000000000E+01 0.  1.
         13    1    6    6    0    0 -0.24264710620E+02 -0.52511411967E+02  0.80866581351E+01  0.58409062722E+02  0.00000000000E+00 0. -1.
        -14    1    6    6    0    0 -0.28756423889E+02 -0.26863633202E+02  0.95498642536E+02  0.10328880593E+03  0.00000000000E+00 0.  1.
</event>
<event>
12    1  0.8494789E-002  0.1810685E+03  0.7818608E-02  0.1167312E+00
         21   -1    0    0  503  502  0.00000000000E+00  0.00000000000E+00  0.39812901132E+03  0.39812901132E+03  0.00000000000E+00 0. -1.
         21   -1    0    0  501  503 -0.00000000000E+00 -0.00000000000E+00 -0.39659023266E+03  0.39659023266E+03  0.00000000000E+00 0. -1.
          6    2    1    2  501    0  0.42252123338E+02  0.25523715707E+02 -0.35350557328E+03  0.39616900139E+03  0.17189236555E+03 0.  0.
         24    2    3    3    0    0 -0.39726928836E+02  0.15173252909E+02 -0.13333271920E+03  0.16095447644E+03  0.79500144642E+02 0.  0.
         -6    2    1    2    0  502 -0.42252123338E+02 -0.25523715707E+02  0.35504435194E+03  0.39855024258E+03  0.17420993664E+03 0.  0.
        -24    2    5    5    0    0 -0.49179527663E+02 -0.73626356796E+02  0.18422190512E+03  0.22088693363E+03  0.83748795597E+02 0.  0.
          5    1    3    3  501    0  0.81979052174E+02  0.10350462798E+02 -0.22017285408E+03  0.23521452496E+03  0.47000000000E+01 0. -1.
        -13    1    4    4    0    0  0.22004237996E+02 -0.73900597574E+01 -0.24012313157E+02  0.33397464816E+02  0.00000000000E+00 0.  1.
         14    1    4    4    0    0 -0.61731166832E+02  0.22563312666E+02 -0.10932040604E+03  0.12755701162E+03  0.00000000000E+00 0. -1.
         -5    1    5    5    0  502  0.69274043250E+01  0.48102641090E+02  0.17082244682E+03  0.17766330895E+03  0.47000000000E+01 0.  1.
         11    1    6    6    0    0 -0.58320730920E+02 -0.41663737480E+02  0.63785906674E+02  0.95946946622E+02  0.00000000000E+00 0. -1.
        -12    1    6    6    0    0  0.91412032574E+01 -0.31962619317E+02  0.12043599845E+03  0.12493998700E+03  0.00000000000E+00 0.  1.
</event>
<event>
12    1  0.8494789E-002  0.2031195E+03  0.7818608E-02  0.1147390E+00
         21   -1    0    0  501  502  0.00000000000E+00  0.00000000000E+00  0.44925691691E+03  0.44925691691E+03  0.00000000000E+00 0. -1.
         21   -1    0    0  502  503 -0.00000000000E+00 -0.00000000000E+00 -0.18668048120E+03  0.18668048120E+03  0.00000000000E+00 0. -1.
         -6    2    1    2    0  503  0.73191560253E+02  0.79591764800E+02 -0.95824257434E+02  0.22458814363E+03  0.17194677209E+03 0.  0.
        -24    2    3    3    0    0  0.11145150666E+03  0.88549377453E+02 -0.80160494009E+02  0.18202635551E+03  0.80283614259E+02 0.  0.
          6    2    1    2  501    0 -0.73191560253E+02 -0.79591764800E+02  0.35840069314E+03  0.41134925448E+03  0.17048547973E+03 0.  0.
         24    2    5    5    0    0  0.16072461644E+02 -0.37893358737E+02  0.23048247462E+03  0.24981912323E+03  0.87138926786E+02 0.  0.
          5    1    5    5  501    0 -0.89264021898E+02 -0.41698406063E+02  0.12791821851E+03  0.16153013125E+03  0.47000000000E+01 0. -1.
        -11    1    6    6    0    0 -0.25137743048E+02  0.14423105987E+02  0.55918312011E+02  0.62982455732E+02  0.00000000000E+00 0.  1.
         12    1    6    6    0    0  0.41210204692E+02 -0.52316464724E+02  0.17456416261E+03  0.18683666749E+03  0.00000000000E+00 0. -1.
         -5    1    3    3    0  503 -0.38259946403E+02 -0.89576126531E+01 -0.15663763425E+02  0.42561788118E+02  0.47000000000E+01 0.  1.
         11    1    4    4    0    0  0.79393400160E+02  0.82100139976E+02 -0.92607626092E+02  0.14703712927E+03  0.00000000000E+00 0. -1.
        -12    1    4    4    0    0  0.32058106497E+02  0.64492374775E+01  0.12447132083E+02  0.34989226246E+02  0.00000000000E+00 0.  1.
</event>
<event>
12    1  0.8494789E-002  0.1944983E+03  0.7818608E-02  0.1154770E+00
         21   -1    0    0  501  502  0.00000000000E+00  0.00000000000E+00  0.41188422815E+03  0.41188422815E+03  0.00000000000E+00 0.  1.
         21   -1    0    0  502  503 -0.00000000000E+00 -0.00000000000E+00 -0.14469878928E+03  0.14469878928E+03  0.00000000000E+00 0.  1.
         -6    2    1    2    0  503 -0.88866210709E+02  0.40919560410E+01 -0.35935271111E+02  0.19642782236E+03  0.17140186165E+03 0.  0.
        -24    2    3    3    0    0 -0.12040963089E+03  0.86112365962E+01  0.45833304641E+01  0.14466626977E+03  0.79590766325E+02 0.  0.
          6    2    1    2  501    0  0.88866210709E+02 -0.40919560410E+01  0.30312070998E+03  0.36015519508E+03  0.17296141827E+03 0.  0.
         24    2    5    5    0    0  0.10770698049E+03  0.34305806973E+02  0.27714836803E+03  0.30989571480E+03  0.80289813271E+02 0.  0.
          5    1    5    5  501    0 -0.18840769785E+02 -0.38397763014E+02  0.25972341958E+02  0.50259480274E+02  0.47000000000E+01 0. -1.
        -11    1    6    6    0    0  0.92862593285E+02  0.46209623102E+02  0.27055749517E+03  0.28975877673E+03  0.00000000000E+00 0.  1.
         12    1    6    6    0    0  0.14844387210E+02 -0.11903816129E+02  0.65908728577E+01  0.20136938077E+02  0.00000000000E+00 0. -1.
         -5    1    3    3    0  503  0.31543420178E+02 -0.45192805552E+01 -0.40518601575E+02  0.51761552593E+02  0.47000000000E+01 0.  1.
         13    1    4    4    0    0 -0.18638744397E+02 -0.20232883773E+02  0.24723195142E+02  0.36986602392E+02  0.00000000000E+00 0. -1.
        -14    1    4    4    0    0 -0.10177088649E+03  0.28844120369E+02 -0.20139864678E+02  0.10767966738E+03  0.00000000000E+00 0.  1.
</event>
<event>
12    1  0.8494789E-002  0.1799342E+03  0.7818608E-02  0.1167924E+00
         21   -1    0    0  503  502  0.00000000000E+00  0.00000000000E+00  0.38814828402E+03  0.38814828402E+03  0.00000000000E+00 0.  1.
         21   -1    0    0  501  503 -0.00000000000E+00 -0.00000000000E+00 -0.19983453901E+03  0.19983453901E+03  0.00000000000E+00 0.  1.
          6    2    1    2  501    0 -0.36519804837E+02 -0.36071285363E+02 -0.13032001396E+03  0.22217025867E+03  0.17245719475E+03 0.  0.
         24    2    3    3    0    0 -0.42196179715E+01  0.86664813614E+01 -0.14408455433E+03  0.16510606311E+03  0.80042115195E+02 0.  0.
         -6    2    1    2    0  502  0.36519804837E+02  0.36071285363E+02  0.31863375898E+03  0.36581256437E+03  0.17221070267E+03 0.  0.
        -24    2    5    5    0    0 -0.36196817351E+02  0.30680630846E+02  0.10392565521E+03  0.13901215405E+03  0.79198020595E+02 0.  0.
          5    1    3    3  501    0 -0.32300186865E+02 -0.44737766725E+02  0.13764540362E+02  0.57064195556E+02  0.47000000000E+01 0. -1.
        -11    1    4    4    0    0  0.16124441368E+01 -0.35746589003E+02 -0.66677358485E+02  0.75672245480E+02  0.00000000000E+00 0.  1.
         12    1    4    4    0    0 -0.58320621083E+01  0.44413070365E+02 -0.77407195842E+02  0.89433817629E+02  0.00000000000E+00 0. -1.
         -5    1    5    5    0  502  0.72716622188E+02  0.53906545167E+01  0.21470810376E+03  0.22680041032E+03  0.47000000000E+01 0.  1.
         13    1    6    6    0    0 -0.41175179543E+02  0.12755645805E+02  0.11102559095E+03  0.11909988983E+03  0.00000000000E+00 0. -1.
        -14    1    6    6    0    0  0.49783621916E+01  0.17924985041E+02 -0.70999357418E+01  0.19912264220E+02  0.00000000000E+00 0.  1.
</event>
<event>
12    1  0.8494789E-002  0.2205991E+03  0.7818608E-02  0.1133706E+00
         21   -1    0    0  501  502  0.00000000000E+00  0.00000000000E+00  0.43254401279E+03  0.43254401279E+03  0.00000000000E+00 0.  1.
         21   -1    0    0  502  503 -0.00000000000E+00 -0.00000000000E+00 -0.25027759687E+03  0.25027759687E+03  0.00000000000E+00 0. -1.
         -6    2    1    2    0  503  0.13618259460E+03 -0.14703112805E+02 -0.16298028003E+03  0.27311530994E+03  0.17107752700E+03 0.  0.
        -24    2    3    3    0    0  0.61425689863E+02  0.18038810996E+02 -0.16169857265E+03  0.19135736749E+03  0.79829190255E+02 0.  0.
          6    2    1    2  501    0 -0.13618259460E+03  0.14703112805E+02  0.34524669594E+03  0.40970629972E+03  0.17292220903E+03 0.  0.
         24    2    5    5    0    0 -0.34323074186E+02  0.35708943681E+02  0.25745174309E+03  0.27352021168E+03  0.77966044521E+02 0.  0.
          5    1    5    5  501    0 -0.10185952041E+03 -0.21005830876E+02  0.87794952855E+02  0.13618608804E+03  0.47000000000E+01 0. -1.
        -13    1    6    6    0    0 -0.36645595052E+02 -0.11055948537E+02  0.64804810670E+02  0.75264846514E+02  0.00000000000E+00 0.  1.
         14    1    6    6    0    0  0.23225208654E+01  0.46764892218E+02  0.19264693242E+03  0.19825536517E+03  0.00000000000E+00 0. -1.
         -5    1    3    3    0  503  0.74756904736E+02 -0.32741923801E+02 -0.12817073762E+01  0.81757942450E+02  0.47000000000E+01 0.  1.
         11    1    4    4    0    0 -0.58800796861E+01 -0.22407715559E+02 -0.28407694719E+02  0.36656216021E+02  0.00000000000E+00 0. -1.
        -12    1    4    4    0    0  0.67305769549E+02  0.40446526555E+02 -0.13329087793E+03  0.15470115147E+03  0.00000000000E+00 0.  1.
</event>
<event>
12    1  0.8494789E-002  0.2021693E+03  0.7818608E-02  0.1148109E+00
         21   -1    0    0  503  502  0.00000000000E+00  0.00000000000E+00  0.72095656205E+03  0.72095656205E+03  0.00000000000E+00 0. -1.
         21   -1    0    0  501  503 -0.00000000000E+00 -0.00000000000E+00 -0.72511487992E+02  0.72511487992E+02  0.00000000000E+00 0. -1.
          6    2    1    2  501    0 -0.83061365054E+02  0.63920653911E+02  0.13800993412E+03  0.24478395574E+03  0.17287973481E+03 0.  0.
         24    2    3    3    0    0 -0.54551837922E+02 -0.23075459174E+02  0.92309497213E+02  0.14235477648E+03  0.90749431266E+02 0.  0.
         -6    2    1    2    0  502  0.83061365054E+02 -0.63920653911E+02  0.51043513994E+03  0.54868409431E+03  0.17182887678E+03 0.  0.
        -24    2    5    5    0    0  0.78754772079E+02  0.22874264393E+02  0.27675419225E+03  0.29932335181E+03  0.79221461180E+02 0.  0.
          5    1    3    3  501    0 -0.28509527132E+02  0.86996113085E+02  0.45700436904E+02  0.10242917925E+03  0.47000000000E+01 0. -1.
        -13    1    4    4    0    0 -0.53031836743E+02 -0.50696648966E+02  0.87649465421E+02  0.11430203285E+03  0.00000000000E+00 0.  1.
         14    1    4    4    0    0 -0.15200011790E+01  0.27621189792E+02  0.46600317921E+01  0.28052743634E+02  0.00000000000E+00 0. -1.
         -5    1    5    5    0  502  0.43065929751E+01 -0.86794918304E+02  0.23368094769E+03  0.24936074250E+03  0.47000000000E+01 0.  1.
         11    1    6    6    0    0  0.90509514200E+02  0.82432643077E+01  0.19074484317E+03  0.21129012936E+03  0.00000000000E+00 0. -1.
        -12    1    6    6    0    0 -0.11754742121E+02  0.14631000085E+02  0.86009349081E+02  0.88033222451E+02  0.00000000000E+00 0.  1.
</event>
<event>
12    1  0.8494789E-002  0.1951444E+03  0.7818608E-02  0.1154953E+00
         21   -1    0    0  501  502  0.00000000000E+00  0.00000000000E+00  0.50304260603E+03  0.50304260603E+03  0.00000000000E+00 0. -1.
         21   -1    0    0  502  503 -0.00000000000E+00 -0.00000000000E+00 -0.14809160593E+03  0.14809160593E+03  0.00000000000E+00 0. -1.
         -6    2    1    2    0  503 -0.61580247716E+02  0.55634056389E+02 -0.54102393962E+02  0.19791679437E+03  0.17133800898E+03 0.  0.
        -24    2    3    3    0    0 -0.17461270578E+02  0.17273054888E+02 -0.96716419468E+02  0.12541785817E+03  0.75975778757E+02 0.  0.
          6    2    1    2  501    0  0.61580247716E+02 -0.55634056389E+02  0.40905339406E+03  0.45321741760E+03  0.17661843982E+03 0.  0.
         24    2    5    5    0    0  0.10738013598E+03 -0.28015007091E+02  0.33440594875E+03  0.36126757942E+03  0.79822247274E+02 0.  0.
          5    1    5    5  501    0 -0.45799888261E+02 -0.27619049298E+02  0.74647445307E+02  0.91949838171E+02  0.47000000000E+01 0. -1.
        -11    1    6    6    0    0  0.10042010388E+03  0.39550033287E+00  0.20096277147E+03  0.22465615772E+03  0.00000000000E+00 0.  1.
         12    1    6    6    0    0  0.69600321012E+01 -0.28410507424E+02  0.13344317728E+03  0.13661142171E+03  0.00000000000E+00 0. -1.
         -5    1    3    3    0  503 -0.44118977138E+02  0.38361001501E+02  0.42614025505E+02  0.72498936197E+02  0.47000000000E+01 0.  1.
         11    1    4    4    0    0  0.16991538359E+02  0.34412973853E+02 -0.65290901917E+02  0.75735506985E+02  0.00000000000E+00 0. -1.
        -12    1    4    4    0    0 -0.34452808938E+02 -0.17139918965E+02 -0.31425517551E+02  0.49682351184E+02  0.00000000000E+00 0.  1.
</event>
<event>
12    1  0.8494789E-002  0.1988698E+03  0.7818608E-02  0.1150970E+00
         21   -1    0    0  501  502  0.00000000000E+00  0.00000000000E+00  0.24204491208E+04  0.24204491208E+04  0.00000000000E+00 0.  1.
         21   -1    0    0  502  503 -0.00000000000E+00 -0.00000000000E+00 -0.77757084651E+02  0.77757084651E+02  0.00000000000E+00 0.  1.
         -6    2    1    2    0  503 -0.96907559530E+01  0.97331901771E+02  0.61056774568E+02  0.20803151069E+03  0.17315244690E+03 0.  0.
        -24    2    3    3    0    0  0.40420805870E+02  0.61353406017E+02  0.89124217304E+02  0.14009409739E+03  0.79278925546E+02 0.  0.
          6    2    1    2  501    0  0.96907559530E+01 -0.97331901771E+02  0.22816352616E+04  0.22901746948E+04  0.17167776723E+03 0.  0.
         24    2    5    5    0    0  0.65014881947E+02 -0.82431642131E+02  0.18534011681E+04  0.18580991163E+04  0.80090734102E+02 0.  0.
          5    1    5    5  501    0 -0.55324125994E+02 -0.14900259640E+02  0.42823409348E+03  0.43207557843E+03  0.47000000000E+01 0. -1.
        -13    1    6    6    0    0  0.49970991266E+02 -0.58965636647E+02  0.17239095306E+04  0.17256413637E+04  0.00000000000E+00 0.  1.
         14    1    6    6    0    0  0.15043890682E+02 -0.23466005484E+02  0.12949163749E+03  0.13245775266E+03  0.00000000000E+00 0. -1.
         -5    1    3    3    0  503 -0.50111561823E+02  0.35978495755E+02 -0.28067442736E+02  0.67937413307E+02  0.47000000000E+01 0.  1.
         11    1    4    4    0    0 -0.20974236738E+02  0.17684361934E+02  0.45226324820E+02  0.52896840363E+02  0.00000000000E+00 0. -1.
        -12    1    4    4    0    0  0.61395042608E+02  0.43669044083E+02  0.43897892484E+02  0.87197257024E+02  0.00000000000E+00 0.  1.
</event>
<event>
12    1  0.8494789E-002  0.1957978E+03  0.7818608E-02  0.1153410E+00
         21   -1    0    0  501  502  0.00000000000E+00  0.00000000000E+00  0.16927098133E+03  0.16927098133E+03  0.00000000000E+00 0. -1.
         21   -1    0    0  502  503 -0.00000000000E+00 -0.00000000000E+00 -0.46562948651E+03  0.46562948651E+03  0.00000000000E+00 0. -1.
         -6    2    1    2    0  503 -0.78789638673E+02 -0.49727684589E+02 -0.37581230246E+03  0.42359577107E+03  0.17180756912E+03 0.  0.
        -24    2    3    3    0    0 -0.92142563803E+02  0.94446126388E+01 -0.31295794374E+03  0.33611764935E+03  0.80330236420E+02 0.  0.
          6    2    1    2  501    0  0.78789638673E+02  0.49727684589E+02  0.79453797279E+02  0.21130469677E+03  0.17220952122E+03 0.  0.
         24    2    5    5    0    0 -0.16384587422E+01 -0.76305969580E+01  0.80148663927E+02  0.11240462521E+03  0.78422451388E+02 0.  0.
          5    1    5    5  501    0  0.80428097416E+02  0.57358281547E+02 -0.69486664767E+00  0.98900071565E+02  0.47000000000E+01 0. -1.
        -11    1    6    6    0    0  0.12898916832E+02  0.16221140264E+02 -0.62147694762E+01  0.21636330709E+02  0.00000000000E+00 0.  1.
         12    1    6    6    0    0 -0.14537375574E+02 -0.23851737222E+02  0.86363433403E+02  0.90768294499E+02  0.00000000000E+00 0. -1.
         -5    1    3    3    0  503  0.13352925130E+02 -0.59172297228E+02 -0.62854358721E+02  0.87478121716E+02  0.47000000000E+01 0.  1.
         11    1    4    4    0    0 -0.60403983549E+02  0.26885380644E+02 -0.98559363643E+02  0.11868198297E+03  0.00000000000E+00 0. -1.
        -12    1    4    4    0    0 -0.31738580254E+02 -0.17440768005E+02 -0.21439858010E+03  0.21743566638E+03  0.00000000000E+00 0.  1.
</event>
<event>
12    1  0.8494789E-002  0.4030970E+03  0.7818608E-02  0.1042761E+00
         21   -1    0    0  503  502  0.00000000000E+00  0.00000000000E+00  0.54712284752E+03  0.54712284752E+03  0.00000000000E+00 0. -1.
         21   -1    0    0  501  503 -0.00000000000E+00 -0.00000000000E+00 -0.38682713595E+03  0.38682713595E+03  0.00000000000E+00 0. -1.
          6    2    1    2  501    0  0.34177421083E+03 -0.12610294342E+03 -0.14545818860E+03  0.42801259861E+03  0.17124583619E+03 0.  0.
         24    2    3    3    0    0  0.13583850827E+03  0.74853953202E+01 -0.51689660863E+02  0.16520090817E+03  0.78175364084E+02 0.  0.
         -6    2    1    2    0  502 -0.34177421083E+03  0.12610294342E+03  0.30575390017E+03  0.50593738487E+03  0.17255615438E+03 0.  0.
        -24    2    5    5    0    0 -0.27160935310E+03  0.71779664672E+02  0.29706971005E+03  0.41665339397E+03  0.80160321387E+02 0.  0.
          5    1    3    3  501    0  0.20593570256E+03 -0.13358833874E+03 -0.93768527737E+02  0.26281169043E+03  0.47000000000E+01 0. -1.
        -13    1    4    4    0    0  0.38683348783E+02 -0.20325353300E+02  0.12537160667E+02  0.45460992701E+02  0.00000000000E+00 0.  1.
         14    1    4    4    0    0  0.97155159486E+02  0.27810748620E+02 -0.64226821530E+02  0.11973991547E+03  0.00000000000E+00 0. -1.
         -5    1    5    5    0  502 -0.70164857722E+02  0.54323278745E+02  0.86841901213E+01  0.89283990899E+02  0.47000000000E+01 0.  1.
         13    1    6    6    0    0 -0.18790513962E+03  0.48758732586E+02  0.14785360032E+03  0.24402139788E+03  0.00000000000E+00 0. -1.
        -14    1    6    6    0    0 -0.83704213484E+02  0.23020932086E+02  0.14921610973E+03  0.17263199608E+03  0.00000000000E+00 0.  1.
</event>
<event>
12    1  0.8494789E-002  0.1892282E+03  0.7818608E-02  0.1159197E+00
         21   -1    0    0  503  502  0.00000000000E+00  0.00000000000E+00  0.10790781531E+04  0.10790781531E+04  0.00000000000E+00 0. -1.
         21   -1    0    0  501  503 -0.00000000000E+00 -0.00000000000E+00 -0.17668505039E+03  0.17668505039E+03  0.00000000000E+00 0. -1.
          6    2    1    2  501    0 -0.65719686038E+02 -0.45123809112E+02 -0.11468049988E+03  0.22126663136E+03  0.17161605350E+03 0.  0.
         24    2    3    3    0    0 -0.12127839897E+02  0.37246555520E+02 -0.69851107576E+02  0.11315221347E+03  0.79936573506E+02 0.  0.
         -6    2    1    2    0  502  0.65719686038E+02  0.45123809112E+02  0.10170736026E+04  0.10344965721E+04  0.17143281297E+03 0.  0.
        -24    2    5    5    0    0  0.83202942409E+02  0.69370732581E+02  0.96400297015E+03  0.97340516865E+03  0.80503836656E+02 0.  0.
          5    1    3    3  501    0 -0.53591846141E+02 -0.82370364632E+02 -0.44829392305E+02  0.10811441789E+03  0.47000000000E+01 0. -1.
        -13    1    4    4    0    0  0.16837943121E+02 -0.17884094488E+02 -0.92238837511E+01  0.26238086737E+02  0.00000000000E+00 0.  1.
         14    1    4    4    0    0 -0.28965783017E+02  0.55130650008E+02 -0.60627223825E+02  0.86914126728E+02  0.00000000000E+00 0. -1.
         -5    1    5    5    0  502 -0.17483256371E+02 -0.24246923469E+02  0.53070632418E+02  0.61091403456E+02  0.47000000000E+01 0.  1.
         11    1    6    6    0    0  0.27346424939E+02 -0.21311939664E+01  0.49178739458E+03  0.49255173375E+03  0.00000000000E+00 0. -1.
        -12    1    6    6    0    0  0.55856517470E+02  0.71501926547E+02  0.47221557557E+03  0.48085343490E+03  0.00000000000E+00 0.  1.
</event>
<event>
12    1  0.8494789E-002  0.1851208E+03  0.7818608E-02  0.1163412E+00
         21   -1    0    0  503  502  0.00000000000E+00  0.00000000000E+00  0.37272538006E+03  0.37272538006E+03  0.00000000000E+00 0.  1.
         21   -1    0    0  501  503 -0.00000000000E+00 -0.00000000000E+00 -0.18750076487E+03  0.18750076487E+03  0.00000000000E+00 0.  1.
          6    2    1    2  501    0 -0.66916184447E+02  0.25171958359E+01 -0.10815409677E+03  0.21439924801E+03  0.17258510040E+03 0.  0.
         24    2    3    3    0    0 -0.83942136305E+02 -0.46381278233E+02 -0.10079806969E+03  0.16189072549E+03  0.82769867260E+02 0.  0.
         -6    2    1    2    0  502  0.66916184447E+02 -0.25171958359E+01  0.29337871196E+03  0.34582689693E+03  0.17041438317E+03 0.  0.
        -24    2    5    5    0    0  0.43747297942E+02 -0.67076672054E+02  0.18466798258E+03  0.21720016583E+03  0.81612145142E+02 0.  0.
          5    1    3    3  501    0  0.17025951858E+02  0.48898474069E+02 -0.73560270803E+01  0.52508522521E+02  0.47000000000E+01 0. -1.
        -13    1    4    4    0    0 -0.70754099145E+01 -0.26350867593E+02 -0.72671176316E+02  0.77624284315E+02  0.00000000000E+00 0.  1.
         14    1    4    4    0    0 -0.76866726390E+02 -0.20030410640E+02 -0.28126893378E+02  0.84266441170E+02  0.00000000000E+00 0. -1.
         -5    1    5    5    0  502  0.23168886505E+02  0.64559476218E+02  0.10871072939E+03  0.12862673111E+03  0.47000000000E+01 0.  1.
         11    1    6    6    0    0 -0.22207655731E+02 -0.25026399813E+02  0.35592822064E+02  0.48850277821E+02  0.00000000000E+00 0. -1.
        -12    1    6    6    0    0  0.65954953673E+02 -0.42050272242E+02  0.14907516051E+03  0.16834988800E+03  0.00000000000E+00 0.  1.
</event>
<event>
12    1  0.8494789E-002  0.1797291E+03  0.7818608E-02  0.1168359E+00
         21   -1    0    0  503  502  0.00000000000E+00  0.00000000000E+00  0.15520248008E+03  0.15520248008E+03  0.00000000000E+00 0.  1.
         21   -1    0    0  501  503 -0.00000000000E+00 -0.00000000000E+00 -0.21988274171E+03  0.21988274171E+03  0.00000000000E+00 0.  1.
          6    2    1    2  501    0  0.52974534337E+02  0.13516600000E+02 -0.78300535184E+02  0.19604467528E+03  0.17121197718E+03 0.  0.
         24    2    3    3    0    0 -0.34206247674E+02  0.61157293663E+01 -0.17554080373E+02  0.89426274376E+02  0.80507411370E+02 0.  0.
         -6    2    1    2    0  502 -0.52974534337E+02 -0.13516600000E+02  0.13620273555E+02  0.17904054651E+03  0.16994412516E+03 0.  0.
        -24    2    5    5    0    0 -0.59599029242E+02 -0.53158607437E+02 -0.31975147135E+02  0.11807822147E+03  0.80883709850E+02 0.  0.
          5    1    3    3  501    0  0.87180782011E+02  0.74008706337E+01 -0.60746454811E+02  0.10661840090E+03  0.47000000000E+01 0. -1.
        -13    1    4    4    0    0  0.14087829959E+02 -0.25987746402E+02 -0.35905481729E+01  0.29777876892E+02  0.00000000000E+00 0.  1.
         14    1    4    4    0    0 -0.48294077634E+02  0.32103475769E+02 -0.13963532201E+02  0.59648397484E+02  0.00000000000E+00 0. -1.
         -5    1    5    5    0  502  0.66244949047E+01  0.39642007437E+02  0.45595420690E+02  0.60962325040E+02  0.47000000000E+01 0.  1.
         11    1    6    6    0    0 -0.73023534831E+02 -0.24811193221E+02 -0.60053685828E+01  0.77356941512E+02  0.00000000000E+00 0. -1.
        -12    1    6    6    0    0  0.13424505589E+02 -0.28347414216E+02 -0.25969778552E+02  0.40721279954E+02  0.00000000000E+00 0.  1.
</event>
<event>
12    1  0.8494789E-002  0.2050345E+03  0.7818608E-02  0.1145910E+00
         21   -1    0    0  501  502  0.00000000000E+00  0.00000000000E+00  0.57575737558E+03  0.57575737558E+03  0.00000000000E+00 0. -1.
         21   -1    0    0  502  503 -0.00000000000E+00 -0.00000000000E+00 -0.36023986902E+03  0.36023986902E+03  0.00000000000E+00 0. -1.
         -6    2    1    2    0  503 -0.10582769656E+03  0.22352259756E+02 -0.31047841482E+03  0.37206988517E+03  0.17418389278E+03 0.  0.
        -24    2    3    3    0    0 -0.91665163167E+02  0.79930708008E+02 -0.22769823319E+03  0.27013606582E+03  0.79596409723E+02 0.  0.
          6    2    1    2  501    0  0.10582769656E+03 -0.22352259756E+02  0.52599592138E+03  0.56392735943E+03  0.17217210151E+03 0.  0.
         24    2    5    5    0    0  0.76677825962E+01 -0.37179991609E+02  0.15964418012E+03  0.18433426326E+03  0.83974458614E+02 0.  0.
          5    1    5    5  501    0  0.98159913964E+02  0.14827731852E+02  0.36635174126E+03  0.37959309617E+03  0.47000000000E+01 0. -1.
        -13    1    6    6    0    0 -0.25297968720E+02  0.15319407330E+02  0.61675458960E+02  0.68399807750E+02  0.00000000000E+00 0.  1.
         14    1    6    6    0    0  0.32965751317E+02 -0.52499398938E+02  0.97968721159E+02  0.11593445551E+03  0.00000000000E+00 0. -1.
         -5    1    3    3    0  503 -0.14162533394E+02 -0.57578448251E+02 -0.82780181633E+02  0.10193381935E+03  0.47000000000E+01 0.  1.
         11    1    4    4    0    0 -0.37869039523E+02 -0.54457569178E+01 -0.31698630109E+02  0.49684238684E+02  0.00000000000E+00 0. -1.
        -12    1    4    4    0    0 -0.53796123644E+02  0.85376464926E+02 -0.19599960308E+03  0.22045182714E+03  0.00000000000E+00 0.  1.
</event>
<event>
12    1  0.8494789E-002  0.2018830E+03  0.7818608E-02  0.1149232E+00
         21   -1    0    0  501  502  0.00000000000E+00  0.00000000000E+00  0.35351062388E+03  0.35351062388E+03  0.00000000000E+00 0. -1.
         21   -1    0    0  502  503 -0.00000000000E+00 -0.00000000000E+00 -0.17029681035E+03  0.17029681035E+03  0.00000000000E+00 0. -1.
         -6    2    1    2    0  503  0.26648201796E+02  0.92690561368E+02 -0.60308957909E+02  0.21069867157E+03  0.17735583716E+03 0.  0.
        -24    2    3    3    0    0  0.33955811334E+02  0.16035034703E+02 -0.92822839401E+02  0.12698061250E+03  0.78088904303E+02 0.  0.
          6    2    1    2  501    0 -0.26648201796E+02 -0.92690561368E+02  0.24352277144E+03  0.31310876266E+03  0.17155783345E+03 0.  0.
         24    2    5    5    0    0  0.20012273239E+02  0.22103498501E+02  0.56746787684E+02  0.88916358191E+02  0.61618707511E+02 0.  0.
          5    1    5    5  501    0 -0.46660475035E+02 -0.11479405987E+03  0.18677598375E+03  0.22419240446E+03  0.47000000000E+01 0. -1.
        -11    1    6    6    0    0 -0.13588533196E+01  0.68776706960E+01 -0.12794381258E+02  0.14589209311E+02  0.00000000000E+00 0.  1.
         12    1    6    6    0    0  0.21371126559E+02  0.15225827805E+02  0.69541168943E+02  0.74327148880E+02  0.00000000000E+00 0. -1.
         -5    1    3    3    0  503 -0.73076095380E+01  0.76655526665E+02  0.32513881492E+02  0.83718059074E+02  0.47000000000E+01 0.  1.
         13    1    4    4    0    0  0.14375846805E+02  0.34080406097E+02 -0.93283748650E+02  0.10034937376E+03  0.00000000000E+00 0. -1.
        -14    1    4    4    0    0  0.19579964529E+02 -0.18045371394E+02  0.46090924953E+00  0.26631238744E+02  0.00000000000E+00 0.  1.
</event>
<event>
12    1  0.8494789E-002  0.1868693E+03  0.7818608E-02  0.1161768E+00
         21   -1    0    0  501  502  0.00000000000E+00  0.00000000000E+00  0.17497334016E+03  0.17497334016E+03  0.00000000000E+00 0.  1.
         21   -1    0    0  502  503 -0.00000000000E+00 -0.00000000000E+00 -0.21300724191E+03  0.21300724191E+03  0.00000000000E+00 0.  1.
         -6    2    1    2    0  503  0.68367021350E+02 -0.77015427556E+01 -0.71272164593E+02  0.19817830206E+03  0.17164368497E+03 0.  0.
        -24    2    3    3    0    0  0.84171665162E+02  0.48760315199E+02 -0.37968272504E+02  0.13058416475E+03  0.78410438160E+02 0.  0.
          6    2    1    2  501    0 -0.68367021350E+02  0.77015427556E+01  0.33238262840E+02  0.18980228002E+03  0.17374337402E+03 0.  0.
         24    2    5    5    0    0 -0.38387441476E+01 -0.36063269404E+02  0.62094416187E+02  0.10653148725E+03  0.78599910293E+02 0.  0.
          5    1    5    5  501    0 -0.64528277203E+02  0.43764812160E+02 -0.28856153347E+02  0.83270792768E+02  0.47000000000E+01 0. -1.
        -11    1    6    6    0    0 -0.27023337752E+02 -0.15711111338E+02 -0.59503154453E+01  0.31819900324E+02  0.00000000000E+00 0.  1.
         12    1    6    6    0    0  0.23184593605E+02 -0.20352158066E+02  0.68044731632E+02  0.74711586929E+02  0.00000000000E+00 0. -1.
         -5    1    3    3    0  503 -0.15804643811E+02 -0.56461857954E+02 -0.33303892089E+02  0.67594137305E+02  0.47000000000E+01 0.  1.
         13    1    4    4    0    0  0.36051511489E+02 -0.14523570291E+02 -0.32899624623E+02  0.50921811387E+02  0.00000000000E+00 0. -1.
        -14    1    4    4    0    0  0.48120153673E+02  0.63283885489E+02 -0.50686478807E+01  0.79662353364E+02  0.00000000000E+00 0.  1.
</event>
<event>
12    1  0.8494789E-002  0.2008053E+03  0.7818608E-02  0.1149099E+00
         21   -1    0    0  501  502  0.00000000000E+00  0.00000000000E+00  0.22824601996E+04  0.22824601996E+04  0.00000000000E+00 0.  1.
         21   -1    0    0  502  503 -0.00000000000E+00 -0.00000000000E+00 -0.50893035578E+02  0.50893035578E+02  0.00000000000E+00 0.  1.
         -6    2    1    2    0  503  0.10162024799E+03  0.17712236953E+02  0.17305159489E+03  0.26508418816E+03  0.17228573411E+03 0.  0.
        -24    2    3    3    0    0  0.10830133862E+03 -0.41377350669E+02  0.12845077047E+03  0.19060237913E+03  0.79927475876E+02 0.  0.
          6    2    1    2  501    0 -0.10162024799E+03 -0.17712236953E+02  0.20585155692E+04  0.20682690471E+04  0.17207586802E+03 0.  0.
         24    2    5    5    0    0 -0.54968508318E+02  0.39092228296E+02  0.16412462600E+04  0.16445487401E+04  0.79382199733E+02 0.  0.
          5    1    5    5  501    0 -0.46651739675E+02 -0.56804465249E+02  0.41726930922E+03  0.42372030693E+03  0.47000000000E+01 0. -1.
        -13    1    6    6    0    0 -0.69361409524E+02  0.14222707651E+02  0.13591013020E+04  0.13609443925E+04  0.00000000000E+00 0.  1.
         14    1    6    6    0    0  0.14392901206E+02  0.24869520644E+02  0.28214495800E+03  0.28360434762E+03  0.00000000000E+00 0. -1.
         -5    1    3    3    0  503 -0.66810906307E+01  0.59089587622E+02  0.44600824419E+02  0.74481809029E+02  0.47000000000E+01 0.  1.
         13    1    4    4    0    0  0.76108301247E+02 -0.41396014657E+02  0.13233812783E+03  0.15817548364E+03  0.00000000000E+00 0. -1.
        -14    1    4    4    0    0  0.32193037376E+02  0.18663988166E-01 -0.38873573572E+01  0.32426895489E+02  0.00000000000E+00 0.  1.
</event>
<event>
12    1  0.8494789E-002  0.1939862E+03  0.7818608E-02  0.1155653E+00
         21   -1    0    0  501  502  0.00000000000E+00  0.00000000000E+00  0.21080735010E+04  0.21080735010E+04  0.00000000000E+00 0. -1.
         21   -1    0    0  502  503 -0.00000000000E+00 -0.00000000000E+00 -0.20928339375E+02  0.20928339375E+02  0.00000000000E+00 0.  1.
         -6    2    1    2    0  503  0.93124049957E+01 -0.81696522344E+02  0.62317146955E+03  0.65266633445E+03  0.17569752705E+03 0.  0.
        -24    2    3    3    0    0  0.20594599102E+02 -0.18539030009E+02  0.13078357350E+03  0.15609399640E+03  0.80580143137E+02 0.  0.
          6    2    1    2  501    0 -0.93124049957E+01  0.81696522344E+02  0.14639736921E+04  0.14763355059E+04  0.17200730309E+03 0.  0.
         24    2    5    5    0    0  0.58650767393E+02  0.31341161825E+02  0.70517489703E+03  0.71282233872E+03  0.80136572400E+02 0.  0.
          5    1    5    5  501    0 -0.67963172389E+02  0.50355360520E+02  0.75879879506E+03  0.76351316722E+03  0.47000000000E+01 0. -1.
        -11    1    6    6    0    0  0.10637029626E+01  0.13742724865E+02  0.16412795609E+02  0.21433007498E+02  0.00000000000E+00 0.  1.
         12    1    6    6    0    0  0.57587064430E+02  0.17598436960E+02  0.68876210143E+03  0.69138933123E+03  0.00000000000E+00 0. -1.
         -5    1    3    3    0  503 -0.11282194106E+02 -0.63157492335E+02  0.49238789605E+03  0.49657233805E+03  0.47000000000E+01 0.  1.
         11    1    4    4    0    0 -0.16532208336E+02  0.22718618392E+02  0.59060942614E+02  0.65403703844E+02  0.00000000000E+00 0. -1.
        -12    1    4    4    0    0  0.37126807438E+02 -0.41257648402E+02  0.71722630885E+02  0.90690292552E+02  0.00000000000E+00 0.  1.
</event>
<event>
12    1  0.8494789E-002  0.2331019E+03  0.7818608E-02  0.1125768E+00
         21   -1    0    0  503  502  0.00000000000E+00  0.00000000000E+00  0.15503654426E+03  0.15503654426E+03  0.00000000000E+00 0. -1.
         21   -1    0    0  501  503 -0.00000000000E+00 -0.00000000000E+00 -0.39521957793E+03  0.39521957793E+03  0.00000000000E+00 0. -1.
          6    2    1    2  501    0 -0.14471757958E+03 -0.26941912632E+02 -0.22502531186E+03  0.32399522293E+03  0.18074144242E+03 0.  0.
         24    2    3    3    0    0 -0.46697296879E+02 -0.54097304844E+02 -0.18677312114E+03  0.21522614993E+03  0.79567209996E+02 0.  0.
         -6    2    1    2    0  502  0.14471757958E+03  0.26941912632E+02 -0.15157721817E+02  0.22626089926E+03  0.17115838719E+03 0.  0.
        -24    2    5    5    0    0  0.11305220406E+02 -0.18218112080E+02 -0.35998348003E+02  0.83801406374E+02  0.72574699691E+02 0.  0.
          5    1    3    3  501    0 -0.98020282700E+02  0.27155392212E+02 -0.38252190722E+02  0.10876907300E+03  0.47000000000E+01 0. -1.
        -13    1    4    4    0    0 -0.53782793784E+02 -0.64501525657E+02 -0.11524525268E+03  0.14259910233E+03  0.00000000000E+00 0.  1.
         14    1    4    4    0    0  0.70854969053E+01  0.10404220813E+02 -0.71527868461E+02  0.72627047604E+02  0.00000000000E+00 0. -1.
         -5    1    5    5    0  502  0.13341235917E+03  0.45160024712E+02  0.20840626186E+02  0.14245949288E+03  0.47000000000E+01 0.  1.
         11    1    6    6    0    0  0.17627934906E+02 -0.42542069348E+02 -0.90093231895E+01  0.46922698748E+02  0.00000000000E+00 0. -1.
        -12    1    6    6    0    0 -0.63227145001E+01  0.24323957268E+02 -0.26989024813E+02  0.36878707626E+02  0.00000000000E+00 0.  1.
</event>
<event>
12    1  0.8494789E-002  0.1804001E+03  0.7818608E-02  0.1167571E+00
         21   -1    0    0  501  502  0.00000000000E+00  0.00000000000E+00  0.51921210877E+02  0.51921210877E+02  0.00000000000E+00 0. -1.
         21   -1    0    0  502  503 -0.00000000000E+00 -0.00000000000E+00 -0.77359574227E+03  0.77359574227E+03  0.00000000000E+00 0. -1.
         -6    2    1    2    0  503  0.15283016164E+02  0.50194114636E+02 -0.54147447898E+03  0.57053413489E+03  0.17193477822E+03 0.  0.
        -24    2    3    3    0    0  0.54578555214E+02  0.81716911200E+02 -0.34040489160E+03  0.36319649947E+03  0.79873241680E+02 0.  0.
          6    2    1    2  501    0 -0.15283016164E+02 -0.50194114636E+02 -0.18020005241E+03  0.25498281825E+03  0.17260115581E+03 0.  0.
         24    2    5    5    0    0 -0.73504545530E+02 -0.43006908822E+02 -0.97832018167E+02  0.15375048412E+03  0.82556617955E+02 0.  0.
          5    1    5    5  501    0  0.58221529366E+02 -0.71872058144E+01 -0.82368034238E+02  0.10123233413E+03  0.47000000000E+01 0. -1.
        -13    1    6    6    0    0 -0.24203502244E+01 -0.14022136048E+02 -0.71027716920E+02  0.72439043102E+02  0.00000000000E+00 0.  1.
         14    1    6    6    0    0 -0.71084195306E+02 -0.28984772774E+02 -0.26804301247E+02  0.81311441018E+02  0.00000000000E+00 0. -1.
         -5    1    3    3    0  503 -0.39295539050E+02 -0.31522796564E+02 -0.20106958738E+03  0.20733763542E+03  0.47000000000E+01 0.  1.
         11    1    4    4    0    0  0.13777662938E+02  0.77072869997E+02 -0.27535170120E+03  0.28626667748E+03  0.00000000000E+00 0. -1.
        -12    1    4    4    0    0  0.40800892277E+02  0.46440412031E+01 -0.65053190409E+02  0.76929821992E+02  0.00000000000E+00 0.  1.
</event>
<event>
12    1  0.8494789E-002  0.3746297E+03  0.7818608E-02  0.1052982E+00
         21   -1    0    0  501  502  0.00000000000E+00  0.00000000000E+00  0.37184026202E+03  0.37184026202E+03  0.00000000000E+00 0.  1.
         21   -1    0    0  502  503 -0.00000000000E+00 -0.00000000000E+00 -0.44430180751E+03  0.44430180751E+03  0.00000000000E+00 0. -1.
         -6    2    1    2    0  503  0.31865486131E+03  0.94137857399E+02 -0.19508047054E+03  0.42195583479E+03  0.17201011509E+03 0.  0.
        -24    2    3    3    0    0  0.62753446137E+02  0.13490473558E+02 -0.29348981696E+02  0.10655362934E+03  0.79826845858E+02 0.  0.
          6    2    1    2  501    0 -0.31865486131E+03 -0.94137857399E+02  0.12261892505E+03  0.39418623475E+03  0.17304487872E+03 0.  0.
         24    2    5    5    0    0 -0.82078635694E+02 -0.10940564826E+02 -0.21579771845E+00  0.11490043286E+03  0.79658423950E+02 0.  0.
          5    1    5    5  501    0 -0.23657622562E+03 -0.83197292573E+02  0.12283472277E+03  0.27928580189E+03  0.47000000000E+01 0. -1.
        -11    1    6    6    0    0 -0.71003642975E+01 -0.30494151606E+02  0.16851916756E+02  0.35556933975E+02  0.00000000000E+00 0.  1.
         12    1    6    6    0    0 -0.74978271397E+02  0.19553586781E+02 -0.17067714474E+02  0.79343498883E+02  0.00000000000E+00 0. -1.
         -5    1    3    3    0  503  0.25590141517E+03  0.80647383841E+02 -0.16573148884E+03  0.31540220545E+03  0.47000000000E+01 0.  1.
         13    1    4    4    0    0  0.10195184650E+02  0.32424534411E+01 -0.48513756137E+02  0.49679370255E+02  0.00000000000E+00 0. -1.
        -14    1    4    4    0    0  0.52558261488E+02  0.10248020117E+02  0.19164774441E+02  0.56874259083E+02  0.00000000000E+00 0.  1.
</event>
<event>
12    1  0.8494789E-002  0.1832193E+03  0.7818608E-02  0.1164909E+00
         21   -1    0    0  501  502  0.00000000000E+00  0.00000000000E+00  0.68138193594E+03  0.68138193594E+03  0.00000000000E+00 0.  1.
         21   -1    0    0  502  503 -0.00000000000E+00 -0.00000000000E+00 -0.49062383356E+02  0.49062383356E+02  0.00000000000E+00 0.  1.
         -6    2    1    2    0  503 -0.45331222102E+02  0.45196354178E+02  0.31962559944E+03  0.36802628916E+03  0.17083675123E+03 0.  0.
        -24    2    3    3    0    0 -0.17052071282E+02 -0.39789530046E+02  0.18269201024E+03  0.20433386803E+03  0.80634850893E+02 0.  0.
          6    2    1    2  501    0  0.45331222102E+02 -0.45196354178E+02  0.31269395315E+03  0.36241803013E+03  0.17167320730E+03 0.  0.
         24    2    5    5    0    0  0.20918156814E+02 -0.96081811008E+02  0.21174106928E+03  0.24666440283E+03  0.79622631906E+02 0.  0.
          5    1    5    5  501    0  0.24413065288E+02  0.50885456830E+02  0.10095288386E+03  0.11575362730E+03  0.47000000000E+01 0. -1.
        -11    1    6    6    0    0  0.97110248266E+01 -0.38191507930E+02  0.16514358925E+02  0.42727266843E+02  0.00000000000E+00 0.  1.
         12    1    6    6    0    0  0.11207131987E+02 -0.57890303077E+02  0.19522671036E+03  0.20393713599E+03  0.00000000000E+00 0. -1.
         -5    1    3    3    0  503 -0.28279150820E+02  0.84985884224E+02  0.13693358919E+03  0.16369242114E+03  0.47000000000E+01 0.  1.
         11    1    4    4    0    0  0.10669183850E+02 -0.25686863495E+02  0.11102745581E+02  0.29948579259E+02  0.00000000000E+00 0. -1.
        -12    1    4    4    0    0 -0.27721255132E+02 -0.14102666551E+02  0.17158926466E+03  0.17438528877E+03  0.00000000000E+00 0.  1.
</event>
<event>
12    1  0.8494789E-002  0.2091521E+03  0.7818608E-02  0.1142266E+00
         21   -1    0    0  501  502  0.00000000000E+00  0.00000000000E+00  0.98795457903E+02  0.98795457903E+02  0.00000000000E+00 0. -1.
         21   -1    0    0  502  503 -0.00000000000E+00 -0.00000000000E+00 -0.10665291423E+04  0.10665291423E+04  0.00000000000E+00 0.  1.
         -6    2    1    2    0  503  0.26722939457E+02 -0.11443128809E+03 -0.92962071318E+03  0.95285847189E+03  0.17302011992E+03 0.  0.
        -24    2    3    3    0    0 -0.35913639756E+02 -0.13685279145E+02 -0.45227680905E+03  0.46097190755E+03  0.80397208637E+02 0.  0.
          6    2    1    2  501    0 -0.26722939457E+02  0.11443128809E+03 -0.38112971176E+02  0.21246612827E+03  0.17286012236E+03 0.  0.
         24    2    5    5    0    0 -0.72583955606E+01  0.34577359448E+02 -0.81853683467E+02  0.11924135527E+03  0.79184576896E+02 0.  0.
          5    1    5    5  501    0 -0.19464543897E+02  0.79853928639E+02  0.43740712291E+02  0.93224772995E+02  0.47000000000E+01 0. -1.
        -13    1    6    6    0    0 -0.28287539902E+02  0.45867136118E+02 -0.28881269192E+02  0.61140058878E+02  0.00000000000E+00 0.  1.
         14    1    6    6    0    0  0.21029144341E+02 -0.11289776671E+02 -0.52972414274E+02  0.58101296397E+02  0.00000000000E+00 0. -1.
         -5    1    3    3    0  503  0.62636579214E+02 -0.10074600894E+03 -0.47734390413E+03  0.49188656435E+03  0.47000000000E+01 0.  1.
         13    1    4    4    0    0  0.73187909022E+01  0.50897356725E+01 -0.32659818331E+01  0.94940374352E+01  0.00000000000E+00 0. -1.
        -14    1    4    4    0    0 -0.43232430659E+02 -0.18775014818E+02 -0.44901082722E+03  0.45147787011E+03  0.00000000000E+00 0.  1.
</event>
<event>
12    1  0.8494789E-002  0.3193262E+03  0.7818608E-02  0.1076808E+00
         21   -1    0    0  501  502  0.00000000000E+00  0.00000000000E+00  0.46932830009E+03  0.46932830009E+03  0.00000000000E+00 0.  1.
         21   -1    0    0  502  503 -0.00000000000E+00 -0.00000000000E+00 -0.53952179994E+03  0.53952179994E+03  0.00000000000E+00 0.  1.
         -6    2    1    2    0  503 -0.26429556287E+02 -0.25883466520E+03 -0.42773476477E+03  0.52947030166E+03  0.17230167148E+03 0.  0.
        -24    2    3    3    0    0 -0.22996832402E+02 -0.27812419173E+03 -0.38646073859E+03  0.48354095740E+03  0.81105084219E+02 0.  0.
          6    2    1    2  501    0  0.26429556287E+02  0.25883466520E+03  0.35754126493E+03  0.47937979837E+03  0.18513597599E+03 0.  0.
         24    2    5    5    0    0  0.90635305785E+02  0.16871829385E+03  0.25661903336E+03  0.32954413680E+03  0.77880604014E+02 0.  0.
          5    1    5    5  501    0 -0.64205749498E+02  0.90116371350E+02  0.10092223157E+03  0.14983566157E+03  0.47000000000E+01 0. -1.
        -11    1    6    6    0    0  0.61945083078E+02  0.11769810661E+03  0.11325211201E+03  0.17468851849E+03  0.00000000000E+00 0.  1.
         12    1    6    6    0    0  0.28690222707E+02  0.51020187239E+02  0.14336692135E+03  0.15485561831E+03  0.00000000000E+00 0. -1.
         -5    1    3    3    0  503 -0.34327238851E+01  0.19289526531E+02 -0.41274026185E+02  0.45929344264E+02  0.47000000000E+01 0.  1.
         13    1    4    4    0    0 -0.18779336343E+02 -0.35053497849E+02 -0.10124886415E+03  0.10877841549E+03  0.00000000000E+00 0. -1.
        -14    1    4    4    0    0 -0.42174960587E+01 -0.24307069388E+03 -0.28521187443E+03  0.37476254190E+03  0.00000000000E+00 0.  1.
</event>
<event>
12    1  0.8494789E-002  0.1804013E+03  0.7818608E-02  0.1167447E+00
         21   -1    0    0  501  502  0.00000000000E+00  0.00000000000E+00  0.57362243458E+02  0.57362243458E+02  0.00000000000E+00 0. -1.
         21   -1    0    0  502  503 -0.00000000000E+00 -0.00000000000E+00 -0.11192817043E+04  0.11192817043E+04  0.00000000000E+00 0. -1.
         -6    2    1    2    0  503 -0.25202602897E+02  0.42811071822E+02 -0.94434375926E+03  0.96142069813E+03  0.17342624970E+03 0.  0.
        -24    2    3    3    0    0  0.45851481584E+02  0.68169813915E+01 -0.34358112077E+03  0.35538266692E+03  0.78102649134E+02 0.  0.
          6    2    1    2  501    0  0.25202602897E+02 -0.42811071822E+02 -0.11757570163E+03  0.21522324967E+03  0.17328889902E+03 0.  0.
         24    2    5    5    0    0 -0.52277981818E+02 -0.40994161331E+02 -0.66558711650E+02  0.12231810752E+03  0.78218595516E+02 0.  0.
          5    1    5    5  501    0  0.77480584715E+02 -0.18169104911E+01 -0.51016989979E+02  0.92905142151E+02  0.47000000000E+01 0. -1.
        -13    1    6    6    0    0 -0.28588925795E+02 -0.59787573590E+02 -0.63738832979E+02  0.91948460908E+02  0.00000000000E+00 0.  1.
         14    1    6    6    0    0 -0.23689056023E+02  0.18793412258E+02 -0.28198786703E+01  0.30369646612E+02  0.00000000000E+00 0. -1.
         -5    1    3    3    0  503 -0.71054084480E+02  0.35994090431E+02 -0.60076263849E+03  0.60603803121E+03  0.47000000000E+01 0.  1.
         11    1    4    4    0    0  0.18126711214E+02  0.26615464245E+02 -0.29069617736E+03  0.29247432046E+03  0.00000000000E+00 0. -1.
        -12    1    4    4    0    0  0.27724770370E+02 -0.19798482854E+02 -0.52884943408E+02  0.62908346462E+02  0.00000000000E+00 0.  1.
</event>
<event>
12    1  0.8494789E-002  0.1796939E+03  0.7818608E-02  0.1168300E+00
         21   -1    0    0  503  502  0.00000000000E+00  0.00000000000E+00  0.14132499273E+03  0.14132499273E+03  0.00000000000E+00 0. -1.
         21   -1    0    0  501  503 -0.00000000000E+00 -0.00000000000E+00 -0.48796118737E+03  0.48796118737E+03  0.00000000000E+00 0. -1.
          6    2    1    2  501    0  0.34513914804E+02 -0.35959859554E+02 -0.40341256609E+03  0.44162382896E+03  0.17264294371E+03 0.  0.
         24    2    3    3    0    0 -0.38109559591E+02  0.96047007036E+01 -0.15457171540E+03  0.17838599514E+03  0.79903437042E+02 0.  0.
         -6    2    1    2    0  502 -0.34513914804E+02  0.35959859554E+02  0.56776371449E+02  0.18766235114E+03  0.17178265298E+03 0.  0.
        -24    2    5    5    0    0  0.11929985780E+02  0.30665109429E+02 -0.16760353629E+02  0.10039947120E+03  0.93362041889E+02 0.  0.
          5    1    3    3  501    0  0.72623474395E+02 -0.45564560257E+02 -0.24884085068E+03  0.26323783382E+03  0.47000000000E+01 0. -1.
        -13    1    4    4    0    0 -0.15664500342E+02  0.28084737793E+02 -0.14406914638E+02  0.35237597212E+02  0.00000000000E+00 0.  1.
         14    1    4    4    0    0 -0.22445059249E+02 -0.18480037090E+02 -0.14016480077E+03  0.14314839793E+03  0.00000000000E+00 0. -1.
         -5    1    5    5    0  502 -0.46443900584E+02  0.52947501249E+01  0.73536725077E+02  0.87262879940E+02  0.47000000000E+01 0.  1.
         11    1    6    6    0    0  0.11554130253E+02  0.64284325164E+02 -0.12645354990E+02  0.66527268022E+02  0.00000000000E+00 0. -1.
        -12    1    6    6    0    0  0.37585552743E+00 -0.33619215735E+02 -0.41149986384E+01  0.33872203173E+02  0.00000000000E+00 0.  1.
</event>
<event>
12    1  0.8494789E-002  0.2373134E+03  0.7818608E-02  0.1121661E+00
         21   -1    0    0  503  502  0.00000000000E+00  0.00000000000E+00  0.19511849162E+03  0.19511849162E+03  0.00000000000E+00 0.  1.
         21   -1    0    0  501  503 -0.00000000000E+00 -0.00000000000E+00 -0.29468576449E+03  0.29468576449E+03  0.00000000000E+00 0. -1.
          6    2    1    2  501    0  0.14368904044E+03 -0.76846123493E+02 -0.13379909834E+02  0.23769030236E+03  0.17252765231E+03 0.  0.
         24    2    3    3    0    0  0.52269712645E+01 -0.20521325668E+01 -0.29589338607E+01  0.79903825059E+02  0.79651324489E+02 0.  0.
         -6    2    1    2    0  502 -0.14368904044E+03  0.76846123493E+02 -0.86187363036E+02  0.25211395375E+03  0.17199220067E+03 0.  0.
        -24    2    5    5    0    0 -0.41554661932E+02  0.90051714268E+02 -0.75493402266E+02  0.14846903251E+03  0.80670308408E+02 0.  0.
          5    1    3    3  501    0  0.13846206918E+03 -0.74793990926E+02 -0.10420975973E+02  0.15778647731E+03  0.47000000000E+01 0. -1.
        -11    1    4    4    0    0 -0.62024509989E+01  0.17034106055E+02 -0.35863285482E+02  0.40184653950E+02  0.00000000000E+00 0.  1.
         12    1    4    4    0    0  0.11429422263E+02 -0.19086238622E+02  0.32904351621E+02  0.39719171109E+02  0.00000000000E+00 0. -1.
         -5    1    5    5    0  502 -0.10213437851E+03 -0.13205590775E+02 -0.10693960770E+02  0.10364492124E+03  0.47000000000E+01 0.  1.
         13    1    6    6    0    0  0.68586683515E+01 -0.23823032978E+01 -0.36279225330E+02  0.36998633638E+02  0.00000000000E+00 0. -1.
        -14    1    6    6    0    0 -0.48413330284E+02  0.92434017566E+02 -0.39214176937E+02  0.11147039887E+03  0.00000000000E+00 0.  1.
</event>
<event>
12    1  0.8494789E-002  0.1841781E+03  0.7818608E-02  0.1163870E+00
         21   -1    0    0  501  502  0.00000000000E+00  0.00000000000E+00  0.15415647954E+03  0.15415647954E+03  0.00000000000E+00 0.  1.
         21   -1    0    0  502  503 -0.00000000000E+00 -0.00000000000E+00 -0.28222477409E+03  0.28222477409E+03  0.00000000000E+00 0.  1.
         -6    2    1    2    0  503  0.35978888677E+02 -0.56144854186E+02 -0.16668613021E+03  0.24840656588E+03  0.17168235462E+03 0.  0.
        -24    2    3    3    0    0  0.47669804945E+02 -0.52119311617E+02 -0.19243385741E+03  0.21945975307E+03  0.78377042509E+02 0.  0.
          6    2    1    2  501    0 -0.35978888677E+02  0.56144854186E+02  0.38617835661E+02  0.18797468775E+03  0.17145384487E+03 0.  0.
         24    2    5    5    0    0 -0.49599418222E+02  0.71830710823E+02  0.79016965054E+02  0.14230473505E+03  0.79919982150E+02 0.  0.
          5    1    5    5  501    0  0.13620529545E+02 -0.15685856637E+02 -0.40399129393E+02  0.45669952696E+02  0.47000000000E+01 0. -1.
        -11    1    6    6    0    0  0.81892009076E+01  0.17113792411E+02  0.56495932630E+02  0.59596437024E+02  0.00000000000E+00 0.  1.
         12    1    6    6    0    0 -0.57788619130E+02  0.54716918412E+02  0.22521032424E+02  0.82708298029E+02  0.00000000000E+00 0. -1.
         -5    1    3    3    0  503 -0.11690916267E+02 -0.40255425691E+01  0.25747727199E+02  0.28946812814E+02  0.47000000000E+01 0.  1.
         13    1    4    4    0    0  0.12709248590E+02  0.19666012021E+02 -0.64879785040E+02  0.68975818482E+02  0.00000000000E+00 0. -1.
        -14    1    4    4    0    0  0.34960556355E+02 -0.71785323637E+02 -0.12755407237E+03  0.15048393458E+03  0.00000000000E+00 0.  1.
</event>
<event>
12    1  0.8494789E-002  0.1869091E+03  0.7818608E-02  0.1161910E+00
         21   -1    0    0  503  502  0.00000000000E+00  0.00000000000E+00  0.11323970615E+04  0.11323970615E+04  0.00000000000E+00 0. -1.
         21   -1    0    0  501  503 -0.00000000000E+00 -0.00000000000E+00 -0.34552891532E+02  0.34552891532E+02  0.00000000000E+00 0. -1.
          6    2    1    2  501    0 -0.64738172773E+02  0.86953960678E+01  0.34320253673E+03  0.38950606509E+03  0.17222181220E+03 0.  0.
         24    2    3    3    0    0 -0.63772704603E+02 -0.58868288079E+01  0.88059175779E+02  0.13390129587E+03  0.77932829996E+02 0.  0.
         -6    2    1    2    0  502  0.64738172773E+02 -0.86953960678E+01  0.75464163321E+03  0.77744388791E+03  0.17512385147E+03 0.  0.
        -24    2    5    5    0    0 -0.20477568330E+02  0.25371394606E+02  0.29485531512E+03  0.30856456756E+03  0.84908168191E+02 0.  0.
          5    1    3    3  501    0 -0.96546817003E+00  0.14582224876E+02  0.25514336095E+03  0.25560476922E+03  0.47000000000E+01 0. -1.
        -13    1    4    4    0    0 -0.26316216261E+02 -0.13309351705E+02  0.90945662624E+02  0.95607508237E+02  0.00000000000E+00 0.  1.
         14    1    4    4    0    0 -0.37456488341E+02  0.74225228970E+01 -0.28864868456E+01  0.38293787634E+02  0.00000000000E+00 0. -1.
         -5    1    5    5    0  502  0.85215741103E+02 -0.34066790674E+02  0.45978631808E+03  0.46887932035E+03  0.47000000000E+01 0.  1.
         13    1    6    6    0    0  0.12556426711E+01 -0.27341541146E+02  0.15724985949E+03  0.15961408089E+03  0.00000000000E+00 0. -1.
        -14    1    6    6    0    0 -0.21733211001E+02  0.52712935752E+02  0.13760545563E+03  0.14895048666E+03  0.00000000000E+00 0.  1.
</event>
<event>
12    1  0.8494789E-002  0.1830589E+03  0.7818608E-02  0.1166086E+00
         21   -1    0    0  501  502  0.00000000000E+00  0.00000000000E+00  0.27587180548E+03  0.27587180548E+03  0.00000000000E+00 0. -1.
         21   -1    0    0  502  503 -0.00000000000E+00 -0.00000000000E+00 -0.13011187704E+03  0.13011187704E+03  0.00000000000E+00 0. -1.
         -6    2    1    2    0  503 -0.62589912018E+02 -0.19101887642E+02  0.13534459032E+03  0.22765917844E+03  0.17096246430E+03 0.  0.
        -24    2    3    3    0    0 -0.55579505778E+01  0.38216409560E+02  0.10850023466E+03  0.14233191872E+03  0.83634259671E+02 0.  0.
          6    2    1    2  501    0  0.62589912018E+02  0.19101887642E+02  0.10415338120E+02  0.17832450408E+03  0.16555594308E+03 0.  0.
         24    2    5    5    0    0 -0.70177429333E+01  0.54915184139E+02 -0.81603495901E+01  0.97733164550E+02  0.80126487397E+02 0.  0.
          5    1    5    5  501    0  0.69607654952E+02 -0.35813296497E+02  0.18575687710E+02  0.80591339533E+02  0.47000000000E+01 0. -1.
        -13    1    6    6    0    0 -0.91071346518E+01 -0.74098413278E+01 -0.29557793160E+02  0.31804225923E+02  0.00000000000E+00 0.  1.
         14    1    6    6    0    0  0.20893917185E+01  0.62325025466E+02  0.21397443570E+02  0.65928938627E+02  0.00000000000E+00 0. -1.
         -5    1    3    3    0  503 -0.57031961440E+02 -0.57318297202E+02  0.26844355661E+02  0.85327259717E+02  0.47000000000E+01 0.  1.
         11    1    4    4    0    0 -0.78084616873E+01  0.64383515351E+02  0.86229913140E+02  0.10789720591E+03  0.00000000000E+00 0. -1.
        -12    1    4    4    0    0  0.22505111095E+01 -0.26167105791E+02  0.22270321523E+02  0.34434712813E+02  0.00000000000E+00 0.  1.
</event>
<event>
12    1  0.8494789E-002  0.1721714E+03  0.7818608E-02  0.1176401E+00
         21   -1    0    0  503  502  0.00000000000E+00  0.00000000000E+00  0.11988518827E+03  0.11988518827E+03  0.00000000000E+00 0.  1.
         21   -1    0    0  501  503 -0.00000000000E+00 -0.00000000000E+00 -0.43787147971E+03  0.43787147971E+03  0.00000000000E+00 0.  1.
          6    2    1    2  501    0  0.17724919877E+01  0.90434865417E+00 -0.34590042302E+03  0.38638076442E+03  0.17215990501E+03 0.  0.
         24    2    3    3    0    0 -0.18862668854E+02  0.63655311552E+02 -0.18703987518E+03  0.21426958853E+03  0.80744923650E+02 0.  0.
         -6    2    1    2    0  502 -0.17724919877E+01 -0.90434865417E+00  0.27914131585E+02  0.17137590356E+03  0.16907555118E+03 0.  0.
        -24    2    5    5    0    0  0.18099220339E+02  0.50542454486E+02 -0.19210580856E+02  0.98681426284E+02  0.80541020568E+02 0.  0.
          5    1    3    3  501    0  0.20635160842E+02 -0.62750962898E+02 -0.15886054784E+03  0.17211117589E+03  0.47000000000E+01 0. -1.
        -13    1    4    4    0    0 -0.15403199398E+02  0.36426353434E+02 -0.18214436100E+03  0.18638858876E+03  0.00000000000E+00 0.  1.
         14    1    4    4    0    0 -0.34594694561E+01  0.27228958118E+02 -0.48955141857E+01  0.27880999771E+02  0.00000000000E+00 0. -1.
         -5    1    5    5    0  502 -0.19871712327E+02 -0.51446803140E+02  0.47124712441E+02  0.72694477279E+02  0.47000000000E+01 0.  1.
         11    1    6    6    0    0  0.43074900087E+02  0.69472502002E+01 -0.20967304901E+02  0.48408048687E+02  0.00000000000E+00 0. -1.
        -12    1    6    6    0    0 -0.24975679748E+02  0.43595204286E+02  0.17567240456E+01  0.50273377597E+02  0.00000000000E+00 0.  1.
</event>
<event>
12    1  0.8494789E-002  0.1826188E+03  0.7818608E-02  0.1165587E+00
         21   -1    0    0  503  502  0.00000000000E+00  0.00000000000E+00  0.95285981716E+03  0.95285981716E+03  0.00000000000E+00 0.  1.
         21   -1    0    0  501  503 -0.00000000000E+00 -0.00000000000E+00 -0.36483178181E+02  0.36483178181E+02  0.00000000000E+00 0.  1.
          6    2    1    2  501    0 -0.60428007882E+02 -0.24134209188E+01  0.56707717964E+03  0.59575678236E+03  0.17231438514E+03 0.  0.
         24    2    3    3    0    0 -0.26600732287E+02  0.64168760690E+02  0.27949656745E+03  0.29859997193E+03  0.78856725846E+02 0.  0.
         -6    2    1    2    0  502  0.60428007882E+02  0.24134209188E+01  0.34929945934E+03  0.39358621298E+03  0.17100475436E+03 0.  0.
        -24    2    5    5    0    0  0.73402230160E+02 -0.55229388587E+02  0.24425628851E+03  0.27297451508E+03  0.80098555867E+02 0.  0.
          5    1    3    3  501    0 -0.33827275595E+02 -0.66582181609E+02  0.28758061219E+03  0.29715681044E+03  0.47000000000E+01 0. -1.
        -11    1    4    4    0    0 -0.22455035368E+02 -0.11392016903E+02  0.11209993673E+03  0.11489300448E+03  0.00000000000E+00 0.  1.
         12    1    4    4    0    0 -0.41456969186E+01  0.75560777593E+02  0.16739663072E+03  0.18370696745E+03  0.00000000000E+00 0. -1.
         -5    1    5    5    0  502 -0.12974222278E+02  0.57642809506E+02  0.10504317083E+03  0.12061169790E+03  0.47000000000E+01 0.  1.
         13    1    6    6    0    0  0.19089334498E+01 -0.57512589438E+01 -0.57056242226E+01  0.83231697161E+01  0.00000000000E+00 0. -1.
        -14    1    6    6    0    0  0.71493296710E+02 -0.49478129643E+02  0.24996191273E+03  0.26465134537E+03  0.00000000000E+00 0.  1.
</event>
<event>
12    1  0.8494789E-002  0.2728452E+03  0.7818608E-02  0.1099792E+00
         21   -1    0    0  503  502  0.00000000000E+00  0.00000000000E+00  0.31806346843E+03  0.31806346843E+03  0.00000000000E+00 0.  1.
         21   -1    0    0  501  503 -0.00000000000E+00 -0.00000000000E+00 -0.46776986686E+03  0.46776986686E+03  0.00000000000E+00 0.  1.
          6    2    1    2  501    0  0.72693606642E+02  0.19734786478E+03 -0.35311429485E+03  0.44624453238E+03  0.17382156734E+03 0.  0.
         24    2    3    3    0    0  0.38518278110E+02  0.17528687253E+03 -0.17329117289E+03  0.26181816320E+03  0.79434089329E+02 0.  0.
         -6    2    1    2    0  502 -0.72693606642E+02 -0.19734786478E+03  0.20340789642E+03  0.33958880290E+03  0.17238109685E+03 0.  0.
        -24    2    5    5    0    0  0.76851935649E+01 -0.16403331750E+03  0.14922813760E+03  0.23698204460E+03  0.83219354500E+02 0.  0.
          5    1    3    3  501    0  0.34175328532E+02  0.22060992250E+02 -0.17982312196E+03  0.18442636919E+03  0.47000000000E+01 0. -1.
        -11    1    4    4    0    0  0.89902344751E+01 -0.58020103937E+01 -0.20196132268E+02  0.22855445721E+02  0.00000000000E+00 0.  1.
         12    1    4    4    0    0  0.29528043635E+02  0.18108888293E+03 -0.15309504062E+03  0.23896271748E+03  0.00000000000E+00 0. -1.
         -5    1    5    5    0  502 -0.80378800207E+02 -0.33314547288E+02  0.54179758817E+02  0.10260675830E+03  0.47000000000E+01 0.  1.
         13    1    6    6    0    0  0.62058930456E+01 -0.10299014185E+02 -0.10004414915E+02  0.15641966611E+02  0.00000000000E+00 0. -1.
        -14    1    6    6    0    0  0.14793005193E+01 -0.15373430331E+03  0.15923255252E+03  0.22134007799E+03  0.00000000000E+00 0.  1.
</event>
<event>
12    1  0.8494789E-002  0.2032213E+03  0.7818608E-02  0.1147052E+00
         21   -1    0    0  503  502  0.00000000000E+00  0.00000000000E+00  0.18187124605E+03  0.18187124605E+03  0.00000000000E+00 0.  1.
         21   -1    0    0  501  503 -0.00000000000E+00 -0.00000000000E+00 -0.22719222026E+03  0.22719222026E+03  0.00000000000E+00 0.  1.
          6    2    1    2  501    0 -0.77399279796E+02  0.76478950686E+02 -0.27546481123E+02  0.20506638261E+03  0.17162090270E+03 0.  0.
         24    2    3    3    0    0 -0.91159668178E+02  0.74785182865E+02  0.29537577099E+02  0.14613509346E+03  0.81117744063E+02 0.  0.
         -6    2    1    2    0  502  0.77399279796E+02 -0.76478950686E+02 -0.17774493085E+02  0.20399708370E+03  0.17163682338E+03 0.  0.
        -24    2    5    5    0    0  0.38098119749E+02 -0.15095760973E+02  0.50063896758E+02  0.10431451603E+03  0.81827720045E+02 0.  0.
          5    1    3    3  501    0  0.13760388382E+02  0.16937678210E+01 -0.57084058223E+02  0.58931289151E+02  0.47000000000E+01 0. -1.
        -13    1    4    4    0    0  0.73272681836E+01  0.27910960985E+02 -0.93557023869E+01  0.30335453999E+02  0.00000000000E+00 0.  1.
         14    1    4    4    0    0 -0.98486936362E+02  0.46874221880E+02  0.38893279486E+02  0.11579963946E+03  0.00000000000E+00 0. -1.
         -5    1    5    5    0  502  0.39301160047E+02 -0.61383189713E+02 -0.67838389843E+02  0.99682567668E+02  0.47000000000E+01 0.  1.
         11    1    6    6    0    0 -0.36803783484E+01  0.29746894018E+02  0.20133913693E+02  0.36108134390E+02  0.00000000000E+00 0. -1.
        -12    1    6    6    0    0  0.41778498097E+02 -0.44842654991E+02  0.29929983065E+02  0.68206381638E+02  0.00000000000E+00 0.  1.
</event>
<event>
12    1  0.8494789E-002  0.1718181E+03  0.7818608E-02  0.1177260E+00
         21   -1    0    0  501  502  0.00000000000E+00  0.00000000000E+00  0.28786338340E+03  0.28786338340E+03  0.00000000000E+00 0.  1.
         21   -1    0    0  502  503 -0.00000000000E+00 -0.00000000000E+00 -0.18321286798E+03  0.18321286798E+03  0.00000000000E+00 0.  1.
         -6    2    1    2    0  503  0.16011673729E+00  0.45085433620E+01 -0.10635246623E+03  0.20207007837E+03  0.17175889176E+03 0.  0.
        -24    2    3    3    0    0 -0.24857075068E+02  0.12733112967E+02 -0.13716582958E+03  0.16126497094E+03  0.80074463482E+02 0.  0.
          6    2    1    2  501    0 -0.16011673729E+00 -0.45085433620E+01  0.21100298165E+03  0.26900617301E+03  0.16679841203E+03 0.  0.
         24    2    5    5    0    0  0.27441158309E+02 -0.17326317472E+02  0.21979676985E+03  0.23698201919E+03  0.82441730536E+02 0.  0.
          5    1    5    5  501    0 -0.27601275047E+02  0.12817774110E+02 -0.87937882036E+01  0.32024153827E+02  0.47000000000E+01 0. -1.
        -11    1    6    6    0    0  0.52443201712E+02 -0.17576068798E+02  0.96960030473E+02  0.11162640866E+03  0.00000000000E+00 0.  1.
         12    1    6    6    0    0 -0.25002043403E+02  0.24975132652E+00  0.12283673938E+03  0.12535561053E+03  0.00000000000E+00 0. -1.
         -5    1    3    3    0  503  0.25017191805E+02 -0.82245696048E+01  0.30813363352E+02  0.40805107426E+02  0.47000000000E+01 0.  1.
         13    1    4    4    0    0  0.26336326193E+02 -0.29219670716E+01 -0.22670046437E+02  0.34872209198E+02  0.00000000000E+00 0. -1.
        -14    1    4    4    0    0 -0.51193401261E+02  0.15655080038E+02 -0.11449578315E+03  0.12639276175E+03  0.00000000000E+00 0.  1.
</event>
<event>
12    1  0.8494789E-002  0.2055074E+03  0.7818608E-02  0.1145229E+00
         21   -1    0    0  503  502  0.00000000000E+00  0.00000000000E+00  0.35745612921E+03  0.35745612921E+03  0.00000000000E+00 0. -1.
         21   -1    0    0  501  503 -0.00000000000E+00 -0.00000000000E+00 -0.14355011482E+03  0.14355011482E+03  0.00000000000E+00 0. -1.
          6    2    1    2  501    0  0.89329627236E+02 -0.66640355049E+02  0.11993386234E+01  0.20524041163E+03  0.17234114114E+03 0.  0.
         24    2    3    3    0    0 -0.19420991843E+02 -0.44425862616E+02  0.11325854051E+02  0.93684070983E+02  0.79357406665E+02 0.  0.
         -6    2    1    2    0  502 -0.89329627236E+02  0.66640355049E+02  0.21270667577E+03  0.29576583240E+03  0.17266319374E+03 0.  0.
        -24    2    5    5    0    0 -0.36275491798E+02  0.33366696547E+02  0.21226986967E+03  0.23296329712E+03  0.82365966849E+02 0.  0.
          5    1    3    3  501    0  0.10875061908E+03 -0.22214492433E+02 -0.10126515427E+02  0.11155634065E+03  0.47000000000E+01 0. -1.
        -13    1    4    4    0    0  0.15090568389E+01  0.22487614493E+02  0.62569493569E+01  0.23390585144E+02  0.00000000000E+00 0.  1.
         14    1    4    4    0    0 -0.20930048681E+02 -0.66913477109E+02  0.50689046938E+01  0.70293485839E+02  0.00000000000E+00 0. -1.
         -5    1    5    5    0  502 -0.53054135438E+02  0.33273658502E+02  0.43680610547E+00  0.62802535273E+02  0.47000000000E+01 0.  1.
         11    1    6    6    0    0 -0.10577803370E+02  0.45186038829E+02  0.49885838080E+02  0.68134168154E+02  0.00000000000E+00 0. -1.
        -12    1    6    6    0    0 -0.25697688428E+02 -0.11819342282E+02  0.16238403159E+03  0.16482912897E+03  0.00000000000E+00 0.  1.
</event>
<event>
12    1  0.8494789E-002  0.2046387E+03  0.7818608E-02  0.1146090E+00
         21   -1    0    0  501  502  0.00000000000E+00  0.00000000000E+00  0.64356556886E+02  0.64356556886E+02  0.00000000000E+00 0.  1.
         21   -1    0    0  502  503 -0.00000000000E+00 -0.00000000000E+00 -0.93877984063E+03  0.93877984063E+03  0.00000000000E+00 0.  1.
         -6    2    1    2    0  503 -0.88766683483E+02  0.62480355739E+02 -0.71584996164E+03  0.74424932684E+03  0.17228631398E+03 0.  0.
        -24    2    3    3    0    0 -0.78572396520E+02  0.98124795009E+02 -0.42507972765E+03  0.45108747989E+03  0.83576568272E+02 0.  0.
          6    2    1    2  501    0  0.88766683483E+02 -0.62480355739E+02 -0.15857332211E+03  0.25888707067E+03  0.17347535250E+03 0.  0.
         24    2    5    5    0    0  0.88828724317E-01 -0.67301104515E+02 -0.39429510121E+02  0.11021178867E+03  0.77862093050E+02 0.  0.
          5    1    5    5  501    0  0.88677854759E+02  0.48207487759E+01 -0.11914381199E+03  0.14867528200E+03  0.47000000000E+01 0. -1.
        -13    1    6    6    0    0  0.27493857979E+02 -0.69615920106E+02 -0.33859495860E+02  0.82150800475E+02  0.00000000000E+00 0.  1.
         14    1    6    6    0    0 -0.27405029254E+02  0.23148155907E+01 -0.55700142605E+01  0.28060988196E+02  0.00000000000E+00 0. -1.
         -5    1    3    3    0  503 -0.10194286963E+02 -0.35644439270E+02 -0.29077023398E+03  0.29316184695E+03  0.47000000000E+01 0.  1.
         11    1    4    4    0    0  0.76326691428E+01 -0.96143059723E+01 -0.48346077260E+02  0.49880213552E+02  0.00000000000E+00 0. -1.
        -12    1    4    4    0    0 -0.86205065662E+02  0.10773910098E+03 -0.37673365039E+03  0.40120726634E+03  0.00000000000E+00 0.  1.
</event>
<event>
12    1  0.8494789E-002  0.1842865E+03  0.7818608E-02  0.1163737E+00
         21   -1    0    0  503  502  0.00000000000E+00  0.00000000000E+00  0.16420839170E+04  0.16420839170E+04  0.00000000000E+00 0. -1.
         21   -1    0    0  501  503 -0.00000000000E+00 -0.00000000000E+00 -0.20685564166E+02  0.20685564166E+02  0.00000000000E+00 0.  1.
          6    2    1    2  501    0  0.61757795312E+02  0.61506317789E+01  0.79037273383E+03  0.81157289085E+03  0.17352130482E+03 0.  0.
         24    2    3    3    0    0  0.17343334364E+02 -0.62998474746E+02  0.46336689633E+03  0.47436501574E+03  0.77741163355E+02 0.  0.
         -6    2    1    2    0  502 -0.61757795312E+02 -0.61506317789E+01  0.83102561897E+03  0.85119659028E+03  0.17343644476E+03 0.  0.
        -24    2    5    5    0    0 -0.97700876326E+02 -0.12576512345E+02  0.42552120675E+03  0.44402449480E+03  0.79911355180E+02 0.  0.
          5    1    3    3  501    0  0.44414460948E+02  0.69149106525E+02  0.32700583750E+03  0.33720787511E+03  0.47000000000E+01 0. -1.
        -13    1    4    4    0    0  0.15115161899E+02 -0.55121493813E+02  0.14450435340E+03  0.15539741102E+03  0.00000000000E+00 0.  1.
         14    1    4    4    0    0  0.22281724653E+01 -0.78769809329E+01  0.31886254292E+03  0.31896760472E+03  0.00000000000E+00 0. -1.
         -5    1    5    5    0  502  0.35943081014E+02  0.64258805663E+01  0.40550441222E+03  0.40717209548E+03  0.47000000000E+01 0.  1.
         11    1    6    6    0    0 -0.13448981015E+02 -0.33092897607E+02  0.77071865012E+02  0.84947556403E+02  0.00000000000E+00 0. -1.
        -12    1    6    6    0    0 -0.84251895311E+02  0.20516385262E+02  0.34844934174E+03  0.35907693840E+03  0.00000000000E+00 0.  1.
</event>
<event>
12    1  0.8494789E-002  0.1942783E+03  0.7818608E-02  0.1158091E+00
         21   -1    0    0  503  502  0.00000000000E+00  0.00000000000E+00  0.11308181951E+04  0.11308181951E+04  0.00000000000E+00 0.  1.
         21   -1    0    0  501  503 -0.00000000000E+00 -0.00000000000E+00 -0.37679321546E+02  0.37679321546E+02  0.00000000000E+00 0. -1.
          6    2    1    2  501    0  0.35290095860E+01 -0.74120954829E+02  0.31595005195E+03  0.37090225054E+03  0.17954852902E+03 0.  0.
         24    2    3    3    0    0 -0.41131650773E+02 -0.10700244173E+02  0.26104055205E+03  0.27575024424E+03  0.78036654604E+02 0.  0.
         -6    2    1    2    0  502 -0.35290095860E+01  0.74120954829E+02  0.77718882165E+03  0.79759526615E+03  0.16318509198E+03 0.  0.
        -24    2    5    5    0    0  0.30641369710E+02  0.90058437434E+02  0.39953633843E+03  0.41803617161E+03  0.77945746224E+02 0.  0.
          5    1    3    3  501    0  0.44660660359E+02 -0.63420710656E+02  0.54909499904E+02  0.95152006303E+02  0.47000000000E+01 0. -1.
        -11    1    4    4    0    0 -0.19470298582E+02 -0.36383248091E+02  0.66010878703E+02  0.77847731988E+02  0.00000000000E+00 0.  1.
         12    1    4    4    0    0 -0.21661352191E+02  0.25683003918E+02  0.19502967334E+03  0.19790251225E+03  0.00000000000E+00 0. -1.
         -5    1    5    5    0  502 -0.34170379296E+02 -0.15937482606E+02  0.37765248322E+03  0.37955909455E+03  0.47000000000E+01 0.  1.
         11    1    6    6    0    0  0.64858513829E+01  0.15892390319E+02  0.82381425347E+01  0.19039467708E+02  0.00000000000E+00 0. -1.
        -12    1    6    6    0    0  0.24155518327E+02  0.74166047116E+02  0.39129819590E+03  0.39899670390E+03  0.00000000000E+00 0.  1.
</event>
<event>
12    1  0.8494789E-002  0.3214142E+03  0.7818608E-02  0.1075001E+00
         21   -1    0    0  503  502  0.00000000000E+00  0.00000000000E+00  0.29996006863E+03  0.29996006863E+03  0.00000000000E+00 0.  1.
         21   -1    0    0  501  503 -0.00000000000E+00 -0.00000000000E+00 -0.35827858938E+03  0.35827858938E+03  0.00000000000E+00 0.  1.
          6    2    1    2  501    0  0.25959574672E+03 -0.78276295845E+02 -0.93940604172E+02  0.33485651251E+03  0.17258886596E+03 0.  0.
         24    2    3    3    0    0  0.86484933834E+02 -0.12072719498E+02  0.16185880658E+02  0.11921746289E+03  0.79532549245E+02 0.  0.
         -6    2    1    2    0  502 -0.25959574672E+03  0.78276295845E+02  0.35622083420E+02  0.32338214550E+03  0.17259765061E+03 0.  0.
        -24    2    5    5    0    0 -0.92386566411E+02  0.67285470783E+02  0.66306102990E+02  0.15296117475E+03  0.77058480750E+02 0.  0.
          5    1    3    3  501    0  0.17311081289E+03 -0.66203576347E+02 -0.11012648483E+03  0.21563904962E+03  0.47000000000E+01 0. -1.
        -11    1    4    4    0    0  0.91291770304E+02 -0.32138789233E+02  0.83401684871E+01  0.97142408397E+02  0.00000000000E+00 0.  1.
         12    1    4    4    0    0 -0.48068364707E+01  0.20066069736E+02  0.78457121713E+01  0.22075054495E+02  0.00000000000E+00 0. -1.
         -5    1    5    5    0  502 -0.16720918031E+03  0.10990825062E+02 -0.30684019570E+02  0.17042097075E+03  0.47000000000E+01 0.  1.
         11    1    6    6    0    0 -0.16594662908E+02 -0.16679684196E+02  0.19451203492E+02  0.30527758175E+02  0.00000000000E+00 0. -1.
        -12    1    6    6    0    0 -0.75791903502E+02  0.83965154979E+02  0.46854899498E+02  0.12243341657E+03  0.00000000000E+00 0.  1.
</event>
<event>
12    1  0.8494789E-002  0.2667097E+03  0.7818608E-02  0.1103447E+00
         21   -1    0    0  501  502  0.00000000000E+00  0.00000000000E+00  0.19982549431E+03  0.19982549431E+03  0.00000000000E+00 0.  1.
         21   -1    0    0  502  503 -0.00000000000E+00 -0.00000000000E+00 -0.35474662303E+03  0.35474662303E+03  0.00000000000E+00 0. -1.
         -6    2    1    2    0  503 -0.75866767323E+02  0.18652497878E+03 -0.94055285892E+02  0.28280821213E+03  0.17489069143E+03 0.  0.
        -24    2    3    3    0    0 -0.10541855467E+03  0.12738536915E+03 -0.24221726012E+02  0.18652935854E+03  0.82863777621E+02 0.  0.
          6    2    1    2  501    0  0.75866767323E+02 -0.18652497878E+03 -0.60865842827E+02  0.27176390521E+03  0.17205706977E+03 0.  0.
         24    2    5    5    0    0  0.33714677685E+02 -0.17750628546E+02 -0.41528923449E+01  0.88733774598E+02  0.80029194263E+02 0.  0.
          5    1    5    5  501    0  0.42152089638E+02 -0.16877435024E+03 -0.56712950482E+02  0.18303013061E+03  0.47000000000E+01 0. -1.
        -11    1    6    6    0    0  0.20127362277E+02 -0.49555669404E+02 -0.73968998874E+01  0.53996196258E+02  0.00000000000E+00 0.  1.
         12    1    6    6    0    0  0.13587315408E+02  0.31805040858E+02  0.32440075425E+01  0.34737578340E+02  0.00000000000E+00 0. -1.
         -5    1    3    3    0  503  0.29551787350E+02  0.59139609631E+02 -0.69833559880E+02  0.96278853589E+02  0.47000000000E+01 0.  1.
         13    1    4    4    0    0 -0.45574566935E+02  0.11533397198E+02 -0.30405896825E+02  0.55987310741E+02  0.00000000000E+00 0. -1.
        -14    1    4    4    0    0 -0.59843987738E+02  0.11585197195E+03  0.61841708130E+01  0.13054204780E+03  0.00000000000E+00 0.  1.
</event>
<event>
12    1  0.8494789E-002  0.1869137E+03  0.7818608E-02  0.1161563E+00
         21   -1    0    0  503  502  0.00000000000E+00  0.00000000000E+00  0.10136968970E+04  0.10136968970E+04  0.00000000000E+00 0.  1.
         21   -1    0    0  501  503 -0.00000000000E+00 -0.00000000000E+00 -0.34270111683E+02  0.34270111683E+02  0.00000000000E+00 0.  1.
          6    2    1    2  501    0  0.15272733885E+02 -0.70504198680E+02  0.47138396761E+03  0.50663139783E+03  0.17108018563E+03 0.  0.
         24    2    3    3    0    0  0.47175248637E+02 -0.10796141249E+03  0.34708785097E+03  0.37286881739E+03  0.68410584147E+02 0.  0.
         -6    2    1    2    0  502 -0.15272733885E+02  0.70504198680E+02  0.50804281776E+03  0.54133561090E+03  0.17243155316E+03 0.  0.
        -24    2    5    5    0    0  0.10107518189E+02  0.99783158202E+01  0.43784460166E+03  0.44512012756E+03  0.78881582426E+02 0.  0.
          5    1    3    3  501    0 -0.31902514752E+02  0.37457213806E+02  0.12429611664E+03  0.13376258044E+03  0.47000000000E+01 0. -1.
        -11    1    4    4    0    0  0.28916374915E+02 -0.89741036562E+02  0.17430607960E+03  0.19817219726E+03  0.00000000000E+00 0.  1.
         12    1    4    4    0    0  0.18258873721E+02 -0.18220375924E+02  0.17278177136E+03  0.17469662013E+03  0.00000000000E+00 0. -1.
         -5    1    5    5    0  502 -0.25380252074E+02  0.60525882860E+02  0.70198216097E+02  0.96215483341E+02  0.47000000000E+01 0.  1.
         13    1    6    6    0    0  0.33090350745E+02  0.18925416104E+01  0.82039077297E+02  0.88481428729E+02  0.00000000000E+00 0. -1.
        -14    1    6    6    0    0 -0.22982832556E+02  0.80857742099E+01  0.35580552436E+03  0.35663869883E+03  0.00000000000E+00 0.  1.
</event>
<event>
12    1  0.8494789E-002  0.1910686E+03  0.7818608E-02  0.1157607E+00
         21   -1    0    0  503  502  0.00000000000E+00  0.00000000000E+00  0.22046579142E+03  0.22046579142E+03  0.00000000000E+00 0.  1.
         21   -1    0    0  501  503 -0.00000000000E+00 -0.00000000000E+00 -0.17338647172E+03  0.17338647172E+03  0.00000000000E+00 0.  1.
          6    2    1    2  501    0  0.24947671156E+01 -0.81088035777E+02 -0.19268991933E+02  0.19203780576E+03  0.17299055287E+03 0.  0.
         24    2    3    3    0    0 -0.51010918603E+01 -0.47897275098E+02  0.57722224294E+02  0.10772255777E+03  0.77150010850E+02 0.  0.
         -6    2    1    2    0  502 -0.24947671156E+01  0.81088035777E+02  0.66348311630E+02  0.20181445738E+03  0.17246878947E+03 0.  0.
        -24    2    5    5    0    0  0.28214307005E+02  0.12339020452E+02 -0.18591198771E+02  0.88208626678E+02  0.80540862941E+02 0.  0.
          5    1    3    3  501    0  0.75958589760E+01 -0.33190760679E+02 -0.76991216227E+02  0.84315247993E+02  0.47000000000E+01 0. -1.
        -13    1    4    4    0    0  0.87801474796E+01 -0.12875588238E+02 -0.17597927644E+02  0.23506569711E+02  0.00000000000E+00 0.  1.
         14    1    4    4    0    0 -0.13881239340E+02 -0.35021686860E+02  0.75320151937E+02  0.84215988055E+02  0.00000000000E+00 0. -1.
         -5    1    5    5    0  502 -0.30709074120E+02  0.68749015325E+02  0.84939510401E+02  0.11360583070E+03  0.47000000000E+01 0.  1.
         11    1    6    6    0    0  0.19556633224E+02  0.17932052778E+02  0.29120827375E+02  0.39395977039E+02  0.00000000000E+00 0. -1.
        -12    1    6    6    0    0  0.86576737810E+01 -0.55930323261E+01 -0.47712026146E+02  0.48812649639E+02  0.00000000000E+00 0.  1.
</event>
<event>
12    1  0.8494789E-002  0.2219374E+03  0.7818608E-02  0.1132734E+00
         21   -1    0    0  501  502  0.00000000000E+00  0.00000000000E+00  0.24013930872E+03  0.24013930872E+03  0.00000000000E+00 0.  1.
         21   -1    0    0  502  503 -0.00000000000E+00 -0.00000000000E+00 -0.25665403401E+03  0.25665403401E+03  0.00000000000E+00 0.  1.
         -6    2    1    2    0  503 -0.12952429442E+03 -0.52092306193E+02 -0.12112721151E+03  0.25283991262E+03  0.17252845805E+03 0.  0.
        -24    2    3    3    0    0 -0.98015280589E+02  0.50652053263E+01 -0.13620281582E+03  0.18568961165E+03  0.79352210440E+02 0.  0.
          6    2    1    2  501    0  0.12952429442E+03  0.52092306193E+02  0.10461248622E+03  0.24395343011E+03  0.17052669170E+03 0.  0.
         24    2    5    5    0    0  0.13676828239E+03  0.49360884278E+02  0.29737942803E+02  0.16853311932E+03  0.79856165081E+02 0.  0.
          5    1    5    5  501    0 -0.72439879760E+01  0.27314219147E+01  0.74874543414E+02  0.75420310785E+02  0.47000000000E+01 0. -1.
        -13    1    6    6    0    0  0.84091563899E+02  0.24383152133E+02  0.56690164630E+02  0.10430581955E+03  0.00000000000E+00 0.  1.
         14    1    6    6    0    0  0.52676718494E+02  0.24977732145E+02 -0.26952221827E+02  0.64227299770E+02  0.00000000000E+00 0. -1.
         -5    1    3    3    0  503 -0.31509013827E+02 -0.57157511519E+02  0.15075604311E+02  0.67150300973E+02  0.47000000000E+01 0.  1.
         11    1    4    4    0    0  0.83925153193E+01 -0.11545601462E+02 -0.33381293671E+01  0.14658728941E+02  0.00000000000E+00 0. -1.
        -12    1    4    4    0    0 -0.10640779591E+03  0.16610806788E+02 -0.13286468646E+03  0.17103088271E+03  0.00000000000E+00 0.  1.
</event>
<event>
12    1  0.8494789E-002  0.2016436E+03  0.7818608E-02  0.1148618E+00
         21   -1    0    0  503  502  0.00000000000E+00  0.00000000000E+00  0.23776811610E+03  0.23776811610E+03  0.00000000000E+00 0.  1.
         21   -1    0    0  501  503 -0.00000000000E+00 -0.00000000000E+00 -0.12319789410E+04  0.12319789410E+04  0.00000000000E+00 0.  1.
          6    2    1    2  501    0 -0.10346590997E+03  0.24053260794E+01 -0.11791963639E+04  0.11961053687E+04  0.17161878766E+03 0.  0.
         24    2    3    3    0    0  0.86328895418E+01 -0.64055659674E+00 -0.66330725332E+03  0.66814790577E+03  0.79813373426E+02 0.  0.
         -6    2    1    2    0  502  0.10346590997E+03 -0.24053260794E+01  0.18498553902E+03  0.27364168838E+03  0.17305820943E+03 0.  0.
        -24    2    5    5    0    0  0.16884155331E+02  0.44342858870E+02  0.53151427724E+02  0.10906916353E+03  0.82581137862E+02 0.  0.
          5    1    3    3  501    0 -0.11209879951E+03  0.30458826762E+01 -0.51588911060E+03  0.52795746295E+03  0.47000000000E+01 0. -1.
        -13    1    4    4    0    0  0.23195887897E+02 -0.29751892690E+02 -0.18919733805E+03  0.19292189367E+03  0.00000000000E+00 0.  1.
         14    1    4    4    0    0 -0.14562998355E+02  0.29111336094E+02 -0.47410991527E+03  0.47522601209E+03  0.00000000000E+00 0. -1.
         -5    1    5    5    0  502  0.86581754639E+02 -0.46748184949E+02  0.13183411130E+03  0.16457252484E+03  0.47000000000E+01 0.  1.
         11    1    6    6    0    0  0.44242252179E+02  0.50125132411E+02  0.32699673161E+02  0.74425630007E+02  0.00000000000E+00 0. -1.
        -12    1    6    6    0    0 -0.27358096848E+02 -0.57822735411E+01  0.20451754563E+02  0.34643533526E+02  0.00000000000E+00 0.  1.
</event>
<event>
12    1  0.8494789E-002  0.2088446E+03  0.7818608E-02  0.1142557E+00
         21   -1    0    0  503  502  0.00000000000E+00  0.00000000000E+00  0.12584236375E+04  0.12584236375E+04  0.00000000000E+00 0. -1.
         21   -1    0    0  501  503 -0.00000000000E+00 -0.00000000000E+00 -0.35231039701E+02  0.35231039701E+02  0.00000000000E+00 0. -1.
          6    2    1    2  501    0 -0.11871976414E+03  0.21250646113E+01  0.69878578166E+03  0.72932684343E+03  0.17180563906E+03 0.  0.
         24    2    3    3    0    0 -0.60327134743E+02  0.28149788954E+02  0.61681260917E+03  0.62526591680E+03  0.77896714157E+02 0.  0.
         -6    2    1    2    0  502  0.11871976414E+03 -0.21250646113E+01  0.52440681611E+03  0.56432783374E+03  0.17136072143E+03 0.  0.
        -24    2    5    5    0    0  0.64344317066E+01  0.11512062408E+02  0.11722190151E+03  0.14169843131E+03  0.78508227284E+02 0.  0.
          5    1    3    3  501    0 -0.58392629394E+02 -0.26024724343E+02  0.81973172491E+02  0.10406092664E+03  0.47000000000E+01 0. -1.
        -11    1    4    4    0    0 -0.60123684090E+02 -0.11998029624E+02  0.32861550505E+03  0.33428574643E+03  0.00000000000E+00 0.  1.
         12    1    4    4    0    0 -0.20345065297E+00  0.40147818578E+02  0.28819710411E+03  0.29098017037E+03  0.00000000000E+00 0. -1.
         -5    1    5    5    0  502  0.11228533243E+03 -0.13637127019E+02  0.40718491461E+03  0.42262940242E+03  0.47000000000E+01 0.  1.
         11    1    6    6    0    0  0.31539909332E+02 -0.21261909831E+02  0.62227625698E+02  0.72932243147E+02  0.00000000000E+00 0. -1.
        -12    1    6    6    0    0 -0.25105477626E+02  0.32773972239E+02  0.54994275811E+02  0.68766188168E+02  0.00000000000E+00 0.  1.
</event>
<event>
12    1  0.8494789E-002  0.1811888E+03  0.7818608E-02  0.1168428E+00
         21   -1    0    0  501  502  0.00000000000E+00  0.00000000000E+00  0.25084137433E+03  0.25084137433E+03  0.00000000000E+00 0. -1.
         21   -1    0    0  502  503 -0.00000000000E+00 -0.00000000000E+00 -0.14932037421E+03  0.14932037421E+03  0.00000000000E+00 0. -1.
         -6    2    1    2    0  503  0.54484146010E+02  0.57062947930E+01 -0.29648174381E+02  0.17647731141E+03  0.16511857325E+03 0.  0.
        -24    2    3    3    0    0 -0.21077893706E+02 -0.12066861317E+02 -0.47016278453E+02  0.96795142997E+02  0.81048642944E+02 0.  0.
          6    2    1    2  501    0 -0.54484146010E+02 -0.57062947930E+01  0.13116917451E+03  0.22368443713E+03  0.17270868856E+03 0.  0.
         24    2    5    5    0    0  0.58349847623E+01  0.50198325282E+02  0.93615434571E+02  0.13315213645E+03  0.80073234868E+02 0.  0.
          5    1    5    5  501    0 -0.60319130773E+02 -0.55904620075E+02  0.37553739937E+02  0.90532300679E+02  0.47000000000E+01 0. -1.
        -11    1    6    6    0    0  0.14803766346E+02  0.44271144424E+02  0.86080959323E+01  0.47467726322E+02  0.00000000000E+00 0.  1.
         12    1    6    6    0    0 -0.89687815833E+01  0.59271808582E+01  0.85007338639E+02  0.85684410125E+02  0.00000000000E+00 0. -1.
         -5    1    3    3    0  503  0.75562039717E+02  0.17773156110E+02  0.17368104072E+02  0.79682168415E+02  0.47000000000E+01 0.  1.
         13    1    4    4    0    0  0.29100359676E+02 -0.21535846547E+01 -0.32392561179E+02  0.43597555893E+02  0.00000000000E+00 0. -1.
        -14    1    4    4    0    0 -0.50178253382E+02 -0.99132766626E+01 -0.14623717274E+02  0.53197587103E+02  0.00000000000E+00 0.  1.
</event>
<event>
12    1  0.8494789E-002  0.2638440E+03  0.7818608E-02  0.1105028E+00
         21   -1    0    0  503  502  0.00000000000E+00  0.00000000000E+00  0.99496081421E+02  0.99496081421E+02  0.00000000000E+00 0.  1.
         21   -1    0    0  501  503 -0.00000000000E+00 -0.00000000000E+00 -0.78485282714E+03  0.78485282714E+03  0.00000000000E+00 0. -1.
          6    2    1    2  501    0 -0.16596341587E+03  0.11259436630E+03 -0.19504898437E+03  0.32811243229E+03  0.17144187117E+03 0.  0.
         24    2    3    3    0    0 -0.93023538233E+02  0.99307208641E+02 -0.51540619660E+02  0.16651566546E+03  0.80967468874E+02 0.  0.
         -6    2    1    2    0  502  0.16596341587E+03 -0.11259436630E+03 -0.49030776135E+03  0.55623647627E+03  0.16963481353E+03 0.  0.
        -24    2    5    5    0    0  0.49454691094E+02 -0.23289368065E+02 -0.30366617319E+03  0.31873523819E+03  0.79942768197E+02 0.  0.
          5    1    3    3  501    0 -0.72939877637E+02  0.13287157659E+02 -0.14350836471E+03  0.16159676683E+03  0.47000000000E+01 0. -1.
        -11    1    4    4    0    0 -0.11704300186E+02  0.20597861830E+02  0.21357884578E+02  0.31897049839E+02  0.00000000000E+00 0.  1.
         12    1    4    4    0    0 -0.81319238047E+02  0.78709346812E+02 -0.72898504238E+02  0.13461861562E+03  0.00000000000E+00 0. -1.
         -5    1    5    5    0  502  0.11650872478E+03 -0.89304998236E+02 -0.18664158816E+03  0.23750123808E+03  0.47000000000E+01 0.  1.
         11    1    6    6    0    0 -0.15330757462E+02 -0.27956721183E+02 -0.10186718582E+03  0.10674049809E+03  0.00000000000E+00 0. -1.
        -12    1    6    6    0    0  0.64785448555E+02  0.46673531180E+01 -0.20179898736E+03  0.21199474010E+03  0.00000000000E+00 0.  1.
</event>
<event>
12    1  0.8494789E-002  0.2322532E+03  0.7818608E-02  0.1125223E+00
         21   -1    0    0  501  502  0.00000000000E+00  0.00000000000E+00  0.29864044019E+03  0.29864044019E+03  0.00000000000E+00 0. -1.
         21   -1    0    0  502  503 -0.00000000000E+00 -0.00000000000E+00 -0.18929452052E+03  0.18929452052E+03  0.00000000000E+00 0. -1.
         -6    2    1    2    0  503 -0.54022709769E+02 -0.14630917314E+03  0.10908424017E+03  0.25659482537E+03  0.17209504826E+03 0.  0.
        -24    2    3    3    0    0 -0.24429507379E+02 -0.37278016050E+02 -0.11083607574E+02  0.91591939106E+02  0.79245098529E+02 0.  0.
          6    2    1    2  501    0  0.54022709769E+02  0.14630917314E+03  0.26167949847E+00  0.23134013534E+03  0.17086065207E+03 0.  0.
         24    2    5    5    0    0  0.69624657770E+02  0.40819581564E+02 -0.36061762059E+02  0.11858838538E+03  0.79050131279E+02 0.  0.
          5    1    5    5  501    0 -0.15601948001E+02  0.10548959157E+03  0.36323441558E+02  0.11275174996E+03  0.47000000000E+01 0. -1.
        -13    1    6    6    0    0 -0.66836944855E+01 -0.18240040316E+01 -0.30191460443E+02  0.30976169008E+02  0.00000000000E+00 0.  1.
         14    1    6    6    0    0  0.76308352256E+02  0.42643585596E+02 -0.58703016157E+01  0.87612216371E+02  0.00000000000E+00 0. -1.
         -5    1    3    3    0  503 -0.29593202389E+02 -0.10903115709E+03  0.12016784774E+03  0.16500288626E+03  0.47000000000E+01 0.  1.
         11    1    4    4    0    0  0.76061287583E+01 -0.43663285484E+02  0.18017822023E+02  0.47843260805E+02  0.00000000000E+00 0. -1.
        -12    1    4    4    0    0 -0.32035636138E+02  0.63852694340E+01 -0.29101429597E+02  0.43748678301E+02  0.00000000000E+00 0.  1.
</event>
<event>
12    1  0.8494789E-002  0.1920547E+03  0.7818608E-02  0.1156630E+00
         21   -1    0    0  501  502  0.00000000000E+00  0.00000000000E+00  0.24561396115E+03  0.24561396115E+03  0.00000000000E+00 0.  1.
         21   -1    0    0  502  503 -0.00000000000E+00 -0.00000000000E+00 -0.11782664015E+04  0.11782664015E+04  0.00000000000E+00 0.  1.
         -6    2    1    2    0  503  0.82652082926E+02  0.28924931088E+02 -0.11313545791E+04  0.11475335781E+04  0.17088625155E+03 0.  0.
        -24    2    3    3    0    0  0.97689417228E+02  0.32022828449E+02 -0.11206342689E+04  0.11282272724E+04  0.80665542652E+02 0.  0.
          6    2    1    2  501    0 -0.82652082926E+02 -0.28924931088E+02  0.19870213866E+03  0.27634678456E+03  0.17092977206E+03 0.  0.
         24    2    5    5    0    0 -0.50967158996E+02 -0.17322972301E+02  0.24130682475E+02  0.98482164226E+02  0.78858798928E+02 0.  0.
          5    1    5    5  501    0 -0.31684923930E+02 -0.11601958786E+02  0.17457145618E+03  0.17786462033E+03  0.47000000000E+01 0. -1.
        -11    1    6    6    0    0 -0.56325342775E+02 -0.21674820104E+02  0.45785414483E+02  0.75753853002E+02  0.00000000000E+00 0.  1.
         12    1    6    6    0    0  0.53581837793E+01  0.43518478030E+01 -0.21654732008E+02  0.22728311223E+02  0.00000000000E+00 0. -1.
         -5    1    3    3    0  503 -0.15037334302E+02 -0.30978973611E+01 -0.10720310113E+02  0.19306305703E+02  0.47000000000E+01 0.  1.
         11    1    4    4    0    0  0.51958979454E+02 -0.13127730438E+02 -0.27620167959E+03  0.28135287569E+03  0.00000000000E+00 0. -1.
        -12    1    4    4    0    0  0.45730437774E+02  0.45150558887E+02 -0.84443258935E+03  0.84687439675E+03  0.00000000000E+00 0.  1.
</event>
<event>
12    1  0.8494789E-002  0.1785216E+03  0.7818608E-02  0.1169842E+00
         21   -1    0    0  501  502  0.00000000000E+00  0.00000000000E+00  0.20524967786E+03  0.20524967786E+03  0.00000000000E+00 0.  1.
         21   -1    0    0  502  503 -0.00000000000E+00 -0.00000000000E+00 -0.15502026600E+03  0.15502026600E+03  0.00000000000E+00 0.  1.
         -6    2    1    2    0  503  0.41205871510E+02 -0.22874791826E+02  0.45014718080E+02  0.18410945077E+03  0.17218822570E+03 0.  0.
        -24    2    3    3    0    0  0.10260604811E+02 -0.13201638274E+02  0.94735591533E+02  0.12456589790E+03  0.79134489027E+02 0.  0.
          6    2    1    2  501    0 -0.41205871510E+02  0.22874791826E+02  0.52146937832E+01  0.17616049309E+03  0.16965891178E+03 0.  0.
         24    2    5    5    0    0 -0.57800771014E+02 -0.36413331249E+02  0.30554953847E+02  0.10941702144E+03  0.79822425132E+02 0.  0.
          5    1    5    5  501    0  0.16594899504E+02  0.59288123075E+02 -0.25340260064E+02  0.66743471646E+02  0.47000000000E+01 0. -1.
        -11    1    6    6    0    0  0.12762785658E+02 -0.19031500848E+02 -0.11303680500E+02  0.25551123559E+02  0.00000000000E+00 0.  1.
         12    1    6    6    0    0 -0.70563556672E+02 -0.17381830401E+02  0.41858634347E+02  0.83865897883E+02  0.00000000000E+00 0. -1.
         -5    1    3    3    0  503  0.30945266699E+02 -0.96731535521E+01 -0.49720873453E+02  0.59543552864E+02  0.47000000000E+01 0.  1.
         13    1    4    4    0    0 -0.19249751442E+02 -0.28108420957E+02  0.13118316619E+02  0.36506526680E+02  0.00000000000E+00 0. -1.
        -14    1    4    4    0    0  0.29510356253E+02  0.14906782683E+02  0.81617274914E+02  0.88059371225E+02  0.00000000000E+00 0.  1.
</event>
<event>
12    1  0.8494789E-002  0.2335392E+03  0.7818608E-02  0.1124358E+00
         21   -1    0    0  503  502  0.00000000000E+00  0.00000000000E+00  0.35872815963E+03  0.35872815963E+03  0.00000000000E+00 0. -1.
         21   -1    0    0  501  503 -0.00000000000E+00 -0.00000000000E+00 -0.17841564147E+03  0.17841564147E+03  0.00000000000E+00 0.  1.
          6    2    1    2  501    0  0.82195238117E+02 -0.13684723510E+03 -0.14283640693E+02  0.23397555848E+03  0.17046206807E+03 0.  0.
         24    2    3    3    0    0  0.60699840083E+02 -0.33591064254E+02 -0.56964768067E+02  0.12009993515E+03  0.79788341493E+02 0.  0.
         -6    2    1    2    0  502 -0.82195238117E+02  0.13684723510E+03  0.19459615885E+03  0.30316824262E+03  0.16899732357E+03 0.  0.
        -24    2    5    5    0    0 -0.96812360693E+02  0.16133936017E+03  0.17453823865E+03  0.26798394747E+03  0.77128315330E+02 0.  0.
          5    1    3    3  501    0  0.21495398034E+02 -0.10325617085E+03  0.42681127375E+02  0.11387562333E+03  0.47000000000E+01 0. -1.
        -11    1    4    4    0    0 -0.16820924732E+02  0.19160782788E+01  0.10612202789E+01  0.16962931742E+02  0.00000000000E+00 0.  1.
         12    1    4    4    0    0  0.77520764815E+02 -0.35507142533E+02 -0.58025988346E+02  0.10313700341E+03  0.00000000000E+00 0. -1.
         -5    1    5    5    0  502  0.14617122576E+02 -0.24492125073E+02  0.20057920192E+02  0.35184295153E+02  0.47000000000E+01 0.  1.
         13    1    6    6    0    0  0.14488679068E+01 -0.41908846898E+01  0.21813835595E+02  0.22259967567E+02  0.00000000000E+00 0. -1.
        -14    1    6    6    0    0 -0.98261228600E+02  0.16553024486E+03  0.15272440306E+03  0.24572397990E+03  0.00000000000E+00 0.  1.
</event>
<event>
12    1  0.8494789E-002  0.2841797E+03  0.7818608E-02  0.1093517E+00
         21   -1    0    0  501  502  0.00000000000E+00  0.00000000000E+00  0.84261863178E+03  0.84261863178E+03  0.00000000000E+00 0.  1.
         21   -1    0    0  502  503 -0.00000000000E+00 -0.00000000000E+00 -0.10361959613E+03  0.10361959613E+03  0.00000000000E+00 0. -1.
         -6    2    1    2    0  503  0.22504814074E+03 -0.20862420304E+02  0.50057344037E+03  0.57528691959E+03  0.17117057113E+03 0.  0.
        -24    2    3    3    0    0  0.47766228131E+02  0.25833843291E+02  0.13480283541E+03  0.16611746445E+03  0.80462460509E+02 0.  0.
          6    2    1    2  501    0 -0.22504814074E+03  0.20862420304E+02  0.23842559528E+03  0.37095130831E+03  0.17226782177E+03 0.  0.
         24    2    5    5    0    0 -0.11293481092E+03 -0.52115178425E+02  0.12814701149E+03  0.19751952148E+03  0.84392188455E+02 0.  0.
          5    1    5    5  501    0 -0.11211332981E+03  0.72977598729E+02  0.11027858379E+03  0.17343178683E+03  0.47000000000E+01 0. -1.
        -13    1    6    6    0    0 -0.53071455569E+02 -0.32994713480E+02  0.11846232038E+03  0.13393487919E+03  0.00000000000E+00 0.  1.
         14    1    6    6    0    0 -0.59863355356E+02 -0.19120464945E+02  0.96846911166E+01  0.63584642298E+02  0.00000000000E+00 0. -1.
         -5    1    3    3    0  503  0.17728191261E+03 -0.46696263595E+02  0.36577060496E+03  0.40916945515E+03  0.47000000000E+01 0.  1.
         13    1    4    4    0    0  0.31239076434E+02 -0.11565377396E+02  0.99886680963E+01  0.34776591856E+02  0.00000000000E+00 0. -1.
        -14    1    4    4    0    0  0.16527151697E+02  0.37399220687E+02  0.12481416731E+03  0.13134087259E+03  0.00000000000E+00 0.  1.
</event>
<event>
12    1  0.8494789E-002  0.1756138E+03  0.7818608E-02  0.1172611E+00
         21   -1    0    0  503  502  0.00000000000E+00  0.00000000000E+00  0.26660425033E+03  0.26660425033E+03  0.00000000000E+00 0.  1.
         21   -1    0    0  501  503 -0.00000000000E+00 -0.00000000000E+00 -0.11462809126E+03  0.11462809126E+03  0.00000000000E+00 0.  1.
          6    2    1    2  501    0  0.29527371164E+02  0.16018292205E+02  0.67665306086E+02  0.18819884792E+03  0.17237099924E+03 0.  0.
         24    2    3    3    0    0  0.10927757871E+02  0.65377697931E+02 -0.18636850694E+01  0.10079937905E+03  0.75916942877E+02 0.  0.
         -6    2    1    2    0  502 -0.29527371164E+02 -0.16018292205E+02  0.84310852983E+02  0.19303349366E+03  0.17036771529E+03 0.  0.
        -24    2    5    5    0    0 -0.66360186580E+01  0.44581793827E+02  0.91022965458E+02  0.12773780544E+03  0.77460916682E+02 0.  0.
          5    1    3    3  501    0  0.18599613293E+02 -0.49359405726E+02  0.69528991156E+02  0.87399468874E+02  0.47000000000E+01 0. -1.
        -13    1    4    4    0    0  0.43428770406E+02  0.43123341294E+02 -0.41545682651E+01  0.61342816212E+02  0.00000000000E+00 0.  1.
         14    1    4    4    0    0 -0.32501012535E+02  0.22254356637E+02  0.22908831957E+01  0.39456562837E+02  0.00000000000E+00 0. -1.
         -5    1    5    5    0  502 -0.22891352506E+02 -0.60600086032E+02 -0.67121124749E+01  0.65295688223E+02  0.47000000000E+01 0.  1.
         13    1    6    6    0    0 -0.34402771759E+00  0.66453672434E+02  0.72906694347E+02  0.98648847006E+02  0.00000000000E+00 0. -1.
        -14    1    6    6    0    0 -0.62919909404E+01 -0.21871878607E+02  0.18116271111E+02  0.29088958434E+02  0.00000000000E+00 0.  1.
</event>
<event>
12    1  0.8494789E-002  0.1825676E+03  0.7818608E-02  0.1165464E+00
         21   -1    0    0  501  502  0.00000000000E+00  0.00000000000E+00  0.39890700117E+03  0.39890700117E+03  0.00000000000E+00 0.  1.
         21   -1    0    0  502  503 -0.00000000000E+00 -0.00000000000E+00 -0.12392283294E+03  0.12392283294E+03  0.00000000000E+00 0.  1.
         -6    2    1    2    0  503  0.13986337024E+02  0.57667054376E+02  0.28726151328E+03  0.34036759896E+03  0.17265520155E+03 0.  0.
        -24    2    3    3    0    0  0.47714785468E+02  0.17020034113E+02  0.26723769139E+03  0.28368575060E+03  0.80593046080E+02 0.  0.
          6    2    1    2  501    0 -0.13986337024E+02 -0.57667054376E+02 -0.12277345055E+02  0.18246223515E+03  0.17210644169E+03 0.  0.
         24    2    5    5    0    0 -0.28691606322E+02 -0.15390443303E+02 -0.68150482746E+02  0.11071647357E+03  0.80954154951E+02 0.  0.
          5    1    5    5  501    0  0.14705269298E+02 -0.42276611072E+02  0.55873137691E+02  0.71745761577E+02  0.47000000000E+01 0. -1.
        -11    1    6    6    0    0 -0.17400479842E+02 -0.48111912954E+02 -0.30460488649E+02  0.59543045232E+02  0.00000000000E+00 0.  1.
         12    1    6    6    0    0 -0.11291126480E+02  0.32721469650E+02 -0.37689994097E+02  0.51173428342E+02  0.00000000000E+00 0. -1.
         -5    1    3    3    0  503 -0.33728448444E+02  0.40647020262E+02  0.20023821887E+02  0.56681848361E+02  0.47000000000E+01 0.  1.
         11    1    4    4    0    0  0.28058180032E+01 -0.17990836179E+02  0.11166645426E+02  0.21359699697E+02  0.00000000000E+00 0. -1.
        -12    1    4    4    0    0  0.44908967465E+02  0.35010870292E+02  0.25607104597E+03  0.26232605090E+03  0.00000000000E+00 0.  1.
</event>
<event>
12    1  0.8494789E-002  0.1917253E+03  0.7818608E-02  0.1157074E+00
         21   -1    0    0  501  502  0.00000000000E+00  0.00000000000E+00  0.41440910625E+02  0.41440910625E+02  0.00000000000E+00 0. -1.
         21   -1    0    0  502  503 -0.00000000000E+00 -0.00000000000E+00 -0.21619819063E+04  0.21619819063E+04  0.00000000000E+00 0. -1.
         -6    2    1    2    0  503 -0.48832046682E+02 -0.65485185892E+02 -0.19082210555E+04  0.19178285102E+04  0.17345235595E+03 0.  0.
        -24    2    3    3    0    0  0.50563049211E+01 -0.42134653268E+02 -0.16688609542E+04  0.16713238452E+04  0.80159938920E+02 0.  0.
          6    2    1    2  501    0  0.48832046682E+02  0.65485185892E+02 -0.21231994018E+03  0.28559430666E+03  0.17265999144E+03 0.  0.
         24    2    5    5    0    0  0.64258161894E+02 -0.19665045100E+02 -0.13551677469E+03  0.16979558863E+03  0.77135726659E+02 0.  0.
          5    1    5    5  501    0 -0.15426115212E+02  0.85150230992E+02 -0.76803165485E+02  0.11579871803E+03  0.47000000000E+01 0. -1.
        -11    1    6    6    0    0  0.21783995583E+02  0.28981725537E+02 -0.63030944978E+02  0.72714392684E+02  0.00000000000E+00 0.  1.
         12    1    6    6    0    0  0.42474166311E+02 -0.48646770638E+02 -0.72485829716E+02  0.97081195949E+02  0.00000000000E+00 0. -1.
         -5    1    3    3    0  503 -0.53888351603E+02 -0.23350532624E+02 -0.23936010130E+03  0.24650466508E+03  0.47000000000E+01 0.  1.
         13    1    4    4    0    0  0.23047367117E+02 -0.53816402552E+02 -0.77599374832E+03  0.77819900009E+03  0.00000000000E+00 0. -1.
        -14    1    4    4    0    0 -0.17991062196E+02  0.11681749284E+02 -0.89286720586E+03  0.89312484507E+03  0.00000000000E+00 0.  1.
</event>
<event>
12    1  0.8494789E-002  0.3144910E+03  0.7818608E-02  0.1078226E+00
         21   -1    0    0  503  502  0.00000000000E+00  0.00000000000E+00  0.28633095357E+03  0.28633095357E+03  0.00000000000E+00 0.  1.
         21   -1    0    0  501  503 -0.00000000000E+00 -0.00000000000E+00 -0.34954252189E+03  0.34954252189E+03  0.00000000000E+00 0. -1.
          6    2    1    2  501    0  0.18496970539E+03  0.18675361705E+03 -0.66641191996E+02  0.32136382348E+03  0.17246145419E+03 0.  0.
         24    2    3    3    0    0  0.38477612072E+02  0.96497335706E+02 -0.71525701266E+02  0.14916603558E+03  0.79638670261E+02 0.  0.
         -6    2    1    2    0  502 -0.18496970539E+03 -0.18675361705E+03  0.34296236807E+01  0.31450965198E+03  0.17266688587E+03 0.  0.
        -24    2    5    5    0    0 -0.18560356185E+03 -0.20983320458E+03  0.86567395068E+01  0.29037499071E+03  0.75921276199E+02 0.  0.
          5    1    3    3  501    0  0.14649209332E+03  0.90256281339E+02  0.48845092699E+01  0.17219778790E+03  0.47000000000E+01 0. -1.
        -11    1    4    4    0    0  0.50414076065E+02  0.54539613280E+02 -0.11794362334E+02  0.75201432600E+02  0.00000000000E+00 0.  1.
         12    1    4    4    0    0 -0.11936463993E+02  0.41957722426E+02 -0.59731338932E+02  0.73964602983E+02  0.00000000000E+00 0. -1.
         -5    1    5    5    0  502  0.63385645365E+00  0.23079587530E+02 -0.52271158261E+01  0.24134661266E+02  0.47000000000E+01 0.  1.
         11    1    6    6    0    0 -0.14255492623E+03 -0.16709551799E+03 -0.24903510228E+02  0.22104977708E+03  0.00000000000E+00 0. -1.
        -12    1    6    6    0    0 -0.43048635619E+02 -0.42737686586E+02  0.33560249735E+02  0.69325213636E+02  0.00000000000E+00 0.  1.
</event>
<event>
12    1  0.8494789E-002  0.2068278E+03  0.7818608E-02  0.1144396E+00
         21   -1    0    0  501  502  0.00000000000E+00  0.00000000000E+00  0.96623607084E+02  0.96623607084E+02  0.00000000000E+00 0. -1.
         21   -1    0    0  502  503 -0.00000000000E+00 -0.00000000000E+00 -0.43967153722E+03  0.43967153722E+03  0.00000000000E+00 0. -1.
         -6    2    1    2    0  503 -0.10407262209E+03 -0.44378483661E+02 -0.17341858790E+03  0.26880333223E+03  0.17140788871E+03 0.  0.
        -24    2    3    3    0    0 -0.16377140632E+02 -0.73268448944E+02 -0.11794851881E+03  0.16098799878E+03  0.79804801342E+02 0.  0.
          6    2    1    2  501    0  0.10407262209E+03  0.44378483661E+02 -0.16962934224E+03  0.26749181207E+03  0.17313923673E+03 0.  0.
         24    2    5    5    0    0  0.12085407659E+03 -0.14992974367E+02 -0.12025589577E+03  0.18833112448E+03  0.78591569976E+02 0.  0.
          5    1    5    5  501    0 -0.16781454501E+02  0.59371458028E+02 -0.49373446467E+02  0.79160687589E+02  0.47000000000E+01 0. -1.
        -13    1    6    6    0    0  0.51148978125E+02 -0.16835387675E+02 -0.10341833378E+03  0.11659759862E+03  0.00000000000E+00 0.  1.
         14    1    6    6    0    0  0.69705098466E+02  0.18424133083E+01 -0.16837561992E+02  0.71733525863E+02  0.00000000000E+00 0. -1.
         -5    1    3    3    0  503 -0.87695481458E+02  0.28889965284E+02 -0.55470069089E+02  0.10781533345E+03  0.47000000000E+01 0.  1.
         13    1    4    4    0    0 -0.15758347764E+02 -0.18049826782E+02  0.65092095439E+01  0.24829248478E+02  0.00000000000E+00 0. -1.
        -14    1    4    4    0    0 -0.61879286746E+00 -0.55218622163E+02 -0.12445772835E+03  0.13615875031E+03  0.00000000000E+00 0.  1.
</event>
<event>
12    1  0.8494789E-002  0.2060517E+03  0.7818608E-02  0.1144904E+00
         21   -1    0    0  501  502  0.00000000000E+00  0.00000000000E+00  0.32039486736E+02  0.32039486736E+02  0.00000000000E+00 0.  1.
         21   -1    0    0  502  503 -0.00000000000E+00 -0.00000000000E+00 -0.22004844239E+04  0.22004844239E+04  0.00000000000E+00 0.  1.
         -6    2    1    2    0  503 -0.64208681536E+02  0.92717264737E+02 -0.17917850127E+04  0.18035938698E+04  0.17244729480E+03 0.  0.
        -24    2    3    3    0    0 -0.13286825402E+02  0.38536283973E+02 -0.39993284616E+03  0.40974913038E+03  0.79287347656E+02 0.  0.
          6    2    1    2  501    0  0.64208681536E+02 -0.92717264737E+02 -0.37665992438E+03  0.42893004076E+03  0.17143230518E+03 0.  0.
         24    2    5    5    0    0  0.35266239916E+02 -0.34968284122E+02 -0.72839285670E+02  0.11828284505E+03  0.78859250089E+02 0.  0.
          5    1    5    5  501    0  0.28942441620E+02 -0.57748980616E+02 -0.30382063871E+03  0.31064719570E+03  0.47000000000E+01 0. -1.
        -13    1    6    6    0    0  0.60335770776E+02 -0.24813882686E+02 -0.58710285765E+02  0.87766916681E+02  0.00000000000E+00 0.  1.
         14    1    6    6    0    0 -0.25069530860E+02 -0.10154401436E+02 -0.14128999906E+02  0.30515928372E+02  0.00000000000E+00 0. -1.
         -5    1    3    3    0  503 -0.50921856133E+02  0.54180980765E+02 -0.13918521666E+04  0.13938447395E+04  0.47000000000E+01 0.  1.
         13    1    4    4    0    0  0.24685195126E+02 -0.10758416537E+02 -0.12053147690E+03  0.12350279069E+03  0.00000000000E+00 0. -1.
        -14    1    4    4    0    0 -0.37972020528E+02  0.49294700509E+02 -0.27940136927E+03  0.28624633970E+03  0.00000000000E+00 0.  1.
</event>
<event>
12    1  0.8494789E-002  0.2066336E+03  0.7818608E-02  0.1144276E+00
         21   -1    0    0  501  502  0.00000000000E+00  0.00000000000E+00  0.31005075893E+03  0.31005075893E+03  0.00000000000E+00 0.  1.
         21   -1    0    0  502  503 -0.00000000000E+00 -0.00000000000E+00 -0.60972218450E+03  0.60972218450E+03  0.00000000000E+00 0.  1.
         -6    2    1    2    0  503 -0.39776570140E+02 -0.10691188613E+03 -0.55449790842E+03  0.59174773454E+03  0.17229371424E+03 0.  0.
        -24    2    3    3    0    0  0.31765666089E+02 -0.81104617837E+02 -0.22827411363E+03  0.25674271824E+03  0.78871641536E+02 0.  0.
          6    2    1    2  501    0  0.39776570140E+02  0.10691188613E+03  0.25482648285E+03  0.32802520889E+03  0.17219661547E+03 0.  0.
         24    2    5    5    0    0  0.22479534030E+02 -0.13069774593E+02  0.13003360927E+03  0.15398458816E+03  0.78271101899E+02 0.  0.
          5    1    5    5  501    0  0.17297036110E+02  0.11998166072E+03  0.12479287358E+03  0.17404062073E+03  0.47000000000E+01 0. -1.
        -11    1    6    6    0    0 -0.16561896367E+02  0.13345551251E+00  0.10383781477E+03  0.10515039704E+03  0.00000000000E+00 0.  1.
         12    1    6    6    0    0  0.39041430397E+02 -0.13203230105E+02  0.26195794501E+02  0.48834191118E+02  0.00000000000E+00 0. -1.
         -5    1    3    3    0  503 -0.71542236229E+02 -0.25807268295E+02 -0.32622379478E+03  0.33500501630E+03  0.47000000000E+01 0.  1.
         13    1    4    4    0    0  0.39868168169E+02 -0.55546161754E+02 -0.76429448659E+02  0.10254904944E+03  0.00000000000E+00 0. -1.
        -14    1    4    4    0    0 -0.81025020802E+01 -0.25558456082E+02 -0.15184466497E+03  0.15419366880E+03  0.00000000000E+00 0.  1.
</event>
<event>
12    1  0.8494789E-002  0.2248553E+03  0.7818608E-02  0.1130748E+00
         21   -1    0    0  501  502  0.00000000000E+00  0.00000000000E+00  0.18069477287E+04  0.18069477287E+04  0.00000000000E+00 0.  1.
         21   -1    0    0  502  503 -0.00000000000E+00 -0.00000000000E+00 -0.44441362106E+02  0.44441362106E+02  0.00000000000E+00 0.  1.
         -6    2    1    2    0  503  0.60427766321E+02  0.12698823438E+03  0.14467351999E+04  0.14637406403E+04  0.17238444528E+03 0.  0.
        -24    2    3    3    0    0  0.10749442146E+03  0.98746951124E+02  0.10203400916E+04  0.10338014371E+04  0.79658633153E+02 0.  0.
          6    2    1    2  501    0 -0.60427766321E+02 -0.12698823438E+03  0.31577116677E+03  0.38764845053E+03  0.17544903768E+03 0.  0.
         24    2    5    5    0    0  0.34180372011E+02 -0.77073330606E+02  0.18555244296E+03  0.21906255703E+03  0.80312506387E+02 0.  0.
          5    1    5    5  501    0 -0.94608138332E+02 -0.49914903771E+02  0.13021872381E+03  0.16858589351E+03  0.47000000000E+01 0. -1.
        -11    1    6    6    0    0 -0.15232180353E+02  0.53260623616E+01  0.10132371395E+02  0.19053902715E+02  0.00000000000E+00 0.  1.
         12    1    6    6    0    0  0.49412552364E+02 -0.82399392968E+02  0.17542007156E+03  0.20000865431E+03  0.00000000000E+00 0. -1.
         -5    1    3    3    0  503 -0.47066655135E+02  0.28241283253E+02  0.42639510821E+03  0.42993920316E+03  0.47000000000E+01 0.  1.
         13    1    4    4    0    0 -0.47348930613E+01  0.13036676714E+02  0.25855727902E+02  0.29340975059E+02  0.00000000000E+00 0. -1.
        -14    1    4    4    0    0  0.11222931452E+03  0.85710274410E+02  0.99448436374E+03  0.10044604621E+04  0.00000000000E+00 0.  1.
</event>
<event>
12    1  0.8494789E-002  0.2258325E+03  0.7818608E-02  0.1129743E+00
         21   -1    0    0  501  502  0.00000000000E+00  0.00000000000E+00  0.27756293224E+04  0.27756293224E+04  0.00000000000E+00 0. -1.
         21   -1    0    0  502  503 -0.00000000000E+00 -0.00000000000E+00 -0.18335845958E+02  0.18335845958E+02  0.00000000000E+00 0.  1.
         -6    2    1    2    0  503  0.80311170139E+02 -0.12302056105E+03  0.13273685778E+04  0.13463168842E+04  0.17052234123E+03 0.  0.
        -24    2    3    3    0    0  0.72251167573E+02 -0.12994836670E+03  0.74916579370E+03  0.76799732922E+03  0.80397151781E+02 0.  0.
          6    2    1    2  501    0 -0.80311170139E+02  0.12302056105E+03  0.14299248986E+04  0.14476482841E+04  0.17151208814E+03 0.  0.
         24    2    5    5    0    0 -0.64862837308E+02  0.18852704996E+01  0.72399556932E+03  0.73121914069E+03  0.79379502496E+02 0.  0.
          5    1    5    5  501    0 -0.15448332830E+02  0.12113529055E+03  0.70592932930E+03  0.71642914344E+03  0.47000000000E+01 0. -1.
        -11    1    6    6    0    0 -0.42734028265E+02  0.30573343310E+02  0.23129947860E+03  0.23719269655E+03  0.00000000000E+00 0.  1.
         12    1    6    6    0    0 -0.22128809043E+02 -0.28688072810E+02  0.49269609071E+03  0.49402644415E+03  0.00000000000E+00 0. -1.
         -5    1    3    3    0  503  0.80600025660E+01  0.69278056468E+01  0.57820278408E+03  0.57831955496E+03  0.47000000000E+01 0.  1.
         11    1    4    4    0    0  0.66636330405E+02 -0.37606460544E+02  0.33933131285E+03  0.34785109786E+03  0.00000000000E+00 0. -1.
        -12    1    4    4    0    0  0.56148371675E+01 -0.92341906152E+02  0.40983448085E+03  0.42014623135E+03  0.00000000000E+00 0.  1.
</event>
<event>
12    1  0.8494789E-002  0.3622604E+03  0.7818608E-02  0.1057746E+00
         21   -1    0    0  501  502  0.00000000000E+00  0.00000000000E+00  0.23558088211E+03  0.23558088211E+03  0.00000000000E+00 0. -1.
         21   -1    0    0  502  503 -0.00000000000E+00 -0.00000000000E+00 -0.61368621257E+03  0.61368621257E+03  0.00000000000E+00 0.  1.
         -6    2    1    2    0  503  0.19770333448E+03  0.24962148852E+03 -0.31886930414E+03  0.48219552830E+03  0.17157330327E+03 0.  0.
        -24    2    3    3    0    0  0.67593696186E+02  0.19369534148E+03 -0.19511925382E+03  0.29406680414E+03  0.79479362179E+02 0.  0.
          6    2    1    2  501    0 -0.19770333448E+03 -0.24962148852E+03 -0.59236026320E+02  0.36707156638E+03  0.17272849225E+03 0.  0.
         24    2    5    5    0    0 -0.17577169784E+03 -0.11284535131E+03 -0.37240663734E+02  0.22673413598E+03  0.79948347771E+02 0.  0.
          5    1    5    5  501    0 -0.21931636641E+02 -0.13677613721E+03 -0.21995362586E+02  0.14033743040E+03  0.47000000000E+01 0. -1.
        -11    1    6    6    0    0  0.64725670665E+01 -0.15511880716E+02 -0.63941750011E-01  0.16808231803E+02  0.00000000000E+00 0.  1.
         12    1    6    6    0    0 -0.18224426490E+03 -0.97333470597E+02 -0.37176721984E+02  0.20992590418E+03  0.00000000000E+00 0. -1.
         -5    1    3    3    0  503  0.13010963829E+03  0.55926147042E+02 -0.12375005033E+03  0.18812872416E+03  0.47000000000E+01 0.  1.
         11    1    4    4    0    0 -0.10018769828E+02  0.83765826483E+02 -0.61246071122E+02  0.10425051877E+03  0.00000000000E+00 0. -1.
        -12    1    4    4    0    0  0.77612466014E+02  0.10992951500E+03 -0.13387318269E+03  0.18981628537E+03  0.00000000000E+00 0.  1.
</event>
<event>
12    1  0.8494789E-002  0.2264737E+03  0.7818608E-02  0.1129155E+00
         21   -1    0    0  503  502  0.00000000000E+00  0.00000000000E+00  0.11852503110E+03  0.11852503110E+03  0.00000000000E+00 0. -1.
         21   -1    0    0  501  503 -0.00000000000E+00 -0.00000000000E+00 -0.47412589154E+03  0.47412589154E+03  0.00000000000E+00 0.  1.
          6    2    1    2  501    0  0.14640005245E+03  0.16657462218E+02 -0.26543186883E+03  0.34888710240E+03  0.17192349119E+03 0.  0.
         24    2    3    3    0    0  0.24280291675E+01 -0.51819551098E+01 -0.10349414160E+03  0.13105500849E+03  0.80197443348E+02 0.  0.
         -6    2    1    2    0  502 -0.14640005245E+03 -0.16657462218E+02 -0.90168991605E+02  0.24376382025E+03  0.17198810019E+03 0.  0.
        -24    2    5    5    0    0 -0.13035984633E+03 -0.34352746227E+02 -0.69760594703E+01  0.15708299627E+03  0.80328087250E+02 0.  0.
          5    1    3    3  501    0  0.14397202328E+03  0.21839417328E+02 -0.16193772724E+03  0.21783209392E+03  0.47000000000E+01 0. -1.
        -13    1    4    4    0    0 -0.15584875684E+02  0.33710520968E+02 -0.54604719396E+02  0.66037587436E+02  0.00000000000E+00 0.  1.
         14    1    4    4    0    0  0.18012904851E+02 -0.38892476078E+02 -0.48889422203E+02  0.65017421050E+02  0.00000000000E+00 0. -1.
         -5    1    5    5    0  502 -0.16040206118E+02  0.17695284009E+02 -0.83192932135E+02  0.86680823979E+02  0.47000000000E+01 0.  1.
         11    1    6    6    0    0 -0.24529773097E+02 -0.42943515011E+02  0.71481719310E+01  0.49969506818E+02  0.00000000000E+00 0. -1.
        -12    1    6    6    0    0 -0.10583007324E+03  0.85907687833E+01 -0.14124231401E+02  0.10711348945E+03  0.00000000000E+00 0.  1.
</event>
<event>
12    1  0.8494789E-002  0.1853381E+03  0.7818608E-02  0.1163130E+00
         21   -1    0    0  503  502  0.00000000000E+00  0.00000000000E+00  0.22389292831E+03  0.22389292831E+03  0.00000000000E+00 0. -1.
         21   -1    0    0  501  503 -0.00000000000E+00 -0.00000000000E+00 -0.15535216843E+03  0.15535216843E+03  0.00000000000E+00 0. -1.
          6    2    1    2  501    0 -0.55592774047E+02 -0.26294493168E+02  0.61860467442E+02  0.19378668024E+03  0.17304508981E+03 0.  0.
         24    2    3    3    0    0 -0.82323459399E+02  0.24008558064E+02  0.69856841138E+02  0.13607222369E+03  0.79259756358E+02 0.  0.
         -6    2    1    2    0  502  0.55592774047E+02  0.26294493168E+02  0.66802924415E+01  0.18545841650E+03  0.17483775636E+03 0.  0.
        -24    2    5    5    0    0  0.73113029258E+02 -0.19539376559E+02 -0.40021051744E+02  0.11755548206E+03  0.80562426088E+02 0.  0.
          5    1    3    3  501    0  0.26730685352E+02 -0.50303051232E+02 -0.79963736958E+01  0.57714456551E+02  0.47000000000E+01 0. -1.
        -11    1    4    4    0    0 -0.88143340545E+02  0.10672933026E+02  0.79035577347E+02  0.11886876153E+03  0.00000000000E+00 0.  1.
         12    1    4    4    0    0  0.58198811465E+01  0.13335625038E+02 -0.91787362090E+01  0.17203462155E+02  0.00000000000E+00 0. -1.
         -5    1    5    5    0  502 -0.17520255212E+02  0.45833869727E+02  0.46701344185E+02  0.67902934440E+02  0.47000000000E+01 0.  1.
         11    1    6    6    0    0  0.59265159294E+02  0.24250126796E+02 -0.17381672529E+02  0.66351716600E+02  0.00000000000E+00 0. -1.
        -12    1    6    6    0    0  0.13847869964E+02 -0.43789503355E+02 -0.22639379214E+02  0.51203765465E+02  0.00000000000E+00 0.  1.
</event>
<event>
12    1  0.8494789E-002  0.2319128E+03  0.7818608E-02  0.1125510E+00
         21   -1    0    0  501  502  0.00000000000E+00  0.00000000000E+00  0.11844476138E+04  0.11844476138E+04  0.00000000000E+00 0.  1.
         21   -1    0    0  502  503 -0.00000000000E+00 -0.00000000000E+00 -0.63880582428E+02  0.63880582428E+02  0.00000000000E+00 0. -1.
         -6    2    1    2    0  503 -0.15278855093E+03 -0.11579058664E+02  0.22149154516E+03  0.31982388462E+03  0.17248303307E+03 0.  0.
        -24    2    3    3    0    0 -0.16728844140E+03 -0.14677323796E+02  0.13417770956E+03  0.23113543014E+03  0.84965186192E+02 0.  0.
          6    2    1    2  501    0  0.15278855093E+03  0.11579058664E+02  0.89907548616E+03  0.92850431156E+03  0.17408363183E+03 0.  0.
         24    2    5    5    0    0  0.17314322461E+02 -0.23040801241E+02  0.22448193253E+03  0.23955558061E+03  0.78511616232E+02 0.  0.
          5    1    5    5  501    0  0.13547422847E+03  0.34619859904E+02  0.67459355363E+03  0.68894873095E+03  0.47000000000E+01 0. -1.
        -13    1    6    6    0    0  0.20448598657E+02  0.23969075460E+02  0.13268101656E+03  0.13637050238E+03  0.00000000000E+00 0.  1.
         14    1    6    6    0    0 -0.31342761960E+01 -0.47009876701E+02  0.91800915972E+02  0.10318507822E+03  0.00000000000E+00 0. -1.
         -5    1    3    3    0  503  0.14499890462E+02  0.30982651319E+01  0.87313835604E+02  0.88688454481E+02  0.47000000000E+01 0.  1.
         11    1    4    4    0    0 -0.11713586926E+03 -0.47435652568E+02  0.75128514880E+02  0.14702124591E+03  0.00000000000E+00 0. -1.
        -12    1    4    4    0    0 -0.50152572139E+02  0.32758328773E+02  0.59049194679E+02  0.84114184228E+02  0.00000000000E+00 0.  1.
</event>
<event>
12    1  0.8494789E-002  0.1726887E+03  0.7818608E-02  0.1175272E+00
         21   -1    0    0  501  502  0.00000000000E+00  0.00000000000E+00  0.48271869397E+02  0.48271869397E+02  0.00000000000E+00 0. -1.
         21   -1    0    0  502  503 -0.00000000000E+00 -0.00000000000E+00 -0.79175848975E+03  0.79175848975E+03  0.00000000000E+00 0. -1.
         -6    2    1    2    0  503  0.16278755290E+01  0.14423220072E+02 -0.56954594364E+03  0.59492475745E+03  0.17129566792E+03 0.  0.
        -24    2    3    3    0    0  0.15915387998E+02 -0.29743628812E+02 -0.15857664695E+03  0.18131540507E+03  0.81183373464E+02 0.  0.
          6    2    1    2  501    0 -0.16278755290E+01 -0.14423220072E+02 -0.17394067672E+03  0.24510560170E+03  0.17207765025E+03 0.  0.
         24    2    5    5    0    0  0.60861091633E+02 -0.23622299639E+02 -0.75854492342E+02  0.12834737438E+03  0.80355827341E+02 0.  0.
          5    1    5    5  501    0 -0.62488967162E+02  0.91990795668E+01 -0.98086184375E+02  0.11675822732E+03  0.47000000000E+01 0. -1.
        -13    1    6    6    0    0  0.50885624789E+02  0.18850741790E+02 -0.62391660987E+02  0.82688672967E+02  0.00000000000E+00 0.  1.
         14    1    6    6    0    0  0.99754668442E+01 -0.42473041429E+02 -0.13462831355E+02  0.45658701417E+02  0.00000000000E+00 0. -1.
         -5    1    3    3    0  503 -0.14287512469E+02  0.44166848884E+02 -0.41096929669E+03  0.41360935238E+03  0.47000000000E+01 0.  1.
         13    1    4    4    0    0  0.40616846350E+01 -0.59808766986E+01 -0.15423891082E+03  0.15440825683E+03  0.00000000000E+00 0. -1.
        -14    1    4    4    0    0  0.11853703363E+02 -0.23762752113E+02 -0.43377361339E+01  0.26907148236E+02  0.00000000000E+00 0.  1.
</event>
<event>
12    1  0.8494789E-002  0.1964953E+03  0.7818608E-02  0.1154201E+00
         21   -1    0    0  501  502  0.00000000000E+00  0.00000000000E+00  0.20902827578E+03  0.20902827578E+03  0.00000000000E+00 0. -1.
         21   -1    0    0  502  503 -0.00000000000E+00 -0.00000000000E+00 -0.22539496359E+03  0.22539496359E+03  0.00000000000E+00 0. -1.
         -6    2    1    2    0  503 -0.81492445512E+02  0.80958775920E+01 -0.10715978284E+03  0.21796584895E+03  0.17122888291E+03 0.  0.
        -24    2    3    3    0    0 -0.11650086173E+03  0.32742170572E+02 -0.86485298595E+02  0.17018977479E+03  0.82706420863E+02 0.  0.
          6    2    1    2  501    0  0.81492445512E+02 -0.80958775920E+01  0.90793095038E+02  0.21645739042E+03  0.17861649938E+03 0.  0.
         24    2    5    5    0    0 -0.24507902824E+02 -0.19487494969E+02  0.62374459418E+02  0.10602391884E+03  0.79812896312E+02 0.  0.
          5    1    5    5  501    0  0.10600034834E+03  0.11391617377E+02  0.28418635620E+02  0.11043347158E+03  0.47000000000E+01 0. -1.
        -11    1    6    6    0    0 -0.43642639409E+02  0.93772242329E+01  0.14495502170E+02  0.46933270630E+02  0.00000000000E+00 0.  1.
         12    1    6    6    0    0  0.19134736585E+02 -0.28864719202E+02  0.47878957248E+02  0.59090648210E+02  0.00000000000E+00 0. -1.
         -5    1    3    3    0  503  0.35008416217E+02 -0.24646292980E+02 -0.20674484248E+02  0.47776074165E+02  0.47000000000E+01 0.  1.
         13    1    4    4    0    0 -0.10432186063E+03  0.57021199612E+02 -0.64587180780E+02  0.13529956294E+03  0.00000000000E+00 0. -1.
        -14    1    4    4    0    0 -0.12179001098E+02 -0.24279029041E+02 -0.21898117815E+02  0.34890211847E+02  0.00000000000E+00 0.  1.
</event>
<event>
12    1  0.8494789E-002  0.2229559E+03  0.7818608E-02  0.1131795E+00
         21   -1    0    0  503  502  0.00000000000E+00  0.00000000000E+00  0.17723905199E+04  0.17723905199E+04  0.00000000000E+00 0.  1.
         21   -1    0    0  501  503 -0.00000000000E+00 -0.00000000000E+00 -0.59113565327E+02  0.59113565327E+02  0.00000000000E+00 0. -1.
          6    2    1    2  501    0 -0.13987403074E+03  0.22513262597E+02  0.19157715239E+03  0.29355753091E+03  0.17147194280E+03 0.  0.
         24    2    3    3    0    0 -0.80768475913E+02  0.29333372321E+02  0.30959369067E+02  0.12220951421E+03  0.81195377931E+02 0.  0.
         -6    2    1    2    0  502  0.13987403074E+03 -0.22513262597E+02  0.15216998022E+04  0.15379465543E+04  0.17215610502E+03 0.  0.
        -24    2    5    5    0    0  0.10908063557E+03  0.84009606434E+00  0.59923860827E+03  0.61466417237E+03  0.82618668159E+02 0.  0.
          5    1    3    3  501    0 -0.59105554827E+02 -0.68201097241E+01  0.16061778332E+03  0.17134801670E+03  0.47000000000E+01 0. -1.
        -11    1    4    4    0    0 -0.90622762090E+01  0.39293085561E+02  0.29212272060E+02  0.49793857672E+02  0.00000000000E+00 0.  1.
         12    1    4    4    0    0 -0.71706199704E+02 -0.99597132399E+01  0.17470970077E+01  0.72415656538E+02  0.00000000000E+00 0. -1.
         -5    1    5    5    0  502  0.30793395174E+02 -0.23353358661E+02  0.92246119391E+03  0.92328238194E+03  0.47000000000E+01 0.  1.
         13    1    6    6    0    0  0.10760617044E+03 -0.25311500308E+02  0.47475084395E+03  0.48745063729E+03  0.00000000000E+00 0. -1.
        -14    1    6    6    0    0  0.14744651310E+01  0.26151596372E+02  0.12448776432E+03  0.12721353507E+03  0.00000000000E+00 0.  1.
</event>
<event>
12    1  0.8494789E-002  0.1856156E+03  0.7818608E-02  0.1164243E+00
         21   -1    0    0  501  502  0.00000000000E+00  0.00000000000E+00  0.16532066928E+04  0.16532066928E+04  0.00000000000E+00 0.  1.
         21   -1    0    0  502  503 -0.00000000000E+00 -0.00000000000E+00 -0.20073503225E+02  0.20073503225E+02  0.00000000000E+00 0.  1.
         -6    2    1    2    0  503 -0.41420000966E+02 -0.18801801020E+02  0.75424683539E+03  0.77500719348E+03  0.17227517824E+03 0.  0.
        -24    2    3    3    0    0  0.28544420861E+02  0.30644928785E+02  0.45431408299E+03  0.46304285998E+03  0.79079128421E+02 0.  0.
          6    2    1    2  501    0  0.41420000966E+02  0.18801801020E+02  0.87888635421E+03  0.89827300258E+03  0.17995565937E+03 0.  0.
         24    2    5    5    0    0 -0.48553870862E+02 -0.18457847080E+01  0.42442192899E+03  0.43450406852E+03  0.79365776339E+02 0.  0.
          5    1    5    5  501    0  0.89973871829E+02  0.20647585728E+02  0.45446442522E+03  0.46376893406E+03  0.47000000000E+01 0. -1.
        -11    1    6    6    0    0 -0.39153619885E+01  0.23987807490E+02  0.41260171237E+02  0.47886811318E+02  0.00000000000E+00 0.  1.
         12    1    6    6    0    0 -0.44638508874E+02 -0.25833592198E+02  0.38316175776E+03  0.38661725720E+03  0.00000000000E+00 0. -1.
         -5    1    3    3    0  503 -0.69964421827E+02 -0.49446729805E+02  0.29993275240E+03  0.31196433350E+03  0.47000000000E+01 0.  1.
         13    1    4    4    0    0  0.23800021885E+02  0.20493747655E+02  0.53250177400E+02  0.61822456501E+02  0.00000000000E+00 0. -1.
        -14    1    4    4    0    0  0.47443989755E+01  0.10151181130E+02  0.40106390559E+03  0.40122040348E+03  0.00000000000E+00 0.  1.
</event>
<event>
12    1  0.8494789E-002  0.1804623E+03  0.7818608E-02  0.1167795E+00
         21   -1    0    0  501  502  0.00000000000E+00  0.00000000000E+00  0.52585375443E+03  0.52585375443E+03  0.00000000000E+00 0.  1.
         21   -1    0    0  502  503 -0.00000000000E+00 -0.00000000000E+00 -0.65437396846E+02  0.65437396846E+02  0.00000000000E+00 0.  1.
         -6    2    1    2    0  503  0.80277571267E+01  0.49837392937E+02  0.15488352240E+03  0.23644334362E+03  0.17137193064E+03 0.  0.
        -24    2    3    3    0    0 -0.27979072462E+02 -0.13866256533E+02  0.13674673634E+03  0.16090739363E+03  0.78844263312E+02 0.  0.
          6    2    1    2  501    0 -0.80277571267E+01 -0.49837392937E+02  0.30553283519E+03  0.35484780765E+03  0.17325831178E+03 0.  0.
         24    2    5    5    0    0  0.36986745969E+02 -0.74791063406E+02  0.26664501552E+03  0.29016903465E+03  0.78337614376E+02 0.  0.
          5    1    5    5  501    0 -0.45014503095E+02  0.24953670469E+02  0.38887819666E+02  0.64678773003E+02  0.47000000000E+01 0. -1.
        -13    1    6    6    0    0  0.45980856433E+02 -0.75403223735E+01  0.10734700795E+03  0.11702339824E+03  0.00000000000E+00 0.  1.
         14    1    6    6    0    0 -0.89941104647E+01 -0.67250741032E+02  0.15929800757E+03  0.17314563641E+03  0.00000000000E+00 0. -1.
         -5    1    3    3    0  503  0.36006829589E+02  0.63703649471E+02  0.18136786053E+02  0.75535949992E+02  0.47000000000E+01 0.  1.
         13    1    4    4    0    0  0.17594842833E+02  0.20548850006E+02  0.35084884215E+02  0.44303304970E+02  0.00000000000E+00 0. -1.
        -14    1    4    4    0    0 -0.45573915295E+02 -0.34415106539E+02  0.10166185213E+03  0.11660408866E+03  0.00000000000E+00 0.  1.
</event>
<event>
12    1  0.8494789E-002  0.2220410E+03  0.7818608E-02  0.1132532E+00
         21   -1    0    0  503  502  0.00000000000E+00  0.00000000000E+00  0.78293489402E+03  0.78293489402E+03  0.00000000000E+00 0.  1.
         21   -1    0    0  501  503 -0.00000000000E+00 -0.00000000000E+00 -0.63331355730E+02  0.63331355730E+02  0.00000000000E+00 0. -1.
          6    2    1    2  501    0 -0.37604095875E+02  0.13502197935E+03  0.31902030093E+03  0.38868514218E+03  0.17221261396E+03 0.  0.
         24    2    3    3    0    0  0.27545019102E+02  0.14396864567E+02  0.11578306753E+03  0.14348667452E+03  0.78846111202E+02 0.  0.
         -6    2    1    2    0  502  0.37604095875E+02 -0.13502197935E+03  0.40058323735E+03  0.45758110757E+03  0.17108049867E+03 0.  0.
        -24    2    5    5    0    0 -0.27155997872E+02 -0.18485039327E+02  0.16361306115E+03  0.18564052115E+03  0.81326652556E+02 0.  0.
          5    1    3    3  501    0 -0.65149114978E+02  0.12062511478E+03  0.20323723340E+03  0.24519846765E+03  0.47000000000E+01 0. -1.
        -11    1    4    4    0    0  0.50736146488E+02  0.23223424601E+02  0.57411589451E+02  0.80059818973E+02  0.00000000000E+00 0.  1.
         12    1    4    4    0    0 -0.23191127386E+02 -0.88265600343E+01  0.58371478082E+02  0.63426855550E+02  0.00000000000E+00 0. -1.
         -5    1    5    5    0  502  0.64760093747E+02 -0.11653694002E+03  0.23697017620E+03  0.27194058642E+03  0.47000000000E+01 0.  1.
         13    1    6    6    0    0 -0.37887203756E+01 -0.27099043482E+02  0.86621098585E+01  0.28700953067E+02  0.00000000000E+00 0. -1.
        -14    1    6    6    0    0 -0.23367277496E+02  0.86140041549E+01  0.15495095129E+03  0.15693956809E+03  0.00000000000E+00 0.  1.
</event>
<event>
12    1  0.8494789E-002  0.2013006E+03  0.7818608E-02  0.1148781E+00
         21   -1    0    0  503  502  0.00000000000E+00  0.00000000000E+00  0.26009670194E+03  0.26009670194E+03  0.00000000000E+00 0. -1.
         21   -1    0    0  501  503 -0.00000000000E+00 -0.00000000000E+00 -0.23652990307E+03  0.23652990307E+03  0.00000000000E+00 0. -1.
          6    2    1    2  501    0 -0.77701793565E+02  0.67525003760E+02 -0.13374909519E+03  0.24114619561E+03  0.17223667535E+03 0.  0.
         24    2    3    3    0    0  0.22469107335E+02  0.37862895265E+02 -0.33657412650E+02  0.96389555067E+02  0.78864854514E+02 0.  0.
         -6    2    1    2    0  502  0.77701793565E+02 -0.67525003760E+02  0.15731589406E+03  0.25548040939E+03  0.17298772848E+03 0.  0.
        -24    2    5    5    0    0  0.75151113017E+02 -0.90913116764E+02  0.17402216864E+03  0.22624516677E+03  0.83607868765E+02 0.  0.
          5    1    3    3  501    0 -0.10017090090E+03  0.29662108495E+02 -0.10009168254E+03  0.14475664054E+03  0.47000000000E+01 0. -1.
        -13    1    4    4    0    0  0.23848883302E+02  0.55323256644E+02 -0.20808064694E+01  0.60280691071E+02  0.00000000000E+00 0.  1.
         14    1    4    4    0    0 -0.13797759669E+01 -0.17460361379E+02 -0.31576606180E+02  0.36108863996E+02  0.00000000000E+00 0. -1.
         -5    1    5    5    0  502  0.25506805474E+01  0.23388113005E+02 -0.16706274582E+02  0.29235242629E+02  0.47000000000E+01 0.  1.
         13    1    6    6    0    0  0.49094920092E+02 -0.31696543660E+02  0.14303356794E+03  0.15451078802E+03  0.00000000000E+00 0. -1.
        -14    1    6    6    0    0  0.26056192925E+02 -0.59216573104E+02  0.30988600701E+02  0.71734378741E+02  0.00000000000E+00 0.  1.
</event>
<event>
12    1  0.8494789E-002  0.2018266E+03  0.7818608E-02  0.1148517E+00
         21   -1    0    0  503  502  0.00000000000E+00  0.00000000000E+00  0.70500585971E+03  0.70500585971E+03  0.00000000000E+00 0.  1.
         21   -1    0    0  501  503 -0.00000000000E+00 -0.00000000000E+00 -0.61042438736E+02  0.61042438736E+02  0.00000000000E+00 0.  1.
          6    2    1    2  501    0 -0.73718526043E+02 -0.75864039950E+02  0.22671732859E+03  0.30255260355E+03  0.17013981660E+03 0.  0.
         24    2    3    3    0    0 -0.11185114746E+03 -0.31899177872E+02  0.13696245756E+03  0.19547771019E+03  0.76971317140E+02 0.  0.
         -6    2    1    2    0  502  0.73718526043E+02  0.75864039950E+02  0.41724609239E+03  0.46349569490E+03  0.17188421667E+03 0.  0.
        -24    2    5    5    0    0  0.11428495308E+03  0.65288317238E+02  0.26545945420E+03  0.30595600325E+03  0.76267550336E+02 0.  0.
          5    1    3    3  501    0  0.38132621421E+02 -0.43964862078E+02  0.89754871031E+02  0.10707489336E+03  0.47000000000E+01 0. -1.
        -13    1    4    4    0    0 -0.67100711303E+02 -0.56872482230E+02  0.80650875497E+02  0.11933795880E+03  0.00000000000E+00 0.  1.
         14    1    4    4    0    0 -0.44750436161E+02  0.24973304358E+02  0.56311582061E+02  0.76139751387E+02  0.00000000000E+00 0. -1.
         -5    1    5    5    0  502 -0.40566427033E+02  0.10575722712E+02  0.15178663819E+03  0.15753969165E+03  0.47000000000E+01 0.  1.
         11    1    6    6    0    0  0.48874860553E+02  0.32058760617E+01  0.40368267020E+02  0.63471463018E+02  0.00000000000E+00 0. -1.
        -12    1    6    6    0    0  0.65410092522E+02  0.62082441176E+02  0.22509118718E+03  0.24248454023E+03  0.00000000000E+00 0.  1.
</event>
<event>
12    1  0.8494789E-002  0.1737994E+03  0.7818608E-02  0.1175714E+00
         21   -1    0    0  503  502  0.00000000000E+00  0.00000000000E+00  0.37533701914E+02  0.37533701914E+02  0.00000000000E+00 0. -1.
         21   -1    0    0  501  503 -0.00000000000E+00 -0.00000000000E+00 -0.81183538770E+03  0.81183538770E+03  0.00000000000E+00 0. -1.
          6    2    1    2  501    0  0.44334402283E+01 -0.61677924708E+01 -0.47213856810E+03  0.50078796870E+03  0.16678148895E+03 0.  0.
         24    2    3    3    0    0  0.21270612916E+02 -0.38936339659E+02 -0.14506996314E+03  0.17161744995E+03  0.80241992757E+02 0.  0.
         -6    2    1    2    0  502 -0.44334402283E+01  0.61677924708E+01 -0.30216311769E+03  0.34858112091E+03  0.17363338132E+03 0.  0.
        -24    2    5    5    0    0  0.48780565690E+02 -0.44334666131E+02 -0.14787658222E+03  0.17767572668E+03  0.73185203912E+02 0.  0.
          5    1    3    3  501    0 -0.16837172688E+02  0.32768547188E+02 -0.32706860496E+03  0.32917051875E+03  0.47000000000E+01 0. -1.
        -13    1    4    4    0    0  0.21627112733E+02  0.15381611010E+02 -0.91714032581E+02  0.95476644969E+02  0.00000000000E+00 0.  1.
         14    1    4    4    0    0 -0.35649981627E+00 -0.54317950669E+02 -0.53355930559E+02  0.76140804979E+02  0.00000000000E+00 0. -1.
         -5    1    5    5    0  502 -0.53214005919E+02  0.50502458602E+02 -0.15428653547E+03  0.17090539423E+03  0.47000000000E+01 0.  1.
         11    1    6    6    0    0  0.29317245957E+02 -0.26815764977E+01 -0.81024478260E+01  0.30534266387E+02  0.00000000000E+00 0. -1.
        -12    1    6    6    0    0  0.19463319733E+02 -0.41653089633E+02 -0.13977413440E+03  0.14714146029E+03  0.00000000000E+00 0.  1.
</event>
<event>
12    1  0.8494789E-002  0.2236010E+03  0.7818608E-02  0.1131234E+00
         21   -1    0    0  503  502  0.00000000000E+00  0.00000000000E+00  0.10053999483E+04  0.10053999483E+04  0.00000000000E+00 0.  1.
         21   -1    0    0  501  503 -0.00000000000E+00 -0.00000000000E+00 -0.15957027861E+03  0.15957027861E+03  0.00000000000E+00 0. -1.
          6    2    1    2  501    0 -0.14329678045E+03 -0.63732670372E+01 -0.60388733834E+02  0.23157363801E+03  0.17147875911E+03 0.  0.
         24    2    3    3    0    0 -0.83689354551E+02  0.20090886779E+02  0.35634432070E+02  0.11540163170E+03  0.68118808365E+02 0.  0.
         -6    2    1    2    0  502  0.14329678045E+03  0.63732670372E+01  0.90621840349E+03  0.93339658888E+03  0.17153078874E+03 0.  0.
        -24    2    5    5    0    0  0.53045346100E+02  0.55961666507E+02  0.31712753394E+03  0.33535438857E+03  0.77117937524E+02 0.  0.
          5    1    3    3  501    0 -0.59607425901E+02 -0.26464153816E+02 -0.96023165903E+02  0.11617200631E+03  0.47000000000E+01 0. -1.
        -11    1    4    4    0    0  0.73609968843E+01 -0.24004030092E+01  0.18509877962E+02  0.20063942581E+02  0.00000000000E+00 0.  1.
         12    1    4    4    0    0 -0.91050351435E+02  0.22491289788E+02  0.17124554108E+02  0.95337689117E+02  0.00000000000E+00 0. -1.
         -5    1    5    5    0  502  0.90251434351E+02 -0.49588399469E+02  0.58909086955E+03  0.59804220031E+03  0.47000000000E+01 0.  1.
         13    1    6    6    0    0  0.46186496329E+02  0.59037314228E+02  0.31893356988E+03  0.32762359334E+03  0.00000000000E+00 0. -1.
        -14    1    6    6    0    0  0.68588497712E+01 -0.30756477217E+01 -0.18060359401E+01  0.77307952313E+01  0.00000000000E+00 0.  1.
</event>
<event>
12    1  0.8494789E-002  0.2405857E+03  0.7818608E-02  0.1119620E+00
         21   -1    0    0  503  502  0.00000000000E+00  0.00000000000E+00  0.53824539742E+03  0.53824539742E+03  0.00000000000E+00 0. -1.
         21   -1    0    0  501  503 -0.00000000000E+00 -0.00000000000E+00 -0.15328985692E+03  0.15328985692E+03  0.00000000000E+00 0.  1.
          6    2    1    2  501    0  0.11008957188E+03  0.12611046440E+03  0.27457166306E+01  0.24060140801E+03  0.17279448923E+03 0.  0.
         24    2    3    3    0    0  0.60558766998E+02 -0.36328816087E+01 -0.23245548987E+02  0.99235668329E+02  0.75012000586E+02 0.  0.
         -6    2    1    2    0  502 -0.11008957188E+03 -0.12611046440E+03  0.38220982386E+03  0.45093384633E+03  0.17097783844E+03 0.  0.
        -24    2    5    5    0    0 -0.10516047887E+02 -0.24717112854E+02  0.22099132232E+03  0.23597107360E+03  0.78253818468E+02 0.  0.
          5    1    3    3  501    0  0.49530804879E+02  0.12974334601E+03  0.25991265617E+02  0.14136573968E+03  0.47000000000E+01 0. -1.
        -11    1    4    4    0    0  0.51420312364E+02 -0.62140088132E+01 -0.49298996083E+02  0.71505618268E+02  0.00000000000E+00 0.  1.
         12    1    4    4    0    0  0.91384546341E+01  0.25811272045E+01  0.26053447096E+02  0.27730050060E+02  0.00000000000E+00 0. -1.
         -5    1    5    5    0  502 -0.99573523990E+02 -0.10139335155E+03  0.16121850154E+03  0.21496277272E+03  0.47000000000E+01 0.  1.
         11    1    6    6    0    0  0.11922800611E+02  0.24615925077E+02  0.94001467604E+02  0.97899810283E+02  0.00000000000E+00 0. -1.
        -12    1    6    6    0    0 -0.22438848498E+02 -0.49333037931E+02  0.12698985472E+03  0.13807126332E+03  0.00000000000E+00 0.  1.
</event>
<event>
12    1  0.8494789E-002  0.2033360E+03  0.7818608E-02  0.1147319E+00
         21   -1    0    0  503  502  0.00000000000E+00  0.00000000000E+00  0.42332981376E+03  0.42332981376E+03  0.00000000000E+00 0. -1.
         21   -1    0    0  501  503 -0.00000000000E+00 -0.00000000000E+00 -0.10504995159E+03  0.10504995159E+03  0.00000000000E+00 0. -1.
          6    2    1    2  501    0  0.95361895686E+02 -0.43280651674E+02  0.84577625129E+02  0.21860202955E+03  0.17223927163E+03 0.  0.
         24    2    3    3    0    0  0.76873443502E+02 -0.54341548008E+02  0.12347148931E+03  0.17389197516E+03  0.78298660259E+02 0.  0.
         -6    2    1    2    0  502 -0.95361895686E+02  0.43280651674E+02  0.23370223704E+03  0.30977773580E+03  0.17429401609E+03 0.  0.
        -24    2    5    5    0    0 -0.84361565446E+02  0.51785567974E+02  0.79089502591E+02  0.15446988501E+03  0.88358232094E+02 0.  0.
          5    1    3    3  501    0  0.18488452184E+02  0.11060896335E+02 -0.38893864181E+02  0.44710054381E+02  0.47000000000E+01 0. -1.
        -11    1    4    4    0    0  0.23062699897E+02  0.20096214388E+02  0.31593332431E+02  0.43975954946E+02  0.00000000000E+00 0.  1.
         12    1    4    4    0    0  0.53810743605E+02 -0.74437762397E+02  0.91878156879E+02  0.12991602022E+03  0.00000000000E+00 0. -1.
         -5    1    5    5    0  502 -0.11000330240E+02 -0.85049162999E+01  0.15461273445E+03  0.15530785080E+03  0.47000000000E+01 0.  1.
         13    1    6    6    0    0 -0.95664172972E+02  0.55227503923E+02  0.86693895542E+02  0.14041916787E+03  0.00000000000E+00 0. -1.
        -14    1    6    6    0    0  0.11302607526E+02 -0.34419359492E+01 -0.76043929512E+01  0.14050717139E+02  0.00000000000E+00 0.  1.
</event>
<event>
12    1  0.8494789E-002  0.1774158E+03  0.7818608E-02  0.1174891E+00
         21   -1    0    0  503  502  0.00000000000E+00  0.00000000000E+00  0.17687633405E+03  0.17687633405E+03  0.00000000000E+00 0. -1.
         21   -1    0    0  501  503 -0.00000000000E+00 -0.00000000000E+00 -0.16144628544E+03  0.16144628544E+03  0.00000000000E+00 0. -1.
          6    2    1    2  501    0  0.45534514659E+02 -0.14814697993E+02 -0.31295592522E+01  0.15993865386E+03  0.15257034953E+03 0.  0.
         24    2    3    3    0    0  0.36836652136E+02 -0.55304572902E+02  0.27959218240E+02  0.10794168406E+03  0.80337752947E+02 0.  0.
         -6    2    1    2    0  502 -0.45534514659E+02  0.14814697993E+02  0.18559607859E+02  0.17838396564E+03  0.17083182622E+03 0.  0.
        -24    2    5    5    0    0 -0.14444073461E+01  0.13077380900E+00 -0.50429514773E+02  0.95070435920E+02  0.80580074531E+02 0.  0.
          5    1    3    3  501    0  0.86978625231E+01  0.40489874909E+02 -0.31088777492E+02  0.51996969802E+02  0.47000000000E+01 0. -1.
        -13    1    4    4    0    0  0.11780422332E+02 -0.11680761863E+02 -0.28092161696E+02  0.32624961253E+02  0.00000000000E+00 0.  1.
         14    1    4    4    0    0  0.25056229804E+02 -0.43623811039E+02  0.56051379936E+02  0.75316722806E+02  0.00000000000E+00 0. -1.
         -5    1    5    5    0  502 -0.44090107313E+02  0.14683924184E+02  0.68989122632E+02  0.83313529717E+02  0.47000000000E+01 0.  1.
         11    1    6    6    0    0 -0.40907628765E+02  0.29279317141E+01 -0.24646750430E+02  0.47848397905E+02  0.00000000000E+00 0. -1.
        -12    1    6    6    0    0  0.39463221419E+02 -0.27971579051E+01 -0.25782764343E+02  0.47222038015E+02  0.00000000000E+00 0.  1.
</event>
<event>
12    1  0.8494789E-002  0.2304295E+03  0.7818608E-02  0.1126415E+00
         21   -1    0    0  503  502  0.00000000000E+00  0.00000000000E+00  0.10193436427E+03  0.10193436427E+03  0.00000000000E+00 0. -1.
         21   -1    0    0  501  503 -0.00000000000E+00 -0.00000000000E+00 -0.54086837510E+03  0.54086837510E+03  0.00000000000E+00 0. -1.
          6    2    1    2  501    0  0.47418320563E+02  0.14432204641E+03 -0.15600468791E+03  0.27790991797E+03  0.17268210576E+03 0.  0.
         24    2    3    3    0    0  0.28702113125E+02  0.76027377476E+02 -0.14074272172E+02  0.11922535307E+03  0.86096610003E+02 0.  0.
         -6    2    1    2    0  502 -0.47418320563E+02 -0.14432204641E+03 -0.28292932292E+03  0.36489282140E+03  0.17326401570E+03 0.  0.
        -24    2    5    5    0    0 -0.70309410941E+02 -0.10458756708E+03 -0.10771223077E+03  0.18371348966E+03  0.79162801694E+02 0.  0.
          5    1    3    3  501    0  0.18716207439E+02  0.68294668932E+02 -0.14193041573E+03  0.15868456489E+03  0.47000000000E+01 0. -1.
        -11    1    4    4    0    0 -0.10199430305E+01  0.15140311007E+02  0.33271019843E+02  0.36568156401E+02  0.00000000000E+00 0.  1.
         12    1    4    4    0    0  0.29722056155E+02  0.60887066470E+02 -0.47345292015E+02  0.82657196670E+02  0.00000000000E+00 0. -1.
         -5    1    5    5    0  502  0.22891090378E+02 -0.39734479327E+02 -0.17521709215E+03  0.18117933173E+03  0.47000000000E+01 0.  1.
         13    1    6    6    0    0 -0.36580389528E+02 -0.10867980265E+03 -0.86787711528E+02  0.14381074812E+03  0.00000000000E+00 0. -1.
        -14    1    6    6    0    0 -0.33729021413E+02  0.40922355668E+01 -0.20924519242E+02  0.39902741547E+02  0.00000000000E+00 0.  1.
</event>
<event>
12    1  0.8494789E-002  0.1767983E+03  0.7818608E-02  0.1171928E+00
         21   -1    0    0  501  502  0.00000000000E+00  0.00000000000E+00  0.73677536890E+02  0.73677536890E+02  0.00000000000E+00 0. -1.
         21   -1    0    0  502  503 -0.00000000000E+00 -0.00000000000E+00 -0.69925105294E+03  0.69925105294E+03  0.00000000000E+00 0. -1.
         -6    2    1    2    0  503  0.29111522842E+02 -0.25359956703E+02 -0.56135148184E+03  0.58853473983E+03  0.17253128894E+03 0.  0.
        -24    2    3    3    0    0  0.58498946987E+02 -0.50320254407E+02 -0.23632928744E+03  0.26119981348E+03  0.80122129637E+02 0.  0.
          6    2    1    2  501    0 -0.29111522842E+02  0.25359956703E+02 -0.64222034215E+02  0.18439385000E+03  0.16848149475E+03 0.  0.
         24    2    5    5    0    0 -0.26719570376E+02  0.58049897915E+02  0.11169985236E+02  0.10205066394E+03  0.78777175324E+02 0.  0.
          5    1    5    5  501    0 -0.23919524654E+01 -0.32689941212E+02 -0.75392019450E+02  0.82343186056E+02  0.47000000000E+01 0. -1.
        -11    1    6    6    0    0 -0.12395386512E+02  0.70503096289E+02 -0.11480136239E+02  0.72499142900E+02  0.00000000000E+00 0.  1.
         12    1    6    6    0    0 -0.14324183865E+02 -0.12453198374E+02  0.22650121475E+02  0.29551521043E+02  0.00000000000E+00 0. -1.
         -5    1    3    3    0  503 -0.29387424146E+02  0.24960297704E+02 -0.32502219440E+03  0.32733492635E+03  0.47000000000E+01 0.  1.
         11    1    4    4    0    0  0.65056657175E+02 -0.78276313516E+01 -0.16960281746E+03  0.18182067029E+03  0.00000000000E+00 0. -1.
        -12    1    4    4    0    0 -0.65577101880E+01 -0.42492623055E+02 -0.66726469979E+02  0.79379143185E+02  0.00000000000E+00 0.  1.
</event>
<event>
12    1  0.8494789E-002  0.2455915E+03  0.7818608E-02  0.1116651E+00
         21   -1    0    0  501  502  0.00000000000E+00  0.00000000000E+00  0.55495814916E+03  0.55495814916E+03  0.00000000000E+00 0. -1.
         21   -1    0    0  502  503 -0.00000000000E+00 -0.00000000000E+00 -0.11157920882E+03  0.11157920882E+03  0.00000000000E+00 0. -1.
         -6    2    1    2    0  503  0.17387171532E+03 -0.23019850271E+02  0.15464958134E+03  0.28748612999E+03  0.16724381911E+03 0.  0.
        -24    2    3    3    0    0  0.36543645942E+02  0.90474155084E+01  0.16495955523E+02  0.90012530484E+02  0.80080242941E+02 0.  0.
          6    2    1    2  501    0 -0.17387171532E+03  0.23019850271E+02  0.28872935901E+03  0.37905122799E+03  0.17191248877E+03 0.  0.
         24    2    5    5    0    0 -0.27037193235E+02  0.44773331138E+02  0.98332722826E+02  0.13758371491E+03  0.80773097192E+02 0.  0.
          5    1    5    5  501    0 -0.14683452209E+03 -0.21753480867E+02  0.19039663618E+03  0.24146751308E+03  0.47000000000E+01 0. -1.
        -11    1    6    6    0    0 -0.85280583062E+01  0.12596262229E+02 -0.13134823654E+02  0.20097691237E+02  0.00000000000E+00 0.  1.
         12    1    6    6    0    0 -0.18509134929E+02  0.32177068909E+02  0.11146754648E+03  0.11748602367E+03  0.00000000000E+00 0. -1.
         -5    1    3    3    0  503  0.13732806938E+03 -0.32067265779E+02  0.13815362581E+03  0.19747359950E+03  0.47000000000E+01 0.  1.
         13    1    4    4    0    0  0.42446504413E+02  0.32729532162E+02  0.30704457460E+02  0.61771285565E+02  0.00000000000E+00 0. -1.
        -14    1    4    4    0    0 -0.59028584715E+01 -0.23682116654E+02 -0.14208501936E+02  0.28241244919E+02  0.00000000000E+00 0.  1.
</event>
<event>
12    1  0.8494789E-002  0.2288711E+03  0.7818608E-02  0.1127480E+00
         21   -1    0    0  501  502  0.00000000000E+00  0.00000000000E+00  0.57821782886E+03  0.57821782886E+03  0.00000000000E+00 0. -1.
         21   -1    0    0  502  503 -0.00000000000E+00 -0.00000000000E+00 -0.97726432855E+02  0.97726432855E+02  0.00000000000E+00 0. -1.
         -6    2    1    2    0  503  0.13664247702E+03 -0.64512462616E+02  0.14843396879E+03  0.27279040405E+03  0.17189804272E+03 0.  0.
        -24    2    3    3    0    0  0.11525949701E+03 -0.10987085570E+03  0.12114254524E+03  0.21550578607E+03  0.80067914792E+02 0.  0.
          6    2    1    2  501    0 -0.13664247702E+03  0.64512462616E+02  0.33205742722E+03  0.40315385767E+03  0.17157468818E+03 0.  0.
         24    2    5    5    0    0 -0.24434185049E+02 -0.23208598825E+02  0.11098086518E+03  0.14012796219E+03  0.78634756277E+02 0.  0.
          5    1    5    5  501    0 -0.11220829197E+03  0.87721061441E+02  0.22107656204E+03  0.26302589547E+03  0.47000000000E+01 0. -1.
        -13    1    6    6    0    0 -0.92958106073E+01  0.27121771073E+02  0.19663139896E+02  0.34765523605E+02  0.00000000000E+00 0.  1.
         14    1    6    6    0    0 -0.15138374441E+02 -0.50330369898E+02  0.91317725283E+02  0.10536243859E+03  0.00000000000E+00 0. -1.
         -5    1    3    3    0  503  0.21382980011E+02  0.45358393087E+02  0.27291423554E+02  0.57284617980E+02  0.47000000000E+01 0.  1.
         13    1    4    4    0    0  0.33341013890E+02 -0.65096449235E+02  0.92363772940E+02  0.11781441958E+03  0.00000000000E+00 0. -1.
        -14    1    4    4    0    0  0.81918483118E+02 -0.44774406468E+02  0.28778772299E+02  0.97691366486E+02  0.00000000000E+00 0.  1.
</event>
<event>
12    1  0.8494789E-002  0.2213510E+03  0.7818608E-02  0.1132881E+00
         21   -1    0    0  501  502  0.00000000000E+00  0.00000000000E+00  0.45393132655E+03  0.45393132655E+03  0.00000000000E+00 0. -1.
         21   -1    0    0  502  503 -0.00000000000E+00 -0.00000000000E+00 -0.12158783787E+03  0.12158783787E+03  0.00000000000E+00 0. -1.
         -6    2    1    2    0  503 -0.12478382772E+03  0.61698514892E+02  0.69743777713E+02  0.23207355489E+03  0.17209366621E+03 0.  0.
        -24    2    3    3    0    0 -0.14107192346E+02  0.61078738699E+02 -0.94945786501E+00  0.10066074997E+03  0.78753158140E+02 0.  0.
          6    2    1    2  501    0  0.12478382772E+03 -0.61698514892E+02  0.26259971097E+03  0.34344560952E+03  0.17210045932E+03 0.  0.
         24    2    5    5    0    0  0.14619596538E+03 -0.12093390882E+02  0.18590924462E+03  0.24951656398E+03  0.78592353770E+02 0.  0.
          5    1    5    5  501    0 -0.21412137658E+02 -0.49605124010E+02  0.76690466350E+02  0.93929045540E+02  0.47000000000E+01 0. -1.
        -11    1    6    6    0    0  0.70627912659E+02  0.30628335725E+02  0.65497655098E+02  0.10107591117E+03  0.00000000000E+00 0.  1.
         12    1    6    6    0    0  0.75568052722E+02 -0.42721726608E+02  0.12041158952E+03  0.14844065281E+03  0.00000000000E+00 0. -1.
         -5    1    3    3    0  503 -0.11067663538E+03  0.61977619290E+00  0.70693235578E+02  0.13141280492E+03  0.47000000000E+01 0.  1.
         11    1    4    4    0    0 -0.43279783495E+02  0.21762342229E+02 -0.13169561391E+02  0.50201360000E+02  0.00000000000E+00 0. -1.
        -12    1    4    4    0    0  0.29172591149E+02  0.39316396470E+02  0.12220103526E+02  0.50459389968E+02  0.00000000000E+00 0.  1.
</event>
<event>
12    1  0.8494789E-002  0.1777166E+03  0.7818608E-02  0.1170159E+00
         21   -1    0    0  501  502  0.00000000000E+00  0.00000000000E+00  0.78098461333E+02  0.78098461333E+02  0.00000000000E+00 0. -1.
         21   -1    0    0  502  503 -0.00000000000E+00 -0.00000000000E+00 -0.42849799858E+03  0.42849799858E+03  0.00000000000E+00 0. -1.
         -6    2    1    2    0  503 -0.29046165257E+02  0.31911535177E+02 -0.23696091750E+03  0.29619868528E+03  0.17239825680E+03 0.  0.
        -24    2    3    3    0    0 -0.53031958367E+02  0.79208867738E+02 -0.15478937025E+03  0.19828745448E+03  0.79194268276E+02 0.  0.
          6    2    1    2  501    0  0.29046165257E+02 -0.31911535177E+02 -0.11343861974E+03  0.21039777463E+03  0.17186296089E+03 0.  0.
         24    2    5    5    0    0  0.36786547270E+01  0.30348899893E+02 -0.57525470345E+02  0.12282927206E+03  0.10413098536E+03 0.  0.
          5    1    5    5  501    0  0.25367510530E+02 -0.62260435070E+02 -0.55913149398E+02  0.87568502563E+02  0.47000000000E+01 0. -1.
        -11    1    6    6    0    0 -0.47441194408E+02  0.21801561084E+02 -0.46333381663E+02  0.69805137697E+02  0.00000000000E+00 0.  1.
         12    1    6    6    0    0  0.51119849135E+02  0.85473388090E+01 -0.11192088682E+02  0.53024134367E+02  0.00000000000E+00 0. -1.
         -5    1    3    3    0  503  0.23985793109E+02 -0.47297332560E+02 -0.82171547256E+02  0.97911230800E+02  0.47000000000E+01 0.  1.
         13    1    4    4    0    0  0.77362658688E+01  0.57757920677E+02 -0.59769316039E+02  0.83475735099E+02  0.00000000000E+00 0. -1.
        -14    1    4    4    0    0 -0.60768224235E+02  0.21450947061E+02 -0.95020054208E+02  0.11481171939E+03  0.00000000000E+00 0.  1.
</event>
<event>
12    1  0.8494789E-002  0.2060317E+03  0.7818608E-02  0.1145813E+00
         21   -1    0    0  501  502  0.00000000000E+00  0.00000000000E+00  0.41633630288E+03  0.41633630288E+03  0.00000000000E+00 0. -1.
         21   -1    0    0  502  503 -0.00000000000E+00 -0.00000000000E+00 -0.99926650971E+02  0.99926650971E+02  0.00000000000E+00 0.  1.
         -6    2    1    2    0  503 -0.80044101053E+02  0.66084806693E+02  0.14167483138E+03  0.25004165427E+03  0.17797418698E+03 0.  0.
        -24    2    3    3    0    0 -0.38505666589E+02 -0.13908082521E+02  0.94202276541E+01  0.89923966082E+02  0.79507596291E+02 0.  0.
          6    2    1    2  501    0  0.80044101053E+02 -0.66084806693E+02  0.17473482052E+03  0.26622129958E+03  0.17195133922E+03 0.  0.
         24    2    5    5    0    0  0.93673146112E+00 -0.75356036992E+02  0.60013405748E+02  0.12648216890E+03  0.81955600196E+02 0.  0.
          5    1    5    5  501    0  0.79107369592E+02  0.92712302998E+01  0.11472141478E+03  0.13973913068E+03  0.47000000000E+01 0. -1.
        -13    1    6    6    0    0  0.55546356660E+01  0.15536747337E+02 -0.16004218734E+01  0.16577268935E+02  0.00000000000E+00 0.  1.
         14    1    6    6    0    0 -0.46179042049E+01 -0.90892784329E+02  0.61613827621E+02  0.10990489997E+03  0.00000000000E+00 0. -1.
         -5    1    3    3    0  503 -0.41538434464E+02  0.79992889214E+02  0.13225460373E+03  0.16011768819E+03  0.47000000000E+01 0.  1.
         13    1    4    4    0    0 -0.90163174754E+01  0.22490676292E+02  0.30164198793E+02  0.38691128049E+02  0.00000000000E+00 0. -1.
        -14    1    4    4    0    0 -0.29489349114E+02 -0.36398758813E+02 -0.20743971139E+02  0.51232838033E+02  0.00000000000E+00 0.  1.
</event>
<event>
12    1  0.8494789E-002  0.2006917E+03  0.7818608E-02  0.1150304E+00
         21   -1    0    0  501  502  0.00000000000E+00  0.00000000000E+00  0.20492463070E+03  0.20492463070E+03  0.00000000000E+00 0.  1.
         21   -1    0    0  502  503 -0.00000000000E+00 -0.00000000000E+00 -0.50078517840E+03  0.50078517840E+03  0.00000000000E+00 0.  1.
         -6    2    1    2    0  503  0.70386223104E+02 -0.66956098690E+02 -0.42453820047E+03  0.46730867456E+03  0.16943250603E+03 0.  0.
        -24    2    3    3    0    0 -0.18586472979E+02 -0.70589981203E+02 -0.14295395555E+03  0.17194259198E+03  0.61644294981E+02 0.  0.
          6    2    1    2  501    0 -0.70386223104E+02  0.66956098690E+02  0.12867765278E+03  0.23840113454E+03  0.17561270760E+03 0.  0.
         24    2    5    5    0    0 -0.37906804718E+02  0.10968295968E+03  0.11961959175E+03  0.18376931471E+03  0.77427623059E+02 0.  0.
          5    1    5    5  501    0 -0.32479418386E+02 -0.42726860986E+02  0.90580610332E+01  0.54631819831E+02  0.47000000000E+01 0. -1.
        -13    1    6    6    0    0 -0.12758165388E+00 -0.75537253492E+01  0.31313128199E+02  0.32211597932E+02  0.00000000000E+00 0.  1.
         14    1    6    6    0    0 -0.37779223064E+02  0.11723668503E+03  0.88306463549E+02  0.15155771678E+03  0.00000000000E+00 0. -1.
         -5    1    3    3    0  503  0.88972696082E+02  0.36338825123E+01 -0.28158424492E+03  0.29536608258E+03  0.47000000000E+01 0.  1.
         11    1    4    4    0    0 -0.38550764088E+02 -0.51683659524E+02 -0.76645451790E+02  0.10015930987E+03  0.00000000000E+00 0. -1.
        -12    1    4    4    0    0  0.19964291109E+02 -0.18906321679E+02 -0.66308503760E+02  0.71783282105E+02  0.00000000000E+00 0.  1.
</event>
<event>
12    1  0.8494789E-002  0.1727452E+03  0.7818608E-02  0.1175166E+00
         21   -1    0    0  501  502  0.00000000000E+00  0.00000000000E+00  0.22247495288E+02  0.22247495288E+02  0.00000000000E+00 0.  1.
         21   -1    0    0  502  503 -0.00000000000E+00 -0.00000000000E+00 -0.15796691160E+04  0.15796691160E+04  0.00000000000E+00 0.  1.
         -6    2    1    2    0  503 -0.73057446200E+01 -0.75706990573E+01 -0.10939328028E+04  0.11074880963E+04  0.17242452579E+03 0.  0.
        -24    2    3    3    0    0  0.85921957421E+01 -0.69044370609E+02 -0.59005322715E+03  0.59960181619E+03  0.80737699798E+02 0.  0.
          6    2    1    2  501    0  0.73057446200E+01  0.75706990573E+01 -0.46348881790E+03  0.49442851494E+03  0.17183417204E+03 0.  0.
         24    2    5    5    0    0 -0.41179550141E+02 -0.44307776200E+02 -0.28766468576E+03  0.30474874415E+03  0.80385889608E+02 0.  0.
          5    1    5    5  501    0  0.48485294761E+02  0.51878475257E+02 -0.17582413214E+03  0.18967977079E+03  0.47000000000E+01 0. -1.
        -11    1    6    6    0    0 -0.61238251960E+02 -0.16506820026E+02 -0.14955352750E+03  0.16244647179E+03  0.00000000000E+00 0.  1.
         12    1    6    6    0    0  0.20058701819E+02 -0.27800956174E+02 -0.13811115826E+03  0.14230227236E+03  0.00000000000E+00 0. -1.
         -5    1    3    3    0  503 -0.15897940362E+02  0.61473671552E+02 -0.50387957565E+03  0.50788628015E+03  0.47000000000E+01 0.  1.
         11    1    4    4    0    0  0.37046188916E+02 -0.22747485866E+02 -0.14896428471E+03  0.15517804724E+03  0.00000000000E+00 0. -1.
        -12    1    4    4    0    0 -0.28453993174E+02 -0.46296884743E+02 -0.44108894244E+03  0.44442376895E+03  0.00000000000E+00 0.  1.
</event>
<event>
12    1  0.8494789E-002  0.2034875E+03  0.7818608E-02  0.1147136E+00
         21   -1    0    0  501  502  0.00000000000E+00  0.00000000000E+00  0.44569971688E+03  0.44569971688E+03  0.00000000000E+00 0. -1.
         21   -1    0    0  502  503 -0.00000000000E+00 -0.00000000000E+00 -0.10270226801E+03  0.10270226801E+03  0.00000000000E+00 0.  1.
         -6    2    1    2    0  503 -0.19896293135E+02  0.10645515762E+03  0.84500355162E+02  0.22033490883E+03  0.17227477750E+03 0.  0.
        -24    2    3    3    0    0  0.22362254802E+02  0.70696251209E+02 -0.10676098435E+02  0.11012995622E+03  0.80725447067E+02 0.  0.
          6    2    1    2  501    0  0.19896293135E+02 -0.10645515762E+03  0.25849709371E+03  0.32806707606E+03  0.17052476616E+03 0.  0.
         24    2    5    5    0    0  0.42900532568E+02 -0.47695729096E+02  0.24248116614E+03  0.26279483534E+03  0.78413463644E+02 0.  0.
          5    1    5    5  501    0 -0.23004239433E+02 -0.58759428523E+02  0.16015927568E+02  0.65272240716E+02  0.47000000000E+01 0. -1.
        -11    1    6    6    0    0  0.35943836830E+02 -0.49620490891E+02  0.24686150136E+03  0.25435163333E+03  0.00000000000E+00 0.  1.
         12    1    6    6    0    0  0.69566957387E+01  0.19247617953E+01 -0.43803352216E+01  0.84432020125E+01  0.00000000000E+00 0. -1.
         -5    1    3    3    0  503 -0.42258547937E+02  0.35758906410E+02  0.95176453597E+02  0.11020495261E+03  0.47000000000E+01 0.  1.
         13    1    4    4    0    0 -0.11452886917E+02 -0.11180041570E+02  0.10381505036E+02  0.19077148504E+02  0.00000000000E+00 0. -1.
        -14    1    4    4    0    0  0.33815141719E+02  0.81876292779E+02 -0.21057603472E+02  0.91052807715E+02  0.00000000000E+00 0.  1.
</event>
<event>
12    1  0.8494789E-002  0.2530809E+03  0.7818608E-02  0.1111383E+00
         21   -1    0    0  501  502  0.00000000000E+00  0.00000000000E+00  0.11567001394E+04  0.11567001394E+04  0.00000000000E+00 0. -1.
         21   -1    0    0  502  503 -0.00000000000E+00 -0.00000000000E+00 -0.90356885521E+02  0.90356885521E+02  0.00000000000E+00 0.  1.
         -6    2    1    2    0  503 -0.18104259369E+03 -0.42199156464E+02  0.92118672813E+03  0.95530309231E+03  0.17164445971E+03 0.  0.
        -24    2    3    3    0    0 -0.17982671980E+03 -0.42648227478E+02  0.92657596730E+03  0.94803577417E+03  0.77924870665E+02 0.  0.
          6    2    1    2  501    0  0.18104259369E+03  0.42199156464E+02  0.14515652579E+03  0.29175393265E+03  0.17173453556E+03 0.  0.
         24    2    5    5    0    0  0.13647186302E+03  0.24049260299E+02  0.26060622875E+02  0.16321641730E+03  0.82204053995E+02 0.  0.
          5    1    5    5  501    0  0.44570730671E+02  0.18149896164E+02  0.11909590291E+03  0.12853751535E+03  0.47000000000E+01 0. -1.
        -11    1    6    6    0    0  0.92917987679E+02  0.29995177392E+02  0.53560687445E+02  0.11136521154E+03  0.00000000000E+00 0.  1.
         12    1    6    6    0    0  0.43553875345E+02 -0.59459170921E+01 -0.27500064570E+02  0.51851205762E+02  0.00000000000E+00 0. -1.
         -5    1    3    3    0  503 -0.12158738923E+01  0.44907101391E+00 -0.53892391676E+01  0.72673181369E+01  0.47000000000E+01 0.  1.
         13    1    4    4    0    0 -0.13514967852E+03 -0.36261537118E+02  0.50425162583E+03  0.52330682857E+03  0.00000000000E+00 0. -1.
        -14    1    4    4    0    0 -0.44677041283E+02 -0.63866903592E+01  0.42232434147E+03  0.42472894559E+03  0.00000000000E+00 0.  1.
</event>
<event>
12    1  0.8494789E-002  0.1788039E+03  0.7818608E-02  0.1169121E+00
         21   -1    0    0  503  502  0.00000000000E+00  0.00000000000E+00  0.48227825533E+03  0.48227825533E+03  0.00000000000E+00 0.  1.
         21   -1    0    0  501  503 -0.00000000000E+00 -0.00000000000E+00 -0.14762230326E+03  0.14762230326E+03  0.00000000000E+00 0.  1.
          6    2    1    2  501    0  0.22557276871E+02  0.41193612439E+02 -0.66914512623E+02  0.19032158367E+03  0.17186916177E+03 0.  0.
         24    2    3    3    0    0  0.27551770738E+02  0.20464301211E+02  0.26970533392E+02  0.93931017859E+02  0.83172944818E+02 0.  0.
         -6    2    1    2    0  502 -0.22557276871E+02 -0.41193612439E+02  0.40157046469E+03  0.43957897492E+03  0.17252562892E+03 0.  0.
        -24    2    5    5    0    0  0.54836080551E+01 -0.90895202568E+02  0.23973922450E+03  0.26791657487E+03  0.77539586791E+02 0.  0.
          5    1    3    3  501    0 -0.49944938673E+01  0.20729311228E+02 -0.93885046015E+02  0.96390565815E+02  0.47000000000E+01 0. -1.
        -13    1    4    4    0    0  0.24558184754E+02  0.16559441767E+02 -0.26794827873E+02  0.39940985851E+02  0.00000000000E+00 0.  1.
         14    1    4    4    0    0  0.29935859848E+01  0.39048594433E+01  0.53765361264E+02  0.53990032008E+02  0.00000000000E+00 0. -1.
         -5    1    5    5    0  502 -0.28040884926E+02  0.49701590129E+02  0.16183124019E+03  0.17166240005E+03  0.47000000000E+01 0.  1.
         13    1    6    6    0    0  0.17468303414E+02  0.66581369398E+01  0.21031644012E+02  0.28138984729E+02  0.00000000000E+00 0. -1.
        -14    1    6    6    0    0 -0.11984695359E+02 -0.97553339508E+02  0.21870758048E+03  0.23977759014E+03  0.00000000000E+00 0.  1.
</event>
<event>
12    1  0.8494789E-002  0.2002099E+03  0.7818608E-02  0.1149634E+00
         21   -1    0    0  501  502  0.00000000000E+00  0.00000000000E+00  0.47178495720E+03  0.47178495720E+03  0.00000000000E+00 0.  1.
         21   -1    0    0  502  503 -0.00000000000E+00 -0.00000000000E+00 -0.10085349546E+03  0.10085349546E+03  0.00000000000E+00 0.  1.
         -6    2    1    2    0  503  0.99537369098E+02  0.20440094561E+02  0.71431572382E+02  0.21257113398E+03  0.17250661481E+03 0.  0.
        -24    2    3    3    0    0  0.10058632752E+03  0.66688446946E+02  0.28202920219E+02  0.14908242018E+03  0.82856532981E+02 0.  0.
          6    2    1    2  501    0 -0.99537369098E+02 -0.20440094561E+02  0.29949988936E+03  0.36006731868E+03  0.17211276810E+03 0.  0.
         24    2    5    5    0    0 -0.24720815911E+02  0.49339221277E+02  0.13206388408E+03  0.16379308346E+03  0.79635590122E+02 0.  0.
          5    1    5    5  501    0 -0.74816553187E+02 -0.69779315837E+02  0.16743600528E+03  0.19627423523E+03  0.47000000000E+01 0. -1.
        -11    1    6    6    0    0  0.18114367935E+02 -0.49224764989E+01  0.64317428638E+02  0.67000691991E+02  0.00000000000E+00 0.  1.
         12    1    6    6    0    0 -0.42835183847E+02  0.54261697776E+02  0.67746455443E+02  0.96792391466E+02  0.00000000000E+00 0. -1.
         -5    1    3    3    0  503 -0.10489584184E+01 -0.46248352385E+02  0.43228652163E+02  0.63488713800E+02  0.47000000000E+01 0.  1.
         13    1    4    4    0    0  0.44004545669E+02  0.74236092904E+02  0.31591493109E+02  0.91898966077E+02  0.00000000000E+00 0. -1.
        -14    1    4    4    0    0  0.56581781848E+02 -0.75476459579E+01 -0.33885728902E+01  0.57183454100E+02  0.00000000000E+00 0.  1.
</event>
<event>
12    1  0.8494789E-002  0.1764730E+03  0.7818608E-02  0.1172139E+00
         21   -1    0    0  501  502  0.00000000000E+00  0.00000000000E+00  0.46291219760E+03  0.46291219760E+03  0.00000000000E+00 0. -1.
         21   -1    0    0  502  503 -0.00000000000E+00 -0.00000000000E+00 -0.10164387740E+03  0.10164387740E+03  0.00000000000E+00 0. -1.
         -6    2    1    2    0  503  0.36271615460E+02 -0.16305198218E+02  0.14532577893E+02  0.17707041103E+03  0.17193383921E+03 0.  0.
        -24    2    3    3    0    0  0.63661673203E+02 -0.62258805477E+02  0.30506473750E+02  0.12104180555E+03  0.76101946465E+02 0.  0.
          6    2    1    2  501    0 -0.36271615460E+02  0.16305198218E+02  0.34673574231E+03  0.38748566398E+03  0.16833887019E+03 0.  0.
         24    2    5    5    0    0 -0.57952224517E+02  0.53441741345E+02  0.15665480168E+03  0.19254458151E+03  0.79487162068E+02 0.  0.
          5    1    5    5  501    0  0.21680609057E+02 -0.37136543127E+02  0.19008094063E+03  0.19494108247E+03  0.47000000000E+01 0. -1.
        -11    1    6    6    0    0 -0.40632047651E+02 -0.36483619569E+01  0.10836804706E+03  0.11579251904E+03  0.00000000000E+00 0.  1.
         12    1    6    6    0    0 -0.17320176867E+02  0.57090103302E+02  0.48286754623E+02  0.76752062473E+02  0.00000000000E+00 0. -1.
         -5    1    3    3    0  503 -0.27390057743E+02  0.45953607258E+02 -0.15973895857E+02  0.56028605480E+02  0.47000000000E+01 0.  1.
         13    1    4    4    0    0  0.39706396610E+02  0.24562734149E+01 -0.10006965201E+02  0.41021586553E+02  0.00000000000E+00 0. -1.
        -14    1    4    4    0    0  0.23955276593E+02 -0.64715078892E+02  0.40513438951E+02  0.80020218997E+02  0.00000000000E+00 0.  1.
</event>
<event>
12    1  0.8494789E-002  0.2520833E+03  0.7818608E-02  0.1112135E+00
         21   -1    0    0  503  502  0.00000000000E+00  0.00000000000E+00  0.89784912166E+03  0.89784912166E+03  0.00000000000E+00 0. -1.
         21   -1    0    0  501  503 -0.00000000000E+00 -0.00000000000E+00 -0.25737664525E+03  0.25737664525E+03  0.00000000000E+00 0.  1.
          6    2    1    2  501    0  0.12663255760E+03  0.13119815020E+03 -0.17207183425E+03  0.30447654712E+03  0.17276716222E+03 0.  0.
         24    2    3    3    0    0  0.45118109424E+02  0.13525097521E+03 -0.88492905246E+02  0.18756393862E+03  0.83790015505E+02 0.  0.
         -6    2    1    2    0  502 -0.12663255760E+03 -0.13119815020E+03  0.81254431066E+03  0.85074921980E+03  0.17406096328E+03 0.  0.
        -24    2    5    5    0    0 -0.61402293522E+02 -0.71947312938E+01  0.25079810165E+03  0.27177363431E+03  0.84493873780E+02 0.  0.
          5    1    3    3  501    0  0.81514448174E+02 -0.40528250122E+01 -0.83578929003E+02  0.11691260849E+03  0.47000000000E+01 0. -1.
        -13    1    4    4    0    0  0.23892266446E+02  0.65926521662E+02 -0.91164564010E+02  0.11501358348E+03  0.00000000000E+00 0.  1.
         14    1    4    4    0    0  0.21225842978E+02  0.69324453551E+02  0.26716587640E+01  0.72550355139E+02  0.00000000000E+00 0. -1.
         -5    1    5    5    0  502 -0.65230264076E+02 -0.12400341891E+03  0.56174620901E+03  0.57897558548E+03  0.47000000000E+01 0.  1.
         11    1    6    6    0    0 -0.28658379040E+02 -0.45244559562E+02  0.14753938246E+03  0.15695936492E+03  0.00000000000E+00 0. -1.
        -12    1    6    6    0    0 -0.32743914482E+02  0.38049828269E+02  0.10325871919E+03  0.11481426939E+03  0.00000000000E+00 0.  1.
</event>
<event>
12    1  0.8494789E-002  0.2187467E+03  0.7818608E-02  0.1135196E+00
         21   -1    0    0  503  502  0.00000000000E+00  0.00000000000E+00  0.59722279341E+03  0.59722279341E+03  0.00000000000E+00 0.  1.
         21   -1    0    0  501  503 -0.00000000000E+00 -0.00000000000E+00 -0.80594210274E+02  0.80594210274E+02  0.00000000000E+00 0.  1.
          6    2    1    2  501    0  0.77988020999E+00  0.13560341983E+03  0.21580913198E+03  0.30587286625E+03  0.16910272966E+03 0.  0.
         24    2    3    3    0    0  0.28688849050E+02  0.14875011651E+03  0.13239105525E+03  0.21680877865E+03  0.80802275763E+02 0.  0.
         -6    2    1    2    0  502 -0.77988020999E+00 -0.13560341983E+03  0.30081945116E+03  0.37194413743E+03  0.17164266221E+03 0.  0.
        -24    2    5    5    0    0 -0.69264973973E+02 -0.72849490603E+02  0.16337235077E+03  0.20598613339E+03  0.75067151611E+02 0.  0.
          5    1    3    3  501    0 -0.27908968840E+02 -0.13146696675E+02  0.83418076728E+02  0.89064087601E+02  0.47000000000E+01 0. -1.
        -11    1    4    4    0    0 -0.27234415276E+02  0.32484836470E+02  0.38264084569E+02  0.57106200572E+02  0.00000000000E+00 0.  1.
         12    1    4    4    0    0  0.55923264325E+02  0.11626528004E+03  0.94126970678E+02  0.15970257808E+03  0.00000000000E+00 0. -1.
         -5    1    5    5    0  502  0.68485093763E+02 -0.62753929229E+02  0.13744710038E+03  0.16595800404E+03  0.47000000000E+01 0.  1.
         13    1    6    6    0    0 -0.36762515007E+02 -0.18500367416E+01  0.18010948011E+02  0.40979255652E+02  0.00000000000E+00 0. -1.
        -14    1    6    6    0    0 -0.32502458967E+02 -0.70999453862E+02  0.14536140276E+03  0.16500687774E+03  0.00000000000E+00 0.  1.
</event>
<event>
12    1  0.8494789E-002  0.1831889E+03  0.7818608E-02  0.1164819E+00
         21   -1    0    0  501  502  0.00000000000E+00  0.00000000000E+00  0.77288659228E+02  0.77288659228E+02  0.00000000000E+00 0. -1.
         21   -1    0    0  502  503 -0.00000000000E+00 -0.00000000000E+00 -0.49330840038E+03  0.49330840038E+03  0.00000000000E+00 0. -1.
         -6    2    1    2    0  503 -0.45532205735E+02  0.42424783807E+02 -0.30747399737E+03  0.35790840198E+03  0.17229370596E+03 0.  0.
        -24    2    3    3    0    0 -0.77070522135E+02  0.75545513921E+02 -0.24921214123E+03  0.28369127427E+03  0.82018642437E+02 0.  0.
          6    2    1    2  501    0  0.45532205735E+02 -0.42424783807E+02 -0.10854574378E+03  0.21268865763E+03  0.17199198397E+03 0.  0.
         24    2    5    5    0    0 -0.72434631272E+01 -0.47028906620E+02 -0.24431266612E+01  0.94002834837E+02  0.81033192419E+02 0.  0.
          5    1    5    5  501    0  0.52775668862E+02  0.46041228135E+01 -0.10610261712E+03  0.11868582279E+03  0.47000000000E+01 0. -1.
        -11    1    6    6    0    0 -0.22211744705E+02  0.40836187270E+01 -0.27130481849E+02  0.35300150001E+02  0.00000000000E+00 0.  1.
         12    1    6    6    0    0  0.14968281578E+02 -0.51112525347E+02  0.24687355188E+02  0.58702684836E+02  0.00000000000E+00 0. -1.
         -5    1    3    3    0  503  0.31538316400E+02 -0.33120730115E+02 -0.58261856143E+02  0.74217127713E+02  0.47000000000E+01 0.  1.
         13    1    4    4    0    0 -0.78161106937E+02  0.88919173933E+02 -0.19748610968E+03  0.23025321202E+03  0.00000000000E+00 0. -1.
        -14    1    4    4    0    0  0.10905848019E+01 -0.13373660012E+02 -0.51726031544E+02  0.53438062246E+02  0.00000000000E+00 0.  1.
</event>
<event>
12    1  0.8494789E-002  0.2087801E+03  0.7818608E-02  0.1145052E+00
         21   -1    0    0  503  502  0.00000000000E+00  0.00000000000E+00  0.49839471289E+03  0.49839471289E+03  0.00000000000E+00 0.  1.
         21   -1    0    0  501  503 -0.00000000000E+00 -0.00000000000E+00 -0.11111121606E+03  0.11111121606E+03  0.00000000000E+00 0.  1.
          6    2    1    2  501    0 -0.90534866321E+02  0.41385726055E+02  0.35278818542E+03  0.40993733218E+03  0.18352049532E+03 0.  0.
         24    2    3    3    0    0 -0.14242606986E+02  0.77693099698E+02  0.26597782603E+03  0.28870671430E+03  0.79801587360E+02 0.  0.
         -6    2    1    2    0  502  0.90534866321E+02 -0.41385726055E+02  0.34495311411E+02  0.19956859676E+03  0.16949441868E+03 0.  0.
        -24    2    5    5    0    0  0.86346458475E+01  0.96717905036E+01  0.59922814917E+02  0.99652811999E+02  0.78561049835E+02 0.  0.
          5    1    3    3  501    0 -0.76292259335E+02 -0.36307373643E+02  0.86810359387E+02  0.12123061788E+03  0.47000000000E+01 0. -1.
        -13    1    4    4    0    0  0.30385257578E+02  0.30313862245E+02  0.69062017182E+02  0.81312707122E+02  0.00000000000E+00 0.  1.
         14    1    4    4    0    0 -0.44627864564E+02  0.47379237453E+02  0.19691580885E+03  0.20739400718E+03  0.00000000000E+00 0. -1.
         -5    1    5    5    0  502  0.81900220473E+02 -0.51057516559E+02 -0.25427503506E+02  0.99915784765E+02  0.47000000000E+01 0.  1.
         11    1    6    6    0    0  0.16627231464E+02  0.42376314626E+02  0.39541711344E+02  0.60297295158E+02  0.00000000000E+00 0. -1.
        -12    1    6    6    0    0 -0.79925856164E+01 -0.32704524122E+02  0.20381103573E+02  0.39355516840E+02  0.00000000000E+00 0.  1.
</event>
<event>
12    1  0.8494789E-002  0.1760718E+03  0.7818608E-02  0.1171774E+00
         21   -1    0    0  501  502  0.00000000000E+00  0.00000000000E+00  0.13313720916E+04  0.13313720916E+04  0.00000000000E+00 0.  1.
         21   -1    0    0  502  503 -0.00000000000E+00 -0.00000000000E+00 -0.25848906137E+02  0.25848906137E+02  0.00000000000E+00 0.  1.
         -6    2    1    2    0  503 -0.14805022548E+02  0.30087624414E+02  0.43730566946E+03  0.47142076089E+03  0.17284915801E+03 0.  0.
        -24    2    3    3    0    0 -0.73655701396E+02 -0.27656178808E+01  0.26454454396E+03  0.28591810750E+03  0.79577242170E+02 0.  0.
          6    2    1    2  501    0  0.14805022548E+02 -0.30087624414E+02  0.86821751597E+03  0.88580023681E+03  0.17238315073E+03 0.  0.
         24    2    5    5    0    0  0.90745945766E+01  0.28096825857E+02  0.75898133915E+03  0.76181273589E+03  0.58601975168E+02 0.  0.
          5    1    5    5  501    0  0.57304279717E+01 -0.58184450271E+02  0.10923617682E+03  0.12398750092E+03  0.47000000000E+01 0. -1.
        -13    1    6    6    0    0 -0.23333493042E+02  0.39620922213E+01  0.36440633329E+03  0.36517410343E+03  0.00000000000E+00 0.  1.
         14    1    6    6    0    0  0.32408087618E+02  0.24134733636E+02  0.39457500586E+03  0.39663863246E+03  0.00000000000E+00 0. -1.
         -5    1    3    3    0  503  0.58850678847E+02  0.32853242295E+02  0.17276112550E+03  0.18550265339E+03  0.47000000000E+01 0.  1.
         11    1    4    4    0    0 -0.36638243849E+02  0.38230992091E+02  0.11923761034E+03  0.13046676737E+03  0.00000000000E+00 0. -1.
        -12    1    4    4    0    0 -0.37017457547E+02 -0.40996609971E+02  0.14530693361E+03  0.15545134013E+03  0.00000000000E+00 0.  1.
</event>
<event>
12    1  0.8494789E-002  0.2907917E+03  0.7818608E-02  0.1089961E+00
         21   -1    0    0  501  502  0.00000000000E+00  0.00000000000E+00  0.10685455498E+04  0.10685455498E+04  0.00000000000E+00 0.  1.
         21   -1    0    0  502  503 -0.00000000000E+00 -0.00000000000E+00 -0.10113747998E+03  0.10113747998E+03  0.00000000000E+00 0. -1.
         -6    2    1    2    0  503  0.22364927485E+03 -0.70743595177E+02  0.21048632388E+03  0.35882526071E+03  0.17154422399E+03 0.  0.
        -24    2    3    3    0    0  0.10574530141E+03 -0.97986622309E+02  0.92103241469E+02  0.18947304289E+03  0.81446792272E+02 0.  0.
          6    2    1    2  501    0 -0.22364927485E+03  0.70743595177E+02  0.75692174592E+03  0.81085776905E+03  0.17186080933E+03 0.  0.
         24    2    5    5    0    0 -0.15655558545E+03  0.90135811558E+02  0.38781564817E+03  0.43517303072E+03  0.79627092409E+02 0.  0.
          5    1    5    5  501    0 -0.67093689400E+02 -0.19392216381E+02  0.36910609775E+03  0.37568473833E+03  0.47000000000E+01 0. -1.
        -11    1    6    6    0    0 -0.13684597199E+03  0.41414575815E+02  0.25518627003E+03  0.29250986231E+03  0.00000000000E+00 0.  1.
         12    1    6    6    0    0 -0.19709613455E+02  0.48721235743E+02  0.13262937814E+03  0.14266316841E+03  0.00000000000E+00 0. -1.
         -5    1    3    3    0  503  0.11790397343E+03  0.27243027132E+02  0.11838308241E+03  0.16935221781E+03  0.47000000000E+01 0.  1.
         13    1    4    4    0    0  0.75127484001E+02 -0.83896327037E+02  0.10443019418E+03  0.15358514902E+03  0.00000000000E+00 0. -1.
        -14    1    4    4    0    0  0.30617817412E+02 -0.14090295272E+02 -0.12326952706E+02  0.35887893877E+02  0.00000000000E+00 0.  1.
</event>
<event>
12    1  0.8494789E-002  0.1697846E+03  0.7818608E-02  0.1178735E+00
         21   -1    0    0  503  502  0.00000000000E+00  0.00000000000E+00  0.38735293271E+02  0.38735293271E+02  0.00000000000E+00 0. -1.
         21   -1    0    0  501  503 -0.00000000000E+00 -0.00000000000E+00 -0.83798044038E+03  0.83798044038E+03  0.00000000000E+00 0. -1.
          6    2    1    2  501    0 -0.57372675276E+01 -0.38280684500E+01 -0.55722789458E+03  0.58252014762E+03  0.16964440913E+03 0.  0.
         24    2    3    3    0    0 -0.55885918575E+02  0.19546976394E+02 -0.23501981709E+03  0.25556232906E+03  0.81070768025E+02 0.  0.
         -6    2    1    2    0  502  0.57372675276E+01  0.38280684500E+01 -0.24201725254E+03  0.29419558603E+03  0.16712606609E+03 0.  0.
        -24    2    5    5    0    0  0.63322868830E+02 -0.17598085961E+02 -0.17026692922E+03  0.19961556454E+03  0.80845952721E+02 0.  0.
          5    1    3    3  501    0  0.50148651048E+02 -0.23375044844E+02 -0.32220807749E+03  0.32695781857E+03  0.47000000000E+01 0. -1.
        -13    1    4    4    0    0  0.10821935218E+01 -0.19932848574E+02 -0.15246705667E+02  0.25118750542E+02  0.00000000000E+00 0.  1.
         14    1    4    4    0    0 -0.56968112097E+02  0.39479824968E+02 -0.21977311142E+03  0.23044357851E+03  0.00000000000E+00 0. -1.
         -5    1    5    5    0  502 -0.57585601302E+02  0.21426154411E+02 -0.71750323313E+02  0.94580021493E+02  0.47000000000E+01 0.  1.
         11    1    6    6    0    0  0.23836998727E+02 -0.47116647320E+02 -0.10780326384E+03  0.12004051257E+03  0.00000000000E+00 0. -1.
        -12    1    6    6    0    0  0.39485870103E+02  0.29518561360E+02 -0.62463665384E+02  0.79575051968E+02  0.00000000000E+00 0.  1.
</event>
<event>
12    1  0.8494789E-002  0.1807162E+03  0.7818608E-02  0.1167242E+00
         21   -1    0    0  501  502  0.00000000000E+00  0.00000000000E+00  0.37033163581E+03  0.37033163581E+03  0.00000000000E+00 0.  1.
         21   -1    0    0  502  503 -0.00000000000E+00 -0.00000000000E+00 -0.10420822112E+03  0.10420822112E+03  0.00000000000E+00 0.  1.
         -6    2    1    2    0  503  0.53113289320E+02 -0.13003350162E+02  0.39435427251E+02  0.18496889851E+03  0.17224468606E+03 0.  0.
        -24    2    3    3    0    0  0.42545289762E+02  0.46365478765E+02 -0.16916706350E+02  0.10230092754E+03  0.78863461246E+02 0.  0.
          6    2    1    2  501    0 -0.53113289320E+02  0.13003350162E+02  0.22668798744E+03  0.28957095843E+03  0.17167931645E+03 0.  0.
         24    2    5    5    0    0  0.21150229866E+02  0.32939384188E+02  0.17601611956E+03  0.19736334525E+03  0.80238896097E+02 0.  0.
          5    1    5    5  501    0 -0.74263519185E+02 -0.19936034026E+02  0.50671867874E+02  0.92207613180E+02  0.47000000000E+01 0. -1.
        -13    1    6    6    0    0 -0.28378185512E+02  0.15595849247E+02  0.39301443835E+02  0.50923034220E+02  0.00000000000E+00 0.  1.
         14    1    6    6    0    0  0.49528415378E+02  0.17343534942E+02  0.13671467573E+03  0.14644031103E+03  0.00000000000E+00 0. -1.
         -5    1    3    3    0  503  0.10567999558E+02 -0.59368828927E+02  0.56352133602E+02  0.82667970970E+02  0.47000000000E+01 0.  1.
         11    1    4    4    0    0 -0.20680383984E+02  0.26746327971E+02  0.63172014064E+00  0.33814840115E+02  0.00000000000E+00 0. -1.
        -12    1    4    4    0    0  0.63225673745E+02  0.19619150793E+02 -0.17548426491E+02  0.68486087424E+02  0.00000000000E+00 0.  1.
</event>
<event>
12    1  0.8494789E-002  0.2279067E+03  0.7818608E-02  0.1129195E+00
         21   -1    0    0  501  502  0.00000000000E+00  0.00000000000E+00  0.40520951742E+03  0.40520951742E+03  0.00000000000E+00 0. -1.
         21   -1    0    0  502  503 -0.00000000000E+00 -0.00000000000E+00 -0.13690831182E+03  0.13690831182E+03  0.00000000000E+00 0. -1.
         -6    2    1    2    0  503 -0.43259619328E+02  0.13369192124E+03  0.55377876172E+02  0.23453823422E+03  0.17943397023E+03 0.  0.
        -24    2    3    3    0    0 -0.55972230549E+02  0.51032424966E+02  0.89632308143E+02  0.14404149993E+03  0.83527265293E+02 0.  0.
          6    2    1    2  501    0  0.43259619328E+02 -0.13369192124E+03  0.21292332943E+03  0.30757959501E+03  0.17182531415E+03 0.  0.
         24    2    5    5    0    0  0.82453589665E+02 -0.13634846839E+03  0.19203700142E+03  0.26284087295E+03  0.82568851880E+02 0.  0.
          5    1    5    5  501    0 -0.39193970337E+02  0.26565471472E+01  0.20886328012E+02  0.44738722057E+02  0.47000000000E+01 0. -1.
        -13    1    6    6    0    0  0.25932547440E+02  0.56287179601E+01  0.31810702166E+02  0.41425840425E+02  0.00000000000E+00 0.  1.
         14    1    6    6    0    0  0.56521042225E+02 -0.14197718635E+03  0.16022629925E+03  0.22141503253E+03  0.00000000000E+00 0. -1.
         -5    1    3    3    0  503  0.12712611221E+02  0.82659496276E+02 -0.34254431971E+02  0.90496734297E+02  0.47000000000E+01 0.  1.
         11    1    4    4    0    0  0.18747610959E+02  0.56774810654E+01  0.10829082234E+01  0.19618343410E+02  0.00000000000E+00 0. -1.
        -12    1    4    4    0    0 -0.74719841508E+02  0.45354943901E+02  0.88549399919E+02  0.12442315652E+03  0.00000000000E+00 0.  1.
</event>
<event>
12    1  0.8494789E-002  0.1855472E+03  0.7818608E-02  0.1162761E+00
         21   -1    0    0  501  502  0.00000000000E+00  0.00000000000E+00  0.21429326391E+03  0.21429326391E+03  0.00000000000E+00 0.  1.
         21   -1    0    0  502  503 -0.00000000000E+00 -0.00000000000E+00 -0.19076582212E+03  0.19076582212E+03  0.00000000000E+00 0.  1.
         -6    2    1    2    0  503  0.71536560082E+02 -0.23192871048E+02  0.93288845051E+02  0.20683090131E+03  0.16858476928E+03 0.  0.
        -24    2    3    3    0    0  0.50368232120E+02  0.38550339887E+02  0.23251853866E+02  0.11097897207E+03  0.88048827485E+02 0.  0.
          6    2    1    2  501    0 -0.71536560082E+02  0.23192871048E+02 -0.69761403259E+02  0.19822818471E+03  0.16962420562E+03 0.  0.
         24    2    5    5    0    0 -0.23411391635E+02 -0.49638510628E+02 -0.37825038634E+02  0.10515582909E+03  0.81332280483E+02 0.  0.
          5    1    5    5  501    0 -0.48125168447E+02  0.72831381675E+02 -0.31936364626E+02  0.93072355618E+02  0.47000000000E+01 0. -1.
        -11    1    6    6    0    0 -0.50961627488E+02 -0.15721820226E+02 -0.12973264374E+02  0.54886871799E+02  0.00000000000E+00 0.  1.
         12    1    6    6    0    0  0.27550235853E+02 -0.33916690402E+02 -0.24851774260E+02  0.50268957292E+02  0.00000000000E+00 0. -1.
         -5    1    3    3    0  503  0.21168327962E+02 -0.61743210935E+02  0.70036991185E+02  0.95851929242E+02  0.47000000000E+01 0.  1.
         11    1    4    4    0    0  0.40961814466E+01  0.55330525445E+02 -0.22830957466E+01  0.55528895853E+02  0.00000000000E+00 0. -1.
        -12    1    4    4    0    0  0.46272050673E+02 -0.16780185558E+02  0.25534949613E+02  0.55450076218E+02  0.00000000000E+00 0.  1.
</event>
<event>
12    1  0.8494789E-002  0.2289153E+03  0.7818608E-02  0.1127413E+00
         21   -1    0    0  501  502  0.00000000000E+00  0.00000000000E+00  0.54382831393E+02  0.54382831393E+02  0.00000000000E+00 0.  1.
         21   -1    0    0  502  503 -0.00000000000E+00 -0.00000000000E+00 -0.11866972857E+04  0.11866972857E+04  0.00000000000E+00 0. -1.
         -6    2    1    2    0  503  0.11174872285E+02 -0.15051853215E+03 -0.83528865879E+03  0.86607803849E+03  0.17205615063E+03 0.  0.
        -24    2    3    3    0    0 -0.21925293959E+02 -0.16870607312E+03 -0.67406792196E+03  0.70042592219E+03  0.85360713671E+02 0.  0.
          6    2    1    2  501    0 -0.11174872285E+02  0.15051853215E+03 -0.29702579555E+03  0.37500207863E+03  0.17210906271E+03 0.  0.
         24    2    5    5    0    0  0.50862186922E+02  0.57760757597E+02 -0.16286872675E+03  0.20043744715E+03  0.87895852529E+02 0.  0.
          5    1    5    5  501    0 -0.62037059207E+02  0.92757774549E+02 -0.13415706881E+03  0.17456463148E+03  0.47000000000E+01 0. -1.
        -13    1    6    6    0    0  0.40220466821E+02  0.78432253432E+02 -0.99440692045E+02  0.13288248780E+03  0.00000000000E+00 0.  1.
         14    1    6    6    0    0  0.10641720101E+02 -0.20671495835E+02 -0.63428034702E+02  0.67554959351E+02  0.00000000000E+00 0. -1.
         -5    1    3    3    0  503  0.33100166244E+02  0.18187540972E+02 -0.16122073683E+03  0.16565211630E+03  0.47000000000E+01 0.  1.
         13    1    4    4    0    0  0.14403617329E+02 -0.22216955691E+02 -0.22766323505E+03  0.22919774411E+03  0.00000000000E+00 0. -1.
        -14    1    4    4    0    0 -0.36328911288E+02 -0.14648911743E+03 -0.44640468690E+03  0.47122817807E+03  0.00000000000E+00 0.  1.
</event>
<event>
12    1  0.8494789E-002  0.2544593E+03  0.7818608E-02  0.1110985E+00
         21   -1    0    0  503  502  0.00000000000E+00  0.00000000000E+00  0.70152097764E+02  0.70152097764E+02  0.00000000000E+00 0.  1.
         21   -1    0    0  501  503 -0.00000000000E+00 -0.00000000000E+00 -0.11046350232E+04  0.11046350232E+04  0.00000000000E+00 0. -1.
          6    2    1    2  501    0 -0.17693486234E+03  0.64197808073E+02 -0.75991506173E+03  0.80043828550E+03  0.16674304716E+03 0.  0.
         24    2    3    3    0    0 -0.16764601365E+03  0.10212587511E+03 -0.57766140418E+03  0.61398907882E+03  0.68956586173E+02 0.  0.
         -6    2    1    2    0  502  0.17693486234E+03 -0.64197808073E+02 -0.27456786366E+03  0.37434883542E+03  0.17123736377E+03 0.  0.
        -24    2    5    5    0    0  0.81838537168E+02  0.32132640340E+02 -0.14027819429E+03  0.18361689878E+03  0.79417510563E+02 0.  0.
          5    1    3    3  501    0 -0.92888486904E+01 -0.37928067041E+02 -0.18225365755E+03  0.18644920667E+03  0.47000000000E+01 0. -1.
        -11    1    4    4    0    0 -0.72876227018E+02  0.20145538709E+02 -0.14475769090E+03  0.16331434802E+03  0.00000000000E+00 0.  1.
         12    1    4    4    0    0 -0.94769786633E+02  0.81980336404E+02 -0.43290371328E+03  0.45067473080E+03  0.00000000000E+00 0. -1.
         -5    1    5    5    0  502  0.95096325174E+02 -0.96330448413E+02 -0.13428966937E+03  0.19073193664E+03  0.47000000000E+01 0.  1.
         13    1    6    6    0    0  0.69948676860E+02 -0.50142785767E+01 -0.12159775251E+03  0.14037084384E+03  0.00000000000E+00 0. -1.
        -14    1    6    6    0    0  0.11889860308E+02  0.37146918917E+02 -0.18680441780E+02  0.43246054945E+02  0.00000000000E+00 0.  1.
</event>
<event>
12    1  0.8494789E-002  0.2143115E+03  0.7818608E-02  0.1138301E+00
         21   -1    0    0  503  502  0.00000000000E+00  0.00000000000E+00  0.80477594687E+03  0.80477594687E+03  0.00000000000E+00 0.  1.
         21   -1    0    0  501  503 -0.00000000000E+00 -0.00000000000E+00 -0.69210115856E+02  0.69210115856E+02  0.00000000000E+00 0. -1.
          6    2    1    2  501    0 -0.12511585642E+03  0.30899684950E+02  0.18330959037E+03  0.28160411772E+03  0.17055704364E+03 0.  0.
         24    2    3    3    0    0 -0.46517750980E+02  0.67904674784E+02  0.14655722535E+03  0.18715911898E+03  0.82307773034E+02 0.  0.
         -6    2    1    2    0  502  0.12511585642E+03 -0.30899684950E+02  0.55225624064E+03  0.59238194501E+03  0.17123272288E+03 0.  0.
        -24    2    5    5    0    0  0.11579713209E+02  0.80514725399E+01  0.31846773326E+03  0.32953825635E+03  0.83515563217E+02 0.  0.
          5    1    3    3  501    0 -0.78598105441E+02 -0.37004989834E+02  0.36752365019E+02  0.94444998734E+02  0.47000000000E+01 0. -1.
        -13    1    4    4    0    0 -0.10979913332E+02 -0.73978267822E+01  0.78525185514E+02  0.79633479755E+02  0.00000000000E+00 0.  1.
         14    1    4    4    0    0 -0.35537837648E+02  0.75302501566E+02  0.68032039837E+02  0.10752563923E+03  0.00000000000E+00 0. -1.
         -5    1    5    5    0  502  0.11353614321E+03 -0.38951157490E+02  0.23378850738E+03  0.26284368866E+03  0.47000000000E+01 0.  1.
         11    1    6    6    0    0 -0.80868942901E+01  0.36654429427E+02  0.24970928052E+03  0.25251469231E+03  0.00000000000E+00 0. -1.
        -12    1    6    6    0    0  0.19666607499E+02 -0.28602956887E+02  0.68758452744E+02  0.77023564037E+02  0.00000000000E+00 0.  1.
</event>
<event>
12    1  0.8494789E-002  0.2566727E+03  0.7818608E-02  0.1109307E+00
         21   -1    0    0  503  502  0.00000000000E+00  0.00000000000E+00  0.37223852128E+03  0.37223852128E+03  0.00000000000E+00 0.  1.
         21   -1    0    0  501  503 -0.00000000000E+00 -0.00000000000E+00 -0.18148780458E+03  0.18148780458E+03  0.00000000000E+00 0.  1.
          6    2    1    2  501    0 -0.14477168415E+03 -0.12235222470E+03  0.48836496075E+02  0.26127739040E+03  0.17306635712E+03 0.  0.
         24    2    3    3    0    0 -0.15374300950E+03 -0.50712992863E+02  0.11577363350E+02  0.17989559152E+03  0.77586518755E+02 0.  0.
         -6    2    1    2    0  502  0.14477168415E+03  0.12235222470E+03  0.14191422063E+03  0.29244893547E+03  0.17163282442E+03 0.  0.
        -24    2    5    5    0    0  0.15286603019E+03  0.10424852975E+03  0.65318818859E+02  0.21318855582E+03  0.83348863792E+02 0.  0.
          5    1    3    3  501    0  0.89713253533E+01 -0.71639231842E+02  0.37259132725E+02  0.81381798880E+02  0.47000000000E+01 0. -1.
        -11    1    4    4    0    0 -0.95641605152E+02 -0.42073207592E+02  0.43338926735E+02  0.11311823020E+03  0.00000000000E+00 0.  1.
         12    1    4    4    0    0 -0.58101404347E+02 -0.86397852706E+01 -0.31761563385E+02  0.66777361323E+02  0.00000000000E+00 0. -1.
         -5    1    5    5    0  502 -0.80943460491E+01  0.18103694958E+02  0.76595401767E+02  0.79260379641E+02  0.47000000000E+01 0.  1.
         11    1    6    6    0    0  0.10900201149E+03  0.10914104731E+03  0.31131663653E+02  0.15736069140E+03  0.00000000000E+00 0. -1.
        -12    1    6    6    0    0  0.43864018710E+02 -0.48925175604E+01  0.34187155206E+02  0.55827864427E+02  0.00000000000E+00 0.  1.
</event>
<event>
12    1  0.8494789E-002  0.2380281E+03  0.7818608E-02  0.1121152E+00
         21   -1    0    0  501  502  0.00000000000E+00  0.00000000000E+00  0.80851769085E+02  0.80851769085E+02  0.00000000000E+00 0.  1.
         21   -1    0    0  502  503 -0.00000000000E+00 -0.00000000000E+00 -0.70349383370E+03  0.70349383370E+03  0.00000000000E+00 0. -1.
         -6    2    1    2    0  503 -0.15580903091E+03  0.47295054347E+02 -0.33875209159E+03  0.41401735525E+03  0.17362060538E+03 0.  0.
        -24    2    3    3    0    0 -0.10283453752E+03  0.67013512345E+02 -0.32421744950E+03  0.35546429933E+03  0.78563099475E+02 0.  0.
          6    2    1    2  501    0  0.15580903091E+03 -0.47295054347E+02 -0.28388997302E+03  0.37032824753E+03  0.17330960117E+03 0.  0.
         24    2    5    5    0    0  0.53737841743E+02 -0.47583455198E+02 -0.23351288884E+03  0.25640480199E+03  0.77866632042E+02 0.  0.
          5    1    5    5  501    0  0.10207118917E+03  0.28840085138E+00 -0.50377084185E+02  0.11392344555E+03  0.47000000000E+01 0. -1.
        -13    1    6    6    0    0  0.23750807414E+02 -0.56533442553E+02 -0.86082978606E+02  0.10569016125E+03  0.00000000000E+00 0.  1.
         14    1    6    6    0    0  0.29987034329E+02  0.89499873548E+01 -0.14742991023E+03  0.15071464074E+03  0.00000000000E+00 0. -1.
         -5    1    3    3    0  503 -0.52974493397E+02 -0.19718457998E+02 -0.14534642095E+02  0.58553055918E+02  0.47000000000E+01 0.  1.
         13    1    4    4    0    0 -0.31390082445E+01  0.19120588751E+02 -0.13428022721E+03  0.13567103488E+03  0.00000000000E+00 0. -1.
        -14    1    4    4    0    0 -0.99695529274E+02  0.47892923594E+02 -0.18993722229E+03  0.21979326445E+03  0.00000000000E+00 0.  1.
</event>
<event>
12    1  0.8494789E-002  0.1818954E+03  0.7818608E-02  0.1166809E+00
         21   -1    0    0  501  502  0.00000000000E+00  0.00000000000E+00  0.14267721305E+03  0.14267721305E+03  0.00000000000E+00 0. -1.
         21   -1    0    0  502  503 -0.00000000000E+00 -0.00000000000E+00 -0.74801857556E+03  0.74801857556E+03  0.00000000000E+00 0.  1.
         -6    2    1    2    0  503 -0.24942621923E+02 -0.52816948201E+02 -0.67503277933E+03  0.69911028423E+03  0.17226192833E+03 0.  0.
        -24    2    3    3    0    0 -0.79737424732E+02 -0.32603998397E+02 -0.53024323977E+03  0.54291446316E+03  0.78594805024E+02 0.  0.
          6    2    1    2  501    0  0.24942621923E+02  0.52816948201E+02  0.69691416816E+02  0.19158550437E+03  0.16863080235E+03 0.  0.
         24    2    5    5    0    0  0.22857103096E+02  0.51673948348E+02 -0.22177882011E+02  0.99565322320E+02  0.78922435709E+02 0.  0.
          5    1    5    5  501    0  0.20855188270E+01  0.11429998529E+01  0.91869298827E+02  0.92020182050E+02  0.47000000000E+01 0. -1.
        -11    1    6    6    0    0 -0.23293487017E+02 -0.48270326299E+01 -0.19982423734E+01  0.23872154364E+02  0.00000000000E+00 0.  1.
         12    1    6    6    0    0  0.46150590112E+02  0.56500980978E+02 -0.20179639638E+02  0.75693167955E+02  0.00000000000E+00 0. -1.
         -5    1    3    3    0  503  0.54794802810E+02 -0.20212949805E+02 -0.14478953955E+03  0.15619582107E+03  0.47000000000E+01 0.  1.
         11    1    4    4    0    0 -0.53405263874E+02 -0.38272459691E+02 -0.17964582558E+03  0.19128388858E+03  0.00000000000E+00 0. -1.
        -12    1    4    4    0    0 -0.26332160858E+02  0.56684612940E+01 -0.35059741419E+03  0.35163057459E+03  0.00000000000E+00 0.  1.
</event>
<event>
12    1  0.8494789E-002  0.1721493E+03  0.7818608E-02  0.1175692E+00
         21   -1    0    0  501  502  0.00000000000E+00  0.00000000000E+00  0.21421752844E+04  0.21421752844E+04  0.00000000000E+00 0.  1.
         21   -1    0    0  502  503 -0.00000000000E+00 -0.00000000000E+00 -0.13860461529E+02  0.13860461529E+02  0.00000000000E+00 0.  1.
         -6    2    1    2    0  503  0.51123024587E+01 -0.40524217928E+01  0.10020890580E+04  0.10167683394E+04  0.17202563214E+03 0.  0.
        -24    2    3    3    0    0 -0.45786209246E+02 -0.42496396429E+02  0.75558446592E+03  0.76210149509E+03  0.77385289419E+02 0.  0.
          6    2    1    2  501    0 -0.51123024587E+01  0.40524217928E+01  0.11262257649E+04  0.11392674065E+04  0.17176493336E+03 0.  0.
         24    2    5    5    0    0 -0.10953462964E+01 -0.62361944064E+02  0.74796803493E+03  0.75517366250E+03  0.83311868369E+02 0.  0.
          5    1    5    5  501    0 -0.40169561623E+01  0.66414365857E+02  0.37825772994E+03  0.38409374401E+03  0.47000000000E+01 0. -1.
        -11    1    6    6    0    0 -0.27878630509E+02 -0.70461880974E+02  0.51915867566E+03  0.52465972327E+03  0.00000000000E+00 0.  1.
         12    1    6    6    0    0  0.26783284212E+02  0.80999369101E+01  0.22880935927E+03  0.23051393923E+03  0.00000000000E+00 0. -1.
         -5    1    3    3    0  503  0.50898511705E+02  0.38443974636E+02  0.24650459210E+03  0.25466684434E+03  0.47000000000E+01 0.  1.
         11    1    4    4    0    0 -0.12528547498E+02 -0.35091661697E+02  0.12109883016E+03  0.12670168069E+03  0.00000000000E+00 0. -1.
        -12    1    4    4    0    0 -0.33257661748E+02 -0.74047347318E+01  0.63448563576E+03  0.63539981440E+03  0.00000000000E+00 0.  1.
</event>
<event>
12    1  0.8494789E-002  0.2304438E+03  0.7818608E-02  0.1126363E+00
         21   -1    0    0  503  502  0.00000000000E+00  0.00000000000E+00  0.14936879639E+03  0.14936879639E+03  0.00000000000E+00 0.  1.
         21   -1    0    0  501  503 -0.00000000000E+00 -0.00000000000E+00 -0.42115172725E+03  0.42115172725E+03  0.00000000000E+00 0.  1.
          6    2    1    2  501    0 -0.10425315105E+02 -0.15119708788E+03 -0.24871174196E+03  0.33892473741E+03  0.17332974488E+03 0.  0.
         24    2    3    3    0    0 -0.46726847094E+02 -0.11556761124E+03 -0.24670502223E+03  0.28780353091E+03  0.80176264558E+02 0.  0.
         -6    2    1    2    0  502  0.10425315105E+02  0.15119708788E+03 -0.23071188905E+02  0.23159578623E+03  0.17359459054E+03 0.  0.
        -24    2    5    5    0    0  0.41583008307E+02  0.85438805325E+02  0.44438049980E+02  0.13222506164E+03  0.80497146565E+02 0.  0.
          5    1    3    3  501    0  0.36301531989E+02 -0.35629476640E+02 -0.20067197234E+01  0.51121206505E+02  0.47000000000E+01 0. -1.
        -11    1    4    4    0    0  0.19765002211E+02 -0.29888437897E+02 -0.35824444835E+02  0.50669170903E+02  0.00000000000E+00 0.  1.
         12    1    4    4    0    0 -0.66491849306E+02 -0.85679173344E+02 -0.21088057740E+03  0.23713436000E+03  0.00000000000E+00 0. -1.
         -5    1    5    5    0  502 -0.31157693202E+02  0.65758282556E+02 -0.67509238885E+02  0.99370724589E+02  0.47000000000E+01 0.  1.
         13    1    6    6    0    0  0.28276879078E+02  0.63446492740E+02 -0.11738227152E+02  0.70447322931E+02  0.00000000000E+00 0. -1.
        -14    1    6    6    0    0  0.13306129229E+02  0.21992312585E+02  0.56176277132E+02  0.61777738711E+02  0.00000000000E+00 0.  1.
</event>
<event>
12    1  0.8494789E-002  0.1907325E+03  0.7818608E-02  0.1157851E+00
         21   -1    0    0  501  502  0.00000000000E+00  0.00000000000E+00  0.13896223530E+03  0.13896223530E+03  0.00000000000E+00 0. -1.
         21   -1    0    0  502  503 -0.00000000000E+00 -0.00000000000E+00 -0.26731667346E+03  0.26731667346E+03  0.00000000000E+00 0. -1.
         -6    2    1    2    0  503 -0.51958841387E+02  0.66008815735E+02 -0.94120189141E+02  0.21249847233E+03  0.17099738532E+03 0.  0.
        -24    2    3    3    0    0 -0.14589781576E+02  0.67965782470E+02 -0.12508026823E+03  0.16370407873E+03  0.79509386719E+02 0.  0.
          6    2    1    2  501    0  0.51958841387E+02 -0.66008815735E+02 -0.34234249025E+02  0.19378043643E+03  0.17123664556E+03 0.  0.
         24    2    5    5    0    0  0.53661290976E+02  0.14234176789E+02  0.16238574973E+02  0.98851873046E+02  0.80161434303E+02 0.  0.
          5    1    5    5  501    0 -0.17024495893E+01 -0.80242992524E+02 -0.50472823998E+02  0.94928563384E+02  0.47000000000E+01 0. -1.
        -13    1    6    6    0    0 -0.17794428177E+01  0.82273410674E+01  0.38052166087E+02  0.38972078489E+02  0.00000000000E+00 0.  1.
         14    1    6    6    0    0  0.55440733794E+02  0.60068357215E+01 -0.21813591115E+02  0.59879794558E+02  0.00000000000E+00 0. -1.
         -5    1    3    3    0  503 -0.37369059810E+02 -0.19569667344E+01  0.30960079094E+02  0.48794393606E+02  0.47000000000E+01 0.  1.
         11    1    4    4    0    0 -0.15516548492E+02 -0.86653951079E+01 -0.61841100488E+02  0.64344184346E+02  0.00000000000E+00 0. -1.
        -12    1    4    4    0    0  0.92676691585E+00  0.76631177578E+02 -0.63239167746E+02  0.99359894379E+02  0.00000000000E+00 0.  1.
</event>
<event>
12    1  0.8494789E-002  0.1850404E+03  0.7818608E-02  0.1163223E+00
         21   -1    0    0  503  502  0.00000000000E+00  0.00000000000E+00  0.44020759659E+03  0.44020759659E+03  0.00000000000E+00 0. -1.
         21   -1    0    0  501  503 -0.00000000000E+00 -0.00000000000E+00 -0.11843249482E+03  0.11843249482E+03  0.00000000000E+00 0. -1.
          6    2    1    2  501    0 -0.60027757914E+02  0.30005521278E+02 -0.37735103948E+01  0.18417803274E+03  0.17147491168E+03 0.  0.
         24    2    3    3    0    0 -0.19283689431E+02 -0.52103198943E+01  0.59981337736E+02  0.10058972467E+03  0.78240166927E+02 0.  0.
         -6    2    1    2    0  502  0.60027757914E+02 -0.30005521278E+02  0.32554861216E+03  0.37446205867E+03  0.17244208151E+03 0.  0.
        -24    2    5    5    0    0  0.74706525872E+02 -0.15813182859E+02  0.33412408059E+03  0.35182321246E+03  0.79432674867E+02 0.  0.
          5    1    3    3  501    0 -0.40744068483E+02  0.35215841172E+02 -0.63754848131E+02  0.83588308071E+02  0.47000000000E+01 0. -1.
        -13    1    4    4    0    0  0.10828814298E+02 -0.27234863852E+02  0.55825609894E+02  0.63051564201E+02  0.00000000000E+00 0.  1.
         14    1    4    4    0    0 -0.30112503729E+02  0.22024543958E+02  0.41557278422E+01  0.37538160468E+02  0.00000000000E+00 0. -1.
         -5    1    5    5    0  502 -0.14678767959E+02 -0.14192338418E+02 -0.85754684331E+01  0.22638846203E+02  0.47000000000E+01 0.  1.
         13    1    6    6    0    0  0.87602927151E+02 -0.27211209852E+02  0.29817372583E+03  0.31196521210E+03  0.00000000000E+00 0. -1.
        -14    1    6    6    0    0 -0.12896401278E+02  0.11398026992E+02  0.35950354765E+02  0.39858000363E+02  0.00000000000E+00 0.  1.
</event>
<event>
12    1  0.8494789E-002  0.2186509E+03  0.7818608E-02  0.1135210E+00
         21   -1    0    0  503  502  0.00000000000E+00  0.00000000000E+00  0.45430987309E+03  0.45430987309E+03  0.00000000000E+00 0. -1.
         21   -1    0    0  501  503 -0.00000000000E+00 -0.00000000000E+00 -0.17859433061E+03  0.17859433061E+03  0.00000000000E+00 0. -1.
          6    2    1    2  501    0  0.23558963743E+02  0.13229191211E+03 -0.65763147746E+02  0.22832650216E+03  0.17248775379E+03 0.  0.
         24    2    3    3    0    0  0.21813663478E+02  0.13785342604E+03 -0.10246812316E+03  0.19086556610E+03  0.80315285433E+02 0.  0.
         -6    2    1    2    0  502 -0.23558963743E+02 -0.13229191211E+03  0.34147869023E+03  0.40457770155E+03  0.17035036228E+03 0.  0.
        -24    2    5    5    0    0 -0.28977564900E+02 -0.14811967187E+03  0.20384077527E+03  0.26584715389E+03  0.79652439434E+02 0.  0.
          5    1    3    3  501    0  0.17453002646E+01 -0.55615139371E+01  0.36704975414E+02  0.37460936059E+02  0.47000000000E+01 0. -1.
        -11    1    4    4    0    0  0.16233626913E+02  0.83286907714E+02 -0.12889496571E+02  0.85827610716E+02  0.00000000000E+00 0.  1.
         12    1    4    4    0    0  0.55800365655E+01  0.54566518330E+02 -0.89578626589E+02  0.10503795539E+03  0.00000000000E+00 0. -1.
         -5    1    5    5    0  502  0.54186011573E+01  0.15827759767E+02  0.13763791496E+03  0.13873054765E+03  0.47000000000E+01 0.  1.
         13    1    6    6    0    0 -0.16444874130E+02  0.29646870614E+01  0.35911334932E+02  0.39608676210E+02  0.00000000000E+00 0. -1.
        -14    1    6    6    0    0 -0.12532690770E+02 -0.15108435893E+03  0.16792944033E+03  0.22623847768E+03  0.00000000000E+00 0.  1.
</event>
<event>
12    1  0.8494789E-002  0.2210737E+03  0.7818608E-02  0.1133398E+00
         21   -1    0    0  503  502  0.00000000000E+00  0.00000000000E+00  0.51639480737E+03  0.51639480737E+03  0.00000000000E+00 0.  1.
         21   -1    0    0  501  503 -0.00000000000E+00 -0.00000000000E+00 -0.41480517798E+03  0.41480517798E+03  0.00000000000E+00 0.  1.
          6    2    1    2  501    0  0.12949943450E+03  0.50232154357E+02 -0.35866873043E+03  0.42132749744E+03  0.17198903756E+03 0.  0.
         24    2    3    3    0    0  0.12784703465E+03  0.67887108137E+02 -0.36567823711E+03  0.40168949850E+03  0.81733447202E+02 0.  0.
         -6    2    1    2    0  502 -0.12949943450E+03 -0.50232154357E+02  0.46025835982E+03  0.50987248792E+03  0.16981997316E+03 0.  0.
        -24    2    5    5    0    0 -0.44339860040E+02  0.28851535790E+02  0.26789073648E+03  0.28507530003E+03  0.81878236994E+02 0.  0.
          5    1    3    3  501    0  0.16523998455E+01 -0.17654953779E+02  0.70095066785E+01  0.19637998932E+02  0.47000000000E+01 0. -1.
        -13    1    4    4    0    0  0.16422979035E+02  0.42005485132E+02 -0.16118683338E+03  0.16737792649E+03  0.00000000000E+00 0.  1.
         14    1    4    4    0    0  0.11142405561E+03  0.25881623004E+02 -0.20449140374E+03  0.23431157202E+03  0.00000000000E+00 0. -1.
         -5    1    5    5    0  502 -0.85159574456E+02 -0.79083690148E+02  0.19236762335E+03  0.22479718788E+03  0.47000000000E+01 0.  1.
         11    1    6    6    0    0 -0.38016728347E+02 -0.11765251935E+02  0.52940079723E+02  0.66229486095E+02  0.00000000000E+00 0. -1.
        -12    1    6    6    0    0 -0.63231316923E+01  0.40616787725E+02  0.21495065675E+03  0.21884581394E+03  0.00000000000E+00 0.  1.
</event>
<event>
12    1  0.8494789E-002  0.2458069E+03  0.7818608E-02  0.1116032E+00
         21   -1    0    0  501  502  0.00000000000E+00  0.00000000000E+00  0.35689509556E+04  0.35689509556E+04  0.00000000000E+00 0.  1.
         21   -1    0    0  502  503 -0.00000000000E+00 -0.00000000000E+00 -0.34291846815E+02  0.34291846815E+02  0.00000000000E+00 0. -1.
         -6    2    1    2    0  503 -0.11949435105E+03  0.12895436432E+03  0.48515217064E+03  0.54386914876E+03  0.17179317301E+03 0.  0.
        -24    2    3    3    0    0 -0.13114664328E+03  0.46672907884E+02  0.28351605329E+03  0.32572876322E+03  0.79624571210E+02 0.  0.
          6    2    1    2  501    0  0.11949435105E+03 -0.12895436432E+03  0.30495069381E+04  0.30593736536E+04  0.17136644605E+03 0.  0.
         24    2    5    5    0    0  0.14127812254E+03 -0.64306003838E+02  0.22234598306E+04  0.22305010114E+04  0.85243025797E+02 0.  0.
          5    1    5    5  501    0 -0.21783771493E+02 -0.64648360480E+02  0.82604710756E+03  0.82887264228E+03  0.47000000000E+01 0. -1.
        -13    1    6    6    0    0  0.11752580167E+03 -0.19319829139E+02  0.18116614447E+04  0.18155722955E+04  0.00000000000E+00 0.  1.
         14    1    6    6    0    0  0.23752320875E+02 -0.44986174699E+02  0.41179838587E+03  0.41492871588E+03  0.00000000000E+00 0. -1.
         -5    1    3    3    0  503  0.11652292230E+02  0.82281456435E+02  0.20163611735E+03  0.21814038555E+03  0.47000000000E+01 0.  1.
         13    1    4    4    0    0 -0.67578429140E+01 -0.12380882487E+02  0.48779530011E+01  0.14924781991E+02  0.00000000000E+00 0. -1.
        -14    1    4    4    0    0 -0.12438880036E+03  0.59053790371E+02  0.27863810029E+03  0.31080398123E+03  0.00000000000E+00 0.  1.
</event>
<event>
12    1  0.8494789E-002  0.1982940E+03  0.7818608E-02  0.1151437E+00
         21   -1    0    0  503  502  0.00000000000E+00  0.00000000000E+00  0.25940135997E+03  0.25940135997E+03  0.00000000000E+00 0.  1.
         21   -1    0    0  501  503 -0.00000000000E+00 -0.00000000000E+00 -0.29573445872E+03  0.29573445872E+03  0.00000000000E+00 0. -1.
          6    2    1    2  501    0 -0.27374238090E+02  0.93045236248E+02 -0.21252750467E+03  0.28987182513E+03  0.17161284878E+03 0.  0.
         24    2    3    3    0    0 -0.28931181824E+02  0.52494239398E+02 -0.35471559210E+02  0.10816407835E+03  0.82756135002E+02 0.  0.
         -6    2    1    2    0  502  0.27374238090E+02 -0.93045236248E+02  0.17619440591E+03  0.26526399357E+03  0.17295592707E+03 0.  0.
        -24    2    5    5    0    0  0.26341163245E+02 -0.76003947645E+02  0.29389768537E+02  0.11739525341E+03  0.80295890862E+02 0.  0.
          5    1    3    3  501    0  0.15569437346E+01  0.40550996850E+02 -0.17705594546E+03  0.18170774678E+03  0.47000000000E+01 0. -1.
        -13    1    4    4    0    0 -0.74350982002E+01 -0.21125566493E+02 -0.19782813723E+02  0.29881933734E+02  0.00000000000E+00 0.  1.
         14    1    4    4    0    0 -0.21496083624E+02  0.73619805890E+02 -0.15688745486E+02  0.78282144614E+02  0.00000000000E+00 0. -1.
         -5    1    5    5    0  502  0.10330748450E+01 -0.17041288603E+02  0.14680463738E+03  0.14786874016E+03  0.47000000000E+01 0.  1.
         13    1    6    6    0    0 -0.18643716561E+01  0.83843961169E+01  0.27056864797E+02  0.28387460481E+02  0.00000000000E+00 0. -1.
        -14    1    6    6    0    0  0.28205534901E+02 -0.84388343762E+02  0.23329037401E+01  0.89007792927E+02  0.00000000000E+00 0.  1.
</event>
<event>
12    1  0.8494789E-002  0.2121790E+03  0.7818608E-02  0.1139861E+00
         21   -1    0    0  503  502  0.00000000000E+00  0.00000000000E+00  0.19515668938E+03  0.19515668938E+03  0.00000000000E+00 0. -1.
         21   -1    0    0  501  503 -0.00000000000E+00 -0.00000000000E+00 -0.34771055616E+03  0.34771055616E+03  0.00000000000E+00 0. -1.
          6    2    1    2  501    0 -0.80196095048E+02 -0.94566444341E+02 -0.23377366627E+03  0.31567436981E+03  0.17212191801E+03 0.  0.
         24    2    3    3    0    0 -0.70484555219E+02 -0.76546248489E+01 -0.18954031330E+03  0.21755883644E+03  0.79872718397E+02 0.  0.
         -6    2    1    2    0  502  0.80196095048E+02  0.94566444341E+02  0.81219799489E+02  0.22719287572E+03  0.17217932772E+03 0.  0.
        -24    2    5    5    0    0  0.11663092199E+03  0.56730447211E+02  0.83307887638E+02  0.17441495036E+03  0.81604259448E+02 0.  0.
          5    1    3    3  501    0 -0.97115398298E+01 -0.86911819492E+02 -0.44233352968E+02  0.98115533368E+02  0.47000000000E+01 0. -1.
        -11    1    4    4    0    0 -0.14841983436E+02 -0.25398533314E+02 -0.14040040590E+02  0.32595900150E+02  0.00000000000E+00 0.  1.
         12    1    4    4    0    0 -0.55642571782E+02  0.17743908465E+02 -0.17550027271E+03  0.18496293629E+03  0.00000000000E+00 0. -1.
         -5    1    5    5    0  502 -0.36434826946E+02  0.37835997130E+02 -0.20880881490E+01  0.52777925362E+02  0.47000000000E+01 0.  1.
         13    1    6    6    0    0  0.22647010312E+02  0.54128415868E+02  0.24975372098E+02  0.63769441677E+02  0.00000000000E+00 0. -1.
        -14    1    6    6    0    0  0.93983911683E+02  0.26020313434E+01  0.58332515540E+02  0.11064550868E+03  0.00000000000E+00 0.  1.
</event>
<event>
12    1  0.8494789E-002  0.4208528E+03  0.7818608E-02  0.1036834E+00
         21   -1    0    0  501  502  0.00000000000E+00  0.00000000000E+00  0.38203235215E+03  0.38203235215E+03  0.00000000000E+00 0.  1.
         21   -1    0    0  502  503 -0.00000000000E+00 -0.00000000000E+00 -0.58748756618E+03  0.58748756618E+03  0.00000000000E+00 0.  1.
         -6    2    1    2    0  503 -0.76710747937E+02  0.37656606779E+03 -0.32591444833E+03  0.53229439354E+03  0.17155334886E+03 0.  0.
        -24    2    3    3    0    0 -0.39013976226E+02  0.32698210846E+03 -0.20726100484E+03  0.39820358375E+03  0.84673374709E+02 0.  0.
          6    2    1    2  501    0  0.76710747937E+02 -0.37656606779E+03  0.12045923430E+03  0.43722552479E+03  0.17020337876E+03 0.  0.
         24    2    5    5    0    0  0.10822391271E+03 -0.30054525249E+03  0.59258273086E+02  0.33456155074E+03  0.79875053881E+02 0.  0.
          5    1    5    5  501    0 -0.31513164775E+02 -0.76020815305E+02  0.61200961212E+02  0.10266397405E+03  0.47000000000E+01 0. -1.
        -13    1    6    6    0    0  0.86957466068E+02 -0.19392473676E+03  0.39134077994E+01  0.21256462357E+03  0.00000000000E+00 0.  1.
         14    1    6    6    0    0  0.21266446643E+02 -0.10662051572E+03  0.55344865286E+02  0.12199692717E+03  0.00000000000E+00 0. -1.
         -5    1    3    3    0  503 -0.37696771710E+02  0.49583959327E+02 -0.11865344348E+03  0.13409080979E+03  0.47000000000E+01 0.  1.
         13    1    4    4    0    0 -0.30166427021E+02  0.45862373526E+02 -0.13098902116E+02  0.56435377745E+02  0.00000000000E+00 0. -1.
        -14    1    4    4    0    0 -0.88475492053E+01  0.28111973494E+03 -0.19416210273E+03  0.34176820600E+03  0.00000000000E+00 0.  1.
</event>
<event>
12    1  0.8494789E-002  0.1781526E+03  0.7818608E-02  0.1170686E+00
         21   -1    0    0  501  502  0.00000000000E+00  0.00000000000E+00  0.81858587046E+02  0.81858587046E+02  0.00000000000E+00 0. -1.
         21   -1    0    0  502  503 -0.00000000000E+00 -0.00000000000E+00 -0.10209839605E+04  0.10209839605E+04  0.00000000000E+00 0. -1.
         -6    2    1    2    0  503 -0.23235329008E+01 -0.29795207685E+02 -0.90920213878E+03  0.92649169658E+03  0.17562796325E+03 0.  0.
        -24    2    3    3    0    0 -0.34304716930E+02  0.38797276796E+02 -0.40560253986E+03  0.41721537563E+03  0.82904807017E+02 0.  0.
          6    2    1    2  501    0  0.23235329008E+01  0.29795207685E+02 -0.29923234635E+02  0.17635085092E+03  0.17120475882E+03 0.  0.
         24    2    5    5    0    0  0.39115615541E+02  0.72915652376E+02 -0.16486893893E+02  0.11790724265E+03  0.82362469962E+02 0.  0.
          5    1    5    5  501    0 -0.36792082640E+02 -0.43120444691E+02 -0.13436340742E+02  0.58443608272E+02  0.47000000000E+01 0. -1.
        -11    1    6    6    0    0  0.41749717797E+02  0.72167699863E+02  0.16345286234E+02  0.84961074745E+02  0.00000000000E+00 0.  1.
         12    1    6    6    0    0 -0.26341022563E+01  0.74795251243E+00 -0.32832180127E+02  0.32946167904E+02  0.00000000000E+00 0. -1.
         -5    1    3    3    0  503  0.31981184029E+02 -0.68592484481E+02 -0.50359959891E+03  0.50927632095E+03  0.47000000000E+01 0.  1.
         13    1    4    4    0    0  0.67355547356E+01 -0.14745883605E+02 -0.20362150393E+03  0.20426582104E+03  0.00000000000E+00 0. -1.
        -14    1    4    4    0    0 -0.41040271666E+02  0.53543160401E+02 -0.20198103593E+03  0.21294955459E+03  0.00000000000E+00 0.  1.
</event>
<event>
12    1  0.8494789E-002  0.3195162E+03  0.7818608E-02  0.1076477E+00
         21   -1    0    0  501  502  0.00000000000E+00  0.00000000000E+00  0.69255942098E+02  0.69255942098E+02  0.00000000000E+00 0.  1.
         21   -1    0    0  502  503 -0.00000000000E+00 -0.00000000000E+00 -0.17381701459E+04  0.17381701459E+04  0.00000000000E+00 0. -1.
         -6    2    1    2    0  503  0.24290142684E+03  0.10097072582E+03 -0.11965597328E+04  0.12371547863E+04  0.17204819248E+03 0.  0.
        -24    2    3    3    0    0  0.11141475190E+03  0.10910961318E+02 -0.76246599465E+03  0.77470590227E+03  0.79262513106E+02 0.  0.
          6    2    1    2  501    0 -0.24290142684E+03 -0.10097072582E+03 -0.47235447100E+03  0.57027130167E+03  0.18136819070E+03 0.  0.
         24    2    5    5    0    0 -0.11883019210E+03 -0.12912461861E+03 -0.27020526096E+03  0.33137235632E+03  0.77478860318E+02 0.  0.
          5    1    5    5  501    0 -0.12407123474E+03  0.28153892785E+02 -0.20214921003E+03  0.23889894534E+03  0.47000000000E+01 0. -1.
        -11    1    6    6    0    0 -0.17794348349E+02 -0.28586341567E+02 -0.11858986838E+03  0.12327763236E+03  0.00000000000E+00 0.  1.
         12    1    6    6    0    0 -0.10103584375E+03 -0.10053827704E+03 -0.15161539258E+03  0.20809472396E+03  0.00000000000E+00 0. -1.
         -5    1    3    3    0  503  0.13148667495E+03  0.90059764503E+02 -0.43409373810E+03  0.46244888402E+03  0.47000000000E+01 0.  1.
         13    1    4    4    0    0  0.73477846069E+02 -0.30745564781E+02 -0.39563154695E+03  0.40356982613E+03  0.00000000000E+00 0. -1.
        -14    1    4    4    0    0  0.37936905830E+02  0.41656526100E+02 -0.36683444770E+03  0.37113607614E+03  0.00000000000E+00 0.  1.
</event>
<event>
12    1  0.8494789E-002  0.1780690E+03  0.7818608E-02  0.1170149E+00
         21   -1    0    0  501  502  0.00000000000E+00  0.00000000000E+00  0.22041392109E+03  0.22041392109E+03  0.00000000000E+00 0.  1.
         21   -1    0    0  502  503 -0.00000000000E+00 -0.00000000000E+00 -0.14358103833E+03  0.14358103833E+03  0.00000000000E+00 0.  1.
         -6    2    1    2    0  503 -0.45015757246E+02  0.14155858871E+01  0.21728556206E+02  0.17938982976E+03  0.17227930399E+03 0.  0.
        -24    2    3    3    0    0  0.24456439244E+02 -0.43323646426E+02 -0.21452472765E+01  0.93250213520E+02  0.78841261250E+02 0.  0.
          6    2    1    2  501    0  0.45015757246E+02 -0.14155858871E+01  0.55104326556E+02  0.18460512966E+03  0.17033538918E+03 0.  0.
         24    2    5    5    0    0  0.77604208453E+02  0.14292820312E+02  0.82533591679E+02  0.13896287114E+03  0.79197145895E+02 0.  0.
          5    1    5    5  501    0 -0.32588451207E+02 -0.15708406199E+02 -0.27429265123E+02  0.45642258517E+02  0.47000000000E+01 0. -1.
        -13    1    6    6    0    0  0.42635044078E+02  0.12954005425E+02  0.92417584071E+02  0.10259904037E+03  0.00000000000E+00 0.  1.
         14    1    6    6    0    0  0.34969164375E+02  0.13388148872E+01 -0.98839923920E+01  0.36363830766E+02  0.00000000000E+00 0. -1.
         -5    1    3    3    0  503 -0.69472196490E+02  0.44739232313E+02  0.23873803482E+02  0.86139616239E+02  0.47000000000E+01 0.  1.
         13    1    4    4    0    0 -0.11143172907E+02 -0.22556898332E+02 -0.33192884925E+02  0.41650349032E+02  0.00000000000E+00 0. -1.
        -14    1    4    4    0    0  0.35599612151E+02 -0.20766748094E+02  0.31047637648E+02  0.51599864488E+02  0.00000000000E+00 0.  1.
</event>
<event>
12    1  0.8494789E-002  0.2155557E+03  0.7818608E-02  0.1137375E+00
         21   -1    0    0  501  502  0.00000000000E+00  0.00000000000E+00  0.45553715410E+03  0.45553715410E+03  0.00000000000E+00 0. -1.
         21   -1    0    0  502  503 -0.00000000000E+00 -0.00000000000E+00 -0.10181679015E+03  0.10181679015E+03  0.00000000000E+00 0.  1.
         -6    2    1    2    0  503  0.75093601080E+02  0.10444014050E+03  0.18722184517E+03  0.28498284340E+03  0.17209418890E+03 0.  0.
        -24    2    3    3    0    0  0.20532552860E+02  0.43552568816E+02  0.18591625666E+03  0.20308046901E+03  0.66018258286E+02 0.  0.
          6    2    1    2  501    0 -0.75093601080E+02 -0.10444014050E+03  0.16649851878E+03  0.27237110086E+03  0.17296666718E+03 0.  0.
         24    2    5    5    0    0 -0.48626384217E+02 -0.83177382225E+01  0.20692491670E+02  0.95674985083E+02  0.79320952767E+02 0.  0.
          5    1    5    5  501    0 -0.26467216863E+02 -0.96122402281E+02  0.14580602711E+03  0.17669611578E+03  0.47000000000E+01 0. -1.
        -13    1    6    6    0    0 -0.45742808638E+02  0.21689394205E+02  0.35753180952E+02  0.61976804623E+02  0.00000000000E+00 0.  1.
         14    1    6    6    0    0 -0.28835755786E+01 -0.30007132428E+02 -0.15060689282E+02  0.33698180460E+02  0.00000000000E+00 0. -1.
         -5    1    3    3    0  503  0.54561048220E+02  0.60887571687E+02  0.13055885098E+01  0.81902374387E+02  0.47000000000E+01 0.  1.
         13    1    4    4    0    0  0.53616688602E+01 -0.16685936297E+02  0.62522808210E+02  0.64932807652E+02  0.00000000000E+00 0. -1.
        -14    1    4    4    0    0  0.15170884000E+02  0.60238505112E+02  0.12339344845E+03  0.13814766136E+03  0.00000000000E+00 0.  1.
</event>
<event>
12    1  0.8494789E-002  0.1940465E+03  0.7818608E-02  0.1155085E+00
         21   -1    0    0  501  502  0.00000000000E+00  0.00000000000E+00  0.10577773973E+03  0.10577773973E+03  0.00000000000E+00 0.  1.
         21   -1    0    0  502  503 -0.00000000000E+00 -0.00000000000E+00 -0.35969843647E+03  0.35969843647E+03  0.00000000000E+00 0. -1.
         -6    2    1    2    0  503  0.31096324924E+02  0.83283184358E+02 -0.15562802865E+03  0.24795494268E+03  0.17134322302E+03 0.  0.
        -24    2    3    3    0    0  0.67063850012E+01  0.89095329576E+01 -0.14857374300E+03  0.16922653523E+03  0.80244051121E+02 0.  0.
          6    2    1    2  501    0 -0.31096324924E+02 -0.83283184358E+02 -0.98292668091E+02  0.21752123353E+03  0.17248468980E+03 0.  0.
         24    2    5    5    0    0 -0.72815908474E+02 -0.66641069015E+02 -0.16586406399E+02  0.12416446166E+03  0.73474594623E+02 0.  0.
          5    1    5    5  501    0  0.41719583550E+02 -0.16642115343E+02 -0.81706261692E+02  0.93356771872E+02  0.47000000000E+01 0. -1.
        -13    1    6    6    0    0 -0.58979083342E+02 -0.14200892209E+02  0.13492494249E+02  0.62146963019E+02  0.00000000000E+00 0.  1.
         14    1    6    6    0    0 -0.13836825132E+02 -0.52440176805E+02 -0.30078900648E+02  0.62017498638E+02  0.00000000000E+00 0. -1.
         -5    1    3    3    0  503  0.24389939923E+02  0.74373651401E+02 -0.70542856516E+01  0.78728407441E+02  0.47000000000E+01 0.  1.
         13    1    4    4    0    0  0.36350447176E+02 -0.11857955948E+02 -0.42602490677E+02  0.57244548571E+02  0.00000000000E+00 0. -1.
        -14    1    4    4    0    0 -0.29644062175E+02  0.20767488906E+02 -0.10597125233E+03  0.11198198666E+03  0.00000000000E+00 0.  1.
</event>
<event>
12    1  0.8494789E-002  0.1840815E+03  0.7818608E-02  0.1163971E+00
         21   -1    0    0  503  502  0.00000000000E+00  0.00000000000E+00  0.12717268979E+03  0.12717268979E+03  0.00000000000E+00 0.  1.
         21   -1    0    0  501  503 -0.00000000000E+00 -0.00000000000E+00 -0.28828077056E+03  0.28828077056E+03  0.00000000000E+00 0.  1.
          6    2    1    2  501    0 -0.52839548812E+02 -0.42268949666E+02 -0.22863291077E+02  0.18524130553E+03  0.17091790185E+03 0.  0.
         24    2    3    3    0    0 -0.95457752092E+02 -0.54455836156E+01 -0.31310967405E+02  0.12809478531E+03  0.79284680290E+02 0.  0.
         -6    2    1    2    0  502  0.52839548812E+02  0.42268949666E+02 -0.13824478970E+03  0.23021215482E+03  0.17119384429E+03 0.  0.
        -24    2    5    5    0    0  0.52274860567E+02  0.78994351402E+02 -0.47988765086E+02  0.13265543293E+03  0.79509582513E+02 0.  0.
          5    1    3    3  501    0  0.42618203280E+02 -0.36823366051E+02  0.84476763281E+01  0.57146520222E+02  0.47000000000E+01 0. -1.
        -13    1    4    4    0    0 -0.35077744104E+02 -0.11585920144E+02  0.25559708070E+02  0.44921936218E+02  0.00000000000E+00 0.  1.
         14    1    4    4    0    0 -0.60380007988E+02  0.61403365286E+01 -0.56870675474E+02  0.83172849093E+02  0.00000000000E+00 0. -1.
         -5    1    5    5    0  502  0.56468824517E+00 -0.36725401736E+02 -0.90256024615E+02  0.97556721884E+02  0.47000000000E+01 0.  1.
         11    1    6    6    0    0 -0.60764552962E+00  0.63631582398E+02 -0.70239409286E+01  0.64020959519E+02  0.00000000000E+00 0. -1.
        -12    1    6    6    0    0  0.52882506097E+02  0.15362769004E+02 -0.40964824158E+02  0.68634473414E+02  0.00000000000E+00 0.  1.
</event>
<event>
12    1  0.8494789E-002  0.2305138E+03  0.7818608E-02  0.1126577E+00
         21   -1    0    0  501  502  0.00000000000E+00  0.00000000000E+00  0.12953362666E+04  0.12953362666E+04  0.00000000000E+00 0.  1.
         21   -1    0    0  502  503 -0.00000000000E+00 -0.00000000000E+00 -0.43875644131E+02  0.43875644131E+02  0.00000000000E+00 0.  1.
         -6    2    1    2    0  503  0.14342111856E+03  0.47895961600E+02  0.44832066228E+03  0.50411110844E+03  0.17399124414E+03 0.  0.
        -24    2    3    3    0    0  0.69282238495E+02  0.75188027286E+02  0.16477443702E+03  0.20972703576E+03  0.79884581842E+02 0.  0.
          6    2    1    2  501    0 -0.14342111856E+03 -0.47895961600E+02  0.80313996015E+03  0.83510080225E+03  0.17174374501E+03 0.  0.
         24    2    5    5    0    0 -0.17001605862E+03 -0.39688599382E+02  0.75679222204E+03  0.78083428901E+03  0.80542376737E+02 0.  0.
          5    1    5    5  501    0  0.26594940058E+02 -0.82073622175E+01  0.46347738106E+02  0.54266513237E+02  0.47000000000E+01 0. -1.
        -13    1    6    6    0    0 -0.87172905459E+02 -0.14039130858E+02  0.54284014042E+03  0.54997420912E+03  0.00000000000E+00 0.  1.
         14    1    6    6    0    0 -0.82843153158E+02 -0.25649468524E+02  0.21395208162E+03  0.23086007989E+03  0.00000000000E+00 0. -1.
         -5    1    3    3    0  503  0.74138880063E+02 -0.27292065686E+02  0.28354622526E+03  0.29438407268E+03  0.47000000000E+01 0.  1.
         13    1    4    4    0    0  0.41915873960E+02  0.51028599820E+02  0.15977176972E+03  0.17288110623E+03  0.00000000000E+00 0. -1.
        -14    1    4    4    0    0  0.27366364535E+02  0.24159427466E+02  0.50026672977E+01  0.36845929536E+02  0.00000000000E+00 0.  1.
</event>
<event>
12    1  0.8494789E-002  0.1766235E+03  0.7818608E-02  0.1172190E+00
         21   -1    0    0  503  502  0.00000000000E+00  0.00000000000E+00  0.20210001386E+03  0.20210001386E+03  0.00000000000E+00 0. -1.
         21   -1    0    0  501  503 -0.00000000000E+00 -0.00000000000E+00 -0.17555969159E+03  0.17555969159E+03  0.00000000000E+00 0. -1.
          6    2    1    2  501    0  0.40452253015E+02  0.82174591104E+01 -0.58020713586E+02  0.18183726438E+03  0.16731549869E+03 0.  0.
         24    2    3    3    0    0  0.83125933617E+02  0.36107585688E+02 -0.37259010167E+02  0.12659198851E+03  0.80147483630E+02 0.  0.
         -6    2    1    2    0  502 -0.40452253015E+02 -0.82174591104E+01  0.84561035854E+02  0.19582244108E+03  0.17173219918E+03 0.  0.
        -24    2    5    5    0    0  0.26186125715E+02  0.19004687220E+02  0.13646149753E+01  0.85706805412E+02  0.79353027690E+02 0.  0.
          5    1    3    3  501    0 -0.42673680602E+02 -0.27890126578E+02 -0.20761703419E+02  0.55245275866E+02  0.47000000000E+01 0. -1.
        -13    1    4    4    0    0  0.43973042006E+01  0.30021120906E+02 -0.36710801614E+02  0.47626536089E+02  0.00000000000E+00 0.  1.
         14    1    4    4    0    0  0.78728629417E+02  0.60864647817E+01 -0.54820855286E+00  0.78965452421E+02  0.00000000000E+00 0. -1.
         -5    1    5    5    0  502 -0.66638378731E+02 -0.27222146330E+02  0.83196420879E+02  0.11011563566E+03  0.47000000000E+01 0.  1.
         11    1    6    6    0    0 -0.24109986023E+02  0.21537311825E+02  0.11544898693E+02  0.34328296091E+02  0.00000000000E+00 0. -1.
        -12    1    6    6    0    0  0.50296111739E+02 -0.25326246058E+01 -0.10180283718E+02  0.51378509321E+02  0.00000000000E+00 0.  1.
</event>
<event>
12    1  0.8494789E-002  0.3134081E+03  0.7818608E-02  0.1079211E+00
         21   -1    0    0  501  502  0.00000000000E+00  0.00000000000E+00  0.30186177236E+03  0.30186177236E+03  0.00000000000E+00 0.  1.
         21   -1    0    0  502  503 -0.00000000000E+00 -0.00000000000E+00 -0.33017190908E+03  0.33017190908E+03  0.00000000000E+00 0.  1.
         -6    2    1    2    0  503 -0.12105502117E+02 -0.25733012758E+03  0.38155764789E+02  0.31165522753E+03  0.17119515389E+03 0.  0.
        -24    2    3    3    0    0 -0.51293649685E+02 -0.22567599563E+03 -0.53532518696E+01  0.24492577743E+03  0.79995535146E+02 0.  0.
          6    2    1    2  501    0  0.12105502117E+02  0.25733012758E+03 -0.66465901503E+02  0.32037845392E+03  0.17849173630E+03 0.  0.
         24    2    5    5    0    0 -0.57539265656E+02  0.17328444026E+03 -0.70141914787E+02  0.21106388805E+03  0.79308336909E+02 0.  0.
          5    1    5    5  501    0  0.69644767773E+02  0.84045687326E+02  0.36760132836E+01  0.10931456586E+03  0.47000000000E+01 0. -1.
        -13    1    6    6    0    0 -0.35300476392E+02  0.17087664914E+03 -0.51446605585E+02  0.18191125880E+03  0.00000000000E+00 0.  1.
         14    1    6    6    0    0 -0.22238789264E+02  0.24077911197E+01 -0.18695309201E+02  0.29152629249E+02  0.00000000000E+00 0. -1.
         -5    1    3    3    0  503  0.39188147568E+02 -0.31654131956E+02  0.43509016658E+02  0.66729450097E+02  0.47000000000E+01 0.  1.
         11    1    4    4    0    0 -0.54334971674E+02 -0.11571916895E+03  0.26185499126E+02  0.13049481052E+03  0.00000000000E+00 0. -1.
        -12    1    4    4    0    0  0.30413219889E+01 -0.10995682668E+03 -0.31538750996E+02  0.11443096690E+03  0.00000000000E+00 0.  1.
</event>
<event>
12    1  0.8494789E-002  0.4025750E+03  0.7818608E-02  0.1042963E+00
         21   -1    0    0  503  502  0.00000000000E+00  0.00000000000E+00  0.82935309119E+03  0.82935309119E+03  0.00000000000E+00 0. -1.
         21   -1    0    0  501  503 -0.00000000000E+00 -0.00000000000E+00 -0.21401387403E+03  0.21401387403E+03  0.00000000000E+00 0.  1.
          6    2    1    2  501    0  0.35299197149E+03  0.87988815030E+02  0.46341131743E+03  0.61385397671E+03  0.17239864296E+03 0.  0.
         24    2    3    3    0    0  0.10459828335E+03  0.53232697921E+02  0.12307488274E+03  0.19105569057E+03  0.87065085602E+02 0.  0.
         -6    2    1    2    0  502 -0.35299197149E+03 -0.87988815030E+02  0.15192789973E+03  0.42951298852E+03  0.17045221349E+03 0.  0.
        -24    2    5    5    0    0 -0.18462870420E+03 -0.11073809586E+03  0.10902067523E+03  0.25422226011E+03  0.79954772348E+02 0.  0.
          5    1    3    3  501    0  0.24839368814E+03  0.34756117109E+02  0.34033643469E+03  0.42279828614E+03  0.47000000000E+01 0. -1.
        -13    1    4    4    0    0  0.10309908402E+03  0.68543463736E+02  0.12453382034E+03  0.17560267639E+03  0.00000000000E+00 0.  1.
         14    1    4    4    0    0  0.14991993315E+01 -0.15310765814E+02 -0.14589375999E+01  0.15453014184E+02  0.00000000000E+00 0. -1.
         -5    1    5    5    0  502 -0.16836326729E+03  0.22749280829E+02  0.42907224507E+02  0.17529072840E+03  0.47000000000E+01 0.  1.
         13    1    6    6    0    0 -0.79892519632E+02 -0.27406379763E+02  0.81919085531E+02  0.11766333719E+03  0.00000000000E+00 0. -1.
        -14    1    6    6    0    0 -0.10473618457E+03 -0.83331716097E+02  0.27101589694E+02  0.13655892292E+03  0.00000000000E+00 0.  1.
</event>
<event>
12    1  0.8494789E-002  0.1745429E+03  0.7818608E-02  0.1173332E+00
         21   -1    0    0  501  502  0.00000000000E+00  0.00000000000E+00  0.37313442454E+03  0.37313442454E+03  0.00000000000E+00 0.  1.
         21   -1    0    0  502  503 -0.00000000000E+00 -0.00000000000E+00 -0.16474486052E+03  0.16474486052E+03  0.00000000000E+00 0.  1.
         -6    2    1    2    0  503  0.12869670843E+02 -0.19379005199E+02 -0.87191969101E+02  0.19461020118E+03  0.17242249464E+03 0.  0.
        -24    2    3    3    0    0  0.70738479255E+02 -0.62063599447E+01 -0.68065844164E+02  0.13207847943E+03  0.88143713536E+02 0.  0.
          6    2    1    2  501    0 -0.12869670843E+02  0.19379005199E+02  0.29558153312E+03  0.34326908388E+03  0.17298568425E+03 0.  0.
         24    2    5    5    0    0 -0.72446588976E+02  0.14458791880E+02  0.23005851493E+03  0.25444918978E+03  0.79749012376E+02 0.  0.
          5    1    5    5  501    0  0.59576918133E+02  0.49202133189E+01  0.65523018194E+02  0.88819894093E+02  0.47000000000E+01 0. -1.
        -13    1    6    6    0    0 -0.67619687128E+02  0.42635701879E+02  0.17576077660E+03  0.19308566946E+03  0.00000000000E+00 0.  1.
         14    1    6    6    0    0 -0.48269018481E+01 -0.28176909999E+02  0.54297738330E+02  0.61363520322E+02  0.00000000000E+00 0. -1.
         -5    1    3    3    0  503 -0.57868808412E+02 -0.13172645254E+02 -0.19126124937E+02  0.62531721751E+02  0.47000000000E+01 0.  1.
         11    1    4    4    0    0  0.75579314943E+02 -0.41564092354E+01 -0.85310726232E+02  0.11405011440E+03  0.00000000000E+00 0. -1.
        -12    1    4    4    0    0 -0.48408356880E+01 -0.20499507093E+01  0.17244882068E+02  0.18028365029E+02  0.00000000000E+00 0.  1.
</event>
<event>
12    1  0.8494789E-002  0.2321998E+03  0.7818608E-02  0.1125115E+00
         21   -1    0    0  503  502  0.00000000000E+00  0.00000000000E+00  0.51939168230E+03  0.51939168230E+03  0.00000000000E+00 0.  1.
         21   -1    0    0  501  503 -0.00000000000E+00 -0.00000000000E+00 -0.11512805517E+03  0.11512805517E+03  0.00000000000E+00 0.  1.
          6    2    1    2  501    0 -0.51439261924E+02  0.14612874133E+03  0.10245866925E+03  0.25372719688E+03  0.17285862670E+03 0.  0.
         24    2    3    3    0    0 -0.48170992838E+02  0.35394244151E+02 -0.55053953515E+01  0.98965639337E+02  0.78680946368E+02 0.  0.
         -6    2    1    2    0  502  0.51439261924E+02 -0.14612874133E+03  0.30180495788E+03  0.38079254059E+03  0.17296566034E+03 0.  0.
        -24    2    5    5    0    0 -0.32931222189E+02 -0.49503882150E+02  0.17215127542E+03  0.19834553629E+03  0.78548013316E+02 0.  0.
          5    1    3    3  501    0 -0.32682690865E+01  0.11073449718E+03  0.10796406460E+03  0.15476155755E+03  0.47000000000E+01 0. -1.
        -13    1    4    4    0    0 -0.46048058933E+01  0.50984190567E+02 -0.11026649527E+02  0.52365818287E+02  0.00000000000E+00 0.  1.
         14    1    4    4    0    0 -0.43566186944E+02 -0.15589946417E+02  0.55212541756E+01  0.46599821049E+02  0.00000000000E+00 0. -1.
         -5    1    5    5    0  502  0.84370484113E+02 -0.96624859183E+02  0.12965368247E+03  0.18244700430E+03  0.47000000000E+01 0.  1.
         13    1    6    6    0    0 -0.14742186110E+02  0.14743364610E+02  0.10286026540E+02  0.23248681539E+02  0.00000000000E+00 0. -1.
        -14    1    6    6    0    0 -0.18189036079E+02 -0.64247246760E+02  0.16186524888E+03  0.17509685475E+03  0.00000000000E+00 0.  1.
</event>
<event>
12    1  0.8494789E-002  0.2119086E+03  0.7818608E-02  0.1140675E+00
         21   -1    0    0  503  502  0.00000000000E+00  0.00000000000E+00  0.81094160105E+03  0.81094160105E+03  0.00000000000E+00 0. -1.
         21   -1    0    0  501  503 -0.00000000000E+00 -0.00000000000E+00 -0.92394077880E+02  0.92394077880E+02  0.00000000000E+00 0. -1.
          6    2    1    2  501    0  0.12049490242E+03  0.39209485752E+01  0.71841262932E+02  0.22375529247E+03  0.17427239743E+03 0.  0.
         24    2    3    3    0    0  0.70063128865E+01  0.48575101837E+01 -0.10333485558E+02  0.83557873131E+02  0.82476987172E+02 0.  0.
         -6    2    1    2    0  502 -0.12049490242E+03 -0.39209485752E+01  0.64670626024E+03  0.67958038646E+03  0.17048788602E+03 0.  0.
        -24    2    5    5    0    0 -0.60384956494E+02 -0.60610058776E+02  0.28497489776E+03  0.30850286166E+03  0.81507061652E+02 0.  0.
          5    1    3    3  501    0  0.11348858953E+03 -0.93656160854E+00  0.82174748490E+02  0.14019741934E+03  0.47000000000E+01 0. -1.
        -11    1    4    4    0    0  0.37908350291E+02  0.24837656566E+02 -0.11441636652E+02  0.46742520843E+02  0.00000000000E+00 0.  1.
         12    1    4    4    0    0 -0.30902037405E+02 -0.19980146382E+02  0.11081510942E+01  0.36815352288E+02  0.00000000000E+00 0. -1.
         -5    1    5    5    0  502 -0.60109945923E+02  0.56689110201E+02  0.36173136248E+03  0.37107752480E+03  0.47000000000E+01 0.  1.
         11    1    6    6    0    0 -0.43656796664E+02  0.44818622081E+00  0.18567316797E+03  0.19073710197E+03  0.00000000000E+00 0. -1.
        -12    1    6    6    0    0 -0.16728159830E+02 -0.61058244997E+02  0.99301729797E+02  0.11776575968E+03  0.00000000000E+00 0.  1.
</event>
<event>
12    1  0.8494789E-002  0.1876202E+03  0.7818608E-02  0.1160722E+00
         21   -1    0    0  501  502  0.00000000000E+00  0.00000000000E+00  0.39161590056E+03  0.39161590056E+03  0.00000000000E+00 0. -1.
         21   -1    0    0  502  503 -0.00000000000E+00 -0.00000000000E+00 -0.20557029487E+03  0.20557029487E+03  0.00000000000E+00 0. -1.
         -6    2    1    2    0  503 -0.69059099364E+02 -0.28709230180E+02 -0.13121107511E+03  0.22860358674E+03  0.17160965746E+03 0.  0.
        -24    2    3    3    0    0  0.17716413359E+02 -0.60872145584E+02 -0.10563732399E+03  0.13247580989E+03  0.48696063240E+02 0.  0.
          6    2    1    2  501    0  0.69059099364E+02  0.28709230180E+02  0.31725668080E+03  0.36858260869E+03  0.17206963362E+03 0.  0.
         24    2    5    5    0    0  0.10688332922E+03  0.13765711948E+01  0.19489237763E+03  0.23753735199E+03  0.83755678748E+02 0.  0.
          5    1    5    5  501    0 -0.37824229854E+02  0.27332658985E+02  0.12236430317E+03  0.13104525670E+03  0.47000000000E+01 0. -1.
        -13    1    6    6    0    0  0.32546001282E+01  0.31926563603E+01 -0.82820037023E+01  0.94539442538E+01  0.00000000000E+00 0.  1.
         14    1    6    6    0    0  0.10362872909E+03 -0.18160851655E+01  0.20317438133E+03  0.22808340774E+03  0.00000000000E+00 0. -1.
         -5    1    3    3    0  503 -0.86775512723E+02  0.32162915404E+02 -0.25573751118E+02  0.96127776849E+02  0.47000000000E+01 0.  1.
         11    1    4    4    0    0  0.18793293146E+02 -0.50633135898E+02 -0.10899872117E+03  0.12164548300E+03  0.00000000000E+00 0. -1.
        -12    1    4    4    0    0 -0.10768797875E+01 -0.10239009686E+02  0.33613971798E+01  0.10830326884E+02  0.00000000000E+00 0.  1.
</event>
<event>
12    1  0.8494789E-002  0.2329033E+03  0.7818608E-02  0.1124674E+00
         21   -1    0    0  501  502  0.00000000000E+00  0.00000000000E+00  0.65154442653E+03  0.65154442653E+03  0.00000000000E+00 0. -1.
         21   -1    0    0  502  503 -0.00000000000E+00 -0.00000000000E+00 -0.90936293578E+02  0.90936293578E+02  0.00000000000E+00 0. -1.
         -6    2    1    2    0  503  0.15219578427E+03  0.37418030352E+02  0.17171346022E+03  0.28936047104E+03  0.17227972613E+03 0.  0.
        -24    2    3    3    0    0  0.13127766293E+03  0.66447384730E+01  0.49671034662E+02  0.16168507431E+03  0.79980461604E+02 0.  0.
          6    2    1    2  501    0 -0.15219578427E+03 -0.37418030352E+02  0.38889467273E+03  0.45312024907E+03  0.17179996475E+03 0.  0.
         24    2    5    5    0    0 -0.10805271431E+03 -0.50199623471E+02  0.15040564415E+03  0.21019827290E+03  0.85825782098E+02 0.  0.
          5    1    5    5  501    0 -0.44143069957E+02  0.12781593119E+02  0.23848902859E+03  0.24292197617E+03  0.47000000000E+01 0. -1.
        -11    1    6    6    0    0 -0.33002623226E+01  0.19828108111E+02  0.13968074264E+02  0.24477595905E+02  0.00000000000E+00 0.  1.
         12    1    6    6    0    0 -0.10475245199E+03 -0.70027731582E+02  0.13643756988E+03  0.18572067700E+03  0.00000000000E+00 0. -1.
         -5    1    3    3    0  503  0.20918121341E+02  0.30773291879E+02  0.12204242555E+03  0.12767539672E+03  0.47000000000E+01 0.  1.
         13    1    4    4    0    0  0.62604260732E+02  0.16240767947E+02 -0.15518903152E+02  0.66512347428E+02  0.00000000000E+00 0. -1.
        -14    1    4    4    0    0  0.68673402197E+02 -0.95960294745E+01  0.65189937814E+02  0.95172726887E+02  0.00000000000E+00 0.  1.
</event>
<event>
12    1  0.8494789E-002  0.1905482E+03  0.7818608E-02  0.1158031E+00
         21   -1    0    0  503  502  0.00000000000E+00  0.00000000000E+00  0.40118912569E+02  0.40118912569E+02  0.00000000000E+00 0. -1.
         21   -1    0    0  501  503 -0.00000000000E+00 -0.00000000000E+00 -0.95725710929E+03  0.95725710929E+03  0.00000000000E+00 0. -1.
          6    2    1    2  501    0 -0.74259477252E+02 -0.33767854538E+02 -0.34029637103E+03  0.38987695591E+03  0.17189439389E+03 0.  0.
         24    2    3    3    0    0 -0.29079533509E+02 -0.51137972397E+02 -0.14897573460E+03  0.19247223399E+03  0.10672900200E+03 0.  0.
         -6    2    1    2    0  502  0.74259477252E+02  0.33767854538E+02 -0.57684182569E+03  0.60749906595E+03  0.17220303511E+03 0.  0.
        -24    2    5    5    0    0  0.79707823601E+02 -0.24982069677E+02 -0.48090621147E+03  0.49477386846E+03  0.80950328795E+02 0.  0.
          5    1    3    3  501    0 -0.45179943743E+02  0.17370117859E+02 -0.19132063644E+03  0.19740472192E+03  0.47000000000E+01 0. -1.
        -11    1    4    4    0    0  0.26947337999E+02 -0.30984655706E+02 -0.11884913629E+03  0.12574309170E+03  0.00000000000E+00 0.  1.
         12    1    4    4    0    0 -0.56026871508E+02 -0.20153316691E+02 -0.30126598310E+02  0.66729142287E+02  0.00000000000E+00 0. -1.
         -5    1    5    5    0  502 -0.54483463491E+01  0.58749924214E+02 -0.95935614222E+02  0.11272519749E+03  0.47000000000E+01 0.  1.
         11    1    6    6    0    0  0.67005061041E+02 -0.28530156795E+02 -0.47459965613E+03  0.48015464347E+03  0.00000000000E+00 0. -1.
        -12    1    6    6    0    0  0.12702762560E+02  0.35480871185E+01 -0.63065553373E+01  0.14619224983E+02  0.00000000000E+00 0.  1.
</event>
<event>
12    1  0.8494789E-002  0.2065885E+03  0.7818608E-02  0.1144377E+00
         21   -1    0    0  503  502  0.00000000000E+00  0.00000000000E+00  0.30510995455E+03  0.30510995455E+03  0.00000000000E+00 0. -1.
         21   -1    0    0  501  503 -0.00000000000E+00 -0.00000000000E+00 -0.14362568583E+03  0.14362568583E+03  0.00000000000E+00 0. -1.
          6    2    1    2  501    0 -0.90128787594E+02 -0.69276621239E+02  0.43159934191E+02  0.21066115066E+03  0.17202584653E+03 0.  0.
         24    2    3    3    0    0 -0.12425256277E+03 -0.24377060660E+02  0.30324255787E+02  0.15263316420E+03  0.79651628243E+02 0.  0.
         -6    2    1    2    0  502  0.90128787594E+02  0.69276621239E+02  0.11832433453E+03  0.23807448973E+03  0.17250033598E+03 0.  0.
        -24    2    5    5    0    0  0.90548591543E+02  0.34619778368E+02  0.14633316487E+03  0.19326536599E+03  0.80873543660E+02 0.  0.
          5    1    3    3  501    0  0.34123775178E+02 -0.44899560579E+02  0.12835678404E+02  0.58027986461E+02  0.47000000000E+01 0. -1.
        -13    1    4    4    0    0 -0.58773466420E+02 -0.55014098445E+01  0.54484595292E+02  0.80331544174E+02  0.00000000000E+00 0.  1.
         14    1    4    4    0    0 -0.65479096353E+02 -0.18875650815E+02 -0.24160339505E+02  0.72301620023E+02  0.00000000000E+00 0. -1.
         -5    1    5    5    0  502 -0.41980394885E+00  0.34656842871E+02 -0.28008830344E+02  0.44809123741E+02  0.47000000000E+01 0.  1.
         13    1    6    6    0    0  0.87992681769E+02 -0.34605679185E+01  0.10363831977E+03  0.13599848859E+03  0.00000000000E+00 0. -1.
        -14    1    6    6    0    0  0.25559097739E+01  0.38080346286E+02  0.42694845103E+02  0.57266877394E+02  0.00000000000E+00 0.  1.
</event>
<event>
12    1  0.8494789E-002  0.1811180E+03  0.7818608E-02  0.1168234E+00
         21   -1    0    0  503  502  0.00000000000E+00  0.00000000000E+00  0.57964290486E+02  0.57964290486E+02  0.00000000000E+00 0. -1.
         21   -1    0    0  501  503 -0.00000000000E+00 -0.00000000000E+00 -0.67060954817E+03  0.67060954817E+03  0.00000000000E+00 0. -1.
          6    2    1    2  501    0 -0.25254578033E+02 -0.32247167790E+02 -0.15415479418E+03  0.23783911303E+03  0.17642581890E+03 0.  0.
         24    2    3    3    0    0  0.17239896427E+02 -0.70093935146E+01 -0.16716035152E+03  0.18651699176E+03  0.80620465577E+02 0.  0.
         -6    2    1    2    0  502  0.25254578033E+02  0.32247167790E+02 -0.45849046350E+03  0.49073472562E+03  0.17008642589E+03 0.  0.
        -24    2    5    5    0    0  0.75947577251E+02  0.85404844173E+01 -0.36753640840E+03  0.38383983732E+03  0.80056447899E+02 0.  0.
          5    1    3    3  501    0 -0.42494474460E+02 -0.25237774276E+02  0.13005557335E+02  0.51322121269E+02  0.47000000000E+01 0. -1.
        -11    1    4    4    0    0  0.40988059018E+02 -0.14062511776E+02 -0.47405622147E+02  0.64226694067E+02  0.00000000000E+00 0.  1.
         12    1    4    4    0    0 -0.23748162591E+02  0.70531182612E+01 -0.11975472937E+03  0.12229029770E+03  0.00000000000E+00 0. -1.
         -5    1    5    5    0  502 -0.50692999218E+02  0.23706683373E+02 -0.90954055099E+02  0.10689488830E+03  0.47000000000E+01 0.  1.
         11    1    6    6    0    0  0.33141887357E+02  0.43028924942E+02 -0.21307805648E+03  0.21989118044E+03  0.00000000000E+00 0. -1.
        -12    1    6    6    0    0  0.42805689894E+02 -0.34488440524E+02 -0.15445835192E+03  0.16394865688E+03  0.00000000000E+00 0.  1.
</event>
<event>
12    1  0.8494789E-002  0.2152053E+03  0.7818608E-02  0.1137621E+00
         21   -1    0    0  501  502  0.00000000000E+00  0.00000000000E+00  0.90907268686E+02  0.90907268686E+02  0.00000000000E+00 0.  1.
         21   -1    0    0  502  503 -0.00000000000E+00 -0.00000000000E+00 -0.10624079717E+04  0.10624079717E+04  0.00000000000E+00 0. -1.
         -6    2    1    2    0  503  0.72015398270E+02 -0.10668071222E+03 -0.90260741564E+03  0.92790812301E+03  0.17247129045E+03 0.  0.
        -24    2    3    3    0    0  0.27956301427E+02 -0.12507833998E+03 -0.49708932612E+03  0.51956183901E+03  0.80128400065E+02 0.  0.
          6    2    1    2  501    0 -0.72015398270E+02  0.10668071222E+03 -0.68893287378E+02  0.22540711738E+03  0.17174135080E+03 0.  0.
         24    2    5    5    0    0 -0.10606567306E+03  0.11840557564E+03 -0.58045394043E+02  0.18750381376E+03  0.80737878728E+02 0.  0.
          5    1    5    5  501    0  0.34050274793E+02 -0.11724863418E+02 -0.10847893335E+02  0.37903303622E+02  0.47000000000E+01 0. -1.
        -13    1    6    6    0    0 -0.26385195233E+02  0.60443621626E+02  0.11438397331E+02  0.66936140135E+02  0.00000000000E+00 0.  1.
         14    1    6    6    0    0 -0.79680477830E+02  0.57961954009E+02 -0.69483791374E+02  0.12056767363E+03  0.00000000000E+00 0. -1.
         -5    1    3    3    0  503  0.44059096843E+02  0.18397627764E+02 -0.40551808952E+03  0.40834628399E+03  0.47000000000E+01 0.  1.
         11    1    4    4    0    0  0.40679637445E+02 -0.65614011505E+02 -0.37846937880E+03  0.38626299602E+03  0.00000000000E+00 0. -1.
        -12    1    4    4    0    0 -0.12723336018E+02 -0.59464328476E+02 -0.11861994732E+03  0.13329884299E+03  0.00000000000E+00 0.  1.
</event>
<event>
12    1  0.8494789E-002  0.2219061E+03  0.7818608E-02  0.1133468E+00
         21   -1    0    0  501  502  0.00000000000E+00  0.00000000000E+00  0.43601983219E+03  0.43601983219E+03  0.00000000000E+00 0.  1.
         21   -1    0    0  502  503 -0.00000000000E+00 -0.00000000000E+00 -0.24672222159E+03  0.24672222159E+03  0.00000000000E+00 0. -1.
         -6    2    1    2    0  503  0.12876513960E+03 -0.42862191705E+02 -0.15873342729E+03  0.27283445311E+03  0.17556967053E+03 0.  0.
        -24    2    3    3    0    0 -0.75257121329E+01 -0.12911942434E+02 -0.79530550950E+02  0.11231218264E+03  0.77881725929E+02 0.  0.
          6    2    1    2  501    0 -0.12876513960E+03  0.42862191705E+02  0.34803103789E+03  0.40990760066E+03  0.16876317455E+03 0.  0.
         24    2    5    5    0    0 -0.54692378647E+02 -0.61169670583E+01  0.28086506106E+03  0.29846662815E+03  0.84666829569E+02 0.  0.
          5    1    5    5  501    0 -0.74072760957E+02  0.48979158763E+02  0.67165976834E+02  0.11144097251E+03  0.47000000000E+01 0. -1.
        -13    1    6    6    0    0 -0.69653205276E+02 -0.27212894591E+02  0.21890843831E+03  0.23132880279E+03  0.00000000000E+00 0.  1.
         14    1    6    6    0    0  0.14960826629E+02  0.21095927533E+02  0.61956622747E+02  0.67137825360E+02  0.00000000000E+00 0. -1.
         -5    1    3    3    0  503  0.13629085174E+03 -0.29950249271E+02 -0.79202876341E+02  0.16052227048E+03  0.47000000000E+01 0.  1.
         11    1    4    4    0    0  0.24355829542E+02  0.21071805610E+02 -0.26407887982E+02  0.41648577071E+02  0.00000000000E+00 0. -1.
        -12    1    4    4    0    0 -0.31881541675E+02 -0.33983748045E+02 -0.53122662968E+02  0.70663605566E+02  0.00000000000E+00 0.  1.
</event>
<event>
12    1  0.8494789E-002  0.1868264E+03  0.7818608E-02  0.1161503E+00
         21   -1    0    0  503  502  0.00000000000E+00  0.00000000000E+00  0.18100858501E+03  0.18100858501E+03  0.00000000000E+00 0. -1.
         21   -1    0    0  501  503 -0.00000000000E+00 -0.00000000000E+00 -0.19900542764E+03  0.19900542764E+03  0.00000000000E+00 0.  1.
          6    2    1    2  501    0  0.63958868091E+02 -0.35108783199E+02 -0.44228586103E+02  0.19199031960E+03  0.17199055650E+03 0.  0.
         24    2    3    3    0    0  0.11823810158E+02  0.42933250696E+02 -0.17645365770E+02  0.94330804324E+02  0.81264230812E+02 0.  0.
         -6    2    1    2    0  502 -0.63958868091E+02  0.35108783199E+02  0.26231743476E+02  0.18802369306E+03  0.17129343630E+03 0.  0.
        -24    2    5    5    0    0  0.64229991820E+01  0.65767653794E+02 -0.62170178526E+01  0.10454563786E+03  0.80774376390E+02 0.  0.
          5    1    3    3  501    0  0.52135057933E+02 -0.78042033895E+02 -0.26583220333E+02  0.97659515273E+02  0.47000000000E+01 0. -1.
        -11    1    4    4    0    0  0.25445270118E+02  0.52707172814E+02 -0.36596996967E+02  0.69027878603E+02  0.00000000000E+00 0.  1.
         12    1    4    4    0    0 -0.13621459960E+02 -0.97739221184E+01  0.18951631198E+02  0.25302925721E+02  0.00000000000E+00 0. -1.
         -5    1    5    5    0  502 -0.70381867273E+02 -0.30658870595E+02  0.32448761328E+02  0.83478055192E+02  0.47000000000E+01 0.  1.
         11    1    6    6    0    0 -0.19822157798E+01 -0.79766609600E+01  0.23271605316E+02  0.24680435844E+02  0.00000000000E+00 0. -1.
        -12    1    6    6    0    0  0.84052149618E+01  0.73744314754E+02 -0.29488623169E+02  0.79865202019E+02  0.00000000000E+00 0.  1.
</event>
<event>
12    1  0.8494789E-002  0.1875747E+03  0.7818608E-02  0.1160976E+00
         21   -1    0    0  501  502  0.00000000000E+00  0.00000000000E+00  0.12932918111E+03  0.12932918111E+03  0.00000000000E+00 0.  1.
         21   -1    0    0  502  503 -0.00000000000E+00 -0.00000000000E+00 -0.56600548688E+03  0.56600548688E+03  0.00000000000E+00 0.  1.
         -6    2    1    2    0  503  0.22459486833E+02 -0.71589605622E+02 -0.47008866035E+03  0.50613004109E+03  0.17191500727E+03 0.  0.
        -24    2    3    3    0    0  0.22432108397E+02  0.20205392444E+02 -0.31244452397E+03  0.32364692912E+03  0.78830811229E+02 0.  0.
          6    2    1    2  501    0 -0.22459486833E+02  0.71589605622E+02  0.33412354582E+02  0.18920462690E+03  0.17044795458E+03 0.  0.
         24    2    5    5    0    0 -0.65469637066E+02  0.54689122258E+01  0.33547420103E+02  0.11018610147E+03  0.81849649870E+02 0.  0.
          5    1    5    5  501    0  0.43010150233E+02  0.66120693397E+02 -0.13506552185E+00  0.79018525429E+02  0.47000000000E+01 0. -1.
        -13    1    6    6    0    0 -0.55741702382E+02  0.10337265421E+02 -0.16440822843E+02  0.59027934883E+02  0.00000000000E+00 0.  1.
         14    1    6    6    0    0 -0.97279346844E+01 -0.48683531957E+01  0.49988242946E+02  0.51158166590E+02  0.00000000000E+00 0. -1.
         -5    1    3    3    0  503  0.27378436291E-01 -0.91794998066E+02 -0.15764413638E+03  0.18248311197E+03  0.47000000000E+01 0.  1.
         13    1    4    4    0    0 -0.90789827953E+01  0.43721485403E+02 -0.14955168762E+03  0.15607595422E+03  0.00000000000E+00 0. -1.
        -14    1    4    4    0    0  0.31511091192E+02 -0.23516092959E+02 -0.16289283635E+03  0.16757097490E+03  0.00000000000E+00 0.  1.
</event>
<event>
12    1  0.8494789E-002  0.1866566E+03  0.7818608E-02  0.1162059E+00
         21   -1    0    0  501  502  0.00000000000E+00  0.00000000000E+00  0.13905772141E+03  0.13905772141E+03  0.00000000000E+00 0.  1.
         21   -1    0    0  502  503 -0.00000000000E+00 -0.00000000000E+00 -0.16123603950E+04  0.16123603950E+04  0.00000000000E+00 0.  1.
         -6    2    1    2    0  503  0.38695285140E+02 -0.56000120369E+02 -0.15416605754E+04  0.15526381330E+04  0.17127318375E+03 0.  0.
        -24    2    3    3    0    0  0.58395083237E+02 -0.42430691207E+02 -0.53776925675E+03  0.54845085899E+03  0.79951372220E+02 0.  0.
          6    2    1    2  501    0 -0.38695285140E+02  0.56000120369E+02  0.68357901882E+02  0.19877998343E+03  0.17380259057E+03 0.  0.
         24    2    5    5    0    0 -0.10828167227E+02  0.39321381637E+01  0.10270422679E+03  0.13030070871E+03  0.79356194295E+02 0.  0.
          5    1    5    5  501    0 -0.27867117912E+02  0.52067982206E+02 -0.34346324908E+02  0.68479274722E+02  0.47000000000E+01 0. -1.
        -11    1    6    6    0    0 -0.34042196158E+02 -0.23653543488E+02  0.38025626950E+02  0.56252195902E+02  0.00000000000E+00 0.  1.
         12    1    6    6    0    0  0.23214028931E+02  0.27585681652E+02  0.64678599840E+02  0.74048512805E+02  0.00000000000E+00 0. -1.
         -5    1    3    3    0  503 -0.19699798097E+02 -0.13569429163E+02 -0.10038913187E+04  0.10041872740E+04  0.47000000000E+01 0.  1.
         13    1    4    4    0    0  0.14859865836E+02  0.11618538897E+02 -0.26700567388E+02  0.32691380478E+02  0.00000000000E+00 0. -1.
        -14    1    4    4    0    0  0.43535217401E+02 -0.54049230104E+02 -0.51106868936E+03  0.51575947851E+03  0.00000000000E+00 0.  1.
</event>
<event>
12    1  0.8494789E-002  0.1767863E+03  0.7818608E-02  0.1171298E+00
         21   -1    0    0  503  502  0.00000000000E+00  0.00000000000E+00  0.23548926222E+04  0.23548926222E+04  0.00000000000E+00 0. -1.
         21   -1    0    0  501  503 -0.00000000000E+00 -0.00000000000E+00 -0.16672017405E+02  0.16672017405E+02  0.00000000000E+00 0. -1.
          6    2    1    2  501    0 -0.36799126435E+02 -0.65300702723E-01  0.62175508065E+03  0.64601913457E+03  0.17148516540E+03 0.  0.
         24    2    3    3    0    0 -0.51018521497E+01 -0.64906094794E+02  0.34470116591E+03  0.35968016159E+03  0.79448693051E+02 0.  0.
         -6    2    1    2    0  502  0.36799126435E+02  0.65300702723E-01  0.17164655241E+04  0.17255455050E+04  0.17291389296E+03 0.  0.
        -24    2    5    5    0    0  0.37486314388E+02 -0.66350107243E+02  0.11509790422E+04  0.11561523809E+04  0.78281617157E+02 0.  0.
          5    1    3    3  501    0 -0.31697274285E+02  0.64840794091E+02  0.27705391474E+03  0.28633897298E+03  0.47000000000E+01 0. -1.
        -11    1    4    4    0    0  0.32240812088E+02 -0.11498883541E+02  0.16536672398E+03  0.16887228217E+03  0.00000000000E+00 0.  1.
         12    1    4    4    0    0 -0.37342664238E+02 -0.53407211253E+02  0.17933444193E+03  0.19080787942E+03  0.00000000000E+00 0. -1.
         -5    1    5    5    0  502 -0.68718795307E+00  0.66415407946E+02  0.56548648190E+03  0.56939312417E+03  0.47000000000E+01 0.  1.
         11    1    6    6    0    0  0.15422702246E+02  0.88391063142E+01  0.52318846449E+03  0.52349036182E+03  0.00000000000E+00 0. -1.
        -12    1    6    6    0    0  0.22063612142E+02 -0.75189213557E+02  0.62779057775E+03  0.63266201904E+03  0.00000000000E+00 0.  1.
</event>
<event>
12    1  0.8494789E-002  0.1733110E+03  0.7818608E-02  0.1174677E+00
         21   -1    0    0  501  502  0.00000000000E+00  0.00000000000E+00  0.10628218666E+03  0.10628218666E+03  0.00000000000E+00 0. -1.
         21   -1    0    0  502  503 -0.00000000000E+00 -0.00000000000E+00 -0.45433659875E+03  0.45433659875E+03  0.00000000000E+00 0. -1.
         -6    2    1    2    0  503  0.52319685458E+01  0.19150780035E+02 -0.34682984143E+03  0.38730350622E+03  0.17122774643E+03 0.  0.
        -24    2    3    3    0    0  0.37828723147E+02  0.13334694804E+02 -0.34169221197E+03  0.35346771903E+03  0.81098916728E+02 0.  0.
          6    2    1    2  501    0 -0.52319685458E+01 -0.19150780035E+02 -0.12245706611E+01  0.17331527920E+03  0.17217015002E+03 0.  0.
         24    2    5    5    0    0 -0.42193158211E+01  0.52300999390E+02 -0.23679820174E+02  0.98263893604E+02  0.79635806894E+02 0.  0.
          5    1    5    5  501    0 -0.10126527247E+01 -0.71451779425E+02  0.22455249513E+02  0.75051385591E+02  0.47000000000E+01 0. -1.
        -13    1    6    6    0    0  0.31752213862E+02  0.13616436359E+02 -0.29087747898E+02  0.45163121040E+02  0.00000000000E+00 0.  1.
         14    1    6    6    0    0 -0.35971529684E+02  0.38684563031E+02  0.54079277238E+01  0.53100772564E+02  0.00000000000E+00 0. -1.
         -5    1    3    3    0  503 -0.32596754601E+02  0.58160852316E+01 -0.51376294596E+01  0.33835787185E+02  0.47000000000E+01 0.  1.
         13    1    4    4    0    0 -0.16178830305E+02  0.92195241893E+01 -0.21339121480E+03  0.21420215856E+03  0.00000000000E+00 0. -1.
        -14    1    4    4    0    0  0.54007553452E+02  0.41151706143E+01 -0.12830099717E+03  0.13926556047E+03  0.00000000000E+00 0.  1.
</event>
<event>
12    1  0.8494789E-002  0.1882274E+03  0.7818608E-02  0.1160172E+00
         21   -1    0    0  503  502  0.00000000000E+00  0.00000000000E+00  0.12113810258E+04  0.12113810258E+04  0.00000000000E+00 0.  1.
         21   -1    0    0  501  503 -0.00000000000E+00 -0.00000000000E+00 -0.38362358443E+02  0.38362358443E+02  0.00000000000E+00 0. -1.
          6    2    1    2  501    0  0.78350719183E-01  0.76366370836E+02  0.28129171851E+03  0.33845912490E+03  0.17203987791E+03 0.  0.
         24    2    3    3    0    0  0.17366518290E+01  0.32159948910E+02  0.28005244177E+03  0.29395537777E+03  0.83325360515E+02 0.  0.
         -6    2    1    2    0  502 -0.78350719183E-01 -0.76366370836E+02  0.89172694880E+03  0.91128425930E+03  0.17155238646E+03 0.  0.
        -24    2    5    5    0    0 -0.17108655960E+02 -0.79490670486E+01  0.20292270546E+03  0.21886506951E+03  0.79802258632E+02 0.  0.
          5    1    3    3  501    0 -0.16583011098E+01  0.44206421926E+02  0.12392767481E+01  0.44503747134E+02  0.47000000000E+01 0. -1.
        -13    1    4    4    0    0 -0.22276657681E+02  0.52814217464E+02  0.19232763391E+03  0.20068759257E+03  0.00000000000E+00 0.  1.
         14    1    4    4    0    0  0.24013309510E+02 -0.20654268554E+02  0.87724807854E+02  0.93267785200E+02  0.00000000000E+00 0. -1.
         -5    1    5    5    0  502  0.17030305241E+02 -0.68417303788E+02  0.68880424334E+03  0.69241918980E+03  0.47000000000E+01 0.  1.
         13    1    6    6    0    0 -0.43052733882E+02  0.59191030604E+01  0.16633027718E+03  0.17191374227E+03  0.00000000000E+00 0. -1.
        -14    1    6    6    0    0  0.25944077922E+02 -0.13868170109E+02  0.36592428280E+02  0.46951327232E+02  0.00000000000E+00 0.  1.
</event>
<event>
12    1  0.8494789E-002  0.1987491E+03  0.7818608E-02  0.1156351E+00
         21   -1    0    0  501  502  0.00000000000E+00  0.00000000000E+00  0.10631084149E+03  0.10631084149E+03  0.00000000000E+00 0.  1.
         21   -1    0    0  502  503 -0.00000000000E+00 -0.00000000000E+00 -0.39988155068E+03  0.39988155068E+03  0.00000000000E+00 0.  1.
         -6    2    1    2    0  503  0.22170731114E+02  0.35258303174E+02 -0.26217765494E+03  0.32899595569E+03  0.19433611824E+03 0.  0.
        -24    2    3    3    0    0 -0.46721128781E+02  0.42342344548E+02 -0.12794306251E+03  0.17787584517E+03  0.10627629572E+03 0.  0.
          6    2    1    2  501    0 -0.22170731114E+02 -0.35258303174E+02 -0.31393054253E+02  0.17719643648E+03  0.16934687474E+03 0.  0.
         24    2    5    5    0    0 -0.30684818263E+02  0.14445036800E+02  0.35867378735E+02  0.93000429864E+02  0.78818741030E+02 0.  0.
          5    1    5    5  501    0  0.85140871493E+01 -0.49703339974E+02 -0.67260432989E+02  0.84196006618E+02  0.47000000000E+01 0. -1.
        -13    1    6    6    0    0 -0.40765584199E+02 -0.19554870984E+02  0.35583899391E+02  0.57536420902E+02  0.00000000000E+00 0.  1.
         14    1    6    6    0    0  0.10080765936E+02  0.33999907784E+02  0.28347934465E+00  0.35464008963E+02  0.00000000000E+00 0. -1.
         -5    1    3    3    0  503  0.68891859894E+02 -0.70840413742E+01 -0.13423459242E+03  0.15112011052E+03  0.47000000000E+01 0.  1.
         11    1    4    4    0    0 -0.94650046778E+01  0.49334812092E+02 -0.64988719903E+01  0.50653186819E+02  0.00000000000E+00 0. -1.
        -12    1    4    4    0    0 -0.37256124103E+02 -0.69924675438E+01 -0.12144419052E+03  0.12722265835E+03  0.00000000000E+00 0.  1.
</event>
<event>
12    1  0.8494789E-002  0.3356874E+03  0.7818608E-02  0.1068652E+00
         21   -1    0    0  501  502  0.00000000000E+00  0.00000000000E+00  0.12277968240E+04  0.12277968240E+04  0.00000000000E+00 0.  1.
         21   -1    0    0  502  503 -0.00000000000E+00 -0.00000000000E+00 -0.97445642800E+02  0.97445642800E+02  0.00000000000E+00 0. -1.
         -6    2    1    2    0  503  0.37460756614E+02  0.28556664820E+03  0.40521803210E+03  0.52617795724E+03  0.17236580375E+03 0.  0.
        -24    2    3    3    0    0  0.39052676974E+02  0.25117075539E+03  0.24333866777E+03  0.36061035701E+03  0.78830593090E+02 0.  0.
          6    2    1    2  501    0 -0.37460756614E+02 -0.28556664820E+03  0.72513314907E+03  0.79906450952E+03  0.17243661923E+03 0.  0.
         24    2    5    5    0    0 -0.82722657497E+02 -0.12987564846E+03  0.37816403058E+03  0.41605277829E+03  0.79882151813E+02 0.  0.
          5    1    5    5  501    0  0.45261900882E+02 -0.15569099974E+03  0.34696911849E+03  0.38301173123E+03  0.47000000000E+01 0. -1.
        -13    1    6    6    0    0 -0.32975910820E+02 -0.28138880497E+02  0.20220864340E+03  0.20680314977E+03  0.00000000000E+00 0.  1.
         14    1    6    6    0    0 -0.49746746676E+02 -0.10173676796E+03  0.17595538718E+03  0.20924962852E+03  0.00000000000E+00 0. -1.
         -5    1    3    3    0  503 -0.15919203601E+01  0.34395892803E+02  0.16187936432E+03  0.16556760023E+03  0.47000000000E+01 0.  1.
         13    1    4    4    0    0  0.19015759995E+02  0.32407498765E+02  0.75141602085E+01  0.38318503468E+02  0.00000000000E+00 0. -1.
        -14    1    4    4    0    0  0.20036916980E+02  0.21876325663E+03  0.23582450757E+03  0.32229185355E+03  0.00000000000E+00 0.  1.
</event>
<event>
12    1  0.8494789E-002  0.2202377E+03  0.7818608E-02  0.1135126E+00
         21   -1    0    0  503  502  0.00000000000E+00  0.00000000000E+00  0.37754647050E+03  0.37754647050E+03  0.00000000000E+00 0.  1.
         21   -1    0    0  501  503 -0.00000000000E+00 -0.00000000000E+00 -0.30591232096E+03  0.30591232096E+03  0.00000000000E+00 0. -1.
          6    2    1    2  501    0 -0.18787287494E+02  0.13575541511E+03 -0.22733300767E+03  0.31652003116E+03  0.17240109872E+03 0.  0.
         24    2    3    3    0    0  0.98299854216E+01  0.37264801863E+02 -0.18696899724E+03  0.20619916937E+03  0.77944835924E+02 0.  0.
         -6    2    1    2    0  502  0.18787287494E+02 -0.13575541511E+03  0.29896715721E+03  0.36693876030E+03  0.16272737267E+03 0.  0.
        -24    2    5    5    0    0  0.63931514773E+02 -0.12111231350E+03  0.17790426542E+03  0.23682060073E+03  0.75356739660E+02 0.  0.
          5    1    3    3  501    0 -0.28617272916E+02  0.98490613250E+02 -0.40364010434E+02  0.11032086179E+03  0.47000000000E+01 0. -1.
        -13    1    4    4    0    0  0.17393369046E+01 -0.69497898384E+01  0.51942179757E+01  0.88489983639E+01  0.00000000000E+00 0.  1.
         14    1    4    4    0    0  0.80906485171E+01  0.44214591701E+02 -0.19216321522E+03  0.19735017100E+03  0.00000000000E+00 0. -1.
         -5    1    5    5    0  502 -0.45144227278E+02 -0.14643101614E+02  0.12106289179E+03  0.13011815957E+03  0.47000000000E+01 0.  1.
         11    1    6    6    0    0 -0.88615537672E+01 -0.23084771013E+02  0.51247401047E+01  0.25252658256E+02  0.00000000000E+00 0. -1.
        -12    1    6    6    0    0  0.72793068540E+02 -0.98027542486E+02  0.17277952532E+03  0.21156794247E+03  0.00000000000E+00 0.  1.
</event>
<event>
12    1  0.8494789E-002  0.1787319E+03  0.7818608E-02  0.1169328E+00
         21   -1    0    0  501  502  0.00000000000E+00  0.00000000000E+00  0.70081616817E+02  0.70081616817E+02  0.00000000000E+00 0. -1.
         21   -1    0    0  502  503 -0.00000000000E+00 -0.00000000000E+00 -0.70810874111E+03  0.70810874111E+03  0.00000000000E+00 0. -1.
         -6    2    1    2    0  503  0.38855729728E+02 -0.24095785644E+02 -0.86058752393E+02  0.19837132904E+03  0.17278512871E+03 0.  0.
        -24    2    3    3    0    0 -0.25221731946E+02  0.11302953276E+02 -0.90951054322E+02  0.12485251219E+03  0.80945432259E+02 0.  0.
          6    2    1    2  501    0 -0.38855729728E+02  0.24095785644E+02 -0.55196837190E+03  0.57981902889E+03  0.17155363029E+03 0.  0.
         24    2    5    5    0    0 -0.20823074079E+02  0.21889991616E+02 -0.13086069395E+03  0.15829345597E+03  0.83782604608E+02 0.  0.
          5    1    5    5  501    0 -0.18032655649E+02  0.22057940281E+01 -0.42110767795E+03  0.42152557292E+03  0.47000000000E+01 0. -1.
        -13    1    6    6    0    0  0.57545683407E+01 -0.28683227217E+02 -0.63857694878E+02  0.70239930064E+02  0.00000000000E+00 0.  1.
         14    1    6    6    0    0 -0.26577642420E+02  0.50573218833E+02 -0.67002999072E+02  0.88053525905E+02  0.00000000000E+00 0. -1.
         -5    1    3    3    0  503  0.64077461674E+02 -0.35398738920E+02  0.48923019296E+01  0.73518816843E+02  0.47000000000E+01 0.  1.
         11    1    4    4    0    0  0.25983199183E+02  0.20023456532E+02 -0.43635331300E+02  0.54590361685E+02  0.00000000000E+00 0. -1.
        -12    1    4    4    0    0 -0.51204931129E+02 -0.87205032565E+01 -0.47315723023E+02  0.70262150509E+02  0.00000000000E+00 0.  1.
</event>
<event>
12    1  0.8494789E-002  0.2462387E+03  0.7818608E-02  0.1115733E+00
         21   -1    0    0  501  502  0.00000000000E+00  0.00000000000E+00  0.14730631781E+03  0.14730631781E+03  0.00000000000E+00 0. -1.
         21   -1    0    0  502  503 -0.00000000000E+00 -0.00000000000E+00 -0.10502828822E+04  0.10502828822E+04  0.00000000000E+00 0.  1.
         -6    2    1    2    0  503 -0.14253949086E+03 -0.10391137859E+03 -0.91859712075E+03  0.95102794116E+03  0.17180917774E+03 0.  0.
        -24    2    3    3    0    0 -0.13689584801E+03 -0.80882783925E+02 -0.51230893935E+03  0.54402137705E+03  0.90643871370E+02 0.  0.
          6    2    1    2  501    0  0.14253949086E+03  0.10391137859E+03  0.15620556377E+02  0.24656125883E+03  0.17156156771E+03 0.  0.
         24    2    5    5    0    0  0.48800354489E+01  0.46588670680E+02 -0.12103262770E+02  0.94815686714E+02  0.81542666720E+02 0.  0.
          5    1    5    5  501    0  0.13765945541E+03  0.57322707910E+02  0.27723819147E+02  0.15174557211E+03  0.47000000000E+01 0. -1.
        -13    1    6    6    0    0  0.15970596134E+02 -0.65851366913E+01 -0.32490607197E+02  0.36797602125E+02  0.00000000000E+00 0.  1.
         14    1    6    6    0    0 -0.11090560685E+02  0.53173807371E+02  0.20387344427E+02  0.58018084589E+02  0.00000000000E+00 0. -1.
         -5    1    3    3    0  503 -0.56436428514E+01 -0.23028594665E+02 -0.40628818141E+03  0.40700656411E+03  0.47000000000E+01 0.  1.
         11    1    4    4    0    0 -0.10806636581E+03 -0.23668537536E+02 -0.39681794144E+03  0.41195026124E+03  0.00000000000E+00 0. -1.
        -12    1    4    4    0    0 -0.28829482200E+02 -0.57214246390E+02 -0.11549099791E+03  0.13207111581E+03  0.00000000000E+00 0.  1.
</event>
<event>
12    1  0.8494789E-002  0.2049450E+03  0.7818608E-02  0.1145693E+00
         21   -1    0    0  501  502  0.00000000000E+00  0.00000000000E+00  0.20561540125E+04  0.20561540125E+04  0.00000000000E+00 0.  1.
         21   -1    0    0  502  503 -0.00000000000E+00 -0.00000000000E+00 -0.44837711475E+02  0.44837711475E+02  0.00000000000E+00 0. -1.
         -6    2    1    2    0  503 -0.29712080560E+02 -0.10733402621E+03  0.22975968967E+03  0.30768572373E+03  0.17169038610E+03 0.  0.
        -24    2    3    3    0    0 -0.70596299642E+02 -0.92844989740E+02  0.10288798008E+03  0.17352174853E+03  0.76940438814E+02 0.  0.
          6    2    1    2  501    0  0.29712080560E+02  0.10733402621E+03  0.17815566114E+04  0.17933060003E+04  0.17204374483E+03 0.  0.
         24    2    5    5    0    0  0.40846422717E+02  0.16217544431E+02  0.12944306444E+04  0.12975843198E+04  0.79012244058E+02 0.  0.
          5    1    5    5  501    0 -0.11134342156E+02  0.91116481776E+02  0.48712596696E+03  0.49572168050E+03  0.47000000000E+01 0. -1.
        -11    1    6    6    0    0  0.50894558405E+02  0.39890855792E+02  0.91086370467E+03  0.91315618869E+03  0.00000000000E+00 0.  1.
         12    1    6    6    0    0 -0.10048135688E+02 -0.23673311361E+02  0.38356693975E+03  0.38442813108E+03  0.00000000000E+00 0. -1.
         -5    1    3    3    0  503  0.40884219082E+02 -0.14489036467E+02  0.12687170959E+03  0.13416397520E+03  0.47000000000E+01 0.  1.
         13    1    4    4    0    0 -0.10182247833E+01 -0.32928960532E+02 -0.33359814473E+01  0.33113169520E+02  0.00000000000E+00 0. -1.
        -14    1    4    4    0    0 -0.69578074859E+02 -0.59916029208E+02  0.10622396153E+03  0.14040857901E+03  0.00000000000E+00 0.  1.
</event>
<event>
12    1  0.8494789E-002  0.1859536E+03  0.7818608E-02  0.1163447E+00
         21   -1    0    0  501  502  0.00000000000E+00  0.00000000000E+00  0.51952510469E+03  0.51952510469E+03  0.00000000000E+00 0. -1.
         21   -1    0    0  502  503 -0.00000000000E+00 -0.00000000000E+00 -0.86251180011E+02  0.86251180011E+02  0.00000000000E+00 0. -1.
         -6    2    1    2    0  503  0.18277569768E+02 -0.67686761673E+02  0.62555773738E+02  0.19103455469E+03  0.16632921871E+03 0.  0.
        -24    2    3    3    0    0  0.38270519505E+02 -0.10557934945E+03  0.48853607266E+02  0.14580839397E+03  0.79131416741E+02 0.  0.
          6    2    1    2  501    0 -0.18277569768E+02  0.67686761673E+02  0.37071815094E+03  0.41474173000E+03  0.17223004358E+03 0.  0.
         24    2    5    5    0    0 -0.68283002783E+02  0.70995885122E+02  0.20193775889E+03  0.23861562641E+03  0.80346590014E+02 0.  0.
          5    1    5    5  501    0  0.50005433015E+02 -0.33091234494E+01  0.16878039205E+03  0.17612610360E+03  0.47000000000E+01 0. -1.
        -11    1    6    6    0    0 -0.10075114077E+02  0.20276226612E+02  0.23577241160E+00  0.22642634076E+02  0.00000000000E+00 0.  1.
         12    1    6    6    0    0 -0.58207888706E+02  0.50719658510E+02  0.20170198648E+03  0.21597299233E+03  0.00000000000E+00 0. -1.
         -5    1    3    3    0  503 -0.19992949737E+02  0.37892587778E+02  0.13702166472E+02  0.45226160723E+02  0.47000000000E+01 0.  1.
         11    1    4    4    0    0 -0.23742633072E+02 -0.43173264436E+02  0.14493651843E+02  0.51358634435E+02  0.00000000000E+00 0. -1.
        -12    1    4    4    0    0  0.62013152577E+02 -0.62406085014E+02  0.34359955423E+02  0.94449759534E+02  0.00000000000E+00 0.  1.
</event>
<event>
12    1  0.8494789E-002  0.1759037E+03  0.7818608E-02  0.1172103E+00
         21   -1    0    0  503  502  0.00000000000E+00  0.00000000000E+00  0.98158287190E+02  0.98158287190E+02  0.00000000000E+00 0. -1.
         21   -1    0    0  501  503 -0.00000000000E+00 -0.00000000000E+00 -0.17040894897E+04  0.17040894897E+04  0.00000000000E+00 0. -1.
          6    2    1    2  501    0  0.97636873587E+01  0.29383668102E+02 -0.16165978302E+04  0.16260210054E+04  0.17203789084E+03 0.  0.
         24    2    3    3    0    0 -0.58298863965E+02 -0.19773588923E+01 -0.10051930227E+04  0.10100226665E+04  0.79561966225E+02 0.  0.
         -6    2    1    2    0  502 -0.97636873587E+01 -0.29383668102E+02  0.10666627682E+02  0.17622677149E+03  0.17315706310E+03 0.  0.
        -24    2    5    5    0    0  0.43950476330E+02 -0.38661605339E+02  0.48741339231E+02  0.10957045026E+03  0.78762943844E+02 0.  0.
          5    1    3    3  501    0  0.68062551324E+02  0.31361026995E+02 -0.61140480748E+03  0.61599833889E+03  0.47000000000E+01 0. -1.
        -11    1    4    4    0    0 -0.38738870950E+02 -0.26886159968E+02 -0.26571074233E+03  0.26986249148E+03  0.00000000000E+00 0.  1.
         12    1    4    4    0    0 -0.19559993015E+02  0.24908801075E+02 -0.73948228034E+03  0.74016017499E+03  0.00000000000E+00 0. -1.
         -5    1    5    5    0  502 -0.53714163689E+02  0.92779372366E+01 -0.38074711549E+02  0.66656321228E+02  0.47000000000E+01 0.  1.
         11    1    6    6    0    0 -0.65403976826E+01  0.22168573152E+01  0.43884688502E+02  0.44424735712E+02  0.00000000000E+00 0. -1.
        -12    1    6    6    0    0  0.50490874013E+02 -0.40878462654E+02  0.48566507292E+01  0.65145714547E+02  0.00000000000E+00 0.  1.
</event>
<event>
12    1  0.8494789E-002  0.2148854E+03  0.7818608E-02  0.1137935E+00
         21   -1    0    0  501  502  0.00000000000E+00  0.00000000000E+00  0.59615508066E+03  0.59615508066E+03  0.00000000000E+00 0. -1.
         21   -1    0    0  502  503 -0.00000000000E+00 -0.00000000000E+00 -0.14588630410E+03  0.14588630410E+03  0.00000000000E+00 0.  1.
         -6    2    1    2    0  503  0.27154057595E+02 -0.12608625184E+03 -0.29337206069E+02  0.21687873889E+03  0.17187387811E+03 0.  0.
        -24    2    3    3    0    0  0.34619389917E+02 -0.14397085753E+03  0.17286685907E+02  0.16616909868E+03  0.73397751110E+02 0.  0.
          6    2    1    2  501    0 -0.27154057595E+02  0.12608625184E+03  0.47960598263E+03  0.52516264586E+03  0.17070096746E+03 0.  0.
         24    2    5    5    0    0 -0.63584956825E+02  0.24799857598E+02  0.28976516341E+03  0.30687895266E+03  0.74516857084E+02 0.  0.
          5    1    5    5  501    0  0.36430899230E+02  0.10128639424E+03  0.18984081922E+03  0.21828369320E+03  0.47000000000E+01 0. -1.
        -13    1    6    6    0    0 -0.62668560069E+02  0.35793175306E+02  0.28638898328E+03  0.29534242764E+03  0.00000000000E+00 0.  1.
         14    1    6    6    0    0 -0.91639675627E+00 -0.10993317708E+02  0.33761801235E+01  0.11536525017E+02  0.00000000000E+00 0. -1.
         -5    1    3    3    0  503 -0.74653323214E+01  0.17884605699E+02 -0.46623891976E+02  0.50709640214E+02  0.47000000000E+01 0.  1.
         13    1    4    4    0    0 -0.68166118899E+01 -0.94409383308E+02  0.31992350424E+02  0.99915506003E+02  0.00000000000E+00 0. -1.
        -14    1    4    4    0    0  0.41436001807E+02 -0.49561474227E+02 -0.14705664517E+02  0.66253592673E+02  0.00000000000E+00 0.  1.
</event>
<event>
12    1  0.8494789E-002  0.2123861E+03  0.7818608E-02  0.1139786E+00
         21   -1    0    0  503  502  0.00000000000E+00  0.00000000000E+00  0.70545632125E+02  0.70545632125E+02  0.00000000000E+00 0. -1.
         21   -1    0    0  501  503 -0.00000000000E+00 -0.00000000000E+00 -0.71023668161E+03  0.71023668161E+03  0.00000000000E+00 0. -1.
          6    2    1    2  501    0  0.11385204145E+03 -0.52950003068E+02 -0.44473082329E+03  0.49284210959E+03  0.17129462815E+03 0.  0.
         24    2    3    3    0    0  0.59996411680E+02  0.31553174068E+02 -0.29377004393E+03  0.31158962627E+03  0.78689797822E+02 0.  0.
         -6    2    1    2    0  502 -0.11385204145E+03  0.52950003068E+02 -0.19496022620E+03  0.28794020415E+03  0.17068708562E+03 0.  0.
        -24    2    5    5    0    0 -0.61771531185E+01  0.66488457072E+02 -0.10002247283E+03  0.14367503743E+03  0.78607564300E+02 0.  0.
          5    1    3    3  501    0  0.53855629768E+02 -0.84503177136E+02 -0.15096077936E+03  0.18125248332E+03  0.47000000000E+01 0. -1.
        -13    1    4    4    0    0  0.31435602071E+02  0.24083423011E+02 -0.40638281564E+02  0.56742208893E+02  0.00000000000E+00 0.  1.
         14    1    4    4    0    0  0.28560809608E+02  0.74697510570E+01 -0.25313176236E+03  0.25484741738E+03  0.00000000000E+00 0. -1.
         -5    1    5    5    0  502 -0.10767488833E+03 -0.13538454004E+02 -0.94937753372E+02  0.14426516672E+03  0.47000000000E+01 0.  1.
         11    1    6    6    0    0 -0.36678872647E+02  0.93372530133E+01 -0.43909658873E+02  0.57970528158E+02  0.00000000000E+00 0. -1.
        -12    1    6    6    0    0  0.30501719529E+02  0.57151204059E+02 -0.56112813955E+02  0.85704509272E+02  0.00000000000E+00 0.  1.
</event>
<event>
12    1  0.8494789E-002  0.1911878E+03  0.7818608E-02  0.1157757E+00
         21   -1    0    0  503  502  0.00000000000E+00  0.00000000000E+00  0.24209717758E+03  0.24209717758E+03  0.00000000000E+00 0.  1.
         21   -1    0    0  501  503 -0.00000000000E+00 -0.00000000000E+00 -0.29396260149E+03  0.29396260149E+03  0.00000000000E+00 0.  1.
          6    2    1    2  501    0  0.50540477226E+02 -0.62982417596E+02 -0.21363388551E+03  0.28561653887E+03  0.17151164822E+03 0.  0.
         24    2    3    3    0    0 -0.19998681726E+01 -0.67790852905E+02 -0.54664528536E+02  0.11805474310E+03  0.79681318252E+02 0.  0.
         -6    2    1    2    0  502 -0.50540477226E+02  0.62982417596E+02  0.16176846160E+03  0.25044324020E+03  0.17329644148E+03 0.  0.
        -24    2    5    5    0    0 -0.44505583774E+02 -0.25559508223E+02  0.67594621852E+02  0.12095619583E+03  0.86181975837E+02 0.  0.
          5    1    3    3  501    0  0.52540345399E+02  0.48084353093E+01 -0.15896935697E+03  0.16756179577E+03  0.47000000000E+01 0. -1.
        -13    1    4    4    0    0  0.37349918017E+02 -0.22127085847E+02 -0.30776213320E+02  0.53214655972E+02  0.00000000000E+00 0.  1.
         14    1    4    4    0    0 -0.39349786189E+02 -0.45663767058E+02 -0.23888315217E+02  0.64840087129E+02  0.00000000000E+00 0. -1.
         -5    1    5    5    0  502 -0.60348934523E+01  0.88541925818E+02  0.94173839747E+02  0.12948704437E+03  0.47000000000E+01 0.  1.
         11    1    6    6    0    0  0.11915852823E+02 -0.18628628506E+02 -0.10405682292E+02  0.24439549351E+02  0.00000000000E+00 0. -1.
        -12    1    6    6    0    0 -0.56421436598E+02 -0.69308797161E+01  0.78000304143E+02  0.96516646480E+02  0.00000000000E+00 0.  1.
</event>
<event>
12    1  0.8494789E-002  0.2128397E+03  0.7818608E-02  0.1140672E+00
         21   -1    0    0  501  502  0.00000000000E+00  0.00000000000E+00  0.15618977735E+03  0.15618977735E+03  0.00000000000E+00 0. -1.
         21   -1    0    0  502  503 -0.00000000000E+00 -0.00000000000E+00 -0.42387878088E+03  0.42387878088E+03  0.00000000000E+00 0. -1.
         -6    2    1    2    0  503 -0.11599927045E+03 -0.39658082215E+02 -0.30083889452E+03  0.36466273590E+03  0.16566917719E+03 0.  0.
        -24    2    3    3    0    0 -0.68901925150E+02  0.39526135484E+02 -0.17953181423E+03  0.21226261125E+03  0.80709064774E+02 0.  0.
          6    2    1    2  501    0  0.11599927045E+03  0.39658082215E+02  0.33149890981E+02  0.21540582233E+03  0.17398896169E+03 0.  0.
         24    2    5    5    0    0  0.19702764769E+02 -0.64046205301E+01  0.62378236279E+02  0.10463048319E+03  0.81408080362E+02 0.  0.
          5    1    5    5  501    0  0.96296505685E+02  0.46062702745E+02 -0.29228345298E+02  0.11077533913E+03  0.47000000000E+01 0. -1.
        -11    1    6    6    0    0 -0.18926191526E+02 -0.27210715344E+02  0.48246415121E+02  0.58534949622E+02  0.00000000000E+00 0.  1.
         12    1    6    6    0    0  0.38628956295E+02  0.20806094814E+02  0.14131821158E+02  0.46095533570E+02  0.00000000000E+00 0. -1.
         -5    1    3    3    0  503 -0.47097345304E+02 -0.79184217699E+02 -0.12130708028E+03  0.15240012465E+03  0.47000000000E+01 0.  1.
         11    1    4    4    0    0 -0.67963825115E+02 -0.22703838732E+01 -0.84669053916E+02  0.10859597073E+03  0.00000000000E+00 0. -1.
        -12    1    4    4    0    0 -0.93810003504E+00  0.41796519357E+02 -0.94862760319E+02  0.10366664052E+03  0.00000000000E+00 0.  1.
</event>
<event>
12    1  0.8494789E-002  0.3328680E+03  0.7818608E-02  0.1069925E+00
         21   -1    0    0  501  502  0.00000000000E+00  0.00000000000E+00  0.84516319057E+03  0.84516319057E+03  0.00000000000E+00 0.  1.
         21   -1    0    0  502  503 -0.00000000000E+00 -0.00000000000E+00 -0.64360511569E+03  0.64360511569E+03  0.00000000000E+00 0. -1.
         -6    2    1    2    0  503 -0.35894593004E+02 -0.28312580940E+03 -0.56360992852E+03  0.65433246893E+03  0.17042940653E+03 0.  0.
        -24    2    3    3    0    0 -0.30060648301E+02 -0.29146068483E+03 -0.46652567541E+03  0.55660352101E+03  0.79424809749E+02 0.  0.
          6    2    1    2  501    0  0.35894593004E+02  0.28312580940E+03  0.76516800340E+03  0.83443583733E+03  0.17132555978E+03 0.  0.
         24    2    5    5    0    0 -0.32568744686E+02  0.17883270583E+03  0.58246672225E+03  0.61315292296E+03  0.60391759340E+02 0.  0.
          5    1    5    5  501    0  0.68463337690E+02  0.10429310356E+03  0.18270128115E+03  0.22128291437E+03  0.47000000000E+01 0. -1.
        -11    1    6    6    0    0  0.85116089868E+01  0.98999170357E+02  0.25733645056E+03  0.27585382362E+03  0.00000000000E+00 0.  1.
         12    1    6    6    0    0 -0.41080353673E+02  0.79833535478E+02  0.32513027169E+03  0.33729909934E+03  0.00000000000E+00 0. -1.
         -5    1    3    3    0  503 -0.58339447027E+01  0.83348754340E+01 -0.97084253107E+02  0.97728947915E+02  0.47000000000E+01 0.  1.
         13    1    4    4    0    0  0.23379214030E+02 -0.15101053403E+03 -0.21927684937E+03  0.26726972463E+03  0.00000000000E+00 0. -1.
        -14    1    4    4    0    0 -0.53439862331E+02 -0.14045015080E+03 -0.24724882604E+03  0.28933379638E+03  0.00000000000E+00 0.  1.
</event>
<event>
12    1  0.8494789E-002  0.2635164E+03  0.7818608E-02  0.1105201E+00
         21   -1    0    0  503  502  0.00000000000E+00  0.00000000000E+00  0.12523072085E+04  0.12523072085E+04  0.00000000000E+00 0. -1.
         21   -1    0    0  501  503 -0.00000000000E+00 -0.00000000000E+00 -0.62529977677E+02  0.62529977677E+02  0.00000000000E+00 0.  1.
          6    2    1    2  501    0 -0.39543488040E+02 -0.19549814351E+03  0.82046735538E+03  0.86174682500E+03  0.17221410396E+03 0.  0.
         24    2    3    3    0    0  0.37667305175E+01 -0.17939299232E+03  0.76328215147E+03  0.78807601347E+03  0.79171499280E+02 0.  0.
         -6    2    1    2    0  502  0.39543488040E+02  0.19549814351E+03  0.36930987543E+03  0.45309036116E+03  0.17063961943E+03 0.  0.
        -24    2    5    5    0    0 -0.28053778599E+02  0.16304428975E+03  0.28592862438E+03  0.34085326342E+03  0.83995916765E+02 0.  0.
          5    1    3    3  501    0 -0.43310218557E+02 -0.16105151196E+02  0.57185203904E+02  0.73670811533E+02  0.47000000000E+01 0. -1.
        -11    1    4    4    0    0  0.22773782938E+02 -0.99053703589E+01  0.76297236611E+02  0.80237334612E+02  0.00000000000E+00 0.  1.
         12    1    4    4    0    0 -0.19007052420E+02 -0.16948762196E+03  0.68698491486E+03  0.70783867886E+03  0.00000000000E+00 0. -1.
         -5    1    5    5    0  502  0.67597266639E+02  0.32453853768E+02  0.83381251055E+02  0.11223709774E+03  0.47000000000E+01 0.  1.
         13    1    6    6    0    0  0.34080396883E+01  0.11789261328E+03  0.24615912395E+03  0.27295530276E+03  0.00000000000E+00 0. -1.
        -14    1    6    6    0    0 -0.31461818287E+02  0.45151676469E+02  0.39769500429E+02  0.67897960664E+02  0.00000000000E+00 0.  1.
</event>
<event>
12    1  0.8494789E-002  0.2059424E+03  0.7818608E-02  0.1145798E+00
         21   -1    0    0  501  502  0.00000000000E+00  0.00000000000E+00  0.23632397625E+03  0.23632397625E+03  0.00000000000E+00 0.  1.
         21   -1    0    0  502  503 -0.00000000000E+00 -0.00000000000E+00 -0.19643940069E+03  0.19643940069E+03  0.00000000000E+00 0.  1.
         -6    2    1    2    0  503 -0.93757234502E+02 -0.59115951270E+02  0.91054734521E+02  0.22517379050E+03  0.17357176191E+03 0.  0.
        -24    2    3    3    0    0 -0.10596501167E+03 -0.88541984462E+02  0.69922002362E+02  0.18665621501E+03  0.10432252622E+03 0.  0.
          6    2    1    2  501    0  0.93757234502E+02  0.59115951270E+02 -0.51170158957E+02  0.20758958644E+03  0.16789858997E+03 0.  0.
         24    2    5    5    0    0  0.12063138162E+03  0.21609548828E+02 -0.62441754806E+02  0.15986025709E+03  0.81470400879E+02 0.  0.
          5    1    5    5  501    0 -0.26874147122E+02  0.37506402442E+02  0.11271595849E+02  0.47729329354E+02  0.47000000000E+01 0. -1.
        -11    1    6    6    0    0  0.89625940426E+02  0.85226891623E+00 -0.30024673586E+01  0.89680267449E+02  0.00000000000E+00 0.  1.
         12    1    6    6    0    0  0.31005441198E+02  0.20757279912E+02 -0.59439287447E+02  0.70179989637E+02  0.00000000000E+00 0. -1.
         -5    1    3    3    0  503  0.12207777168E+02  0.29426033192E+02  0.21132732159E+02  0.38517575486E+02  0.47000000000E+01 0.  1.
         13    1    4    4    0    0 -0.20724637269E+02 -0.25623724926E+02 -0.27351369790E+02  0.42827366232E+02  0.00000000000E+00 0. -1.
        -14    1    4    4    0    0 -0.85240374401E+02 -0.62918259536E+02  0.97273372151E+02  0.14382884878E+03  0.00000000000E+00 0.  1.
</event>
<event>
12    1  0.8494789E-002  0.2468437E+03  0.7818608E-02  0.1115333E+00
         21   -1    0    0  501  502  0.00000000000E+00  0.00000000000E+00  0.34755438838E+03  0.34755438838E+03  0.00000000000E+00 0.  1.
         21   -1    0    0  502  503 -0.00000000000E+00 -0.00000000000E+00 -0.17576945976E+03  0.17576945976E+03  0.00000000000E+00 0.  1.
         -6    2    1    2    0  503 -0.14001782266E+02  0.17596962571E+03  0.10024278788E+03  0.26642154690E+03  0.17254119812E+03 0.  0.
        -24    2    3    3    0    0 -0.58244760012E+02  0.10207629808E+03  0.26400010625E+02  0.15287635457E+03  0.94139240102E+02 0.  0.
          6    2    1    2  501    0  0.14001782266E+02 -0.17596962571E+03  0.71542140743E+02  0.25690230125E+03  0.17239244590E+03 0.  0.
         24    2    5    5    0    0  0.58917428315E+02 -0.48429379115E+02  0.46050558764E+02  0.11922209020E+03  0.79224899549E+02 0.  0.
          5    1    5    5  501    0 -0.44915646049E+02 -0.12754024660E+03  0.25491581979E+02  0.13768021105E+03  0.47000000000E+01 0. -1.
        -13    1    6    6    0    0  0.43326833190E+02 -0.32441955550E+02  0.68669745568E+02  0.87436999666E+02  0.00000000000E+00 0.  1.
         14    1    6    6    0    0  0.15590595125E+02 -0.15987423565E+02 -0.22619186804E+02  0.31785090534E+02  0.00000000000E+00 0. -1.
         -5    1    3    3    0  503  0.44242977746E+02  0.73893327632E+02  0.73842777252E+02  0.11354519233E+03  0.47000000000E+01 0.  1.
         13    1    4    4    0    0  0.31232994408E+00  0.12000040908E+02  0.42569465971E+02  0.44229605072E+02  0.00000000000E+00 0. -1.
        -14    1    4    4    0    0 -0.58557089956E+02  0.90076257172E+02 -0.16169455346E+02  0.10864674950E+03  0.00000000000E+00 0.  1.
</event>
<event>
12    1  0.8494789E-002  0.1818690E+03  0.7818608E-02  0.1166297E+00
         21   -1    0    0  503  502  0.00000000000E+00  0.00000000000E+00  0.80934049168E+02  0.80934049168E+02  0.00000000000E+00 0. -1.
         21   -1    0    0  501  503 -0.00000000000E+00 -0.00000000000E+00 -0.80768090370E+03  0.80768090370E+03  0.00000000000E+00 0. -1.
          6    2    1    2  501    0  0.53936055647E+02 -0.16520918349E+02 -0.67732865744E+03  0.70132048916E+03  0.17289962257E+03 0.  0.
         24    2    3    3    0    0  0.18037270839E+02 -0.61603101565E+02 -0.22413610230E+03  0.24445430740E+03  0.73488984166E+02 0.  0.
         -6    2    1    2    0  502 -0.53936055647E+02  0.16520918349E+02 -0.49418197086E+02  0.18729446370E+03  0.17162464592E+03 0.  0.
        -24    2    5    5    0    0  0.15796953819E+02  0.32915597297E+02  0.13356908688E+02  0.91930518671E+02  0.83305659821E+02 0.  0.
          5    1    3    3  501    0  0.35898784808E+02  0.45082183216E+02 -0.45319255515E+03  0.45686618176E+03  0.47000000000E+01 0. -1.
        -11    1    4    4    0    0 -0.26271610931E+02 -0.29322957851E+02 -0.12644745465E+03  0.13243486016E+03  0.00000000000E+00 0.  1.
         12    1    4    4    0    0  0.44308881770E+02 -0.32280143714E+02 -0.97688647650E+02  0.11201944725E+03  0.00000000000E+00 0. -1.
         -5    1    5    5    0  502 -0.69733009465E+02 -0.16394678948E+02 -0.62775105773E+02  0.95363945030E+02  0.47000000000E+01 0.  1.
         13    1    6    6    0    0  0.85146186360E+01 -0.27733698793E+02 -0.15509539600E+01  0.29052749224E+02  0.00000000000E+00 0. -1.
        -14    1    6    6    0    0  0.72823351826E+01  0.60649296090E+02  0.14907862648E+02  0.62877769447E+02  0.00000000000E+00 0.  1.
</event>
<event>
12    1  0.8494789E-002  0.1854376E+03  0.7818608E-02  0.1163256E+00
         21   -1    0    0  503  502  0.00000000000E+00  0.00000000000E+00  0.35649218263E+03  0.35649218263E+03  0.00000000000E+00 0. -1.
         21   -1    0    0  501  503 -0.00000000000E+00 -0.00000000000E+00 -0.97244916412E+02  0.97244916412E+02  0.00000000000E+00 0.  1.
          6    2    1    2  501    0 -0.48841325590E+02 -0.39238144058E+02  0.95044726449E+02  0.20604864432E+03  0.17174817835E+03 0.  0.
         24    2    3    3    0    0 -0.28526281496E+02  0.13530636283E+02  0.11819539014E+03  0.14476823616E+03  0.77400678915E+02 0.  0.
         -6    2    1    2    0  502  0.48841325590E+02  0.39238144058E+02  0.16420253977E+03  0.24768845473E+03  0.17453363430E+03 0.  0.
        -24    2    5    5    0    0 -0.30747029297E+02 -0.51741283244E+01  0.11708788994E+03  0.14498189992E+03  0.79611719732E+02 0.  0.
          5    1    3    3  501    0 -0.20315044094E+02 -0.52768780341E+02 -0.23150663688E+02  0.61280408161E+02  0.47000000000E+01 0. -1.
        -11    1    4    4    0    0  0.12205506478E+02  0.22706411546E+02  0.80999472665E+01  0.27021559160E+02  0.00000000000E+00 0.  1.
         12    1    4    4    0    0 -0.40731787974E+02 -0.91757752630E+01  0.11009544287E+03  0.11774667700E+03  0.00000000000E+00 0. -1.
         -5    1    5    5    0  502  0.79588354886E+02  0.44412272382E+02  0.47114649832E+02  0.10270655481E+03  0.47000000000E+01 0.  1.
         11    1    6    6    0    0  0.11431040674E+02 -0.31572385370E+02  0.63657124017E+02  0.71970227504E+02  0.00000000000E+00 0. -1.
        -12    1    6    6    0    0 -0.42178069971E+02  0.26398257046E+02  0.53430765922E+02  0.73011672413E+02  0.00000000000E+00 0.  1.
</event>
<event>
12    1  0.8494789E-002  0.1933646E+03  0.7818608E-02  0.1156231E+00
         21   -1    0    0  503  502  0.00000000000E+00  0.00000000000E+00  0.38822537069E+03  0.38822537069E+03  0.00000000000E+00 0.  1.
         21   -1    0    0  501  503 -0.00000000000E+00 -0.00000000000E+00 -0.20726864342E+03  0.20726864342E+03  0.00000000000E+00 0.  1.
          6    2    1    2  501    0  0.50101234327E+02 -0.65117550164E+02 -0.12867478644E+03  0.23226507245E+03  0.17504123570E+03 0.  0.
         24    2    3    3    0    0  0.23685159740E+02  0.37468387694E+01 -0.24670414502E+01  0.86009823125E+02  0.82562568927E+02 0.  0.
         -6    2    1    2    0  502 -0.50101234327E+02  0.65117550164E+02  0.30963151371E+03  0.36322894166E+03  0.17121086634E+03 0.  0.
        -24    2    5    5    0    0  0.30223820378E+02  0.67502643695E+02  0.19668136582E+03  0.22452916158E+03  0.79118256524E+02 0.  0.
          5    1    3    3  501    0  0.26416074587E+02 -0.68864388933E+02 -0.12620774499E+03  0.14625524933E+03  0.47000000000E+01 0. -1.
        -13    1    4    4    0    0 -0.29442731692E+02  0.40309436824E+01  0.10151106228E+02  0.31403310560E+02  0.00000000000E+00 0.  1.
         14    1    4    4    0    0  0.53127891432E+02 -0.28410491297E+00 -0.12618147678E+02  0.54606512565E+02  0.00000000000E+00 0. -1.
         -5    1    5    5    0  502 -0.80325054705E+02 -0.23850935312E+01  0.11295014789E+03  0.13869978007E+03  0.47000000000E+01 0.  1.
         11    1    6    6    0    0 -0.21270829018E+02  0.38719839344E+02  0.51693559680E+02  0.67999251749E+02  0.00000000000E+00 0. -1.
        -12    1    6    6    0    0  0.51494649396E+02  0.28782804351E+02  0.14498780614E+03  0.15652990984E+03  0.00000000000E+00 0.  1.
</event>
<event>
12    1  0.8494789E-002  0.1811172E+03  0.7818608E-02  0.1166824E+00
         21   -1    0    0  501  502  0.00000000000E+00  0.00000000000E+00  0.65633638727E+03  0.65633638727E+03  0.00000000000E+00 0. -1.
         21   -1    0    0  502  503 -0.00000000000E+00 -0.00000000000E+00 -0.52164658817E+02  0.52164658817E+02  0.00000000000E+00 0. -1.
         -6    2    1    2    0  503 -0.58614561271E+01 -0.55409062795E+02  0.22741275464E+03  0.29046904596E+03  0.17190458046E+03 0.  0.
        -24    2    3    3    0    0 -0.32091055727E+02 -0.93092614797E+02  0.12696986432E+03  0.17992988457E+03  0.80977442091E+02 0.  0.
          6    2    1    2  501    0  0.58614561271E+01  0.55409062795E+02  0.37675897382E+03  0.41803200013E+03  0.17233371078E+03 0.  0.
         24    2    5    5    0    0  0.11497187356E+01 -0.26762170591E+02  0.10086846641E+03  0.13008760594E+03  0.77658238943E+02 0.  0.
          5    1    5    5  501    0  0.47117373914E+01  0.82171233386E+02  0.27589050741E+03  0.28794439419E+03  0.47000000000E+01 0. -1.
        -11    1    6    6    0    0 -0.29987294979E+02  0.83927345662E+01  0.60985765013E+02  0.68475830684E+02  0.00000000000E+00 0.  1.
         12    1    6    6    0    0  0.31137013714E+02 -0.35154905157E+02  0.39882701397E+02  0.61611775257E+02  0.00000000000E+00 0. -1.
         -5    1    3    3    0  503  0.26229599600E+02  0.37683552002E+02  0.10044289032E+03  0.11053916139E+03  0.47000000000E+01 0.  1.
         13    1    4    4    0    0 -0.60730859153E+01 -0.89172891688E+02  0.59135372758E+02  0.10717126152E+03  0.00000000000E+00 0. -1.
        -14    1    4    4    0    0 -0.26017969811E+02 -0.39197231094E+01  0.67834491562E+02  0.72758623048E+02  0.00000000000E+00 0.  1.
</event>
<event>
12    1  0.8494789E-002  0.1790622E+03  0.7818608E-02  0.1169217E+00
         21   -1    0    0  501  502  0.00000000000E+00  0.00000000000E+00  0.28950783450E+03  0.28950783450E+03  0.00000000000E+00 0.  1.
         21   -1    0    0  502  503 -0.00000000000E+00 -0.00000000000E+00 -0.31444491998E+03  0.31444491998E+03  0.00000000000E+00 0.  1.
         -6    2    1    2    0  503 -0.25990717366E+02  0.39146366744E+02 -0.25624299485E+03  0.31143662451E+03  0.17065855754E+03 0.  0.
        -24    2    3    3    0    0  0.20597868949E+02 -0.32121029931E+02 -0.98510964736E+02  0.13212956518E+03  0.79358547441E+02 0.  0.
          6    2    1    2  501    0  0.25990717366E+02 -0.39146366744E+02  0.23130590937E+03  0.29251612997E+03  0.17278688365E+03 0.  0.
         24    2    5    5    0    0  0.10946779507E+02  0.25035318600E+02  0.21419695013E+03  0.22424889561E+03  0.60503178261E+02 0.  0.
          5    1    5    5  501    0  0.15043937860E+02 -0.64181685344E+02  0.17108959241E+02  0.68267234353E+02  0.47000000000E+01 0. -1.
        -11    1    6    6    0    0  0.10046054342E+02  0.44580083494E+02  0.12966083554E+03  0.13747814127E+03  0.00000000000E+00 0.  1.
         12    1    6    6    0    0  0.90072516505E+00 -0.19544764893E+02  0.84536114585E+02  0.86770754345E+02  0.00000000000E+00 0. -1.
         -5    1    3    3    0  503 -0.46588586316E+02  0.71267396675E+02 -0.15773203011E+03  0.17930705933E+03  0.47000000000E+01 0.  1.
         13    1    4    4    0    0  0.80084070272E+01 -0.56158817956E+02 -0.83993562538E+02  0.10135514770E+03  0.00000000000E+00 0. -1.
        -14    1    4    4    0    0  0.12589461922E+02  0.24037788025E+02 -0.14517402198E+02  0.30774417479E+02  0.00000000000E+00 0.  1.
</event>
<event>
12    1  0.8494789E-002  0.1877569E+03  0.7818608E-02  0.1160926E+00
         21   -1    0    0  503  502  0.00000000000E+00  0.00000000000E+00  0.52956472845E+02  0.52956472845E+02  0.00000000000E+00 0.  1.
         21   -1    0    0  501  503 -0.00000000000E+00 -0.00000000000E+00 -0.11864508435E+04  0.11864508435E+04  0.00000000000E+00 0. -1.
          6    2    1    2  501    0  0.84781401134E+01 -0.68747542191E+02 -0.98143977895E+03  0.99923805608E+03  0.17451231932E+03 0.  0.
         24    2    3    3    0    0 -0.57822375523E+02 -0.58377654129E+02 -0.42811661932E+03  0.44184061983E+03  0.72027189188E+02 0.  0.
         -6    2    1    2    0  502 -0.84781401134E+01  0.68747542191E+02 -0.15205459172E+03  0.24016926029E+03  0.17251832165E+03 0.  0.
        -24    2    5    5    0    0  0.46001390335E+02  0.34152298292E+02 -0.25023563287E+02  0.97607616342E+02  0.74957058753E+02 0.  0.
          5    1    3    3  501    0  0.66300515637E+02 -0.10369888063E+02 -0.55332315962E+03  0.55739743624E+03  0.47000000000E+01 0. -1.
        -13    1    4    4    0    0 -0.18723274938E+02 -0.66579072535E+02 -0.28255374587E+03  0.29089508973E+03  0.00000000000E+00 0.  1.
         14    1    4    4    0    0 -0.39099100585E+02  0.82014184067E+01 -0.14556287346E+03  0.15094553011E+03  0.00000000000E+00 0. -1.
         -5    1    5    5    0  502 -0.54479530449E+02  0.34595243900E+02 -0.12703102844E+03  0.14256164394E+03  0.47000000000E+01 0.  1.
         11    1    6    6    0    0  0.62670880286E+01 -0.19629113495E+02 -0.22760202505E+02  0.30701877907E+02  0.00000000000E+00 0. -1.
        -12    1    6    6    0    0  0.39734302307E+02  0.53781411787E+02 -0.22633607829E+01  0.66905738435E+02  0.00000000000E+00 0.  1.
</event>
<event>
12    1  0.8494789E-002  0.2956280E+03  0.7818608E-02  0.1087461E+00
         21   -1    0    0  503  502  0.00000000000E+00  0.00000000000E+00  0.68711164053E+02  0.68711164053E+02  0.00000000000E+00 0.  1.
         21   -1    0    0  501  503 -0.00000000000E+00 -0.00000000000E+00 -0.13160683867E+04  0.13160683867E+04  0.00000000000E+00 0. -1.
          6    2    1    2  501    0 -0.20529722495E+03 -0.12512336590E+03 -0.49631132472E+03  0.57768577323E+03  0.17202649296E+03 0.  0.
         24    2    3    3    0    0 -0.17629117020E+03 -0.14395471646E+03 -0.33545770330E+03  0.41308945341E+03  0.79432290210E+02 0.  0.
         -6    2    1    2    0  502  0.20529722495E+03  0.12512336590E+03 -0.75104589795E+03  0.80709377755E+03  0.17183601969E+03 0.  0.
        -24    2    5    5    0    0  0.75863660117E+02  0.17155908947E+02 -0.43103251931E+03  0.44537472639E+03  0.80746480179E+02 0.  0.
          5    1    3    3  501    0 -0.29006054744E+02  0.18831350559E+02 -0.16085362141E+03  0.16459631982E+03  0.47000000000E+01 0. -1.
        -13    1    4    4    0    0 -0.39472985659E+02 -0.63039104215E+02 -0.62181066598E+02  0.96946017455E+02  0.00000000000E+00 0.  1.
         14    1    4    4    0    0 -0.13681818454E+03 -0.80915612246E+02 -0.27327663671E+03  0.31614343595E+03  0.00000000000E+00 0. -1.
         -5    1    5    5    0  502  0.12943356483E+03  0.10796745696E+03 -0.32001337864E+03  0.36171905116E+03  0.47000000000E+01 0.  1.
         11    1    6    6    0    0  0.89704561017E+02  0.24337446657E+02 -0.31909969996E+03  0.33236100568E+03  0.00000000000E+00 0. -1.
        -12    1    6    6    0    0 -0.13840900900E+02 -0.71815377099E+01 -0.11193281935E+03  0.11301372071E+03  0.00000000000E+00 0.  1.
</event>
<event>
12    1  0.8494789E-002  0.1764675E+03  0.7818608E-02  0.1171385E+00
         21   -1    0    0  503  502  0.00000000000E+00  0.00000000000E+00  0.62060893237E+03  0.62060893237E+03  0.00000000000E+00 0. -1.
         21   -1    0    0  501  503 -0.00000000000E+00 -0.00000000000E+00 -0.24808779666E+03  0.24808779666E+03  0.00000000000E+00 0. -1.
          6    2    1    2  501    0 -0.10183304931E+02  0.35088563412E+02 -0.20186833530E+03  0.26781066786E+03  0.17215348396E+03 0.  0.
         24    2    3    3    0    0 -0.18294741662E+02 -0.11388505187E+02 -0.30294795628E+02  0.89806502661E+02  0.81749848044E+02 0.  0.
         -6    2    1    2    0  502  0.10183304931E+02 -0.35088563412E+02  0.57438947101E+03  0.60088606117E+03  0.17264381575E+03 0.  0.
        -24    2    5    5    0    0 -0.36952626527E+02 -0.49322150662E+02  0.20831886477E+03  0.23148902572E+03  0.79951538190E+02 0.  0.
          5    1    3    3  501    0  0.81114367303E+01  0.46477068599E+02 -0.17157353967E+03  0.17800416520E+03  0.47000000000E+01 0. -1.
        -11    1    4    4    0    0 -0.31147077851E+02  0.17587194778E+02  0.11298505237E+02  0.37511412922E+02  0.00000000000E+00 0.  1.
         12    1    4    4    0    0  0.12852336189E+02 -0.28975699965E+02 -0.41593300864E+02  0.52295089739E+02  0.00000000000E+00 0. -1.
         -5    1    5    5    0  502  0.47135931459E+02  0.14233587250E+02  0.36607060625E+03  0.36939703545E+03  0.47000000000E+01 0.  1.
         11    1    6    6    0    0 -0.27670919482E+02 -0.61519928320E+02  0.20499038893E+03  0.21580417262E+03  0.00000000000E+00 0. -1.
        -12    1    6    6    0    0 -0.92817070460E+01  0.12197777658E+02  0.33284758347E+01  0.15684853103E+02  0.00000000000E+00 0.  1.
</event>
<event>
12    1  0.8494789E-002  0.1827176E+03  0.7818608E-02  0.1165316E+00
         21   -1    0    0  501  502  0.00000000000E+00  0.00000000000E+00  0.35499750516E+02  0.35499750516E+02  0.00000000000E+00 0. -1.
         21   -1    0    0  502  503 -0.00000000000E+00 -0.00000000000E+00 -0.25517659095E+04  0.25517659095E+04  0.00000000000E+00 0. -1.
         -6    2    1    2    0  503  0.58785892621E+02  0.15819618120E+02 -0.22862883637E+04  0.22935387350E+04  0.17175390955E+03 0.  0.
        -24    2    3    3    0    0  0.67585898599E+02 -0.28927772407E+02 -0.89264431801E+03  0.89914080573E+03  0.78966070816E+02 0.  0.
          6    2    1    2  501    0 -0.58785892621E+02 -0.15819618120E+02 -0.22997779524E+03  0.29372692497E+03  0.17227791113E+03 0.  0.
         24    2    5    5    0    0 -0.88133147824E+01 -0.10661948121E+02 -0.23021011552E+03  0.24326898141E+03  0.77406384582E+02 0.  0.
          5    1    5    5  501    0 -0.49972577839E+02 -0.51576699993E+01  0.23232028342E+00  0.50457943561E+02  0.47000000000E+01 0. -1.
        -11    1    6    6    0    0  0.32561274083E+00  0.31589764573E+02 -0.61893023537E+02  0.69489320129E+02  0.00000000000E+00 0.  1.
         12    1    6    6    0    0 -0.91389275232E+01 -0.42251712694E+02 -0.16831709198E+03  0.17377966128E+03  0.00000000000E+00 0. -1.
         -5    1    3    3    0  503 -0.88000059774E+01  0.44747390527E+02 -0.13936440457E+04  0.13943979293E+04  0.47000000000E+01 0.  1.
         11    1    4    4    0    0  0.20450203812E+02  0.25639469022E+02 -0.19036549438E+03  0.19316991137E+03  0.00000000000E+00 0. -1.
        -12    1    4    4    0    0  0.47135694786E+02 -0.54567241429E+02 -0.70227882363E+03  0.70597089436E+03  0.00000000000E+00 0.  1.
</event>
<event>
12    1  0.8494789E-002  0.1875904E+03  0.7818608E-02  0.1160928E+00
         21   -1    0    0  501  502  0.00000000000E+00  0.00000000000E+00  0.91200490169E+03  0.91200490169E+03  0.00000000000E+00 0. -1.
         21   -1    0    0  502  503 -0.00000000000E+00 -0.00000000000E+00 -0.66805539960E+02  0.66805539960E+02  0.00000000000E+00 0. -1.
         -6    2    1    2    0  503 -0.71677846840E+02  0.14582425588E+02  0.10391107993E+03  0.21444733076E+03  0.17274195863E+03 0.  0.
        -24    2    3    3    0    0  0.15627430034E+02  0.30298358744E+02  0.89071326712E+02  0.12438340790E+03  0.79845624839E+02 0.  0.
          6    2    1    2  501    0  0.71677846840E+02 -0.14582425588E+02  0.74128828180E+03  0.76436311089E+03  0.17144179099E+03 0.  0.
         24    2    5    5    0    0 -0.25824724965E+02  0.74915157210E+01  0.37695191087E+03  0.38653101647E+03  0.81181551840E+02 0.  0.
          5    1    5    5  501    0  0.97502571805E+02 -0.22073941309E+02  0.36433637093E+03  0.37783209443E+03  0.47000000000E+01 0. -1.
        -13    1    6    6    0    0  0.19842292500E+02 -0.66679038079E+01  0.31722293539E+02  0.38006333948E+02  0.00000000000E+00 0.  1.
         14    1    6    6    0    0 -0.45667017465E+02  0.14159419529E+02  0.34522961733E+03  0.34852468252E+03  0.00000000000E+00 0. -1.
         -5    1    3    3    0  503 -0.87305276874E+02 -0.15715933156E+02  0.14839753220E+02  0.90063922859E+02  0.47000000000E+01 0.  1.
         13    1    4    4    0    0 -0.57745092631E+01  0.78896863309E+01 -0.13819146247E+02  0.16928110072E+02  0.00000000000E+00 0. -1.
        -14    1    4    4    0    0  0.21401939297E+02  0.22408672413E+02  0.10289047296E+03  0.10745529783E+03  0.00000000000E+00 0.  1.
</event>
<event>
12    1  0.8494789E-002  0.2036167E+03  0.7818608E-02  0.1146732E+00
         21   -1    0    0  503  502  0.00000000000E+00  0.00000000000E+00  0.21911518484E+03  0.21911518484E+03  0.00000000000E+00 0. -1.
         21   -1    0    0  501  503 -0.00000000000E+00 -0.00000000000E+00 -0.35672895549E+03  0.35672895549E+03  0.00000000000E+00 0. -1.
          6    2    1    2  501    0 -0.33819691166E+02  0.10471752763E+03 -0.26612925533E+03  0.33506209390E+03  0.17126673384E+03 0.  0.
         24    2    3    3    0    0 -0.33632613253E+01  0.83779808577E+02 -0.27495442589E+03  0.29677429123E+03  0.73788046243E+02 0.  0.
         -6    2    1    2    0  502  0.33819691166E+02 -0.10471752763E+03  0.12851548468E+03  0.24078204643E+03  0.17131909403E+03 0.  0.
        -24    2    5    5    0    0 -0.26797684400E+01 -0.12543797395E+03  0.13140045410E+03  0.19845049206E+03  0.79841417779E+02 0.  0.
          5    1    3    3  501    0 -0.30456429840E+02  0.20937719049E+02  0.88251705581E+01  0.38287802666E+02  0.47000000000E+01 0. -1.
        -11    1    4    4    0    0 -0.23444442757E+02 -0.19265013397E+01 -0.52099804835E+02  0.57164175560E+02  0.00000000000E+00 0.  1.
         12    1    4    4    0    0  0.20081181432E+02  0.85706309917E+02 -0.22285462106E+03  0.23961011567E+03  0.00000000000E+00 0. -1.
         -5    1    5    5    0  502  0.36499459606E+02  0.20720446322E+02 -0.28849694229E+01  0.42331554376E+02  0.47000000000E+01 0.  1.
         13    1    6    6    0    0  0.12479868389E+02 -0.23745013869E+02  0.78225601988E+02  0.82697143875E+02  0.00000000000E+00 0. -1.
        -14    1    6    6    0    0 -0.15159636829E+02 -0.10169296008E+03  0.53174852111E+02  0.11575334818E+03  0.00000000000E+00 0.  1.
</event>
<event>
12    1  0.8494789E-002  0.1919036E+03  0.7818608E-02  0.1158202E+00
         21   -1    0    0  501  502  0.00000000000E+00  0.00000000000E+00  0.77143401695E+02  0.77143401695E+02  0.00000000000E+00 0.  1.
         21   -1    0    0  502  503 -0.00000000000E+00 -0.00000000000E+00 -0.81721631731E+03  0.81721631731E+03  0.00000000000E+00 0.  1.
         -6    2    1    2    0  503 -0.48914629710E+02  0.67397978226E+02 -0.66851657267E+03  0.69551519728E+03  0.17289260610E+03 0.  0.
        -24    2    3    3    0    0  0.31341403382E+02 -0.17730695799E+01 -0.28383565073E+03  0.29648240864E+03  0.79710191747E+02 0.  0.
          6    2    1    2  501    0  0.48914629710E+02 -0.67397978226E+02 -0.71556342947E+02  0.19884452173E+03  0.16578210138E+03 0.  0.
         24    2    5    5    0    0 -0.10240500644E+02 -0.63860329329E+02  0.42659824509E+01  0.10249640584E+03  0.79399654204E+02 0.  0.
          5    1    5    5  501    0  0.59155130354E+02 -0.35376488972E+01 -0.75822325398E+02  0.96348115891E+02  0.47000000000E+01 0. -1.
        -11    1    6    6    0    0 -0.30147921782E+01  0.10389241447E+02  0.23141511644E+02  0.25545153569E+02  0.00000000000E+00 0.  1.
         12    1    6    6    0    0 -0.72257084659E+01 -0.74249570776E+02 -0.18875529193E+02  0.76951252268E+02  0.00000000000E+00 0. -1.
         -5    1    3    3    0  503 -0.80256033092E+02  0.69171047806E+02 -0.38468092194E+03  0.39903278864E+03  0.47000000000E+01 0.  1.
         11    1    4    4    0    0 -0.24175571229E+02 -0.15172704099E+02 -0.91965216824E+02  0.96292628479E+02  0.00000000000E+00 0. -1.
        -12    1    4    4    0    0  0.55516974611E+02  0.13399634519E+02 -0.19187043391E+03  0.20018978017E+03  0.00000000000E+00 0.  1.
</event>
<event>
12    1  0.8494789E-002  0.1856598E+03  0.7818608E-02  0.1163826E+00
         21   -1    0    0  501  502  0.00000000000E+00  0.00000000000E+00  0.30097433287E+03  0.30097433287E+03  0.00000000000E+00 0.  1.
         21   -1    0    0  502  503 -0.00000000000E+00 -0.00000000000E+00 -0.13704207387E+03  0.13704207387E+03  0.00000000000E+00 0.  1.
         -6    2    1    2    0  503 -0.35396300526E+02  0.38326452130E+02 -0.14695690133E+02  0.18037807827E+03  0.17204206692E+03 0.  0.
        -24    2    3    3    0    0 -0.71172677091E+02  0.31509224524E+02  0.34364885884E+02  0.11909632054E+03  0.83334308595E+02 0.  0.
          6    2    1    2  501    0  0.35396300526E+02 -0.38326452130E+02  0.17862794913E+03  0.25763832846E+03  0.17817898040E+03 0.  0.
         24    2    5    5    0    0 -0.18752826393E+02 -0.73352452265E+02  0.15314733026E+03  0.18813796465E+03  0.78800623256E+02 0.  0.
          5    1    5    5  501    0  0.54149126919E+02  0.35026000135E+02  0.25480618871E+02  0.69500363810E+02  0.47000000000E+01 0. -1.
        -11    1    6    6    0    0 -0.85308138585E+01 -0.10017913870E+01  0.93281699242E+02  0.93676324567E+02  0.00000000000E+00 0.  1.
         12    1    6    6    0    0 -0.10222012535E+02 -0.72350660878E+02  0.59865631021E+02  0.94461640084E+02  0.00000000000E+00 0. -1.
         -5    1    3    3    0  503  0.35776376565E+02  0.68172276061E+01 -0.49060576017E+02  0.61281757738E+02  0.47000000000E+01 0.  1.
         11    1    4    4    0    0 -0.38339317163E+02  0.54506012341E+02  0.53258981012E+00  0.66641520644E+02  0.00000000000E+00 0. -1.
        -12    1    4    4    0    0 -0.32833359929E+02 -0.22996787817E+02  0.33832296074E+02  0.52454799892E+02  0.00000000000E+00 0.  1.
</event>
<event>
12    1  0.8494789E-002  0.2434908E+03  0.7818608E-02  0.1117629E+00
         21   -1    0    0  503  502  0.00000000000E+00  0.00000000000E+00  0.14119907570E+03  0.14119907570E+03  0.00000000000E+00 0. -1.
         21   -1    0    0  501  503 -0.00000000000E+00 -0.00000000000E+00 -0.52872060458E+03  0.52872060458E+03  0.00000000000E+00 0. -1.
          6    2    1    2  501    0  0.16462681627E+03 -0.46578571396E+02 -0.34702414870E+03  0.42392630030E+03  0.17325182930E+03 0.  0.
         24    2    3    3    0    0  0.11465824383E+03  0.37853005338E+02 -0.22976946739E+03  0.27096781028E+03  0.77782923369E+02 0.  0.
         -6    2    1    2    0  502 -0.16462681627E+03  0.46578571396E+02 -0.40497380184E+02  0.24599337998E+03  0.17204985686E+03 0.  0.
        -24    2    5    5    0    0 -0.72928504644E+02  0.28363011915E+02 -0.86601127327E+02  0.14164764474E+03  0.80257540278E+02 0.  0.
          5    1    3    3  501    0  0.49968572440E+02 -0.84431576733E+02 -0.11725468130E+03  0.15295849002E+03  0.47000000000E+01 0. -1.
        -11    1    4    4    0    0  0.25176742925E+02 -0.10135759843E+02 -0.11305777251E+03  0.11626978085E+03  0.00000000000E+00 0.  1.
         12    1    4    4    0    0  0.89481500909E+02  0.47988765180E+02 -0.11671169488E+03  0.15469802943E+03  0.00000000000E+00 0. -1.
         -5    1    5    5    0  502 -0.91698311629E+02  0.18215559481E+02  0.46103747143E+02  0.10434573524E+03  0.47000000000E+01 0.  1.
         13    1    6    6    0    0  0.47128967818E+01  0.17977645136E+02  0.67609813361E+01  0.19776703197E+02  0.00000000000E+00 0. -1.
        -14    1    6    6    0    0 -0.77641401426E+02  0.10385366779E+02 -0.93362108663E+02  0.12187094154E+03  0.00000000000E+00 0.  1.
</event>
<event>
12    1  0.8494789E-002  0.2629353E+03  0.7818608E-02  0.1105484E+00
         21   -1    0    0  503  502  0.00000000000E+00  0.00000000000E+00  0.20888897326E+04  0.20888897326E+04  0.00000000000E+00 0. -1.
         21   -1    0    0  501  503 -0.00000000000E+00 -0.00000000000E+00 -0.35314260477E+02  0.35314260477E+02  0.00000000000E+00 0. -1.
          6    2    1    2  501    0  0.15561155483E+03  0.12484392618E+03  0.12987178528E+04  0.13250671884E+04  0.17127180411E+03 0.  0.
         24    2    3    3    0    0  0.10022112898E+03  0.14501629957E+03  0.83018498145E+03  0.85281707947E+03  0.83760765053E+02 0.  0.
         -6    2    1    2    0  502 -0.15561155483E+03 -0.12484392618E+03  0.75485761939E+03  0.79913680467E+03  0.17031924475E+03 0.  0.
        -24    2    5    5    0    0 -0.13039197276E+03 -0.12389130567E+03  0.42783324467E+03  0.47110636940E+03  0.80924680176E+02 0.  0.
          5    1    3    3  501    0  0.55390425845E+02 -0.20172373394E+02  0.46853287130E+03  0.47225010896E+03  0.47000000000E+01 0. -1.
        -11    1    4    4    0    0  0.26264931614E+02  0.11001808714E+03  0.46081830619E+03  0.47449693092E+03  0.00000000000E+00 0.  1.
         12    1    4    4    0    0  0.73956197370E+02  0.34998212434E+02  0.36936667526E+03  0.37832014855E+03  0.00000000000E+00 0. -1.
         -5    1    5    5    0  502 -0.25219582071E+02 -0.95262050385E+00  0.32702437471E+03  0.32803043527E+03  0.47000000000E+01 0.  1.
         11    1    6    6    0    0 -0.45836860004E+02 -0.43202909095E+02  0.25358422904E+03  0.26129001188E+03  0.00000000000E+00 0. -1.
        -12    1    6    6    0    0 -0.84555112755E+02 -0.80688396577E+02  0.17424901563E+03  0.20981635752E+03  0.00000000000E+00 0.  1.
</event>
<event>
12    1  0.8494789E-002  0.1894711E+03  0.7818608E-02  0.1159058E+00
         21   -1    0    0  501  502  0.00000000000E+00  0.00000000000E+00  0.48904172282E+03  0.48904172282E+03  0.00000000000E+00 0. -1.
         21   -1    0    0  502  503 -0.00000000000E+00 -0.00000000000E+00 -0.11717722018E+03  0.11717722018E+03  0.00000000000E+00 0.  1.
         -6    2    1    2    0  503 -0.45905225910E+02  0.63857092411E+02  0.41043214856E+00  0.18947153505E+03  0.17237829365E+03 0.  0.
        -24    2    3    3    0    0  0.16067710845E+02 -0.13049494253E+00  0.41575578035E+02  0.91228390449E+02  0.79598380476E+02 0.  0.
          6    2    1    2  501    0  0.45905225910E+02 -0.63857092411E+02  0.37145407049E+03  0.41674740795E+03  0.17180005102E+03 0.  0.
         24    2    5    5    0    0  0.75880910963E+02 -0.86285268668E+02  0.22051115438E+03  0.26116007328E+03  0.79852078448E+02 0.  0.
          5    1    5    5  501    0 -0.29975685053E+02  0.22428176257E+02  0.15094291612E+03  0.15558733467E+03  0.47000000000E+01 0. -1.
        -11    1    6    6    0    0  0.22335190626E+02 -0.82377372923E+02  0.14934358567E+03  0.17201278699E+03  0.00000000000E+00 0.  1.
         12    1    6    6    0    0  0.53545720338E+02 -0.39078957457E+01  0.71167568709E+02  0.89147286283E+02  0.00000000000E+00 0. -1.
         -5    1    3    3    0  503 -0.61972936755E+02  0.63987587354E+02 -0.41165145886E+02  0.98243144601E+02  0.47000000000E+01 0.  1.
         13    1    4    4    0    0 -0.76602688542E+01 -0.36413380802E+02  0.13525006126E+02  0.39592168557E+02  0.00000000000E+00 0. -1.
        -14    1    4    4    0    0  0.23727979699E+02  0.36282885859E+02  0.28050571909E+02  0.51636221892E+02  0.00000000000E+00 0.  1.
</event>
<event>
12    1  0.8494789E-002  0.2328023E+03  0.7818608E-02  0.1124781E+00
         21   -1    0    0  501  502  0.00000000000E+00  0.00000000000E+00  0.37046018781E+03  0.37046018781E+03  0.00000000000E+00 0. -1.
         21   -1    0    0  502  503 -0.00000000000E+00 -0.00000000000E+00 -0.14643958901E+03  0.14643958901E+03  0.00000000000E+00 0.  1.
         -6    2    1    2    0  503  0.86459022686E+02  0.13123767264E+03  0.96804145088E+02  0.25160575251E+03  0.17098515394E+03 0.  0.
        -24    2    3    3    0    0  0.12080459859E+02  0.80729416919E+02 -0.57034898883E+01  0.11517569816E+03  0.81053904177E+02 0.  0.
          6    2    1    2  501    0 -0.86459022686E+02 -0.13123767264E+03  0.12721645372E+03  0.26529402430E+03  0.17175099392E+03 0.  0.
         24    2    5    5    0    0  0.19866171241E+02 -0.73647003792E+02  0.48532304846E+02  0.12095062374E+03  0.80343779118E+02 0.  0.
          5    1    5    5  501    0 -0.10632519393E+03 -0.57590668845E+02  0.78684148873E+02  0.14434340056E+03  0.47000000000E+01 0. -1.
        -13    1    6    6    0    0 -0.89331158572E+01  0.11727241085E+02 -0.56791535167E+01  0.15798149482E+02  0.00000000000E+00 0.  1.
         14    1    6    6    0    0  0.28799287098E+02 -0.85374244876E+02  0.54211458363E+02  0.10515247426E+03  0.00000000000E+00 0. -1.
         -5    1    3    3    0  503  0.74378562826E+02  0.50508255718E+02  0.10250763498E+03  0.13643005436E+03  0.47000000000E+01 0.  1.
         11    1    4    4    0    0 -0.21372575101E+02  0.74990799769E+02  0.83844741829E+01  0.78426439571E+02  0.00000000000E+00 0. -1.
        -12    1    4    4    0    0  0.33453034961E+02  0.57386171501E+01 -0.14087964071E+02  0.36749258585E+02  0.00000000000E+00 0.  1.
</event>
<event>
12    1  0.8494789E-002  0.1847035E+03  0.7818608E-02  0.1166305E+00
         21   -1    0    0  503  502  0.00000000000E+00  0.00000000000E+00  0.12571822234E+04  0.12571822234E+04  0.00000000000E+00 0. -1.
         21   -1    0    0  501  503 -0.00000000000E+00 -0.00000000000E+00 -0.29234479374E+02  0.29234479374E+02  0.00000000000E+00 0. -1.
          6    2    1    2  501    0 -0.40879202740E+01  0.11000022840E+02  0.86621296653E+03  0.88568634560E+03  0.18433037677E+03 0.  0.
         24    2    3    3    0    0 -0.30477639373E+02 -0.62940279909E+01  0.18969160765E+03  0.20841332791E+03  0.80527684353E+02 0.  0.
         -6    2    1    2    0  502  0.40879202740E+01 -0.11000022840E+02  0.36173477749E+03  0.40073035717E+03  0.17203214327E+03 0.  0.
        -24    2    5    5    0    0 -0.30859434464E+02 -0.51522594201E+02  0.13076970601E+03  0.16360096077E+03  0.77831073144E+02 0.  0.
          5    1    3    3  501    0  0.26389719099E+02  0.17294050831E+02  0.67652135888E+03  0.67727301769E+03  0.47000000000E+01 0. -1.
        -11    1    4    4    0    0  0.25758051919E+02  0.82110772600E+01  0.77518819143E+02  0.82097907098E+02  0.00000000000E+00 0.  1.
         12    1    4    4    0    0 -0.56235691292E+02 -0.14505105251E+02  0.11217278851E+03  0.12631542081E+03  0.00000000000E+00 0. -1.
         -5    1    5    5    0  502  0.34947354738E+02  0.40522571361E+02  0.23096507148E+03  0.23712939640E+03  0.47000000000E+01 0.  1.
         13    1    6    6    0    0 -0.31284858193E+02 -0.18841738965E+02  0.12523582592E+03  0.13045215818E+03  0.00000000000E+00 0. -1.
        -14    1    6    6    0    0  0.42542372965E+00 -0.32680855236E+02  0.55338800849E+01  0.33148802589E+02  0.00000000000E+00 0.  1.
</event>
<event>
12    1  0.8494789E-002  0.1733810E+03  0.7818608E-02  0.1174579E+00
         21   -1    0    0  501  502  0.00000000000E+00  0.00000000000E+00  0.55381105744E+03  0.55381105744E+03  0.00000000000E+00 0. -1.
         21   -1    0    0  502  503 -0.00000000000E+00 -0.00000000000E+00 -0.84092135857E+02  0.84092135857E+02  0.00000000000E+00 0. -1.
         -6    2    1    2    0  503  0.12071750378E+02  0.82005953655E+01  0.44488887771E+02  0.17899789399E+03  0.17276576048E+03 0.  0.
        -24    2    3    3    0    0  0.55393805653E+02 -0.53994294904E+01 -0.21743833888E+02  0.98557701497E+02  0.78378560006E+02 0.  0.
          6    2    1    2  501    0 -0.12071750378E+02 -0.82005953655E+01  0.42523003382E+03  0.45890529932E+03  0.17193171656E+03 0.  0.
         24    2    5    5    0    0  0.13633661553E+02 -0.39773048158E+02  0.11584214955E+03  0.14681470204E+03  0.79795871041E+02 0.  0.
          5    1    5    5  501    0 -0.25705411931E+02  0.31572452792E+02  0.30938788426E+03  0.31209059727E+03  0.47000000000E+01 0. -1.
        -13    1    6    6    0    0  0.32707534805E+02 -0.32896323882E+02  0.11764343351E+03  0.12645919661E+03  0.00000000000E+00 0.  1.
         14    1    6    6    0    0 -0.19073873252E+02 -0.68767242757E+01 -0.18012839579E+01  0.20355505435E+02  0.00000000000E+00 0. -1.
         -5    1    3    3    0  503 -0.43322055275E+02  0.13600024856E+02  0.66232721658E+02  0.80440192489E+02  0.47000000000E+01 0.  1.
         11    1    4    4    0    0  0.19805279872E+02 -0.22771535652E+02 -0.43828381550E+02  0.53213898335E+02  0.00000000000E+00 0. -1.
        -12    1    4    4    0    0  0.35588525781E+02  0.17372106162E+02  0.22084547662E+02  0.45343803162E+02  0.00000000000E+00 0.  1.
</event>
<event>
12    1  0.8494789E-002  0.1771306E+03  0.7818608E-02  0.1171326E+00
         21   -1    0    0  503  502  0.00000000000E+00  0.00000000000E+00  0.69545223948E+02  0.69545223948E+02  0.00000000000E+00 0.  1.
         21   -1    0    0  501  503 -0.00000000000E+00 -0.00000000000E+00 -0.46942109678E+03  0.46942109678E+03  0.00000000000E+00 0.  1.
          6    2    1    2  501    0  0.29121316584E+02 -0.77036710222E+01 -0.26436618247E+03  0.31822117398E+03  0.17455039246E+03 0.  0.
         24    2    3    3    0    0  0.45076316330E+02  0.51303195182E+02 -0.21987736257E+03  0.24247345209E+03  0.76048854467E+02 0.  0.
         -6    2    1    2    0  502 -0.29121316584E+02  0.77036710222E+01 -0.13550969036E+03  0.22074514674E+03  0.17163375543E+03 0.  0.
        -24    2    5    5    0    0 -0.10520360705E+02 -0.65338217057E+02 -0.43972341266E+02  0.10207632501E+03  0.64080018201E+02 0.  0.
          5    1    3    3  501    0 -0.15954999746E+02 -0.59006866204E+02 -0.44488819900E+02  0.75747721895E+02  0.47000000000E+01 0. -1.
        -13    1    4    4    0    0  0.26096932707E+01 -0.47153819726E+01  0.47002876103E+01  0.71510859129E+01  0.00000000000E+00 0.  1.
         14    1    4    4    0    0  0.42466623060E+02  0.56018577154E+02 -0.22457765018E+03  0.23532236617E+03  0.00000000000E+00 0. -1.
         -5    1    5    5    0  502 -0.18600955879E+02  0.73041888079E+02 -0.91537349092E+02  0.11866882174E+03  0.47000000000E+01 0.  1.
         11    1    6    6    0    0  0.10694863222E+01 -0.31496399952E+02 -0.56065814679E+02  0.64315959034E+02  0.00000000000E+00 0. -1.
        -12    1    6    6    0    0 -0.11589847027E+02 -0.33841817105E+02  0.12093473413E+02  0.37760365971E+02  0.00000000000E+00 0.  1.
</event>
<event>
12    1  0.8494789E-002  0.1916313E+03  0.7818608E-02  0.1157115E+00
         21   -1    0    0  503  502  0.00000000000E+00  0.00000000000E+00  0.47874809251E+03  0.47874809251E+03  0.00000000000E+00 0.  1.
         21   -1    0    0  501  503 -0.00000000000E+00 -0.00000000000E+00 -0.20353500158E+03  0.20353500158E+03  0.00000000000E+00 0.  1.
          6    2    1    2  501    0  0.59390921704E+02  0.58030362683E+02 -0.13197871774E+03  0.23225227008E+03  0.17212765741E+03 0.  0.
         24    2    3    3    0    0 -0.33300641193E+02  0.13008559600E+02 -0.58119717062E+02  0.10538253150E+03  0.80308287916E+02 0.  0.
         -6    2    1    2    0  502 -0.59390921704E+02 -0.58030362683E+02  0.40719180867E+03  0.45003082401E+03  0.17270717686E+03 0.  0.
        -24    2    5    5    0    0 -0.47542412398E+02 -0.10389389370E+03  0.29519828767E+03  0.32834068721E+03  0.87243083993E+02 0.  0.
          5    1    3    3  501    0  0.92691562898E+02  0.45021803083E+02 -0.73859000679E+02  0.12686973858E+03  0.47000000000E+01 0. -1.
        -13    1    4    4    0    0 -0.17634552813E+02 -0.22286702138E+02 -0.60345382687E+02  0.66702621813E+02  0.00000000000E+00 0.  1.
         14    1    4    4    0    0 -0.15666088380E+02  0.35295261737E+02  0.22256656244E+01  0.38679909691E+02  0.00000000000E+00 0. -1.
         -5    1    5    5    0  502 -0.11848509306E+02  0.45863531019E+02  0.11199352100E+03  0.12169013681E+03  0.47000000000E+01 0.  1.
         13    1    6    6    0    0  0.25560078352E+01 -0.19300319567E+02  0.25694509269E+01  0.19637657434E+02  0.00000000000E+00 0. -1.
        -14    1    6    6    0    0 -0.50098420234E+02 -0.84593574134E+02  0.29262883675E+03  0.30870302977E+03  0.00000000000E+00 0.  1.
</event>
<event>
12    1  0.8494789E-002  0.2823597E+03  0.7818608E-02  0.1094431E+00
         21   -1    0    0  501  502  0.00000000000E+00  0.00000000000E+00  0.29044521327E+03  0.29044521327E+03  0.00000000000E+00 0. -1.
         21   -1    0    0  502  503 -0.00000000000E+00 -0.00000000000E+00 -0.84730911302E+03  0.84730911302E+03  0.00000000000E+00 0.  1.
         -6    2    1    2    0  503 -0.16357386483E+03 -0.15360853169E+03 -0.74626942518E+03  0.79790040074E+03  0.17139137751E+03 0.  0.
        -24    2    3    3    0    0 -0.17637018350E+03 -0.92609869224E+02 -0.65183262488E+03  0.68465296437E+03  0.64659734446E+02 0.  0.
          6    2    1    2  501    0  0.16357386483E+03  0.15360853169E+03  0.18940552543E+03  0.33985392554E+03  0.17109718694E+03 0.  0.
         24    2    5    5    0    0  0.78151520626E+02  0.19857033964E+02  0.32603240735E+02  0.11670490242E+03  0.77814529296E+02 0.  0.
          5    1    5    5  501    0  0.85422344201E+02  0.13375149772E+03  0.15680228470E+03  0.22314902312E+03  0.47000000000E+01 0. -1.
        -13    1    6    6    0    0  0.67327584777E+02  0.44553862014E+02  0.96788453934E+01  0.81312547251E+02  0.00000000000E+00 0.  1.
         14    1    6    6    0    0  0.10823935849E+02 -0.24696828050E+02  0.22924395342E+02  0.35392355174E+02  0.00000000000E+00 0. -1.
         -5    1    3    3    0  503  0.12796318675E+02 -0.60998662462E+02 -0.94436800307E+02  0.11324743638E+03  0.47000000000E+01 0.  1.
         11    1    4    4    0    0 -0.21776910928E+02 -0.38383795288E+02 -0.10764752598E+03  0.11634233727E+03  0.00000000000E+00 0. -1.
        -12    1    4    4    0    0 -0.15459327257E+03 -0.54226073937E+02 -0.54418509889E+03  0.56831062710E+03  0.00000000000E+00 0.  1.
</event>
<event>
12    1  0.8494789E-002  0.1818589E+03  0.7818608E-02  0.1166216E+00
         21   -1    0    0  503  502  0.00000000000E+00  0.00000000000E+00  0.80634915719E+02  0.80634915719E+02  0.00000000000E+00 0. -1.
         21   -1    0    0  501  503 -0.00000000000E+00 -0.00000000000E+00 -0.42569497116E+03  0.42569497116E+03  0.00000000000E+00 0. -1.
          6    2    1    2  501    0  0.33658327235E+02  0.47551981211E+02 -0.12169437136E+03  0.21881996832E+03  0.17227473583E+03 0.  0.
         24    2    3    3    0    0 -0.11284147857E+02 -0.23211390922E+02 -0.10227548964E+03  0.13264303480E+03  0.80422622686E+02 0.  0.
         -6    2    1    2    0  502 -0.33658327235E+02 -0.47551981211E+02 -0.22336568408E+03  0.28750991856E+03  0.17139326281E+03 0.  0.
        -24    2    5    5    0    0  0.43043937793E+02 -0.32814071484E+02 -0.84521894025E+02  0.12813573156E+03  0.79657211008E+02 0.  0.
          5    1    3    3  501    0  0.44942475092E+02  0.70763372132E+02 -0.19418881723E+02  0.86176933516E+02  0.47000000000E+01 0. -1.
        -13    1    4    4    0    0  0.55124577138E+01  0.17373914076E+02  0.30912195405E+01  0.18487718048E+02  0.00000000000E+00 0.  1.
         14    1    4    4    0    0 -0.16796605571E+02 -0.40585304998E+02 -0.10536670918E+03  0.11415531675E+03  0.00000000000E+00 0. -1.
         -5    1    5    5    0  502 -0.76702265028E+02 -0.14737909727E+02 -0.13884379005E+03  0.15937418699E+03  0.47000000000E+01 0.  1.
         13    1    6    6    0    0 -0.17848781683E+02  0.59977656984E+01 -0.37509775614E+02  0.41970650073E+02  0.00000000000E+00 0. -1.
        -14    1    6    6    0    0  0.60892719476E+02 -0.38811837182E+02 -0.47012118411E+02  0.86165081490E+02  0.00000000000E+00 0.  1.
</event>
<event>
12    1  0.8494789E-002  0.3490201E+03  0.7818608E-02  0.1063785E+00
         21   -1    0    0  501  502  0.00000000000E+00  0.00000000000E+00  0.79980869193E+03  0.79980869193E+03  0.00000000000E+00 0.  1.
         21   -1    0    0  502  503 -0.00000000000E+00 -0.00000000000E+00 -0.19875660191E+03  0.19875660191E+03  0.00000000000E+00 0. -1.
         -6    2    1    2    0  503  0.14032917222E+03  0.27251917461E+03  0.53404153476E+02  0.35308223889E+03  0.16690142812E+03 0.  0.
        -24    2    3    3    0    0  0.14313236853E+03  0.21410916263E+03  0.89058725404E+02  0.28443148574E+03  0.81487453434E+02 0.  0.
          6    2    1    2  501    0 -0.14032917222E+03 -0.27251917461E+03  0.54764793654E+03  0.64548305495E+03  0.15090107594E+03 0.  0.
         24    2    5    5    0    0 -0.20133833469E+02 -0.11372519140E+03  0.19932278841E+03  0.24421637631E+03  0.81075730470E+02 0.  0.
          5    1    5    5  501    0 -0.12019533875E+03 -0.15879398321E+03  0.34832514814E+03  0.40126667864E+03  0.47000000000E+01 0. -1.
        -13    1    6    6    0    0 -0.44837707092E+02 -0.10205207134E+03  0.17581301060E+03  0.20817122745E+03  0.00000000000E+00 0.  1.
         14    1    6    6    0    0  0.24703873623E+02 -0.11673120066E+02  0.23509777806E+02  0.36045148863E+02  0.00000000000E+00 0. -1.
         -5    1    3    3    0  503 -0.28031963073E+01  0.58410011986E+02 -0.35654571928E+02  0.68650753158E+02  0.47000000000E+01 0.  1.
         13    1    4    4    0    0  0.67024665134E+02  0.11929284506E+03  0.55752576529E+01  0.13694587295E+03  0.00000000000E+00 0. -1.
        -14    1    4    4    0    0  0.76107703392E+02  0.94816317564E+02  0.83483467752E+02  0.14748561279E+03  0.00000000000E+00 0.  1.
</event>
<event>
12    1  0.8494789E-002  0.2269283E+03  0.7818608E-02  0.1129409E+00
         21   -1    0    0  503  502  0.00000000000E+00  0.00000000000E+00  0.10636719447E+04  0.10636719447E+04  0.00000000000E+00 0. -1.
         21   -1    0    0  501  503 -0.00000000000E+00 -0.00000000000E+00 -0.11613602981E+03  0.11613602981E+03  0.00000000000E+00 0.  1.
          6    2    1    2  501    0 -0.33024486156E+02  0.14313316951E+03  0.22415216616E+02  0.22803261835E+03  0.17297026390E+03 0.  0.
         24    2    3    3    0    0 -0.25598075085E+02  0.72849614101E+02 -0.54386321322E+02  0.12355536737E+03  0.79660084962E+02 0.  0.
         -6    2    1    2    0  502  0.33024486156E+02 -0.14313316951E+03  0.92512069826E+03  0.95177535614E+03  0.16867217112E+03 0.  0.
        -24    2    5    5    0    0 -0.11819733900E+02 -0.15164479453E+03  0.80378685909E+03  0.82205472416E+03  0.81023483385E+02 0.  0.
          5    1    3    3  501    0 -0.74264110707E+01  0.70283555411E+02  0.76801537937E+02  0.10447725098E+03  0.47000000000E+01 0. -1.
        -13    1    4    4    0    0 -0.12435562761E+02  0.79050772781E+02 -0.14800362448E+02  0.81380087411E+02  0.00000000000E+00 0.  1.
         14    1    4    4    0    0 -0.13162512324E+02 -0.62011586800E+01 -0.39585958873E+02  0.42175279958E+02  0.00000000000E+00 0. -1.
         -5    1    5    5    0  502  0.44844220056E+02  0.85116250166E+01  0.12133383917E+03  0.12972063198E+03  0.47000000000E+01 0.  1.
         13    1    6    6    0    0 -0.25744349258E+01 -0.76932796793E+02  0.59792841494E+03  0.60286289679E+03  0.00000000000E+00 0. -1.
        -14    1    6    6    0    0 -0.92452989746E+01 -0.74711997735E+02  0.20585844415E+03  0.21919182737E+03  0.00000000000E+00 0.  1.
</event>
<event>
12    1  0.8494789E-002  0.2359972E+03  0.7818608E-02  0.1122959E+00
         21   -1    0    0  501  502  0.00000000000E+00  0.00000000000E+00  0.10215471227E+03  0.10215471227E+03  0.00000000000E+00 0.  1.
         21   -1    0    0  502  503 -0.00000000000E+00 -0.00000000000E+00 -0.10103278168E+04  0.10103278168E+04  0.00000000000E+00 0. -1.
         -6    2    1    2    0  503 -0.15381647230E+03 -0.48828936222E+02 -0.83547397102E+03  0.86816555294E+03  0.17219436372E+03 0.  0.
        -24    2    3    3    0    0 -0.16642435308E+03 -0.75506861573E+02 -0.77973752878E+03  0.80492544421E+03  0.80721778371E+02 0.  0.
          6    2    1    2  501    0  0.15381647230E+03  0.48828936222E+02 -0.72699133456E+02  0.24431697608E+03  0.16840976407E+03 0.  0.
         24    2    5    5    0    0  0.44279967490E+02  0.77125275884E+02 -0.43444442765E+02  0.12736888652E+03  0.80164767479E+02 0.  0.
          5    1    5    5  501    0  0.10953650481E+03 -0.28296339663E+02 -0.29254690692E+02  0.11694808956E+03  0.47000000000E+01 0. -1.
        -13    1    6    6    0    0 -0.28256595428E+01 -0.10475527028E+02  0.97392712959E+01  0.14579932227E+02  0.00000000000E+00 0.  1.
         14    1    6    6    0    0  0.47105627032E+02  0.87600802913E+02 -0.53183714061E+02  0.11278895429E+03  0.00000000000E+00 0. -1.
         -5    1    3    3    0  503  0.12607880781E+02  0.26677925351E+02 -0.55736442240E+02  0.63240108732E+02  0.47000000000E+01 0.  1.
         13    1    4    4    0    0 -0.52853144031E+01 -0.27627514886E+02 -0.17551734825E+03  0.17775700736E+03  0.00000000000E+00 0. -1.
        -14    1    4    4    0    0 -0.16113903868E+03 -0.47879346687E+02 -0.60422018053E+03  0.62716843685E+03  0.00000000000E+00 0.  1.
</event>
<event>
12    1  0.8494789E-002  0.2137078E+03  0.7818608E-02  0.1138939E+00
         21   -1    0    0  501  502  0.00000000000E+00  0.00000000000E+00  0.96102386685E+03  0.96102386685E+03  0.00000000000E+00 0.  1.
         21   -1    0    0  502  503 -0.00000000000E+00 -0.00000000000E+00 -0.79883247521E+02  0.79883247521E+02  0.00000000000E+00 0.  1.
         -6    2    1    2    0  503  0.58360174227E+02 -0.10161713293E+03  0.10857879127E+03  0.23970894056E+03  0.17871505429E+03 0.  0.
        -24    2    3    3    0    0  0.17271356313E+02 -0.94623077335E+02  0.13957600537E+03  0.18755412244E+03  0.80269926220E+02 0.  0.
          6    2    1    2  501    0 -0.58360174227E+02  0.10161713293E+03  0.77256182806E+03  0.80119817381E+03  0.17701633796E+03 0.  0.
         24    2    5    5    0    0 -0.10530933560E+03  0.62939036480E+02  0.41849599341E+03  0.44191426913E+03  0.71399903934E+02 0.  0.
          5    1    5    5  501    0  0.46949161372E+02  0.38678096449E+02  0.35406583464E+03  0.35928390468E+03  0.47000000000E+01 0. -1.
        -11    1    6    6    0    0 -0.64704927597E+02  0.71427565914E+02  0.33639228663E+03  0.34992627128E+03  0.00000000000E+00 0.  1.
         12    1    6    6    0    0 -0.40604408002E+02 -0.84885294341E+01  0.82103706779E+02  0.91987997847E+02  0.00000000000E+00 0. -1.
         -5    1    3    3    0  503  0.41088817914E+02 -0.69940555940E+01 -0.30997214101E+02  0.52154818121E+02  0.47000000000E+01 0.  1.
         11    1    4    4    0    0 -0.10855736687E+02  0.10241410741E+02  0.28841422086E+02  0.32474007159E+02  0.00000000000E+00 0. -1.
        -12    1    4    4    0    0  0.28127093000E+02 -0.10486448808E+03  0.11073458328E+03  0.15508011528E+03  0.00000000000E+00 0.  1.
</event>
<event>
12    1  0.8494789E-002  0.2434868E+03  0.7818608E-02  0.1117602E+00
         21   -1    0    0  503  502  0.00000000000E+00  0.00000000000E+00  0.16221457749E+03  0.16221457749E+03  0.00000000000E+00 0.  1.
         21   -1    0    0  501  503 -0.00000000000E+00 -0.00000000000E+00 -0.44357564376E+03  0.44357564376E+03  0.00000000000E+00 0.  1.
          6    2    1    2  501    0 -0.75930029463E+02 -0.15426715032E+03 -0.12607650015E+02  0.24314130877E+03  0.17144975984E+03 0.  0.
         24    2    3    3    0    0 -0.60839953190E+01 -0.42908986527E+02  0.39194468908E+02  0.10177420279E+03  0.83328181525E+02 0.  0.
         -6    2    1    2    0  502  0.75930029463E+02  0.15426715032E+03 -0.26875341626E+03  0.36264891248E+03  0.17240102067E+03 0.  0.
        -24    2    5    5    0    0  0.43422618617E+02  0.76006106883E+02 -0.50985756019E+02  0.12892607122E+03  0.79749184521E+02 0.  0.
          5    1    3    3  501    0 -0.69846034144E+02 -0.11135816379E+03 -0.51802118924E+02  0.14136710598E+03  0.47000000000E+01 0. -1.
        -11    1    4    4    0    0 -0.10880021770E+02 -0.67753000186E+02  0.28471435453E+02  0.74293112364E+02  0.00000000000E+00 0.  1.
         12    1    4    4    0    0  0.47960264506E+01  0.24844013659E+02  0.10723033456E+02  0.27481090424E+02  0.00000000000E+00 0. -1.
         -5    1    5    5    0  502  0.32507410846E+02  0.78261043436E+02 -0.21776766024E+03  0.23372284126E+03  0.47000000000E+01 0.  1.
         13    1    6    6    0    0 -0.10045444815E+02  0.60563234080E+02 -0.16940986514E+02  0.63685267588E+02  0.00000000000E+00 0. -1.
        -14    1    6    6    0    0  0.53468063432E+02  0.15442872803E+02 -0.34044769505E+02  0.65240803629E+02  0.00000000000E+00 0.  1.
</event>
<event>
12    1  0.8494789E-002  0.1890689E+03  0.7818608E-02  0.1159479E+00
         21   -1    0    0  501  502  0.00000000000E+00  0.00000000000E+00  0.53279040185E+03  0.53279040185E+03  0.00000000000E+00 0.  1.
         21   -1    0    0  502  503 -0.00000000000E+00 -0.00000000000E+00 -0.17124642121E+03  0.17124642121E+03  0.00000000000E+00 0.  1.
         -6    2    1    2    0  503 -0.71923466183E+02 -0.20090101248E+02 -0.94260016790E+02  0.21057522527E+03  0.17285941564E+03 0.  0.
        -24    2    3    3    0    0 -0.79689526974E+02 -0.64976769282E+02 -0.10005834311E+03  0.16441425414E+03  0.80299275729E+02 0.  0.
          6    2    1    2  501    0  0.71923466183E+02  0.20090101248E+02  0.45580399742E+03  0.49346159779E+03  0.17369648030E+03 0.  0.
         24    2    5    5    0    0 -0.16996277151E+02  0.30650824744E+02  0.31137701489E+03  0.32346308921E+03  0.80276884498E+02 0.  0.
          5    1    5    5  501    0  0.88919743334E+02 -0.10560723496E+02  0.14442698253E+03  0.16999850857E+03  0.47000000000E+01 0. -1.
        -11    1    6    6    0    0  0.53738151918E+01  0.53430614765E+02  0.16050810994E+03  0.16925295224E+03  0.00000000000E+00 0.  1.
         12    1    6    6    0    0 -0.22370092343E+02 -0.22779790020E+02  0.15086890495E+03  0.15421013698E+03  0.00000000000E+00 0. -1.
         -5    1    3    3    0  503  0.77660607914E+01  0.44886668034E+02  0.57983263248E+01  0.46160971129E+02  0.47000000000E+01 0.  1.
         13    1    4    4    0    0 -0.25659129944E+02 -0.71568987341E+02 -0.58689905225E+02  0.96046946197E+02  0.00000000000E+00 0. -1.
        -14    1    4    4    0    0 -0.54030397031E+02  0.65922180588E+01 -0.41368437889E+02  0.68367307945E+02  0.00000000000E+00 0.  1.
</event>
<event>
12    1  0.8494789E-002  0.4182968E+03  0.7818608E-02  0.1037725E+00
         21   -1    0    0  501  502  0.00000000000E+00  0.00000000000E+00  0.53451589348E+03  0.53451589348E+03  0.00000000000E+00 0. -1.
         21   -1    0    0  502  503 -0.00000000000E+00 -0.00000000000E+00 -0.46233756742E+03  0.46233756742E+03  0.00000000000E+00 0. -1.
         -6    2    1    2    0  503 -0.37761371325E+03  0.39528016440E+02 -0.23417125790E+03  0.47938338635E+03  0.17554962993E+03 0.  0.
        -24    2    3    3    0    0 -0.24811127673E+03  0.94332363015E+02 -0.16591973157E+03  0.32300321397E+03  0.79648719763E+02 0.  0.
          6    2    1    2  501    0  0.37761371325E+03 -0.39528016440E+02  0.30634958396E+03  0.51747007455E+03  0.17254167598E+03 0.  0.
         24    2    5    5    0    0  0.34080147921E+03  0.10977547850E+02  0.28304370363E+03  0.45060299254E+03  0.81628205487E+02 0.  0.
          5    1    5    5  501    0  0.36812234031E+02 -0.50505564290E+02  0.23305880328E+02  0.66867082009E+02  0.47000000000E+01 0. -1.
        -11    1    6    6    0    0  0.18001219558E+02  0.11889239278E+02  0.43748482354E+02  0.48778352006E+02  0.00000000000E+00 0.  1.
         12    1    6    6    0    0  0.32280025966E+03 -0.91169142773E+00  0.23929522127E+03  0.40182464053E+03  0.00000000000E+00 0. -1.
         -5    1    3    3    0  503 -0.12950243652E+03 -0.54804346575E+02 -0.68251526324E+02  0.15638017238E+03  0.47000000000E+01 0.  1.
         13    1    4    4    0    0 -0.17391158615E+03  0.29721725100E+02 -0.12609710571E+03  0.21686193951E+03  0.00000000000E+00 0. -1.
        -14    1    4    4    0    0 -0.74199690578E+02  0.64610637915E+02 -0.39822625862E+02  0.10614127446E+03  0.00000000000E+00 0.  1.
</event>
<event>
12    1  0.8494789E-002  0.1799921E+03  0.7818608E-02  0.1168297E+00
         21   -1    0    0  503  502  0.00000000000E+00  0.00000000000E+00  0.46091597183E+03  0.46091597183E+03  0.00000000000E+00 0.  1.
         21   -1    0    0  501  503 -0.00000000000E+00 -0.00000000000E+00 -0.11297981761E+03  0.11297981761E+03  0.00000000000E+00 0.  1.
          6    2    1    2  501    0 -0.29042742169E+02  0.17954763009E+02 -0.34228812057E+01  0.18002463749E+03  0.17672379467E+03 0.  0.
         24    2    3    3    0    0  0.37005407053E+02 -0.36166027305E+02 -0.61743012859E+01  0.94461337694E+02  0.78787312687E+02 0.  0.
         -6    2    1    2    0  502  0.29042742169E+02 -0.17954763009E+02  0.35135903542E+03  0.39387115195E+03  0.17468674299E+03 0.  0.
        -24    2    5    5    0    0  0.51603246264E+02 -0.47005182253E+02  0.11882903873E+03  0.15840312320E+03  0.78094985811E+02 0.  0.
          5    1    3    3  501    0 -0.66048149222E+02  0.54120790314E+02  0.27514200802E+01  0.85563299798E+02  0.47000000000E+01 0. -1.
        -13    1    4    4    0    0 -0.22716203371E+02  0.22910096806E+01  0.21987045520E+01  0.22937064387E+02  0.00000000000E+00 0.  1.
         14    1    4    4    0    0  0.59721610425E+02 -0.38457036985E+02 -0.83730058379E+01  0.71524273308E+02  0.00000000000E+00 0. -1.
         -5    1    5    5    0  502 -0.22560504095E+02  0.29050419244E+02  0.23252999670E+03  0.23546802876E+03  0.47000000000E+01 0.  1.
         13    1    6    6    0    0  0.55618484491E+02 -0.48053043980E+01  0.39265833287E+02  0.68251830973E+02  0.00000000000E+00 0. -1.
        -14    1    6    6    0    0 -0.40152382272E+01 -0.42199877855E+02  0.79563205442E+02  0.90151292222E+02  0.00000000000E+00 0.  1.
</event>
<event>
12    1  0.8494789E-002  0.2392211E+03  0.7818608E-02  0.1120581E+00
         21   -1    0    0  503  502  0.00000000000E+00  0.00000000000E+00  0.99860573604E+03  0.99860573604E+03  0.00000000000E+00 0. -1.
         21   -1    0    0  501  503 -0.00000000000E+00 -0.00000000000E+00 -0.12141760614E+03  0.12141760614E+03  0.00000000000E+00 0. -1.
          6    2    1    2  501    0 -0.13220941045E+03  0.97389522347E+02  0.29762628454E+02  0.23947991182E+03  0.17175787271E+03 0.  0.
         24    2    3    3    0    0 -0.44979277543E+02  0.76320911296E+02 -0.39934552945E+02  0.12575757649E+03  0.79825952019E+02 0.  0.
         -6    2    1    2    0  502  0.13220941045E+03 -0.97389522347E+02  0.84742550145E+03  0.88054343036E+03  0.17396179172E+03 0.  0.
        -24    2    5    5    0    0  0.27114608097E+02 -0.86567434830E+02  0.58653274918E+03  0.59903116909E+03  0.81169901689E+02 0.  0.
          5    1    3    3  501    0 -0.87230132904E+02  0.21068611052E+02  0.69697181399E+02  0.11372233533E+03  0.47000000000E+01 0. -1.
        -11    1    4    4    0    0  0.22276411112E+02  0.99474640932E+01 -0.43169741984E+01  0.24775528252E+02  0.00000000000E+00 0.  1.
         12    1    4    4    0    0 -0.67255688655E+02  0.66373447203E+02 -0.35617578746E+02  0.10098204824E+03  0.00000000000E+00 0. -1.
         -5    1    5    5    0  502  0.10509480235E+03 -0.10822087518E+02  0.26089275227E+03  0.28151226127E+03  0.47000000000E+01 0.  1.
         13    1    6    6    0    0  0.31832562366E+02 -0.86409238559E+02  0.58709878647E+03  0.59427674833E+03  0.00000000000E+00 0. -1.
        -14    1    6    6    0    0 -0.47179542692E+01 -0.15819627049E+00 -0.56603729087E+00  0.47544207598E+01  0.00000000000E+00 0.  1.
</event>
<event>
12    1  0.8494789E-002  0.2004603E+03  0.7818608E-02  0.1150143E+00
         21   -1    0    0  503  502  0.00000000000E+00  0.00000000000E+00  0.45689521333E+03  0.45689521333E+03  0.00000000000E+00 0. -1.
         21   -1    0    0  501  503 -0.00000000000E+00 -0.00000000000E+00 -0.10859451215E+03  0.10859451215E+03  0.00000000000E+00 0. -1.
          6    2    1    2  501    0  0.33312040627E+02  0.97418861771E+02  0.44812518044E+02  0.20177362742E+03  0.16764339615E+03 0.  0.
         24    2    3    3    0    0  0.61962017752E+02  0.11494264447E+03  0.10821364559E+02  0.15375912269E+03  0.80459074809E+02 0.  0.
         -6    2    1    2    0  502 -0.33312040627E+02 -0.97418861771E+02  0.30348818314E+03  0.36371609806E+03  0.17200056977E+03 0.  0.
        -24    2    5    5    0    0  0.10589742559E+02  0.63108701726E+01  0.17745609656E+03  0.19462026516E+03  0.78958290723E+02 0.  0.
          5    1    3    3  501    0 -0.28649977125E+02 -0.17523782698E+02  0.33991153485E+02  0.48014504731E+02  0.47000000000E+01 0. -1.
        -13    1    4    4    0    0  0.21306331975E+02  0.96943561055E+02  0.32300784811E+02  0.10438081486E+03  0.00000000000E+00 0.  1.
         14    1    4    4    0    0  0.40655685777E+02  0.17999083414E+02 -0.21479420252E+02  0.49378307830E+02  0.00000000000E+00 0. -1.
         -5    1    5    5    0  502 -0.43901783186E+02 -0.10372973194E+03  0.12603208658E+03  0.16909583290E+03  0.47000000000E+01 0.  1.
         11    1    6    6    0    0 -0.69386934559E+01  0.40658838097E+02  0.86693299864E+02  0.96005285394E+02  0.00000000000E+00 0. -1.
        -12    1    6    6    0    0  0.17528436015E+02 -0.34347967925E+02  0.90762796693E+02  0.98614979761E+02  0.00000000000E+00 0.  1.
</event>
<event>
12    1  0.8494789E-002  0.2005836E+03  0.7818608E-02  0.1149283E+00
         21   -1    0    0  503  502  0.00000000000E+00  0.00000000000E+00  0.71084997945E+03  0.71084997945E+03  0.00000000000E+00 0. -1.
         21   -1    0    0  501  503 -0.00000000000E+00 -0.00000000000E+00 -0.66076534271E+02  0.66076534271E+02  0.00000000000E+00 0.  1.
          6    2    1    2  501    0 -0.44751047235E+02 -0.97978807208E+02  0.17478105164E+03  0.26592098829E+03  0.16900607417E+03 0.  0.
         24    2    3    3    0    0 -0.73312000532E+02 -0.10408776196E+03  0.18175526882E+03  0.23552728686E+03  0.78925366633E+02 0.  0.
         -6    2    1    2    0  502  0.44751047235E+02  0.97978807208E+02  0.46999239354E+03  0.51100552544E+03  0.16920784306E+03 0.  0.
        -24    2    5    5    0    0  0.14459306484E+02  0.12449443040E+03  0.28598767147E+03  0.32258977351E+03  0.81038749963E+02 0.  0.
          5    1    3    3  501    0  0.28560953297E+02  0.61089547519E+01 -0.69742171786E+01  0.30393701430E+02  0.47000000000E+01 0. -1.
        -11    1    4    4    0    0 -0.39164140797E+02 -0.10848376726E+03  0.13806391831E+03  0.17990053703E+03  0.00000000000E+00 0.  1.
         12    1    4    4    0    0 -0.34147859735E+02  0.43960053018E+01  0.43691350506E+02  0.55626749825E+02  0.00000000000E+00 0. -1.
         -5    1    5    5    0  502  0.30291740751E+02 -0.26515623189E+02  0.18400472207E+03  0.18841575193E+03  0.47000000000E+01 0.  1.
         11    1    6    6    0    0  0.33459847720E+02  0.23145485812E+02  0.12459083831E+03  0.13106544897E+03  0.00000000000E+00 0. -1.
        -12    1    6    6    0    0 -0.19000541236E+02  0.10134894459E+03  0.16139683316E+03  0.19152432454E+03  0.00000000000E+00 0.  1.
</event>
<event>
12    1  0.8494789E-002  0.1995699E+03  0.7818608E-02  0.1150591E+00
         21   -1    0    0  501  502  0.00000000000E+00  0.00000000000E+00  0.24382500740E+04  0.24382500740E+04  0.00000000000E+00 0. -1.
         21   -1    0    0  502  503 -0.00000000000E+00 -0.00000000000E+00 -0.19105218808E+02  0.19105218808E+02  0.00000000000E+00 0. -1.
         -6    2    1    2    0  503 -0.98076795497E+02  0.96393630247E+01  0.73203738903E+03  0.75875351647E+03  0.17354015298E+03 0.  0.
        -24    2    3    3    0    0 -0.97719520419E+01 -0.53670880272E+02  0.25736562948E+03  0.27178195509E+03  0.68207840025E+02 0.  0.
          6    2    1    2  501    0  0.98076795497E+02 -0.96393630247E+01  0.16871074661E+04  0.16986017763E+04  0.17089299877E+03 0.  0.
         24    2    5    5    0    0  0.46609865833E+02 -0.94019744223E+01  0.40278267080E+03  0.41323755901E+03  0.79186637487E+02 0.  0.
          5    1    5    5  501    0  0.51466929664E+02 -0.23738860247E+00  0.12843247953E+04  0.12853642173E+04  0.47000000000E+01 0. -1.
        -11    1    6    6    0    0 -0.10482938333E+02 -0.26861197564E+02  0.19236260110E+03  0.19451166091E+03  0.00000000000E+00 0.  1.
         12    1    6    6    0    0  0.57092804166E+02  0.17459223142E+02  0.21042006971E+03  0.21872589809E+03  0.00000000000E+00 0. -1.
         -5    1    3    3    0  503 -0.88304843455E+02  0.63310243296E+02  0.47467175955E+03  0.48697156138E+03  0.47000000000E+01 0.  1.
         13    1    4    4    0    0  0.75208503864E+01  0.55420931748E+01  0.26609303654E+01  0.97138322871E+01  0.00000000000E+00 0. -1.
        -14    1    4    4    0    0 -0.17292802428E+02 -0.59212973447E+02  0.25470469911E+03  0.26206812280E+03  0.00000000000E+00 0.  1.
</event>
<event>
12    1  0.8494789E-002  0.1972151E+03  0.7818608E-02  0.1152466E+00
         21   -1    0    0  501  502  0.00000000000E+00  0.00000000000E+00  0.94550073882E+02  0.94550073882E+02  0.00000000000E+00 0.  1.
         21   -1    0    0  502  503 -0.00000000000E+00 -0.00000000000E+00 -0.44284224746E+03  0.44284224746E+03  0.00000000000E+00 0.  1.
         -6    2    1    2    0  503 -0.89388250291E+02  0.25770646658E+02 -0.98026509238E+02  0.21875977930E+03  0.17202400707E+03 0.  0.
        -24    2    3    3    0    0  0.30141215631E+01 -0.25696116927E+02 -0.17018407136E+02  0.85450257196E+02  0.79641351818E+02 0.  0.
          6    2    1    2  501    0  0.89388250291E+02 -0.25770646658E+02 -0.25026566434E+03  0.31863254204E+03  0.17389482045E+03 0.  0.
         24    2    5    5    0    0 -0.14173460243E+02  0.13857184303E+02 -0.87235952752E+02  0.12141142315E+03  0.82083577448E+02 0.  0.
          5    1    5    5  501    0  0.10356171053E+03 -0.39627830961E+02 -0.16302971159E+03  0.19722111889E+03  0.47000000000E+01 0. -1.
        -11    1    6    6    0    0  0.22748499473E+02  0.14333150581E+02 -0.79176209463E+02  0.83617017280E+02  0.00000000000E+00 0.  1.
         12    1    6    6    0    0 -0.36921959716E+02 -0.47596627786E+00 -0.80597432886E+01  0.37794405870E+02  0.00000000000E+00 0. -1.
         -5    1    3    3    0  503 -0.92402371854E+02  0.51466763585E+02 -0.81008102102E+02  0.13330952211E+03  0.47000000000E+01 0.  1.
         11    1    4    4    0    0 -0.24898619736E+02  0.10879268305E+02 -0.27070866845E+02  0.38355333076E+02  0.00000000000E+00 0. -1.
        -12    1    4    4    0    0  0.27912741299E+02 -0.36575385232E+02  0.10052459708E+02  0.47094924120E+02  0.00000000000E+00 0.  1.
</event>
<event>
12    1  0.8494789E-002  0.1804141E+03  0.7818608E-02  0.1167517E+00
         21   -1    0    0  501  502  0.00000000000E+00  0.00000000000E+00  0.15222398340E+03  0.15222398340E+03  0.00000000000E+00 0.  1.
         21   -1    0    0  502  503 -0.00000000000E+00 -0.00000000000E+00 -0.21768256695E+03  0.21768256695E+03  0.00000000000E+00 0.  1.
         -6    2    1    2    0  503 -0.13030717991E+02 -0.50786958333E+02 -0.64227613257E+01  0.18052835889E+03  0.17262711766E+03 0.  0.
        -24    2    3    3    0    0 -0.69842865891E+01  0.19224965744E+02  0.42757177634E+02  0.94627338860E+02  0.81901022298E+02 0.  0.
          6    2    1    2  501    0  0.13030717991E+02  0.50786958333E+02 -0.59035822227E+02  0.18937819146E+03  0.17213296124E+03 0.  0.
         24    2    5    5    0    0 -0.34019682431E+02  0.75926783984E+02 -0.85179698360E+01  0.11575825921E+03  0.80032514934E+02 0.  0.
          5    1    5    5  501    0  0.47050400422E+02 -0.25139825650E+02 -0.50517852391E+02  0.73619932245E+02  0.47000000000E+01 0. -1.
        -13    1    6    6    0    0  0.15157269505E+02  0.32770432539E+02  0.23333039603E+02  0.42989240570E+02  0.00000000000E+00 0.  1.
         14    1    6    6    0    0 -0.49176951936E+02  0.43156351444E+02 -0.31851009439E+02  0.72769018641E+02  0.00000000000E+00 0. -1.
         -5    1    3    3    0  503 -0.60464314017E+01 -0.70011924077E+02 -0.49179938960E+02  0.85901020028E+02  0.47000000000E+01 0.  1.
         11    1    4    4    0    0 -0.31535638515E+02  0.16863112866E+02  0.56142569684E+02  0.66564624260E+02  0.00000000000E+00 0. -1.
        -12    1    4    4    0    0  0.24551351926E+02  0.23618528781E+01 -0.13385392050E+02  0.28062714600E+02  0.00000000000E+00 0.  1.
</event>
<event>
12    1  0.8494789E-002  0.1842183E+03  0.7818608E-02  0.1166275E+00
         21   -1    0    0  503  502  0.00000000000E+00  0.00000000000E+00  0.14490246291E+03  0.14490246291E+03  0.00000000000E+00 0. -1.
         21   -1    0    0  501  503 -0.00000000000E+00 -0.00000000000E+00 -0.22638198578E+03  0.22638198578E+03  0.00000000000E+00 0.  1.
          6    2    1    2  501    0  0.57566155332E+02  0.30114549348E+02 -0.67419943226E+02  0.18653039927E+03  0.16133007402E+03 0.  0.
         24    2    3    3    0    0  0.68224827854E+02  0.36533954269E+02  0.15953421815E+01  0.11624515416E+03  0.86723894052E+02 0.  0.
         -6    2    1    2    0  502 -0.57566155332E+02 -0.30114549348E+02 -0.14059579640E+02  0.18475404942E+03  0.17238224583E+03 0.  0.
        -24    2    5    5    0    0 -0.12297595203E+02 -0.79241778791E+02  0.11521881029E+02  0.11306563795E+03  0.78870744826E+02 0.  0.
          5    1    3    3  501    0 -0.10658672521E+02 -0.64194049208E+01 -0.69015285408E+02  0.70285245104E+02  0.47000000000E+01 0. -1.
        -13    1    4    4    0    0  0.56727194876E+02  0.12821501129E+02 -0.37425179484E+02  0.69159305875E+02  0.00000000000E+00 0.  1.
         14    1    4    4    0    0  0.11497632978E+02  0.23712453139E+02  0.39020521666E+02  0.47085848288E+02  0.00000000000E+00 0. -1.
         -5    1    5    5    0  502 -0.45268560129E+02  0.49127229443E+02 -0.25581460669E+02  0.71688411469E+02  0.47000000000E+01 0.  1.
         13    1    6    6    0    0 -0.45880482677E+02 -0.41178106499E+02  0.82578259302E+01  0.62200054941E+02  0.00000000000E+00 0. -1.
        -14    1    6    6    0    0  0.33582887474E+02 -0.38063672292E+02  0.32640550989E+01  0.50865583012E+02  0.00000000000E+00 0.  1.
</event>
<event>
12    1  0.8494789E-002  0.1765394E+03  0.7818608E-02  0.1172011E+00
         21   -1    0    0  501  502  0.00000000000E+00  0.00000000000E+00  0.36138656039E+03  0.36138656039E+03  0.00000000000E+00 0.  1.
         21   -1    0    0  502  503 -0.00000000000E+00 -0.00000000000E+00 -0.10351125882E+03  0.10351125882E+03  0.00000000000E+00 0.  1.
         -6    2    1    2    0  503 -0.41864661904E+02  0.10699004520E+02  0.30717507415E+02  0.17919189397E+03  0.17116965558E+03 0.  0.
        -24    2    3    3    0    0  0.25107235316E+02 -0.37473869606E+02  0.13447230654E+01  0.91495193471E+02  0.79592072342E+02 0.  0.
          6    2    1    2  501    0  0.41864661904E+02 -0.10699004520E+02  0.22715779416E+03  0.28570592524E+03  0.16780969476E+03 0.  0.
         24    2    5    5    0    0  0.85102368193E+02 -0.25525775386E+02  0.12140160615E+03  0.17039853744E+03  0.80020830440E+02 0.  0.
          5    1    5    5  501    0 -0.43237706289E+02  0.14826770866E+02  0.10575618801E+03  0.11530738780E+03  0.47000000000E+01 0. -1.
        -11    1    6    6    0    0  0.31535198851E+02 -0.31668075809E+01  0.10558034920E+03  0.11023478386E+03  0.00000000000E+00 0.  1.
         12    1    6    6    0    0  0.53567169342E+02 -0.22358967805E+02  0.15821256951E+02  0.60163753574E+02  0.00000000000E+00 0. -1.
         -5    1    3    3    0  503 -0.66971897220E+02  0.48172874126E+02  0.29372784350E+02  0.87696700504E+02  0.47000000000E+01 0.  1.
         13    1    4    4    0    0 -0.11731401708E+02 -0.41739077817E+02  0.22451527460E+02  0.48824660658E+02  0.00000000000E+00 0. -1.
        -14    1    4    4    0    0  0.36838637023E+02  0.42652082113E+01 -0.21106804394E+02  0.42670532813E+02  0.00000000000E+00 0.  1.
</event>
<event>
12    1  0.8494789E-002  0.1824009E+03  0.7818608E-02  0.1166388E+00
         21   -1    0    0  503  502  0.00000000000E+00  0.00000000000E+00  0.14641052763E+03  0.14641052763E+03  0.00000000000E+00 0.  1.
         21   -1    0    0  501  503 -0.00000000000E+00 -0.00000000000E+00 -0.23797676182E+03  0.23797676182E+03  0.00000000000E+00 0.  1.
          6    2    1    2  501    0 -0.47166816295E+02 -0.13271731419E+02  0.25361989542E+01  0.18241858027E+03  0.17569649601E+03 0.  0.
         24    2    3    3    0    0 -0.68350086210E+02 -0.52369818155E+02  0.36549271353E+02  0.12623699606E+03  0.84767905481E+02 0.  0.
         -6    2    1    2    0  502  0.47166816295E+02  0.13271731419E+02 -0.94102433146E+02  0.20196870918E+03  0.17185820944E+03 0.  0.
        -24    2    5    5    0    0 -0.34460897742E+02 -0.18904119762E+02 -0.35960112002E+02  0.96607480042E+02  0.80591291885E+02 0.  0.
          5    1    3    3  501    0  0.21183269915E+02  0.39098086735E+02 -0.34013072399E+02  0.56181584213E+02  0.47000000000E+01 0. -1.
        -13    1    4    4    0    0  0.74965645770E+01 -0.43075983177E+02  0.68611311396E+01  0.44258489893E+02  0.00000000000E+00 0.  1.
         14    1    4    4    0    0 -0.75846650787E+02 -0.92938349777E+01  0.29688140213E+02  0.81978506168E+02  0.00000000000E+00 0. -1.
         -5    1    5    5    0  502  0.81627714037E+02  0.32175851181E+02 -0.58142321144E+02  0.10536122914E+03  0.47000000000E+01 0.  1.
         11    1    6    6    0    0  0.25189515612E+02 -0.16006614809E+02 -0.98496581650E+01  0.31428318128E+02  0.00000000000E+00 0. -1.
        -12    1    6    6    0    0 -0.59650413354E+02 -0.28975049527E+01 -0.26110453837E+02  0.65179161914E+02  0.00000000000E+00 0.  1.
</event>
<event>
12    1  0.8494789E-002  0.1952149E+03  0.7818608E-02  0.1154085E+00
         21   -1    0    0  501  502  0.00000000000E+00  0.00000000000E+00  0.52391377372E+02  0.52391377372E+02  0.00000000000E+00 0.  1.
         21   -1    0    0  502  503 -0.00000000000E+00 -0.00000000000E+00 -0.72331988932E+03  0.72331988932E+03  0.00000000000E+00 0.  1.
         -6    2    1    2    0  503  0.91172111899E+02 -0.48778944761E+01 -0.33163926030E+03  0.38482912843E+03  0.17254770723E+03 0.  0.
        -24    2    3    3    0    0  0.71609459335E+02 -0.67038656468E+02 -0.20184016181E+03  0.23951376903E+03  0.83697661318E+02 0.  0.
          6    2    1    2  501    0 -0.91172111899E+02  0.48778944761E+01 -0.33928925165E+03  0.39088213826E+03  0.17127609841E+03 0.  0.
         24    2    5    5    0    0 -0.46988192520E+02  0.34287752437E+02 -0.31932308530E+03  0.33397962271E+03  0.78686818352E+02 0.  0.
          5    1    5    5  501    0 -0.44183919380E+02 -0.29409857961E+02 -0.19966166352E+02  0.56902515550E+02  0.47000000000E+01 0. -1.
        -11    1    6    6    0    0 -0.68876698258E+02  0.21096379095E+02 -0.22456190348E+03  0.23583279091E+03  0.00000000000E+00 0.  1.
         12    1    6    6    0    0  0.21888505739E+02  0.13191373343E+02 -0.94761181813E+02  0.98146831801E+02  0.00000000000E+00 0. -1.
         -5    1    3    3    0  503  0.19562652564E+02  0.62160761992E+02 -0.12979909849E+03  0.14531535940E+03  0.47000000000E+01 0.  1.
         11    1    4    4    0    0 -0.14370014537E+02  0.56238577125E+01 -0.15935378370E+02  0.22182456518E+02  0.00000000000E+00 0. -1.
        -12    1    4    4    0    0  0.85979473872E+02 -0.72662514180E+02 -0.18590478344E+03  0.21733131251E+03  0.00000000000E+00 0.  1.
</event>
<event>
12    1  0.8494789E-002  0.2728997E+03  0.7818608E-02  0.1099989E+00
         21   -1    0    0  501  502  0.00000000000E+00  0.00000000000E+00  0.17845986416E+03  0.17845986416E+03  0.00000000000E+00 0. -1.
         21   -1    0    0  502  503 -0.00000000000E+00 -0.00000000000E+00 -0.76050537727E+03  0.76050537727E+03  0.00000000000E+00 0.  1.
         -6    2    1    2    0  503 -0.16698457193E+03  0.13031664834E+03  0.26850654205E+02  0.27171056369E+03  0.16804581725E+03 0.  0.
        -24    2    3    3    0    0 -0.11145195254E+03  0.10167958700E+03 -0.43963211930E+02  0.17715557051E+03  0.81798875436E+02 0.  0.
          6    2    1    2  501    0  0.16698457193E+03 -0.13031664834E+03 -0.60889616732E+03  0.66725467774E+03  0.17206971344E+03 0.  0.
         24    2    5    5    0    0  0.54559878475E+02 -0.61275327483E+02 -0.15376944232E+03  0.19336814966E+03  0.83754127141E+02 0.  0.
          5    1    5    5  501    0  0.11242469346E+03 -0.69041320856E+02 -0.45512672500E+03  0.47388652808E+03  0.47000000000E+01 0. -1.
        -13    1    6    6    0    0  0.21143613630E+02 -0.64567693759E+02 -0.50154582707E+02  0.84448337114E+02  0.00000000000E+00 0.  1.
         14    1    6    6    0    0  0.33416264845E+02  0.32923662758E+01 -0.10361485962E+03  0.10891981255E+03  0.00000000000E+00 0. -1.
         -5    1    3    3    0  503 -0.55532619396E+02  0.28637061336E+02  0.70813866134E+02  0.94554993183E+02  0.47000000000E+01 0.  1.
         11    1    4    4    0    0 -0.45034504200E+02  0.44940422486E+02  0.22403000466E+02  0.67451038329E+02  0.00000000000E+00 0. -1.
        -12    1    4    4    0    0 -0.66417448337E+02  0.56739164517E+02 -0.66366212396E+02  0.10970453218E+03  0.00000000000E+00 0.  1.
</event>
<event>
12    1  0.8494789E-002  0.2271825E+03  0.7818608E-02  0.1128799E+00
         21   -1    0    0  503  502  0.00000000000E+00  0.00000000000E+00  0.23637479083E+03  0.23637479083E+03  0.00000000000E+00 0.  1.
         21   -1    0    0  501  503 -0.00000000000E+00 -0.00000000000E+00 -0.26138254988E+03  0.26138254988E+03  0.00000000000E+00 0. -1.
          6    2    1    2  501    0 -0.32027973402E+02 -0.14679361064E+03  0.89466768411E+02  0.24416428389E+03  0.17040463512E+03 0.  0.
         24    2    3    3    0    0 -0.36350520225E+02 -0.42014767410E+02  0.99099450190E+02  0.13875001086E+03  0.79650885013E+02 0.  0.
         -6    2    1    2    0  502  0.32027973402E+02  0.14679361064E+03 -0.11447452746E+03  0.25359305683E+03  0.16920657738E+03 0.  0.
        -24    2    5    5    0    0  0.45597991013E+02  0.16245151481E+03 -0.13028788951E+03  0.22710782018E+03  0.78315748009E+02 0.  0.
          5    1    3    3  501    0  0.43225468228E+01 -0.10477884323E+03 -0.96326817787E+01  0.10541427303E+03  0.47000000000E+01 0. -1.
        -13    1    4    4    0    0 -0.48869658230E+02 -0.54109019031E+01  0.24997962370E+02  0.55158131564E+02  0.00000000000E+00 0.  1.
         14    1    4    4    0    0  0.12519138006E+02 -0.36603865507E+02  0.74101487820E+02  0.83591879292E+02  0.00000000000E+00 0. -1.
         -5    1    5    5    0  502 -0.13570017611E+02 -0.15657904165E+02  0.15813362052E+02  0.26485236646E+02  0.47000000000E+01 0.  1.
         13    1    6    6    0    0  0.16277898843E+02  0.10519663049E+03 -0.12253773823E+03  0.16231696876E+03  0.00000000000E+00 0. -1.
        -14    1    6    6    0    0  0.29320092170E+02  0.57254884318E+02 -0.77501512837E+01  0.64790851422E+02  0.00000000000E+00 0.  1.
</event>
<event>
12    1  0.8494789E-002  0.2222981E+03  0.7818608E-02  0.1132322E+00
         21   -1    0    0  503  502  0.00000000000E+00  0.00000000000E+00  0.13284555594E+04  0.13284555594E+04  0.00000000000E+00 0. -1.
         21   -1    0    0  501  503 -0.00000000000E+00 -0.00000000000E+00 -0.43002648876E+02  0.43002648876E+02  0.00000000000E+00 0. -1.
          6    2    1    2  501    0  0.92401187154E+02 -0.10581091303E+03  0.38709160913E+03  0.44600184288E+03  0.17130032484E+03 0.  0.
         24    2    3    3    0    0  0.24397483982E+02  0.13525966159E+02  0.12419056642E+03  0.14934574124E+03  0.78119553603E+02 0.  0.
         -6    2    1    2    0  502 -0.92401187154E+02  0.10581091303E+03  0.89836130141E+03  0.92545636541E+03  0.17228617966E+03 0.  0.
        -24    2    5    5    0    0  0.16136961404E+01  0.80865377404E+02  0.33047184333E+03  0.34927791681E+03  0.79003864849E+02 0.  0.
          5    1    3    3  501    0  0.68003703172E+02 -0.11933687919E+03  0.26290104271E+03  0.29665610163E+03  0.47000000000E+01 0. -1.
        -13    1    4    4    0    0  0.55605476816E+01 -0.16802565137E+02 -0.23600441173E+01  0.17855410775E+02  0.00000000000E+00 0.  1.
         14    1    4    4    0    0  0.18836936300E+02  0.30328531296E+02  0.12655061054E+03  0.13149033047E+03  0.00000000000E+00 0. -1.
         -5    1    5    5    0  502 -0.94014883294E+02  0.24945535630E+02  0.56788945808E+03  0.57617844860E+03  0.47000000000E+01 0.  1.
         13    1    6    6    0    0 -0.21041646764E+02 -0.67818994254E+01  0.53532648196E+02  0.57917954740E+02  0.00000000000E+00 0. -1.
        -14    1    6    6    0    0  0.22655342904E+02  0.87647276829E+02  0.27693919513E+03  0.29135996207E+03  0.00000000000E+00 0.  1.
</event>
<event>
12    1  0.8494789E-002  0.1786781E+03  0.7818608E-02  0.1169211E+00
         21   -1    0    0  501  502  0.00000000000E+00  0.00000000000E+00  0.32500964774E+03  0.32500964774E+03  0.00000000000E+00 0.  1.
         21   -1    0    0  502  503 -0.00000000000E+00 -0.00000000000E+00 -0.20576649560E+03  0.20576649560E+03  0.00000000000E+00 0.  1.
         -6    2    1    2    0  503  0.22262998321E+02 -0.41213932534E+02 -0.13251773846E+03  0.22205392047E+03  0.17190917154E+03 0.  0.
        -24    2    3    3    0    0  0.13712869722E+02 -0.93546839791E+02 -0.78580038822E+02  0.14626999524E+03  0.79252980853E+02 0.  0.
          6    2    1    2  501    0 -0.22262998321E+02  0.41213932534E+02  0.25176089060E+03  0.30872222286E+03  0.17242863893E+03 0.  0.
         24    2    5    5    0    0 -0.45181591412E+02 -0.21040059624E+02  0.74930099026E+02  0.11979885136E+03  0.79077080980E+02 0.  0.
          5    1    5    5  501    0  0.22918593091E+02  0.62253992158E+02  0.17683079158E+03  0.18892337150E+03  0.47000000000E+01 0. -1.
        -13    1    6    6    0    0 -0.11313407841E+02  0.60148384777E+01  0.75367583013E+02  0.76448963683E+02  0.00000000000E+00 0.  1.
         14    1    6    6    0    0 -0.33868183570E+02 -0.27054898102E+02 -0.43748398731E+00  0.43349887680E+02  0.00000000000E+00 0. -1.
         -5    1    3    3    0  503  0.85501285986E+01  0.52332907256E+02 -0.53937699641E+02  0.75783925232E+02  0.47000000000E+01 0.  1.
         11    1    4    4    0    0  0.41943521004E+02 -0.25227324893E+02 -0.37820041598E+02  0.61854930458E+02  0.00000000000E+00 0. -1.
        -12    1    4    4    0    0 -0.28230651282E+02 -0.68319514898E+02 -0.40759997224E+02  0.84415064778E+02  0.00000000000E+00 0.  1.
</event>
<event>
12    1  0.8494789E-002  0.1826826E+03  0.7818608E-02  0.1166922E+00
         21   -1    0    0  501  502  0.00000000000E+00  0.00000000000E+00  0.34247270954E+03  0.34247270954E+03  0.00000000000E+00 0. -1.
         21   -1    0    0  502  503 -0.00000000000E+00 -0.00000000000E+00 -0.93778754378E+02  0.93778754378E+02  0.00000000000E+00 0. -1.
         -6    2    1    2    0  503 -0.28173695551E+02  0.24385625019E+02  0.12969535721E+03  0.22403979499E+03  0.17884218806E+03 0.  0.
        -24    2    3    3    0    0 -0.18487554015E+02 -0.43447841518E+02  0.20849139082E+02  0.95335522641E+02  0.80154043509E+02 0.  0.
          6    2    1    2  501    0  0.28173695551E+02 -0.24385625019E+02  0.11899859795E+03  0.21221166892E+03  0.17171112452E+03 0.  0.
         24    2    5    5    0    0  0.73196006331E+01 -0.81675384642E+02  0.75001797046E+02  0.13688027890E+03  0.79915556576E+02 0.  0.
          5    1    5    5  501    0  0.20854094918E+02  0.57289759624E+02  0.43996800902E+02  0.75331390019E+02  0.47000000000E+01 0. -1.
        -11    1    6    6    0    0 -0.30343219527E+02 -0.39835766515E+02  0.10313376231E+02  0.51126949785E+02  0.00000000000E+00 0.  1.
         12    1    6    6    0    0  0.37662820160E+02 -0.41839618128E+02  0.64688420815E+02  0.85753329119E+02  0.00000000000E+00 0. -1.
         -5    1    3    3    0  503 -0.96861415366E+01  0.67833466537E+02  0.10884621813E+03  0.12870427235E+03  0.47000000000E+01 0.  1.
         13    1    4    4    0    0 -0.49471636150E+02 -0.27093357632E+02  0.21312822251E+02  0.60297008246E+02  0.00000000000E+00 0. -1.
        -14    1    4    4    0    0  0.30984082135E+02 -0.16354483886E+02 -0.46368316902E+00  0.35038514395E+02  0.00000000000E+00 0.  1.
</event>
<event>
12    1  0.8494789E-002  0.2070245E+03  0.7818608E-02  0.1144204E+00
         21   -1    0    0  501  502  0.00000000000E+00  0.00000000000E+00  0.13220090188E+03  0.13220090188E+03  0.00000000000E+00 0.  1.
         21   -1    0    0  502  503 -0.00000000000E+00 -0.00000000000E+00 -0.48422348991E+03  0.48422348991E+03  0.00000000000E+00 0.  1.
         -6    2    1    2    0  503 -0.10271156494E+03 -0.49079244303E+02  0.19153621765E+01  0.20703336404E+03  0.17291821021E+03 0.  0.
        -24    2    3    3    0    0 -0.68948444734E+01  0.12703707061E+02  0.23026475745E+02  0.90991362525E+02  0.86834822598E+02 0.  0.
          6    2    1    2  501    0  0.10271156494E+03  0.49079244303E+02 -0.35393795021E+03  0.40939102775E+03  0.17137824601E+03 0.  0.
         24    2    5    5    0    0  0.25955855983E+02  0.65055133510E+02 -0.10214950514E+03  0.14563701552E+03  0.76614241715E+02 0.  0.
          5    1    5    5  501    0  0.76755708956E+02 -0.15975889207E+02 -0.25178844507E+03  0.26375401223E+03  0.47000000000E+01 0. -1.
        -13    1    6    6    0    0  0.95721325118E+01  0.17261816464E+02 -0.92013527536E+02  0.94106775942E+02  0.00000000000E+00 0.  1.
         14    1    6    6    0    0  0.16383723471E+02  0.47793317046E+02 -0.10135977603E+02  0.51530239578E+02  0.00000000000E+00 0. -1.
         -5    1    3    3    0  503 -0.95816720466E+02 -0.61782951364E+02 -0.21111113569E+02  0.11604200152E+03  0.47000000000E+01 0.  1.
         13    1    4    4    0    0  0.20728262114E+02 -0.26476359619E+02  0.26665039564E+02  0.42914831980E+02  0.00000000000E+00 0. -1.
        -14    1    4    4    0    0 -0.27623106587E+02  0.39180066680E+02 -0.36385638189E+01  0.48076530545E+02  0.00000000000E+00 0.  1.
</event>
<event>
12    1  0.8494789E-002  0.1821688E+03  0.7818608E-02  0.1166530E+00
         21   -1    0    0  501  502  0.00000000000E+00  0.00000000000E+00  0.38406697167E+03  0.38406697167E+03  0.00000000000E+00 0.  1.
         21   -1    0    0  502  503 -0.00000000000E+00 -0.00000000000E+00 -0.17460508853E+03  0.17460508853E+03  0.00000000000E+00 0.  1.
         -6    2    1    2    0  503 -0.25033479315E+02  0.49006487726E+02 -0.96052536861E+02  0.20296920055E+03  0.17012376556E+03 0.  0.
        -24    2    3    3    0    0  0.32038700708E+02  0.83426395598E+01  0.76440317476E+00  0.83359869145E+02  0.76499709109E+02 0.  0.
          6    2    1    2  501    0  0.25033479315E+02 -0.49006487726E+02  0.30551442000E+03  0.35570285965E+03  0.17365814871E+03 0.  0.
         24    2    5    5    0    0  0.75050220690E+02 -0.55243065263E+02  0.26143310894E+03  0.28857744493E+03  0.79027459698E+02 0.  0.
          5    1    5    5  501    0 -0.50016741376E+02  0.62365775368E+01  0.44081311056E+02  0.67125414722E+02  0.47000000000E+01 0. -1.
        -13    1    6    6    0    0  0.68449672925E+02 -0.72723803673E+02  0.18889438459E+03  0.21367076982E+03  0.00000000000E+00 0.  1.
         14    1    6    6    0    0  0.66005477657E+01  0.17480738409E+02  0.72538724351E+02  0.74906675114E+02  0.00000000000E+00 0. -1.
         -5    1    3    3    0  503 -0.57072180023E+02  0.40663848167E+02 -0.96816940036E+02  0.11960933140E+03  0.47000000000E+01 0.  1.
         11    1    4    4    0    0 -0.24360352357E+02  0.59780852236E+01 -0.77940400914E+01  0.26266163231E+02  0.00000000000E+00 0. -1.
        -12    1    4    4    0    0  0.56399053065E+02  0.23645543362E+01  0.85584432661E+01  0.57093705914E+02  0.00000000000E+00 0.  1.
</event>
<event>
12    1  0.8494789E-002  0.2005100E+03  0.7818608E-02  0.1150340E+00
         21   -1    0    0  501  502  0.00000000000E+00  0.00000000000E+00  0.42392081089E+03  0.42392081089E+03  0.00000000000E+00 0. -1.
         21   -1    0    0  502  503 -0.00000000000E+00 -0.00000000000E+00 -0.54775767402E+03  0.54775767402E+03  0.00000000000E+00 0. -1.
         -6    2    1    2    0  503 -0.42778113499E+02 -0.87351309405E+02 -0.50467589859E+03  0.54128028135E+03  0.16978327982E+03 0.  0.
        -24    2    3    3    0    0 -0.85241412068E+01 -0.94041916783E+02 -0.18047305812E+03  0.21517037562E+03  0.69362978172E+02 0.  0.
          6    2    1    2  501    0  0.42778113499E+02  0.87351309405E+02  0.38083903546E+03  0.43039820356E+03  0.17533974009E+03 0.  0.
         24    2    5    5    0    0  0.15430708608E+02  0.11739947197E+03  0.20756464443E+03  0.25236203530E+03  0.81134286550E+02 0.  0.
          5    1    5    5  501    0  0.27347404891E+02 -0.30048162562E+02  0.17327439102E+03  0.17803616827E+03  0.47000000000E+01 0. -1.
        -11    1    6    6    0    0  0.20878474419E+02  0.11381030134E+03  0.21394890670E+03  0.24323410547E+03  0.00000000000E+00 0.  1.
         12    1    6    6    0    0 -0.54477658110E+01  0.35891706288E+01 -0.63842622712E+01  0.91279298245E+01  0.00000000000E+00 0. -1.
         -5    1    3    3    0  503 -0.34253972292E+02  0.66906073787E+01 -0.32420284047E+03  0.32610990573E+03  0.47000000000E+01 0.  1.
         13    1    4    4    0    0 -0.84262829400E+01 -0.40031110625E+02 -0.14473777481E+03  0.15040783065E+03  0.00000000000E+00 0. -1.
        -14    1    4    4    0    0 -0.97858266774E-01 -0.54010806158E+02 -0.35735283306E+02  0.64762544970E+02  0.00000000000E+00 0.  1.
</event>
<event>
12    1  0.8494789E-002  0.1746008E+03  0.7818608E-02  0.1173629E+00
         21   -1    0    0  503  502  0.00000000000E+00  0.00000000000E+00  0.50867951398E+03  0.50867951398E+03  0.00000000000E+00 0. -1.
         21   -1    0    0  501  503 -0.00000000000E+00 -0.00000000000E+00 -0.22348199741E+03  0.22348199741E+03  0.00000000000E+00 0. -1.
          6    2    1    2  501    0 -0.99498388084E+01  0.30775912126E+02 -0.17099938933E+03  0.24438951913E+03  0.17157881527E+03 0.  0.
         24    2    3    3    0    0 -0.70308971875E+01 -0.45115340672E+02 -0.12934279424E+03  0.15764066101E+03  0.77692934687E+02 0.  0.
         -6    2    1    2    0  502  0.99498388084E+01 -0.30775912126E+02  0.45619690589E+03  0.48777199226E+03  0.16958697896E+03 0.  0.
        -24    2    5    5    0    0 -0.25859443407E+02 -0.43727850086E+02  0.42701478930E+03  0.43956677140E+03  0.91085018269E+02 0.  0.
          5    1    3    3  501    0 -0.29189416210E+01  0.75891252798E+02 -0.41656595085E+02  0.86748858122E+02  0.47000000000E+01 0. -1.
        -13    1    4    4    0    0  0.41226754384E+01  0.13794034796E+02  0.72933381343E+00  0.14415400672E+02  0.00000000000E+00 0.  1.
         14    1    4    4    0    0 -0.11153572626E+02 -0.58909375467E+02 -0.13007212806E+03  0.14322526033E+03  0.00000000000E+00 0. -1.
         -5    1    5    5    0  502  0.35809282215E+02  0.12951937960E+02  0.29182116594E+02  0.48205220864E+02  0.47000000000E+01 0.  1.
         11    1    6    6    0    0 -0.38473428333E+02 -0.19964133871E+02  0.39659479674E+03  0.39895639377E+03  0.00000000000E+00 0. -1.
        -12    1    6    6    0    0  0.12613984927E+02 -0.23763716215E+02  0.30419992563E+02  0.40610377634E+02  0.00000000000E+00 0.  1.
</event>
<event>
12    1  0.8494789E-002  0.1827566E+03  0.7818608E-02  0.1165413E+00
         21   -1    0    0  503  502  0.00000000000E+00  0.00000000000E+00  0.75407203353E+03  0.75407203353E+03  0.00000000000E+00 0.  1.
         21   -1    0    0  501  503 -0.00000000000E+00 -0.00000000000E+00 -0.65512742286E+02  0.65512742286E+02  0.00000000000E+00 0.  1.
          6    2    1    2  501    0  0.17960647830E+02 -0.60389364788E+02  0.11032517351E+03  0.21347511493E+03  0.17155325860E+03 0.  0.
         24    2    3    3    0    0  0.55531150643E+02 -0.89673764980E+02  0.66371526774E+02  0.14848948700E+03  0.80739428823E+02 0.  0.
         -6    2    1    2    0  502 -0.17960647830E+02  0.60389364788E+02  0.57823411773E+03  0.60610966088E+03  0.17042525004E+03 0.  0.
        -24    2    5    5    0    0 -0.40774897105E+02  0.10057747692E+03  0.42723616132E+03  0.44812850008E+03  0.80684533491E+02 0.  0.
          5    1    3    3  501    0 -0.37570502813E+02  0.29284400192E+02  0.43953646732E+02  0.64985627929E+02  0.47000000000E+01 0. -1.
        -11    1    4    4    0    0  0.62141584036E+02 -0.40437658065E+02  0.12460763253E+02  0.75180125546E+02  0.00000000000E+00 0.  1.
         12    1    4    4    0    0 -0.66104333924E+01 -0.49236106916E+02  0.53910763521E+02  0.73309361458E+02  0.00000000000E+00 0. -1.
         -5    1    5    5    0  502  0.22814249275E+02 -0.40188112137E+02  0.15099795641E+03  0.15798116080E+03  0.47000000000E+01 0.  1.
         13    1    6    6    0    0  0.11020842816E+02  0.42922573265E+02  0.72070660846E+02  0.84604884179E+02  0.00000000000E+00 0. -1.
        -14    1    6    6    0    0 -0.51795739922E+02  0.57654903660E+02  0.35516550048E+03  0.36352361590E+03  0.00000000000E+00 0.  1.
</event>
<event>
12    1  0.8494789E-002  0.2416481E+03  0.7818608E-02  0.1119477E+00
         21   -1    0    0  501  502  0.00000000000E+00  0.00000000000E+00  0.18053868014E+03  0.18053868014E+03  0.00000000000E+00 0.  1.
         21   -1    0    0  502  503 -0.00000000000E+00 -0.00000000000E+00 -0.73513660040E+03  0.73513660040E+03  0.00000000000E+00 0.  1.
         -6    2    1    2    0  503  0.13974845211E+03  0.82948175461E+02 -0.62132124856E+03  0.66498466918E+03  0.17249488876E+03 0.  0.
        -24    2    3    3    0    0  0.58369797125E+02  0.60026857546E+02 -0.51433361690E+03  0.52854304931E+03  0.88365313694E+02 0.  0.
          6    2    1    2  501    0 -0.13974845211E+03 -0.82948175461E+02  0.66723328306E+02  0.25069061136E+03  0.17884001344E+03 0.  0.
         24    2    5    5    0    0 -0.12276365780E+03 -0.11035710694E+03  0.96424579248E+02  0.20659994262E+03  0.78334092701E+02 0.  0.
          5    1    5    5  501    0 -0.16984794307E+02  0.27408931481E+02 -0.29701250941E+02  0.44090668742E+02  0.47000000000E+01 0. -1.
        -13    1    6    6    0    0 -0.12467146054E+03 -0.99478303378E+02  0.63153958330E+02  0.17154395463E+03  0.00000000000E+00 0.  1.
         14    1    6    6    0    0  0.19078027364E+01 -0.10878803564E+02  0.33270620917E+02  0.35055987998E+02  0.00000000000E+00 0. -1.
         -5    1    3    3    0  503  0.81378654984E+02  0.22921317915E+02 -0.10698763166E+03  0.13644161986E+03  0.47000000000E+01 0.  1.
         11    1    4    4    0    0 -0.14217802581E+01  0.13843559908E+02 -0.31601062384E+03  0.31631689804E+03  0.00000000000E+00 0. -1.
        -12    1    4    4    0    0  0.59791577383E+02  0.46183297639E+02 -0.19832299306E+03  0.21222615127E+03  0.00000000000E+00 0.  1.
</event>
<event>
12    1  0.8494789E-002  0.3536900E+03  0.7818608E-02  0.1061124E+00
         21   -1    0    0  501  502  0.00000000000E+00  0.00000000000E+00  0.74453906149E+03  0.74453906149E+03  0.00000000000E+00 0. -1.
         21   -1    0    0  502  503 -0.00000000000E+00 -0.00000000000E+00 -0.30979518163E+03  0.30979518163E+03  0.00000000000E+00 0.  1.
         -6    2    1    2    0  503 -0.16035062021E+03 -0.26433046544E+03 -0.13931240770E+03  0.38013753117E+03  0.17179545775E+03 0.  0.
        -24    2    3    3    0    0 -0.25499713518E+02 -0.15177153030E+03 -0.10010317804E+03  0.20009938353E+03  0.79588216688E+02 0.  0.
          6    2    1    2  501    0  0.16035062021E+03  0.26433046544E+03  0.57405628756E+03  0.67419671195E+03  0.17151579740E+03 0.  0.
         24    2    5    5    0    0  0.16918960426E+03  0.25189967485E+03  0.44940991401E+03  0.54853263342E+03  0.82705566530E+02 0.  0.
          5    1    5    5  501    0 -0.88389840545E+01  0.12430790586E+02  0.12464637355E+03  0.12566407853E+03  0.47000000000E+01 0. -1.
        -13    1    6    6    0    0  0.19898682862E+02  0.88642484149E+02  0.10125203861E+03  0.13603463860E+03  0.00000000000E+00 0.  1.
         14    1    6    6    0    0  0.14929092140E+03  0.16325719070E+03  0.34815787540E+03  0.41249799482E+03  0.00000000000E+00 0. -1.
         -5    1    3    3    0  503 -0.13485090669E+03 -0.11255893513E+03 -0.39209229667E+02  0.18003814764E+03  0.47000000000E+01 0.  1.
         13    1    4    4    0    0 -0.14534402799E+01 -0.13067945236E+02  0.13767405889E+02  0.19037466907E+02  0.00000000000E+00 0. -1.
        -14    1    4    4    0    0 -0.24046273238E+02 -0.13870358507E+03 -0.11387058393E+03  0.18106191662E+03  0.00000000000E+00 0.  1.
</event>
<event>
12    1  0.8494789E-002  0.2224229E+03  0.7818608E-02  0.1132139E+00
         21   -1    0    0  501  502  0.00000000000E+00  0.00000000000E+00  0.50555744293E+02  0.50555744293E+02  0.00000000000E+00 0. -1.
         21   -1    0    0  502  503 -0.00000000000E+00 -0.00000000000E+00 -0.10569061486E+04  0.10569061486E+04  0.00000000000E+00 0.  1.
         -6    2    1    2    0  503 -0.68191248853E+02  0.12294567398E+03 -0.65478607445E+03  0.69144573685E+03  0.17200790257E+03 0.  0.
        -24    2    3    3    0    0 -0.53988682175E+02  0.55757249445E+02 -0.18134877076E+03  0.21303067875E+03  0.80442804304E+02 0.  0.
          6    2    1    2  501    0  0.68191248853E+02 -0.12294567398E+03 -0.35156432988E+03  0.41601615607E+03  0.17235509535E+03 0.  0.
         24    2    5    5    0    0  0.48376613579E+02 -0.70866251496E+02 -0.33860181185E+03  0.35861404033E+03  0.81182021377E+02 0.  0.
          5    1    5    5  501    0  0.19814635275E+02 -0.52079422482E+02 -0.12962518035E+02  0.57402115735E+02  0.47000000000E+01 0. -1.
        -13    1    6    6    0    0 -0.69507587712E+00 -0.66922099119E+02 -0.16202707971E+03  0.17530494870E+03  0.00000000000E+00 0.  1.
         14    1    6    6    0    0  0.49071689456E+02 -0.39441523763E+01 -0.17657473214E+03  0.18330909163E+03  0.00000000000E+00 0. -1.
         -5    1    3    3    0  503 -0.14202566678E+02  0.67188424532E+02 -0.47343730369E+03  0.47841505810E+03  0.47000000000E+01 0.  1.
         11    1    4    4    0    0  0.59681691382E+01  0.50914798396E+02 -0.74923515322E+02  0.90782536243E+02  0.00000000000E+00 0. -1.
        -12    1    4    4    0    0 -0.59956851313E+02  0.48424510495E+01 -0.10642525544E+03  0.12224814251E+03  0.00000000000E+00 0.  1.
</event>
<event>
12    1  0.8494789E-002  0.1846027E+03  0.7818608E-02  0.1163554E+00
         21   -1    0    0  503  502  0.00000000000E+00  0.00000000000E+00  0.13515431803E+03  0.13515431803E+03  0.00000000000E+00 0. -1.
         21   -1    0    0  501  503 -0.00000000000E+00 -0.00000000000E+00 -0.26726500780E+03  0.26726500780E+03  0.00000000000E+00 0. -1.
          6    2    1    2  501    0  0.17561361731E+01 -0.66313567273E+02 -0.11503018371E+03  0.21702813219E+03  0.17166448025E+03 0.  0.
         24    2    3    3    0    0 -0.64377338080E+02 -0.25942345522E+02 -0.60949579093E+02  0.12242224571E+03  0.80342442722E+02 0.  0.
         -6    2    1    2    0  502 -0.17561361731E+01  0.66313567273E+02 -0.17080506062E+02  0.18539119364E+03  0.17227181364E+03 0.  0.
        -24    2    5    5    0    0  0.23494428681E+02  0.63770813777E+02 -0.70045940356E+02  0.12647189417E+03  0.80436318817E+02 0.  0.
          5    1    3    3  501    0  0.66133474253E+02 -0.40371221751E+02 -0.54080604613E+02  0.94605886486E+02  0.47000000000E+01 0. -1.
        -13    1    4    4    0    0 -0.53396219996E+02  0.20484171660E+02 -0.23750365462E+02  0.61926064448E+02  0.00000000000E+00 0.  1.
         14    1    4    4    0    0 -0.10981118084E+02 -0.46426517182E+02 -0.37199213631E+02  0.60496181258E+02  0.00000000000E+00 0. -1.
         -5    1    5    5    0  502 -0.25250564854E+02  0.25427534961E+01  0.52965434294E+02  0.58919299476E+02  0.47000000000E+01 0.  1.
         11    1    6    6    0    0  0.22316084921E+02  0.44274449419E+02  0.41444557344E+01  0.49753502700E+02  0.00000000000E+00 0. -1.
        -12    1    6    6    0    0  0.11783437599E+01  0.19496364358E+02 -0.74190396090E+02  0.76718391466E+02  0.00000000000E+00 0.  1.
</event>
<event>
12    1  0.8494789E-002  0.1821516E+03  0.7818608E-02  0.1166670E+00
         21   -1    0    0  503  502  0.00000000000E+00  0.00000000000E+00  0.20114767446E+03  0.20114767446E+03  0.00000000000E+00 0.  1.
         21   -1    0    0  501  503 -0.00000000000E+00 -0.00000000000E+00 -0.17242992010E+03  0.17242992010E+03  0.00000000000E+00 0.  1.
          6    2    1    2  501    0  0.23412544381E+02  0.57761473010E+02  0.61319008962E+02  0.18853150404E+03  0.16703165016E+03 0.  0.
         24    2    3    3    0    0  0.41288702034E+02  0.41007645466E+02 -0.20408956420E+02  0.10308094479E+03  0.82600071276E+02 0.  0.
         -6    2    1    2    0  502 -0.23412544381E+02 -0.57761473010E+02 -0.32601254599E+02  0.18504609052E+03  0.17115688364E+03 0.  0.
        -24    2    5    5    0    0  0.18562781154E+02 -0.95304163079E+02 -0.23297661535E+02  0.12777455854E+03  0.79725130502E+02 0.  0.
          5    1    3    3  501    0 -0.17876157653E+02  0.16753827545E+02  0.81727965382E+02  0.85450559245E+02  0.47000000000E+01 0. -1.
        -13    1    4    4    0    0  0.41025083962E+01 -0.24160392201E+02 -0.12847338473E+02  0.27669644600E+02  0.00000000000E+00 0.  1.
         14    1    4    4    0    0  0.37186193638E+02  0.65168037667E+02 -0.75616179469E+01  0.75411300192E+02  0.00000000000E+00 0. -1.
         -5    1    5    5    0  502 -0.41975325535E+02  0.37542690068E+02 -0.93035930636E+01  0.57271531979E+02  0.47000000000E+01 0.  1.
         13    1    6    6    0    0 -0.12018305159E+01 -0.55656808319E+02  0.26046446238E+02  0.61461712232E+02  0.00000000000E+00 0. -1.
        -14    1    6    6    0    0  0.19764611670E+02 -0.39647354760E+02 -0.49344107773E+02  0.66312846311E+02  0.00000000000E+00 0.  1.
</event>
<event>
12    1  0.8494789E-002  0.2656177E+03  0.7818608E-02  0.1103990E+00
         21   -1    0    0  501  502  0.00000000000E+00  0.00000000000E+00  0.13934354219E+03  0.13934354219E+03  0.00000000000E+00 0. -1.
         21   -1    0    0  502  503 -0.00000000000E+00 -0.00000000000E+00 -0.81407572511E+03  0.81407572511E+03  0.00000000000E+00 0.  1.
         -6    2    1    2    0  503  0.32969031206E+02  0.19927616505E+03 -0.43648737811E+02  0.26918020787E+03  0.17249586957E+03 0.  0.
        -24    2    3    3    0    0  0.85040641796E+02  0.16351038762E+03 -0.25331035868E+02  0.20323878182E+03  0.81833877106E+02 0.  0.
          6    2    1    2  501    0 -0.32969031206E+02 -0.19927616505E+03 -0.63108344510E+03  0.68423905943E+03  0.17064240033E+03 0.  0.
         24    2    5    5    0    0 -0.51767793884E+02 -0.59435489874E+02 -0.37840781792E+03  0.39479844293E+03  0.80379424802E+02 0.  0.
          5    1    5    5  501    0  0.18798762678E+02 -0.13984067517E+03 -0.25267562718E+03  0.28944061650E+03  0.47000000000E+01 0. -1.
        -13    1    6    6    0    0 -0.18388078350E+02 -0.70282530979E+02 -0.30353022304E+03  0.31210311098E+03  0.00000000000E+00 0.  1.
         14    1    6    6    0    0 -0.33379715534E+02  0.10847041105E+02 -0.74877594884E+02  0.82695331945E+02  0.00000000000E+00 0. -1.
         -5    1    3    3    0  503 -0.52071610590E+02  0.35765777433E+02 -0.18317701943E+02  0.65941426048E+02  0.47000000000E+01 0.  1.
         13    1    4    4    0    0  0.21763533844E+02  0.10901224596E+03 -0.40596295576E+02  0.11834432977E+03  0.00000000000E+00 0. -1.
        -14    1    4    4    0    0  0.63277107951E+02  0.54498141656E+02  0.15265259708E+02  0.84894452048E+02  0.00000000000E+00 0.  1.
</event>
<event>
12    1  0.8494789E-002  0.2628082E+03  0.7818608E-02  0.1105527E+00
         21   -1    0    0  501  502  0.00000000000E+00  0.00000000000E+00  0.19648233250E+03  0.19648233250E+03  0.00000000000E+00 0.  1.
         21   -1    0    0  502  503 -0.00000000000E+00 -0.00000000000E+00 -0.66782788332E+03  0.66782788332E+03  0.00000000000E+00 0. -1.
         -6    2    1    2    0  503 -0.46049445507E+02  0.19329219954E+03 -0.53343097468E+03  0.59465685292E+03  0.17200506432E+03 0.  0.
        -24    2    3    3    0    0  0.11911539899E+02  0.29067737882E+02 -0.21104494564E+03  0.22820905125E+03  0.80948031614E+02 0.  0.
          6    2    1    2  501    0  0.46049445507E+02 -0.19329219954E+03  0.62085423849E+02  0.26965336289E+03  0.17139402099E+03 0.  0.
         24    2    5    5    0    0  0.87052304111E+01 -0.20553428512E+03  0.40140460545E+02  0.22439708736E+03  0.80141580021E+02 0.  0.
          5    1    5    5  501    0  0.37344215096E+02  0.12242085579E+02  0.21944963304E+02  0.45256275530E+02  0.47000000000E+01 0. -1.
        -13    1    6    6    0    0 -0.17928626091E+02 -0.15617254707E+03  0.31892869639E+01  0.15723063201E+03  0.00000000000E+00 0.  1.
         14    1    6    6    0    0  0.26633856502E+02 -0.49361738053E+02  0.36951173581E+02  0.67166455354E+02  0.00000000000E+00 0. -1.
         -5    1    3    3    0  503 -0.57960985406E+02  0.16422446166E+03 -0.32238602903E+03  0.36644780167E+03  0.47000000000E+01 0.  1.
         13    1    4    4    0    0 -0.16291196343E+02  0.52573732709E+01 -0.35831134989E+01  0.17489475531E+02  0.00000000000E+00 0. -1.
        -14    1    4    4    0    0  0.28202736242E+02  0.23810364611E+02 -0.20746183214E+03  0.21071957572E+03  0.00000000000E+00 0.  1.
</event>
<event>
12    1  0.8494789E-002  0.1949326E+03  0.7818608E-02  0.1154106E+00
         21   -1    0    0  501  502  0.00000000000E+00  0.00000000000E+00  0.62720396318E+03  0.62720396318E+03  0.00000000000E+00 0. -1.
         21   -1    0    0  502  503 -0.00000000000E+00 -0.00000000000E+00 -0.79125481993E+02  0.79125481993E+02  0.00000000000E+00 0.  1.
         -6    2    1    2    0  503 -0.80082487224E+02  0.42314543657E+02  0.10290100047E+03  0.22034413918E+03  0.17250854590E+03 0.  0.
        -24    2    3    3    0    0 -0.83349730715E+02 -0.31920244969E+02  0.86553220994E+02  0.14411541352E+03  0.72881497647E+02 0.  0.
          6    2    1    2  501    0  0.80082487224E+02 -0.42314543657E+02  0.44517748071E+03  0.48598530599E+03  0.17261229081E+03 0.  0.
         24    2    5    5    0    0  0.31603496740E+02  0.14110392738E+02  0.10150316501E+03  0.13432053488E+03  0.80877867148E+02 0.  0.
          5    1    5    5  501    0  0.48478990484E+02 -0.56424936395E+02  0.34367431570E+03  0.35166477111E+03  0.47000000000E+01 0. -1.
        -11    1    6    6    0    0  0.26497691547E+02 -0.28765095293E+02  0.24831556683E+02  0.46326715530E+02  0.00000000000E+00 0.  1.
         12    1    6    6    0    0  0.51058051931E+01  0.42875488031E+02  0.76671608326E+02  0.87993819350E+02  0.00000000000E+00 0. -1.
         -5    1    3    3    0  503  0.32672434918E+01  0.74234788627E+02  0.16347779478E+02  0.76228725664E+02  0.47000000000E+01 0.  1.
         13    1    4    4    0    0 -0.42033008756E+02  0.14970276472E+02  0.63274393341E+02  0.77424362157E+02  0.00000000000E+00 0. -1.
        -14    1    4    4    0    0 -0.41316721960E+02 -0.46890521441E+02  0.23278827653E+02  0.66691051359E+02  0.00000000000E+00 0.  1.
</event>
<event>
12    1  0.8494789E-002  0.1858732E+03  0.7818608E-02  0.1163076E+00
         21   -1    0    0  503  502  0.00000000000E+00  0.00000000000E+00  0.85380072058E+02  0.85380072058E+02  0.00000000000E+00 0.  1.
         21   -1    0    0  501  503 -0.00000000000E+00 -0.00000000000E+00 -0.41102356692E+03  0.41102356692E+03  0.00000000000E+00 0.  1.
          6    2    1    2  501    0 -0.52754914980E+02  0.29318628536E+02 -0.20731067215E+03  0.27605955133E+03  0.17201307526E+03 0.  0.
         24    2    3    3    0    0  0.34465832406E+02  0.40036173572E+01 -0.12823722286E+03  0.15554810396E+03  0.80910473753E+02 0.  0.
         -6    2    1    2    0  502  0.52754914980E+02 -0.29318628536E+02 -0.11833282271E+03  0.22034408764E+03  0.17580158416E+03 0.  0.
        -24    2    5    5    0    0 -0.11451999360E+02 -0.37860956611E+02 -0.90454359477E+01  0.93216898878E+02  0.83922404637E+02 0.  0.
          5    1    3    3  501    0 -0.87220747386E+02  0.25315011178E+02 -0.79073449286E+02  0.12051144737E+03  0.47000000000E+01 0. -1.
        -13    1    4    4    0    0 -0.19670488402E+02 -0.36710167534E+01 -0.48511995141E+01  0.20589769661E+02  0.00000000000E+00 0.  1.
         14    1    4    4    0    0  0.54136320807E+02  0.76746341106E+01 -0.12338602335E+03  0.13495833430E+03  0.00000000000E+00 0. -1.
         -5    1    5    5    0  502  0.64206914340E+02  0.85423280749E+01 -0.10928738676E+03  0.12712718876E+03  0.47000000000E+01 0.  1.
         13    1    6    6    0    0 -0.11400398458E+02 -0.29564231011E+02 -0.45713784678E+02  0.55621605064E+02  0.00000000000E+00 0. -1.
        -14    1    6    6    0    0 -0.51600901747E-01 -0.82967256000E+01  0.36668348731E+02  0.37595293814E+02  0.00000000000E+00 0.  1.
</event>
<event>
12    1  0.8494789E-002  0.1930030E+03  0.7818608E-02  0.1155953E+00
         21   -1    0    0  501  502  0.00000000000E+00  0.00000000000E+00  0.28298210412E+03  0.28298210412E+03  0.00000000000E+00 0. -1.
         21   -1    0    0  502  503 -0.00000000000E+00 -0.00000000000E+00 -0.15847572294E+03  0.15847572294E+03  0.00000000000E+00 0. -1.
         -6    2    1    2    0  503  0.24389909667E+02 -0.79743052722E+02 -0.29586213890E+02  0.19448682026E+03  0.17319340937E+03 0.  0.
        -24    2    3    3    0    0 -0.40049479791E+02 -0.18161503982E+01  0.76310730781E+01  0.86633895081E+02  0.76419495333E+02 0.  0.
          6    2    1    2  501    0 -0.24389909667E+02  0.79743052722E+02  0.15409259508E+03  0.24697100681E+03  0.17405840455E+03 0.  0.
         24    2    5    5    0    0  0.30134118172E+02 -0.80428095535E+01  0.34595492462E+02  0.88917614686E+02  0.75741284906E+02 0.  0.
          5    1    5    5  501    0 -0.54524027839E+02  0.87785862276E+02  0.11949710261E+03  0.15805339212E+03  0.47000000000E+01 0. -1.
        -13    1    6    6    0    0  0.14030361835E+02 -0.78272059353E+00  0.57953147699E+02  0.59632466266E+02  0.00000000000E+00 0.  1.
         14    1    6    6    0    0  0.16103756337E+02 -0.72600889600E+01 -0.23357655236E+02  0.29285148421E+02  0.00000000000E+00 0. -1.
         -5    1    3    3    0  503  0.64439389457E+02 -0.77926902324E+02 -0.37217286968E+02  0.10785292517E+03  0.47000000000E+01 0.  1.
         11    1    4    4    0    0  0.10891138342E+02 -0.15035034053E+00  0.29293933300E+02  0.31253384262E+02  0.00000000000E+00 0. -1.
        -12    1    4    4    0    0 -0.50940618133E+02 -0.16658000576E+01 -0.21662860222E+02  0.55380510819E+02  0.00000000000E+00 0.  1.
</event>
<event>
12    1  0.8494789E-002  0.1864648E+03  0.7818608E-02  0.1161948E+00
         21   -1    0    0  501  502  0.00000000000E+00  0.00000000000E+00  0.24552757025E+03  0.24552757025E+03  0.00000000000E+00 0. -1.
         21   -1    0    0  502  503 -0.00000000000E+00 -0.00000000000E+00 -0.22323799255E+03  0.22323799255E+03  0.00000000000E+00 0. -1.
         -6    2    1    2    0  503  0.64678861940E+02 -0.26168025151E+02 -0.13133900428E+03  0.22716495684E+03  0.17171448061E+03 0.  0.
        -24    2    3    3    0    0  0.10843968068E+03 -0.15025787020E+02 -0.11962620704E+03  0.18027744948E+03  0.78769224708E+02 0.  0.
          6    2    1    2  501    0 -0.64678861940E+02  0.26168025151E+02  0.15362858198E+03  0.24160060595E+03  0.17291902981E+03 0.  0.
         24    2    5    5    0    0  0.29260370723E+01 -0.13355805795E+02  0.14069607268E+03  0.16209025832E+03  0.79315368837E+02 0.  0.
          5    1    5    5  501    0 -0.67604899013E+02  0.39523830946E+02  0.12932509302E+02  0.79510347628E+02  0.47000000000E+01 0. -1.
        -13    1    6    6    0    0  0.35165292716E+02 -0.72256040637E+01  0.30485232540E+02  0.47097309572E+02  0.00000000000E+00 0.  1.
         14    1    6    6    0    0 -0.32239255644E+02 -0.61302017313E+01  0.11021084014E+03  0.11499294875E+03  0.00000000000E+00 0. -1.
         -5    1    3    3    0  503 -0.43760818738E+02 -0.11142238131E+02 -0.11712797242E+02  0.46887507360E+02  0.47000000000E+01 0.  1.
         13    1    4    4    0    0  0.18548290767E+02 -0.37456928652E+02 -0.43938441181E+02  0.60643608137E+02  0.00000000000E+00 0. -1.
        -14    1    4    4    0    0  0.89891389912E+02  0.22431141633E+02 -0.75687765857E+02  0.11963384135E+03  0.00000000000E+00 0.  1.
</event>
<event>
12    1  0.8494789E-002  0.2031025E+03  0.7818608E-02  0.1148272E+00
         21   -1    0    0  503  502  0.00000000000E+00  0.00000000000E+00  0.29460826956E+03  0.29460826956E+03  0.00000000000E+00 0. -1.
         21   -1    0    0  501  503 -0.00000000000E+00 -0.00000000000E+00 -0.14247309515E+03  0.14247309515E+03  0.00000000000E+00 0. -1.
          6    2    1    2  501    0  0.89984655475E+02 -0.35667440939E+02  0.31730042222E+02  0.20556612390E+03  0.17855316057E+03 0.  0.
         24    2    3    3    0    0  0.60182651213E+00  0.96719362874E+01  0.61991673348E+02  0.10076724242E+03  0.78848976111E+02 0.  0.
         -6    2    1    2    0  502 -0.89984655475E+02  0.35667440939E+02  0.12040513219E+03  0.23151524081E+03  0.17243116397E+03 0.  0.
        -24    2    5    5    0    0 -0.12047181873E+03  0.57335897970E+02  0.74277499909E+02  0.17194311971E+03  0.79034328733E+02 0.  0.
          5    1    3    3  501    0  0.89382828963E+02 -0.45339377226E+02 -0.30261631126E+02  0.10479888148E+03  0.47000000000E+01 0. -1.
        -13    1    4    4    0    0  0.18276147763E+02  0.13057180499E+02 -0.11409042007E+02  0.25192732665E+02  0.00000000000E+00 0.  1.
         14    1    4    4    0    0 -0.17674321251E+02 -0.33852442113E+01  0.73400715355E+02  0.75574509755E+02  0.00000000000E+00 0. -1.
         -5    1    5    5    0  502  0.30487163252E+02 -0.21668457031E+02  0.46127632276E+02  0.59572121103E+02  0.47000000000E+01 0.  1.
         11    1    6    6    0    0 -0.56615131368E+02  0.69147116872E+02  0.51378879023E+02  0.10308436390E+03  0.00000000000E+00 0. -1.
        -12    1    6    6    0    0 -0.63856687359E+02 -0.11811218902E+02  0.22898620886E+02  0.68858755804E+02  0.00000000000E+00 0.  1.
</event>
<event>
12    1  0.8494789E-002  0.2492986E+03  0.7818608E-02  0.1113920E+00
         21   -1    0    0  503  502  0.00000000000E+00  0.00000000000E+00  0.13261247385E+03  0.13261247385E+03  0.00000000000E+00 0.  1.
         21   -1    0    0  501  503 -0.00000000000E+00 -0.00000000000E+00 -0.46669229576E+03  0.46669229576E+03  0.00000000000E+00 0.  1.
          6    2    1    2  501    0  0.12659866222E+03  0.12833672618E+03 -0.16992990398E+03  0.30081689675E+03  0.17063732457E+03 0.  0.
         24    2    3    3    0    0  0.14652772096E+03  0.79838174907E+02 -0.92261299401E+02  0.20698844159E+03  0.80545393442E+02 0.  0.
         -6    2    1    2    0  502 -0.12659866222E+03 -0.12833672618E+03 -0.16414991793E+03  0.29848787286E+03  0.17219836854E+03 0.  0.
        -24    2    5    5    0    0 -0.11873714583E+03 -0.10282832122E+03 -0.51042898377E+02  0.18217893066E+03  0.76887007075E+02 0.  0.
          5    1    3    3  501    0 -0.19929058740E+02  0.48498551278E+02 -0.77668604582E+02  0.93828455151E+02  0.47000000000E+01 0. -1.
        -11    1    4    4    0    0  0.12427115715E+03  0.86720783585E+02 -0.51519679907E+02  0.16005652821E+03  0.00000000000E+00 0.  1.
         12    1    4    4    0    0  0.22256563805E+02 -0.68826086786E+01 -0.40741619494E+02  0.46931913381E+02  0.00000000000E+00 0. -1.
         -5    1    5    5    0  502 -0.78615163838E+01 -0.25508404965E+02 -0.11310701955E+03  0.11630894220E+03  0.47000000000E+01 0.  1.
         13    1    6    6    0    0 -0.36068211767E+02 -0.81684117333E+02 -0.31055569400E+02  0.94539194598E+02  0.00000000000E+00 0. -1.
        -14    1    6    6    0    0 -0.82668934068E+02 -0.21144203886E+02 -0.19987328978E+02  0.87639736065E+02  0.00000000000E+00 0.  1.
</event>
<event>
12    1  0.8494789E-002  0.2048949E+03  0.7818608E-02  0.1145800E+00
         21   -1    0    0  503  502  0.00000000000E+00  0.00000000000E+00  0.55102191242E+02  0.55102191242E+02  0.00000000000E+00 0.  1.
         21   -1    0    0  501  503 -0.00000000000E+00 -0.00000000000E+00 -0.76616288697E+03  0.76616288697E+03  0.00000000000E+00 0. -1.
          6    2    1    2  501    0 -0.66509173541E+02 -0.90058308903E+02 -0.31806000103E+03  0.37834388021E+03  0.17160407416E+03 0.  0.
         24    2    3    3    0    0 -0.67044275967E+02 -0.10723723238E+03 -0.15846979779E+03  0.21776204837E+03  0.79453596214E+02 0.  0.
         -6    2    1    2    0  502  0.66509173541E+02  0.90058308903E+02 -0.39300069469E+03  0.44292119800E+03  0.17086741188E+03 0.  0.
        -24    2    5    5    0    0  0.56649078589E+02  0.72005253511E+02 -0.40177251639E+03  0.42007017751E+03  0.81510272201E+02 0.  0.
          5    1    3    3  501    0  0.53510242619E+00  0.17178923473E+02 -0.15959020324E+03  0.16058183184E+03  0.47000000000E+01 0. -1.
        -13    1    4    4    0    0 -0.80542506777E+02 -0.10841742902E+03 -0.13705142798E+03  0.19241758814E+03  0.00000000000E+00 0.  1.
         14    1    4    4    0    0  0.13498230810E+02  0.11801966470E+01 -0.21418369808E+02  0.25344460230E+02  0.00000000000E+00 0. -1.
         -5    1    5    5    0  502  0.98600949516E+01  0.18053055391E+02  0.87718216941E+01  0.22851020486E+02  0.47000000000E+01 0.  1.
         13    1    6    6    0    0  0.33461777214E+02 -0.11743900188E+02 -0.12936134564E+03  0.13413413984E+03  0.00000000000E+00 0. -1.
        -14    1    6    6    0    0  0.23187301375E+02  0.83749153700E+02 -0.27241117075E+03  0.28593603767E+03  0.00000000000E+00 0.  1.
</event>
<event>
12    1  0.8494789E-002  0.1865971E+03  0.7818608E-02  0.1162015E+00
         21   -1    0    0  501  502  0.00000000000E+00  0.00000000000E+00  0.44403392969E+03  0.44403392969E+03  0.00000000000E+00 0.  1.
         21   -1    0    0  502  503 -0.00000000000E+00 -0.00000000000E+00 -0.23966135900E+03  0.23966135900E+03  0.00000000000E+00 0.  1.
         -6    2    1    2    0  503  0.38131073024E+02 -0.55491564339E+02 -0.17908760366E+03  0.25724459478E+03  0.17195673676E+03 0.  0.
        -24    2    3    3    0    0 -0.37806633036E+02 -0.25003708368E+02 -0.13731210470E+03  0.16524825314E+03  0.79986524698E+02 0.  0.
          6    2    1    2  501    0 -0.38131073024E+02  0.55491564339E+02  0.38346017435E+03  0.42645069390E+03  0.17402642492E+03 0.  0.
         24    2    5    5    0    0 -0.62626735162E+02  0.52505406910E+02  0.38309253790E+03  0.40132740279E+03  0.87320478249E+02 0.  0.
          5    1    5    5  501    0  0.24495662138E+02  0.29861574289E+01  0.36763645540E+00  0.25123291113E+02  0.47000000000E+01 0. -1.
        -13    1    6    6    0    0 -0.43268504691E+02 -0.11112729301E+02  0.23180332210E+03  0.23606871116E+03  0.00000000000E+00 0.  1.
         14    1    6    6    0    0 -0.19358230471E+02  0.63618136211E+02  0.15128921580E+03  0.16525869163E+03  0.00000000000E+00 0. -1.
         -5    1    3    3    0  503  0.75937706059E+02 -0.30487855971E+02 -0.41775498956E+02  0.91996341646E+02  0.47000000000E+01 0.  1.
         13    1    4    4    0    0 -0.21909263937E+02  0.28495330805E+02 -0.48785197195E+02  0.60596989936E+02  0.00000000000E+00 0. -1.
        -14    1    4    4    0    0 -0.15897369099E+02 -0.53499039173E+02 -0.88526907509E+02  0.10465126320E+03  0.00000000000E+00 0.  1.
</event>
<event>
12    1  0.8494789E-002  0.1978352E+03  0.7818608E-02  0.1151642E+00
         21   -1    0    0  501  502  0.00000000000E+00  0.00000000000E+00  0.34520560311E+02  0.34520560311E+02  0.00000000000E+00 0. -1.
         21   -1    0    0  502  503 -0.00000000000E+00 -0.00000000000E+00 -0.11329607273E+04  0.11329607273E+04  0.00000000000E+00 0. -1.
         -6    2    1    2    0  503 -0.83089718946E+02  0.51165435614E+02 -0.56503070360E+03  0.59856614496E+03  0.17175543856E+03 0.  0.
        -24    2    3    3    0    0 -0.52181591045E+02  0.94903826976E+02 -0.47518604301E+03  0.49386412833E+03  0.79814453303E+02 0.  0.
          6    2    1    2  501    0  0.83089718946E+02 -0.51165435614E+02 -0.53340946338E+03  0.56891514265E+03  0.17209584747E+03 0.  0.
         24    2    5    5    0    0 -0.24827251848E+02 -0.25047984314E+02 -0.20191536689E+03  0.21928874225E+03  0.77935506281E+02 0.  0.
          5    1    5    5  501    0  0.10791697079E+03 -0.26117451300E+02 -0.33149409649E+03  0.34962640040E+03  0.47000000000E+01 0. -1.
        -11    1    6    6    0    0 -0.15269327367E+02  0.27862234192E+02 -0.73827773794E+02  0.80374104261E+02  0.00000000000E+00 0.  1.
         12    1    6    6    0    0 -0.95579244810E+01 -0.52910218506E+02 -0.12808759310E+03  0.13891463799E+03  0.00000000000E+00 0. -1.
         -5    1    3    3    0  503 -0.30908127901E+02 -0.43738391362E+02 -0.89844660591E+02  0.10470201663E+03  0.47000000000E+01 0.  1.
         13    1    4    4    0    0 -0.73521317547E+02  0.69050045620E+02 -0.34627919324E+03  0.36066961697E+03  0.00000000000E+00 0. -1.
        -14    1    4    4    0    0  0.21339726502E+02  0.25853781356E+02 -0.12890684977E+03  0.13319451136E+03  0.00000000000E+00 0.  1.
</event>
<event>
12    1  0.8494789E-002  0.2368220E+03  0.7818608E-02  0.1122192E+00
         21   -1    0    0  501  502  0.00000000000E+00  0.00000000000E+00  0.33427767469E+03  0.33427767469E+03  0.00000000000E+00 0.  1.
         21   -1    0    0  502  503 -0.00000000000E+00 -0.00000000000E+00 -0.21055912596E+03  0.21055912596E+03  0.00000000000E+00 0. -1.
         -6    2    1    2    0  503 -0.54100011561E+01 -0.16216141580E+03  0.18605355496E+03  0.29994843272E+03  0.17037471669E+03 0.  0.
        -24    2    3    3    0    0  0.25192496955E+02 -0.19024538900E+02  0.93632190239E+02  0.12677661897E+03  0.79427508360E+02 0.  0.
          6    2    1    2  501    0  0.54100011561E+01  0.16216141580E+03 -0.62335006237E+02  0.24488836793E+03  0.17250816460E+03 0.  0.
         24    2    5    5    0    0  0.98660834585E+01  0.90241702549E+02  0.31681847503E+02  0.12634065343E+03  0.81959238448E+02 0.  0.
          5    1    5    5  501    0 -0.44560823024E+01  0.71919713256E+02 -0.94016853740E+02  0.11854771449E+03  0.47000000000E+01 0. -1.
        -11    1    6    6    0    0 -0.13645322943E+02  0.96835695082E+02  0.23368065509E+02  0.10054557755E+03  0.00000000000E+00 0.  1.
         12    1    6    6    0    0  0.23511406402E+02 -0.65939925330E+01  0.83137819941E+01  0.25795075878E+02  0.00000000000E+00 0. -1.
         -5    1    3    3    0  503 -0.30602498111E+02 -0.14313687690E+03  0.92421364723E+02  0.17317181375E+03  0.47000000000E+01 0.  1.
         13    1    4    4    0    0  0.49327374526E+02 -0.25625123338E+02  0.82289348652E+02  0.99304449675E+02  0.00000000000E+00 0. -1.
        -14    1    4    4    0    0 -0.24134877571E+02  0.66005844373E+01  0.11342841587E+02  0.27472169291E+02  0.00000000000E+00 0.  1.
</event>
<event>
12    1  0.8494789E-002  0.1790185E+03  0.7818608E-02  0.1170145E+00
         21   -1    0    0  501  502  0.00000000000E+00  0.00000000000E+00  0.97934814753E+02  0.97934814753E+02  0.00000000000E+00 0.  1.
         21   -1    0    0  502  503 -0.00000000000E+00 -0.00000000000E+00 -0.77737383465E+03  0.77737383465E+03  0.00000000000E+00 0.  1.
         -6    2    1    2    0  503  0.20853196323E+02 -0.47961457656E+01 -0.67867780788E+03  0.70189114503E+03  0.17773506621E+03 0.  0.
        -24    2    3    3    0    0  0.50373560330E+02 -0.46727322043E+02 -0.27077386898E+03  0.29074957720E+03  0.80597086250E+02 0.  0.
          6    2    1    2  501    0 -0.20853196323E+02  0.47961457656E+01 -0.76121202474E+00  0.17341750438E+03  0.17209065218E+03 0.  0.
         24    2    5    5    0    0 -0.28009403860E+02  0.27230516363E+02 -0.60888285956E+02  0.10867287286E+03  0.81094896284E+02 0.  0.
          5    1    5    5  501    0  0.71562075366E+01 -0.22434370598E+02  0.60127073931E+02  0.64744631514E+02  0.47000000000E+01 0. -1.
        -11    1    6    6    0    0  0.13098869537E+02  0.10697255153E+02 -0.62086097894E+02  0.64348233874E+02  0.00000000000E+00 0.  1.
         12    1    6    6    0    0 -0.41108273397E+02  0.16533261210E+02  0.11978119382E+01  0.44324638987E+02  0.00000000000E+00 0. -1.
         -5    1    3    3    0  503 -0.29520364007E+02  0.41931176277E+02 -0.40790393889E+03  0.41114156783E+03  0.47000000000E+01 0.  1.
         11    1    4    4    0    0  0.32706726323E+02 -0.55189973918E+02 -0.26116813605E+03  0.26893207033E+03  0.00000000000E+00 0. -1.
        -12    1    4    4    0    0  0.17666834007E+02  0.84626518752E+01 -0.96057329369E+01  0.21817506866E+02  0.00000000000E+00 0.  1.
</event>
<event>
12    1  0.8494789E-002  0.1733161E+03  0.7818608E-02  0.1176379E+00
         21   -1    0    0  501  502  0.00000000000E+00  0.00000000000E+00  0.19835494809E+03  0.19835494809E+03  0.00000000000E+00 0. -1.
         21   -1    0    0  502  503 -0.00000000000E+00 -0.00000000000E+00 -0.15994270097E+03  0.15994270097E+03  0.00000000000E+00 0. -1.
         -6    2    1    2    0  503 -0.74983392903E+01  0.19183134973E+02  0.73613770802E+02  0.18144284715E+03  0.16455485946E+03 0.  0.
        -24    2    3    3    0    0  0.41679674760E+01  0.69615062401E+02  0.73984855139E+02  0.12946487373E+03  0.80148399075E+02 0.  0.
          6    2    1    2  501    0  0.74983392903E+01 -0.19183134973E+02 -0.35201523674E+02  0.17685480191E+03  0.17208793081E+03 0.  0.
         24    2    5    5    0    0  0.51665663249E+01 -0.54086786642E+02  0.32449533323E+02  0.10054977207E+03  0.78135846795E+02 0.  0.
          5    1    5    5  501    0  0.23317729654E+01  0.34903651669E+02 -0.67651056997E+02  0.76305029833E+02  0.47000000000E+01 0. -1.
        -13    1    6    6    0    0  0.26719810870E+02 -0.22418931339E+00  0.33089597858E+02  0.42531400638E+02  0.00000000000E+00 0.  1.
         14    1    6    6    0    0 -0.21553244545E+02 -0.53862597329E+02 -0.64006453571E+00  0.58018371436E+02  0.00000000000E+00 0. -1.
         -5    1    3    3    0  503 -0.11666306766E+02 -0.50431927428E+02 -0.37108433706E+00  0.51977973424E+02  0.47000000000E+01 0.  1.
         13    1    4    4    0    0 -0.17853882396E+02  0.34936852370E+02  0.78875817085E+02  0.88095058267E+02  0.00000000000E+00 0. -1.
        -14    1    4    4    0    0  0.22021849872E+02  0.34678210031E+02 -0.48909619465E+01  0.41369815464E+02  0.00000000000E+00 0.  1.
</event>
<event>
12    1  0.8494789E-002  0.1764652E+03  0.7818608E-02  0.1171624E+00
         21   -1    0    0  501  502  0.00000000000E+00  0.00000000000E+00  0.61863792066E+03  0.61863792066E+03  0.00000000000E+00 0. -1.
         21   -1    0    0  502  503 -0.00000000000E+00 -0.00000000000E+00 -0.50061523889E+02  0.50061523889E+02  0.00000000000E+00 0. -1.
         -6    2    1    2    0  503  0.25776749940E+01 -0.36324426363E+02  0.26601557636E+03  0.31843810423E+03  0.17120873518E+03 0.  0.
        -24    2    3    3    0    0 -0.27515045085E+02  0.16702711958E+02  0.23414421384E+03  0.24947925455E+03  0.79876950884E+02 0.  0.
          6    2    1    2  501    0 -0.25776749940E+01  0.36324426363E+02  0.30256082042E+03  0.35026134032E+03  0.17266687035E+03 0.  0.
         24    2    5    5    0    0  0.24975085405E+02 -0.23917109131E+02  0.25050309988E+03  0.26587950892E+03  0.82123852877E+02 0.  0.
          5    1    5    5  501    0 -0.27552760399E+02  0.60241535494E+02  0.52057720538E+02  0.84381831409E+02  0.47000000000E+01 0. -1.
        -11    1    6    6    0    0  0.30021898551E+02 -0.24423397191E+02  0.41243011142E+02  0.56557958689E+02  0.00000000000E+00 0.  1.
         12    1    6    6    0    0 -0.50468131466E+01  0.50628805981E+00  0.20926008874E+03  0.20932155023E+03  0.00000000000E+00 0. -1.
         -5    1    3    3    0  503  0.30092720079E+02 -0.53027138321E+02  0.31871362514E+02  0.68958849677E+02  0.47000000000E+01 0.  1.
         13    1    4    4    0    0 -0.24261148271E+02 -0.29087407152E+02  0.13518283230E+03  0.14038902635E+03  0.00000000000E+00 0. -1.
        -14    1    4    4    0    0 -0.32538968134E+01  0.45790119109E+02  0.98961381540E+02  0.10909022820E+03  0.00000000000E+00 0.  1.
</event>
<event>
12    1  0.8494789E-002  0.2023390E+03  0.7818608E-02  0.1147986E+00
         21   -1    0    0  503  502  0.00000000000E+00  0.00000000000E+00  0.14556035830E+03  0.14556035830E+03  0.00000000000E+00 0.  1.
         21   -1    0    0  501  503 -0.00000000000E+00 -0.00000000000E+00 -0.55681559281E+03  0.55681559281E+03  0.00000000000E+00 0.  1.
          6    2    1    2  501    0 -0.97369393300E+02 -0.43903395651E+02 -0.45354255483E+03  0.49663056197E+03  0.17185097945E+03 0.  0.
         24    2    3    3    0    0 -0.10601389885E+03 -0.59381774366E+02 -0.23079408921E+03  0.27312826529E+03  0.81043172513E+02 0.  0.
         -6    2    1    2    0  502  0.97369393300E+02  0.43903395651E+02  0.42287320322E+02  0.20574538914E+03  0.17068872484E+03 0.  0.
        -24    2    5    5    0    0  0.71091948848E+02  0.92830361869E+02  0.11710124654E+02  0.14217332762E+03  0.80028662314E+02 0.  0.
          5    1    3    3  501    0  0.86445055460E+01  0.15478378715E+02 -0.22274846562E+03  0.22350229668E+03  0.47000000000E+01 0. -1.
        -13    1    4    4    0    0 -0.47016015727E+02 -0.44501077019E+02 -0.18774773582E+03  0.19859522627E+03  0.00000000000E+00 0.  1.
         14    1    4    4    0    0 -0.58997883119E+02 -0.14880697347E+02 -0.43046353395E+02  0.74533039028E+02  0.00000000000E+00 0. -1.
         -5    1    5    5    0  502  0.26277444451E+02 -0.48926966218E+02  0.30577195668E+02  0.63572061514E+02  0.47000000000E+01 0.  1.
         11    1    6    6    0    0 -0.12386406620E+02  0.41376936169E+02  0.87407822627E+01  0.44066712951E+02  0.00000000000E+00 0. -1.
        -12    1    6    6    0    0  0.83478355468E+02  0.51453425700E+02  0.29693423914E+01  0.98106614671E+02  0.00000000000E+00 0.  1.
</event>
<event>
12    1  0.8494789E-002  0.1920781E+03  0.7818608E-02  0.1156895E+00
         21   -1    0    0  501  502  0.00000000000E+00  0.00000000000E+00  0.71028121889E+02  0.71028121889E+02  0.00000000000E+00 0. -1.
         21   -1    0    0  502  503 -0.00000000000E+00 -0.00000000000E+00 -0.88129016020E+03  0.88129016020E+03  0.00000000000E+00 0. -1.
         -6    2    1    2    0  503  0.28776730186E+02  0.77842237560E+02 -0.71256587785E+03  0.73800009187E+03  0.17322381814E+03 0.  0.
        -24    2    3    3    0    0  0.62113046662E+02  0.75182220940E+02 -0.31939114080E+03  0.34337767799E+03  0.79919534561E+02 0.  0.
          6    2    1    2  501    0 -0.28776730186E+02 -0.77842237560E+02 -0.97696160460E+02  0.21431819022E+03  0.17175631791E+03 0.  0.
         24    2    5    5    0    0  0.10186278064E+02 -0.11173256499E+03 -0.54094646635E+02  0.14656974143E+03  0.77256274622E+02 0.  0.
          5    1    5    5  501    0 -0.38963008249E+02  0.33890327434E+02 -0.43601513825E+02  0.67748448788E+02  0.47000000000E+01 0. -1.
        -11    1    6    6    0    0  0.34622824094E+02 -0.21182238933E+02 -0.55643438152E+01  0.40968147585E+02  0.00000000000E+00 0.  1.
         12    1    6    6    0    0 -0.24436546030E+02 -0.90550326061E+02 -0.48530302820E+02  0.10560159385E+03  0.00000000000E+00 0. -1.
         -5    1    3    3    0  503 -0.33336316476E+02  0.26600166197E+01 -0.39317473705E+03  0.39462241388E+03  0.47000000000E+01 0.  1.
         11    1    4    4    0    0  0.29140130892E+02  0.37122929222E+02 -0.47853234787E+02  0.67210052686E+02  0.00000000000E+00 0. -1.
        -12    1    4    4    0    0  0.32972915770E+02  0.38059291718E+02 -0.27153790602E+03  0.27616762530E+03  0.00000000000E+00 0.  1.
</event>
<event>
12    1  0.8494789E-002  0.2538755E+03  0.7818608E-02  0.1111147E+00
         21   -1    0    0  503  502  0.00000000000E+00  0.00000000000E+00  0.39933977956E+03  0.39933977956E+03  0.00000000000E+00 0.  1.
         21   -1    0    0  501  503 -0.00000000000E+00 -0.00000000000E+00 -0.53375801157E+03  0.53375801157E+03  0.00000000000E+00 0. -1.
          6    2    1    2  501    0  0.18515844489E+03 -0.22411773166E+02 -0.45752512679E+03  0.52324184485E+03  0.17224067250E+03 0.  0.
         24    2    3    3    0    0  0.12422494404E+03  0.21441775127E+02 -0.21681503264E+03  0.27105250199E+03  0.10280619639E+03 0.  0.
         -6    2    1    2    0  502 -0.18515844489E+03  0.22411773166E+02  0.32310689478E+03  0.40985594628E+03  0.16969942238E+03 0.  0.
        -24    2    5    5    0    0 -0.11481939854E+03 -0.42150498781E+02  0.25039391134E+03  0.28975125711E+03  0.79363224046E+02 0.  0.
          5    1    3    3  501    0  0.60933500855E+02 -0.43853548293E+02 -0.24071009415E+03  0.25218934286E+03  0.47000000000E+01 0. -1.
        -13    1    4    4    0    0  0.17835037421E+02 -0.12773573957E+02  0.51563359197E+01  0.22535317871E+02  0.00000000000E+00 0.  1.
         14    1    4    4    0    0  0.10638990662E+03  0.34215349084E+02 -0.22197136856E+03  0.24851718412E+03  0.00000000000E+00 0. -1.
         -5    1    5    5    0  502 -0.70339046350E+02  0.64562271947E+02  0.72712983433E+02  0.12010468917E+03  0.47000000000E+01 0.  1.
         11    1    6    6    0    0 -0.41954818930E+02 -0.58987518147E+01  0.22947611256E+02  0.48182932318E+02  0.00000000000E+00 0. -1.
        -12    1    6    6    0    0 -0.72864579613E+02 -0.36251746966E+02  0.22744630009E+03  0.24156832479E+03  0.00000000000E+00 0.  1.
</event>
<event>
12    1  0.8494789E-002  0.1754404E+03  0.7818608E-02  0.1172509E+00
         21   -1    0    0  501  502  0.00000000000E+00  0.00000000000E+00  0.11769411347E+03  0.11769411347E+03  0.00000000000E+00 0.  1.
         21   -1    0    0  502  503 -0.00000000000E+00 -0.00000000000E+00 -0.27716077256E+03  0.27716077256E+03  0.00000000000E+00 0.  1.
         -6    2    1    2    0  503  0.91209852145E+01  0.30538805548E+02 -0.12873159347E+03  0.21760318794E+03  0.17252105155E+03 0.  0.
        -24    2    3    3    0    0 -0.28065499453E+02  0.13480300154E+02 -0.25224576621E+01  0.84845275898E+02  0.78885786412E+02 0.  0.
          6    2    1    2  501    0 -0.91209852145E+01 -0.30538805548E+02 -0.30735065626E+02  0.17725169809E+03  0.17163248294E+03 0.  0.
         24    2    5    5    0    0 -0.29330795949E+02 -0.20214313080E+02 -0.80387544524E+02  0.12245671424E+03  0.85232479155E+02 0.  0.
          5    1    5    5  501    0  0.20209810735E+02 -0.10324492468E+02  0.49652478898E+02  0.54794983852E+02  0.47000000000E+01 0. -1.
        -11    1    6    6    0    0 -0.36673976965E+02 -0.49396337121E+02 -0.61140963485E+02  0.86736359869E+02  0.00000000000E+00 0.  1.
         12    1    6    6    0    0  0.73431810160E+01  0.29182024041E+02 -0.19246581039E+02  0.35720354369E+02  0.00000000000E+00 0. -1.
         -5    1    3    3    0  503  0.37186484668E+02  0.17058505394E+02 -0.12620913581E+03  0.13275791204E+03  0.47000000000E+01 0.  1.
         11    1    4    4    0    0  0.47253140856E+00 -0.18525878442E+02  0.27025770763E+02  0.32769249966E+02  0.00000000000E+00 0. -1.
        -12    1    4    4    0    0 -0.28538030862E+02  0.32006178597E+02 -0.29548228425E+02  0.52076025932E+02  0.00000000000E+00 0.  1.
</event>
<event>
12    1  0.8494789E-002  0.1754070E+03  0.7818608E-02  0.1172589E+00
         21   -1    0    0  503  502  0.00000000000E+00  0.00000000000E+00  0.97049415399E+03  0.97049415399E+03  0.00000000000E+00 0.  1.
         21   -1    0    0  501  503 -0.00000000000E+00 -0.00000000000E+00 -0.49978274191E+02  0.49978274191E+02  0.00000000000E+00 0.  1.
          6    2    1    2  501    0 -0.20895375135E+02  0.19781094580E+02  0.15098834354E+03  0.23144137875E+03  0.17303099002E+03 0.  0.
         24    2    3    3    0    0  0.20907756918E+02  0.71661892288E+02  0.97026887422E+02  0.14557492566E+03  0.78773605934E+02 0.  0.
         -6    2    1    2    0  502  0.20895375135E+02 -0.19781094580E+02  0.76952753626E+03  0.78903104943E+03  0.17195772592E+03 0.  0.
        -24    2    5    5    0    0  0.76783523719E+02 -0.34442054617E+02  0.53742807909E+03  0.54980170985E+03  0.79818640131E+02 0.  0.
          5    1    3    3  501    0 -0.41803132052E+02 -0.51880797708E+02  0.53961456121E+02  0.85866453094E+02  0.47000000000E+01 0. -1.
        -11    1    4    4    0    0  0.10646578609E+01  0.21423547805E+02 -0.11507836337E+02  0.24341984186E+02  0.00000000000E+00 0.  1.
         12    1    4    4    0    0  0.19843099057E+02  0.50238344482E+02  0.10853472376E+03  0.12123294147E+03  0.00000000000E+00 0. -1.
         -5    1    5    5    0  502 -0.55888148585E+02  0.14660960038E+02  0.23209945716E+03  0.23922933958E+03  0.47000000000E+01 0.  1.
         13    1    6    6    0    0 -0.34229778254E+01 -0.31894626839E+02  0.98296989133E+02  0.10339865604E+03  0.00000000000E+00 0. -1.
        -14    1    6    6    0    0  0.80206501545E+02 -0.25474277777E+01  0.43913108996E+03  0.44640305381E+03  0.00000000000E+00 0.  1.
</event>
<event>
12    1  0.8494789E-002  0.1930262E+03  0.7818608E-02  0.1157873E+00
         21   -1    0    0  503  502  0.00000000000E+00  0.00000000000E+00  0.62304240409E+02  0.62304240409E+02  0.00000000000E+00 0. -1.
         21   -1    0    0  501  503 -0.00000000000E+00 -0.00000000000E+00 -0.59472772438E+03  0.59472772438E+03  0.00000000000E+00 0.  1.
          6    2    1    2  501    0  0.91571326751E+02 -0.20919941851E+01 -0.32754534554E+03  0.37554630290E+03  0.15924631208E+03 0.  0.
         24    2    3    3    0    0  0.80961871395E+02 -0.28856051450E+02 -0.12877980236E+03  0.17465153826E+03  0.80817238220E+02 0.  0.
         -6    2    1    2    0  502 -0.91571326751E+02  0.20919941851E+01 -0.20487813843E+03  0.28148566189E+03  0.16991009953E+03 0.  0.
        -24    2    5    5    0    0 -0.12761295808E+02  0.42904135478E+02 -0.58268078241E+02  0.11004105976E+03  0.81916117940E+02 0.  0.
          5    1    3    3  501    0  0.10609455356E+02  0.26764057265E+02 -0.19876554318E+03  0.20089476464E+03  0.47000000000E+01 0. -1.
        -11    1    4    4    0    0  0.60613468795E+02 -0.21251265862E+02 -0.13709164318E+03  0.15139262706E+03  0.00000000000E+00 0.  1.
         12    1    4    4    0    0  0.20348402600E+02 -0.76047855887E+01  0.83118408129E+01  0.23258911194E+02  0.00000000000E+00 0. -1.
         -5    1    5    5    0  502 -0.78810030944E+02 -0.40812141293E+02 -0.14661006019E+03  0.17144460214E+03  0.47000000000E+01 0.  1.
         13    1    6    6    0    0 -0.32858187445E+02 -0.10058714623E+02 -0.10472142850E+02  0.35923585538E+02  0.00000000000E+00 0. -1.
        -14    1    6    6    0    0  0.20096891638E+02  0.52962850101E+02 -0.47795935392E+02  0.74117474217E+02  0.00000000000E+00 0.  1.
</event>
<event>
12    1  0.8494789E-002  0.2393411E+03  0.7818608E-02  0.1120365E+00
         21   -1    0    0  501  502  0.00000000000E+00  0.00000000000E+00  0.33726865665E+03  0.33726865665E+03  0.00000000000E+00 0.  1.
         21   -1    0    0  502  503 -0.00000000000E+00 -0.00000000000E+00 -0.25036299500E+03  0.25036299500E+03  0.00000000000E+00 0. -1.
         -6    2    1    2    0  503 -0.49264541710E+02 -0.15673368409E+03 -0.12370084146E+03  0.26941798613E+03  0.17404513861E+03 0.  0.
        -24    2    3    3    0    0  0.72404871863E+01 -0.11394245218E+03 -0.13866249183E+03  0.19682426188E+03  0.80481031057E+02 0.  0.
          6    2    1    2  501    0  0.49264541710E+02  0.15673368409E+03  0.21060650311E+03  0.31821366552E+03  0.17295200193E+03 0.  0.
         24    2    5    5    0    0  0.36482176940E+02  0.17094759680E+03  0.22117181195E+03  0.29587222612E+03  0.89829692754E+02 0.  0.
          5    1    5    5  501    0  0.12782364771E+02 -0.14213912717E+02 -0.10565308834E+02  0.22341439403E+02  0.47000000000E+01 0. -1.
        -11    1    6    6    0    0 -0.85650549908E+01  0.82675265554E+02  0.15747672035E+03  0.17806593485E+03  0.00000000000E+00 0.  1.
         12    1    6    6    0    0  0.45047231930E+02  0.88272331251E+02  0.63695091598E+02  0.11780629127E+03  0.00000000000E+00 0. -1.
         -5    1    3    3    0  503 -0.56505028897E+02 -0.42791231907E+02  0.14961650373E+02  0.72593724251E+02  0.47000000000E+01 0.  1.
         13    1    4    4    0    0 -0.17962962289E+02 -0.11301861683E+03 -0.11204492717E+03  0.16015599105E+03  0.00000000000E+00 0. -1.
        -14    1    4    4    0    0  0.25203449476E+02 -0.92383535125E+00 -0.26617564656E+02  0.36668270827E+02  0.00000000000E+00 0.  1.
</event>
<event>
12    1  0.8494789E-002  0.1929858E+03  0.7818608E-02  0.1156162E+00
         21   -1    0    0  503  502  0.00000000000E+00  0.00000000000E+00  0.30911022803E+03  0.30911022803E+03  0.00000000000E+00 0.  1.
         21   -1    0    0  501  503 -0.00000000000E+00 -0.00000000000E+00 -0.26348221500E+03  0.26348221500E+03  0.00000000000E+00 0.  1.
          6    2    1    2  501    0  0.37838689474E+02  0.78025197406E+02  0.23452662359E+03  0.30372069907E+03  0.17240599763E+03 0.  0.
         24    2    3    3    0    0 -0.34264798103E+02  0.56721551890E+02  0.79720212245E+02  0.13155835351E+03  0.80999242595E+02 0.  0.
         -6    2    1    2    0  502 -0.37838689474E+02 -0.78025197406E+02 -0.18889861056E+03  0.26887174397E+03  0.17055682861E+03 0.  0.
        -24    2    5    5    0    0 -0.35156974538E+02 -0.33005974847E+02 -0.22192004202E+02  0.96108598024E+02  0.80118476829E+02 0.  0.
          5    1    3    3  501    0  0.72103487577E+02  0.21303645516E+02  0.15480641134E+03  0.17216234555E+03  0.47000000000E+01 0. -1.
        -11    1    4    4    0    0 -0.29360264418E+02  0.73059830367E+02  0.82758833119E+02  0.11423129343E+03  0.00000000000E+00 0.  1.
         12    1    4    4    0    0 -0.49045336850E+01 -0.16338278477E+02 -0.30386208735E+01  0.17327060082E+02  0.00000000000E+00 0. -1.
         -5    1    5    5    0  502 -0.26817149360E+01 -0.45019222559E+02 -0.16670660635E+03  0.17276314595E+03  0.47000000000E+01 0.  1.
         11    1    6    6    0    0  0.19097175005E+02  0.11949895215E+02 -0.10781179481E+01  0.22553590116E+02  0.00000000000E+00 0. -1.
        -12    1    6    6    0    0 -0.54254149543E+02 -0.44955870062E+02 -0.21113886254E+02  0.73555007908E+02  0.00000000000E+00 0.  1.
</event>
<event>
12    1  0.8494789E-002  0.1879009E+03  0.7818608E-02  0.1160606E+00
         21   -1    0    0  501  502  0.00000000000E+00  0.00000000000E+00  0.56287163580E+02  0.56287163580E+02  0.00000000000E+00 0. -1.
         21   -1    0    0  502  503 -0.00000000000E+00 -0.00000000000E+00 -0.76598099275E+03  0.76598099275E+03  0.00000000000E+00 0. -1.
         -6    2    1    2    0  503  0.10510190556E+02 -0.71062595239E+02 -0.53276801213E+03  0.56493228724E+03  0.17362712309E+03 0.  0.
        -24    2    3    3    0    0  0.49215923153E+02 -0.57188901198E+02 -0.18159035284E+03  0.21132452219E+03  0.77396511044E+02 0.  0.
          6    2    1    2  501    0 -0.10510190556E+02  0.71062595239E+02 -0.17692581705E+03  0.25733586909E+03  0.17250695127E+03 0.  0.
         24    2    5    5    0    0  0.33761501274E+02  0.21556433584E+02 -0.28403253669E+02  0.94572591381E+02  0.80825190531E+02 0.  0.
          5    1    5    5  501    0 -0.44271691830E+02  0.49506161655E+02 -0.14852256338E+03  0.16276327771E+03  0.47000000000E+01 0. -1.
        -11    1    6    6    0    0 -0.20583705572E+02 -0.11182320717E+02 -0.19553869448E+02  0.30513718916E+02  0.00000000000E+00 0.  1.
         12    1    6    6    0    0  0.54345206846E+02  0.32738754301E+02 -0.88493842204E+01  0.64058872464E+02  0.00000000000E+00 0. -1.
         -5    1    3    3    0  503 -0.38705732598E+02 -0.13873694041E+02 -0.35117765929E+03  0.35360776505E+03  0.47000000000E+01 0.  1.
         13    1    4    4    0    0  0.54935718550E+02 -0.35003880778E+02 -0.17610531588E+03  0.18776657616E+03  0.00000000000E+00 0. -1.
        -14    1    4    4    0    0 -0.57197953961E+01 -0.22185020420E+02 -0.54850369539E+01  0.23557946022E+02  0.00000000000E+00 0.  1.
</event>
<event>
12    1  0.8494789E-002  0.1835586E+03  0.7818608E-02  0.1164795E+00
         21   -1    0    0  503  502  0.00000000000E+00  0.00000000000E+00  0.11342740837E+04  0.11342740837E+04  0.00000000000E+00 0.  1.
         21   -1    0    0  501  503 -0.00000000000E+00 -0.00000000000E+00 -0.40711652424E+02  0.40711652424E+02  0.00000000000E+00 0.  1.
          6    2    1    2  501    0  0.61308284723E+02  0.52081926050E+01  0.23941743014E+03  0.30168604169E+03  0.17293909579E+03 0.  0.
         24    2    3    3    0    0  0.53121031065E+02  0.66161802536E+02  0.11971561259E+03  0.16702725509E+03  0.79793784144E+02 0.  0.
         -6    2    1    2    0  502 -0.61308284723E+02 -0.52081926050E+01  0.85414500116E+03  0.87329969445E+03  0.17118072986E+03 0.  0.
        -24    2    5    5    0    0  0.31964956122E+02 -0.84115460469E+01  0.48375858236E+03  0.49130709222E+03  0.79169314309E+02 0.  0.
          5    1    3    3  501    0  0.81872536571E+01 -0.60953609931E+02  0.11970181755E+03  0.13465878661E+03  0.47000000000E+01 0. -1.
        -11    1    4    4    0    0  0.50299906656E+02  0.35957735115E+00  0.57921111256E+02  0.76714177533E+02  0.00000000000E+00 0.  1.
         12    1    4    4    0    0  0.28211244094E+01  0.65802225184E+02  0.61794501334E+02  0.90313077554E+02  0.00000000000E+00 0. -1.
         -5    1    5    5    0  502 -0.93273240845E+02  0.32033534419E+01  0.37038641880E+03  0.38199260223E+03  0.47000000000E+01 0.  1.
         13    1    6    6    0    0  0.52790455981E+01  0.33668848448E+02  0.14813433102E+03  0.15200407792E+03  0.00000000000E+00 0. -1.
        -14    1    6    6    0    0  0.26685910524E+02 -0.42080394495E+02  0.33562425134E+03  0.33930301430E+03  0.00000000000E+00 0.  1.
</event>
<event>
12    1  0.8494789E-002  0.1765604E+03  0.7818608E-02  0.1172038E+00
         21   -1    0    0  501  502  0.00000000000E+00  0.00000000000E+00  0.21326931587E+03  0.21326931587E+03  0.00000000000E+00 0. -1.
         21   -1    0    0  502  503 -0.00000000000E+00 -0.00000000000E+00 -0.15552654366E+03  0.15552654366E+03  0.00000000000E+00 0. -1.
         -6    2    1    2    0  503  0.49089900335E+01  0.15153957641E+02  0.80768082768E+02  0.19415727662E+03  0.17584033739E+03 0.  0.
        -24    2    3    3    0    0  0.80362352156E+01  0.71364552314E+02  0.85436315293E+02  0.13747136116E+03  0.80259147549E+02 0.  0.
          6    2    1    2  501    0 -0.49089900335E+01 -0.15153957641E+02 -0.23025310558E+02  0.17463858291E+03  0.17237960755E+03 0.  0.
         24    2    5    5    0    0  0.30473185946E+02 -0.49625874607E+02  0.30265009169E+02  0.10182265325E+03  0.77849466551E+02 0.  0.
          5    1    5    5  501    0 -0.35382175979E+02  0.34471916966E+02 -0.53290319727E+02  0.72815929665E+02  0.47000000000E+01 0. -1.
        -11    1    6    6    0    0  0.47531880617E+02 -0.59617489759E+01  0.39580203315E+01  0.48067536350E+02  0.00000000000E+00 0.  1.
         12    1    6    6    0    0 -0.17058694671E+02 -0.43664125631E+02  0.26306988838E+02  0.53755116898E+02  0.00000000000E+00 0. -1.
         -5    1    3    3    0  503 -0.31272451821E+01 -0.56210594673E+02 -0.46682325250E+01  0.56685915454E+02  0.47000000000E+01 0.  1.
         13    1    4    4    0    0  0.39383869878E+02  0.14753690499E+02  0.42628985784E+02  0.59883144698E+02  0.00000000000E+00 0. -1.
        -14    1    4    4    0    0 -0.31347634662E+02  0.56610861815E+02  0.42807329509E+02  0.77588216464E+02  0.00000000000E+00 0.  1.
</event>
<event>
12    1  0.8494789E-002  0.2121888E+03  0.7818608E-02  0.1140880E+00
         21   -1    0    0  501  502  0.00000000000E+00  0.00000000000E+00  0.61519289644E+02  0.61519289644E+02  0.00000000000E+00 0. -1.
         21   -1    0    0  502  503 -0.00000000000E+00 -0.00000000000E+00 -0.97240865337E+03  0.97240865337E+03  0.00000000000E+00 0. -1.
         -6    2    1    2    0  503  0.11312442990E+03  0.20518795866E+02 -0.72613695110E+03  0.75650442855E+03  0.17834214600E+03 0.  0.
        -24    2    3    3    0    0  0.11721804859E+03  0.54038584904E+02 -0.38747754812E+03  0.41613313834E+03  0.79797863101E+02 0.  0.
          6    2    1    2  501    0 -0.11312442990E+03 -0.20518795866E+02 -0.18475241262E+03  0.27742351445E+03  0.17208194205E+03 0.  0.
         24    2    5    5    0    0  0.94646610909E+01 -0.22022186315E+02 -0.88398862565E+02  0.12142209773E+03  0.79714555854E+02 0.  0.
          5    1    5    5  501    0 -0.12258909099E+03  0.15033904487E+01 -0.96353550053E+02  0.15600141672E+03  0.47000000000E+01 0. -1.
        -13    1    6    6    0    0  0.67608075826E+01  0.92101627565E+01  0.11805238059E+02  0.16428611104E+02  0.00000000000E+00 0.  1.
         14    1    6    6    0    0  0.27038535083E+01 -0.31232349071E+02 -0.10020410062E+03  0.10499348663E+03  0.00000000000E+00 0. -1.
         -5    1    3    3    0  503 -0.40936186957E+01 -0.33519789038E+02 -0.33865940298E+03  0.34037129021E+03  0.47000000000E+01 0.  1.
         11    1    4    4    0    0  0.89458188432E+02  0.20852058414E+02 -0.15926705777E+03  0.18385747608E+03  0.00000000000E+00 0. -1.
        -12    1    4    4    0    0  0.27759860160E+02  0.33186526490E+02 -0.22821049035E+03  0.23227566227E+03  0.00000000000E+00 0.  1.
</event>
<event>
12    1  0.8494789E-002  0.1775163E+03  0.7818608E-02  0.1170970E+00
         21   -1    0    0  503  502  0.00000000000E+00  0.00000000000E+00  0.20839575303E+03  0.20839575303E+03  0.00000000000E+00 0.  1.
         21   -1    0    0  501  503 -0.00000000000E+00 -0.00000000000E+00 -0.19568840458E+03  0.19568840458E+03  0.00000000000E+00 0.  1.
          6    2    1    2  501    0 -0.12089672605E+02  0.27313582246E+02 -0.92626002512E+02  0.20022893970E+03  0.17498531365E+03 0.  0.
         24    2    3    3    0    0 -0.48124289873E+02 -0.13742176644E+02 -0.10389593450E+03  0.14425421017E+03  0.86660932673E+02 0.  0.
         -6    2    1    2    0  502  0.12089672605E+02 -0.27313582246E+02  0.10533335096E+03  0.20385521790E+03  0.17195825971E+03 0.  0.
        -24    2    5    5    0    0 -0.48240040638E+02 -0.44228621484E+02  0.94831959845E+02  0.14015151261E+03  0.79787676993E+02 0.  0.
          5    1    3    3  501    0  0.36034617268E+02  0.41055758891E+02  0.11269931983E+02  0.55974729536E+02  0.47000000000E+01 0. -1.
        -11    1    4    4    0    0 -0.18141361840E+02 -0.43552160067E+02 -0.86510528474E+02  0.98539186077E+02  0.00000000000E+00 0.  1.
         12    1    4    4    0    0 -0.29982928033E+02  0.29809983422E+02 -0.17385406021E+02  0.45715024091E+02  0.00000000000E+00 0. -1.
         -5    1    5    5    0  502  0.60329713243E+02  0.16915039238E+02  0.10501391114E+02  0.63703705291E+02  0.47000000000E+01 0.  1.
         11    1    6    6    0    0  0.13781247790E+02 -0.34971393639E+02  0.20202654158E+02  0.42673978004E+02  0.00000000000E+00 0. -1.
        -12    1    6    6    0    0 -0.62021288428E+02 -0.92572278456E+01  0.74629305687E+02  0.97477534606E+02  0.00000000000E+00 0.  1.
</event>
<event>
12    1  0.8494789E-002  0.1753838E+03  0.7818608E-02  0.1172636E+00
         21   -1    0    0  501  502  0.00000000000E+00  0.00000000000E+00  0.38225660018E+03  0.38225660018E+03  0.00000000000E+00 0. -1.
         21   -1    0    0  502  503 -0.00000000000E+00 -0.00000000000E+00 -0.98503055368E+02  0.98503055368E+02  0.00000000000E+00 0. -1.
         -6    2    1    2    0  503 -0.22273323601E+02 -0.24759257270E+02  0.37906906603E+02  0.17943361965E+03  0.17219282368E+03 0.  0.
        -24    2    3    3    0    0 -0.69641170352E+02 -0.54306235347E+02  0.38623043613E+02  0.12340380909E+03  0.77056477944E+02 0.  0.
          6    2    1    2  501    0  0.22273323601E+02  0.24759257270E+02  0.24584663821E+03  0.30132603590E+03  0.17101955628E+03 0.  0.
         24    2    5    5    0    0  0.16570041471E+02  0.26928697346E+02  0.32224772679E+02  0.87565362883E+02  0.75030232490E+02 0.  0.
          5    1    5    5  501    0  0.57032821302E+01 -0.21694400756E+01  0.21362186553E+03  0.21376067302E+03  0.47000000000E+01 0. -1.
        -13    1    6    6    0    0 -0.27239355591E+02 -0.22558185437E+01  0.33816735766E+01  0.27541004457E+02  0.00000000000E+00 0.  1.
         14    1    6    6    0    0  0.43809397062E+02  0.29184515890E+02  0.28843099103E+02  0.60024358427E+02  0.00000000000E+00 0. -1.
         -5    1    3    3    0  503  0.47367846751E+02  0.29546978077E+02 -0.71613701009E+00  0.56029810561E+02  0.47000000000E+01 0.  1.
         13    1    4    4    0    0  0.27766216150E+01 -0.43878367607E+02  0.16613261988E+02  0.47000226013E+02  0.00000000000E+00 0. -1.
        -14    1    4    4    0    0 -0.72417791967E+02 -0.10427867741E+02  0.22009781625E+02  0.76403583072E+02  0.00000000000E+00 0.  1.
</event>
<event>
12    1  0.8494789E-002  0.1777912E+03  0.7818608E-02  0.1170069E+00
         21   -1    0    0  501  502  0.00000000000E+00  0.00000000000E+00  0.13107047467E+03  0.13107047467E+03  0.00000000000E+00 0.  1.
         21   -1    0    0  502  503 -0.00000000000E+00 -0.00000000000E+00 -0.24065192812E+03  0.24065192812E+03  0.00000000000E+00 0.  1.
         -6    2    1    2    0  503 -0.30094928987E+02 -0.30447070800E+02 -0.51142339125E+02  0.18500069184E+03  0.17256010043E+03 0.  0.
        -24    2    3    3    0    0  0.22603099131E+02 -0.18024420247E+02 -0.86110942301E+02  0.12037641140E+03  0.78991178129E+02 0.  0.
          6    2    1    2  501    0  0.30094928987E+02  0.30447070800E+02 -0.58439114326E+02  0.18672171095E+03  0.17209630556E+03 0.  0.
         24    2    5    5    0    0  0.10367897450E+02  0.54502951295E+02  0.20844904920E+02  0.10142290166E+03  0.82304495149E+02 0.  0.
          5    1    5    5  501    0  0.19727031537E+02 -0.24055880495E+02 -0.79284019246E+02  0.85298809297E+02  0.47000000000E+01 0. -1.
        -13    1    6    6    0    0  0.34962467305E+02  0.63534835056E+02  0.10596767961E+02  0.73289432232E+02  0.00000000000E+00 0.  1.
         14    1    6    6    0    0 -0.24594569856E+02 -0.90318837609E+01  0.10248136959E+02  0.28133469423E+02  0.00000000000E+00 0. -1.
         -5    1    3    3    0  503 -0.52698028117E+02 -0.12422650554E+02  0.34968603176E+02  0.64624280439E+02  0.47000000000E+01 0.  1.
         13    1    4    4    0    0  0.45362633064E+02 -0.28998598204E+02 -0.37567000358E+02  0.65650336573E+02  0.00000000000E+00 0. -1.
        -14    1    4    4    0    0 -0.22759533933E+02  0.10974177957E+02 -0.48543941943E+02  0.54726074827E+02  0.00000000000E+00 0.  1.
</event>
<event>
12    1  0.8494789E-002  0.2920679E+03  0.7818608E-02  0.1089317E+00
         21   -1    0    0  503  502  0.00000000000E+00  0.00000000000E+00  0.50739844937E+03  0.50739844937E+03  0.00000000000E+00 0. -1.
         21   -1    0    0  501  503 -0.00000000000E+00 -0.00000000000E+00 -0.18257334333E+03  0.18257334333E+03  0.00000000000E+00 0. -1.
          6    2    1    2  501    0  0.17328842931E+01 -0.23583352900E+03  0.26002890372E+03  0.39080257206E+03  0.17172991373E+03 0.  0.
         24    2    3    3    0    0  0.40295698757E+02 -0.23237302265E+03  0.20216982438E+03  0.32102557854E+03  0.81017400533E+02 0.  0.
         -6    2    1    2    0  502 -0.17328842931E+01  0.23583352900E+03  0.64796202325E+02  0.29916922064E+03  0.17228818430E+03 0.  0.
        -24    2    5    5    0    0  0.53518845097E+02  0.19602180992E+03  0.21957952058E+02  0.21857807805E+03  0.77494566273E+02 0.  0.
          5    1    3    3  501    0 -0.38562814464E+02 -0.34605063507E+01  0.57859079341E+02  0.69776993528E+02  0.47000000000E+01 0. -1.
        -11    1    4    4    0    0  0.43223337773E+02 -0.58204838710E+02  0.38886099336E+02  0.82269003271E+02  0.00000000000E+00 0.  1.
         12    1    4    4    0    0 -0.29276390166E+01 -0.17416818394E+03  0.16328372505E+03  0.23875657527E+03  0.00000000000E+00 0. -1.
         -5    1    5    5    0  502 -0.55251729390E+02  0.39811719082E+02  0.42838250267E+02  0.80591142582E+02  0.47000000000E+01 0.  1.
         11    1    6    6    0    0  0.28979246176E+02  0.10690361566E+03  0.50648692312E+02  0.12179273288E+03  0.00000000000E+00 0. -1.
        -12    1    6    6    0    0  0.24539598921E+02  0.89118194261E+02 -0.28690740254E+02  0.96785345171E+02  0.00000000000E+00 0.  1.
</event>
<event>
12    1  0.8494789E-002  0.1732445E+03  0.7818608E-02  0.1175553E+00
         21   -1    0    0  503  502  0.00000000000E+00  0.00000000000E+00  0.59566048115E+02  0.59566048115E+02  0.00000000000E+00 0. -1.
         21   -1    0    0  501  503 -0.00000000000E+00 -0.00000000000E+00 -0.50560110367E+03  0.50560110367E+03  0.00000000000E+00 0. -1.
          6    2    1    2  501    0  0.14875884959E+02  0.27930964964E+01 -0.27173731990E+03  0.32226515762E+03  0.17258206004E+03 0.  0.
         24    2    3    3    0    0 -0.20116384429E+02  0.34197112867E+02 -0.25833273578E+03  0.27314852055E+03  0.79373802056E+02 0.  0.
         -6    2    1    2    0  502 -0.14875884959E+02 -0.27930964964E+01 -0.17429773565E+03  0.24290199416E+03  0.16850099339E+03 0.  0.
        -24    2    5    5    0    0 -0.25246015216E+02 -0.53922147627E+02 -0.16042906963E+03  0.18871574712E+03  0.79568759838E+02 0.  0.
          5    1    3    3  501    0  0.34992269388E+02 -0.31404016370E+02 -0.13404584115E+02  0.49116637063E+02  0.47000000000E+01 0. -1.
        -11    1    4    4    0    0 -0.58206415264E+01 -0.82003273957E+01 -0.19686112711E+03  0.19711780388E+03  0.00000000000E+00 0.  1.
         12    1    4    4    0    0 -0.14295742902E+02  0.42397440262E+02 -0.61471608670E+02  0.76030716677E+02  0.00000000000E+00 0. -1.
         -5    1    5    5    0  502  0.10370130256E+02  0.51129051130E+02 -0.13868666027E+02  0.54186247041E+02  0.47000000000E+01 0.  1.
         11    1    6    6    0    0 -0.52374075767E+02 -0.41030491760E+02 -0.12956678190E+03  0.14565059574E+03  0.00000000000E+00 0. -1.
        -12    1    6    6    0    0  0.27128060551E+02 -0.12891655866E+02 -0.30862287726E+02  0.43065151387E+02  0.00000000000E+00 0.  1.
</event>
<event>
12    1  0.8494789E-002  0.2295198E+03  0.7818608E-02  0.1127304E+00
         21   -1    0    0  503  502  0.00000000000E+00  0.00000000000E+00  0.63444147253E+02  0.63444147253E+02  0.00000000000E+00 0.  1.
         21   -1    0    0  501  503 -0.00000000000E+00 -0.00000000000E+00 -0.10137305467E+04  0.10137305467E+04  0.00000000000E+00 0.  1.
          6    2    1    2  501    0  0.54581996751E+02 -0.14154338102E+03 -0.70989327868E+03  0.74607493917E+03  0.17223711758E+03 0.  0.
         24    2    3    3    0    0  0.20329530110E+02 -0.12642798011E+03 -0.31225634459E+03  0.34665169477E+03  0.79158377986E+02 0.  0.
         -6    2    1    2    0  502 -0.54581996751E+02  0.14154338102E+03 -0.24039312076E+03  0.33109975477E+03  0.16977771355E+03 0.  0.
        -24    2    5    5    0    0  0.17364657130E+02  0.37059006888E+02 -0.15192340560E+03  0.17636680436E+03  0.79684548073E+02 0.  0.
          5    1    3    3  501    0  0.34252466641E+02 -0.15115400918E+02 -0.39763693409E+03  0.39942324440E+03  0.47000000000E+01 0. -1.
        -11    1    4    4    0    0  0.43589372622E+02 -0.98796414548E+02 -0.27154272327E+03  0.29222630870E+03  0.00000000000E+00 0.  1.
         12    1    4    4    0    0 -0.23259842511E+02 -0.27631565558E+02 -0.40713621318E+02  0.54425386077E+02  0.00000000000E+00 0. -1.
         -5    1    5    5    0  502 -0.71946653881E+02  0.10448437414E+03 -0.88469715165E+02  0.15473295042E+03  0.47000000000E+01 0.  1.
         13    1    6    6    0    0  0.36062959600E+02 -0.11148102941E+02 -0.59511945740E+02  0.70473320768E+02  0.00000000000E+00 0. -1.
        -14    1    6    6    0    0 -0.18698302470E+02  0.48207109829E+02 -0.92411459857E+02  0.10589348359E+03  0.00000000000E+00 0.  1.
</event>
<event>
12    1  0.8494789E-002  0.1946416E+03  0.7818608E-02  0.1154391E+00
         21   -1    0    0  503  502  0.00000000000E+00  0.00000000000E+00  0.27606562234E+03  0.27606562234E+03  0.00000000000E+00 0. -1.
         21   -1    0    0  501  503 -0.00000000000E+00 -0.00000000000E+00 -0.15939838313E+03  0.15939838313E+03  0.00000000000E+00 0. -1.
          6    2    1    2  501    0  0.76354297432E+02  0.52357407029E+02 -0.23127655856E+02  0.19601082222E+03  0.17121354256E+03 0.  0.
         24    2    3    3    0    0  0.19252878754E+02 -0.12472922391E+02  0.40456075605E+02  0.88639855319E+02  0.75459146326E+02 0.  0.
         -6    2    1    2    0  502 -0.76354297432E+02 -0.52357407029E+02  0.13979489507E+03  0.23945318325E+03  0.17095010230E+03 0.  0.
        -24    2    5    5    0    0 -0.45697378687E+02 -0.94733548687E+02  0.61897263138E+02  0.14550790605E+03  0.79237515566E+02 0.  0.
          5    1    3    3  501    0  0.57101418678E+02  0.64830329421E+02 -0.63583731461E+02  0.10737096691E+03  0.47000000000E+01 0. -1.
        -13    1    4    4    0    0  0.11196257753E+01  0.11189638960E+02  0.54526880175E+02  0.55674430788E+02  0.00000000000E+00 0.  1.
         14    1    4    4    0    0  0.18133252978E+02 -0.23662561351E+02 -0.14070804570E+02  0.32965424531E+02  0.00000000000E+00 0. -1.
         -5    1    5    5    0  502 -0.30656918744E+02  0.42376141658E+02  0.77897631929E+02  0.93945277203E+02  0.47000000000E+01 0.  1.
         13    1    6    6    0    0 -0.39916132804E+01 -0.32817396519E+02  0.62665999027E+02  0.70851548501E+02  0.00000000000E+00 0. -1.
        -14    1    6    6    0    0 -0.41705765407E+02 -0.61916152168E+02 -0.76873588907E+00  0.74656357548E+02  0.00000000000E+00 0.  1.
</event>
<event>
12    1  0.8494789E-002  0.1808892E+03  0.7818608E-02  0.1167514E+00
         21   -1    0    0  503  502  0.00000000000E+00  0.00000000000E+00  0.16179593650E+03  0.16179593650E+03  0.00000000000E+00 0. -1.
         21   -1    0    0  501  503 -0.00000000000E+00 -0.00000000000E+00 -0.24713316345E+03  0.24713316345E+03  0.00000000000E+00 0. -1.
          6    2    1    2  501    0 -0.91977073271E+01 -0.54180402015E+02 -0.13209687801E+03  0.22209399324E+03  0.16987066513E+03 0.  0.
         24    2    3    3    0    0 -0.63680020550E+02 -0.49188647089E+02 -0.12633176794E+03  0.16688016739E+03  0.73584010875E+02 0.  0.
         -6    2    1    2    0  502  0.91977073271E+01  0.54180402015E+02  0.46759651061E+02  0.18683510670E+03  0.17233913759E+03 0.  0.
        -24    2    5    5    0    0  0.47006249482E+02  0.77795918953E+02  0.12942545390E+01  0.12298864414E+03  0.82841650137E+02 0.  0.
          5    1    3    3  501    0  0.54482313223E+02 -0.49917549259E+01 -0.57651100681E+01  0.55213825854E+02  0.47000000000E+01 0. -1.
        -11    1    4    4    0    0 -0.10087657626E+01  0.85462555332E+01  0.52765601165E+01  0.10094462773E+02  0.00000000000E+00 0.  1.
         12    1    4    4    0    0 -0.62671254787E+02 -0.57734902622E+02 -0.13160832806E+03  0.15678570461E+03  0.00000000000E+00 0. -1.
         -5    1    5    5    0  502 -0.37808542155E+02 -0.23615516939E+02  0.45465396522E+02  0.63846462557E+02  0.47000000000E+01 0.  1.
         11    1    6    6    0    0 -0.72348181979E+01  0.64745035235E+02  0.11830247092E+02  0.66213419548E+02  0.00000000000E+00 0. -1.
        -12    1    6    6    0    0  0.54241067680E+02  0.13050883718E+02 -0.10535992553E+02  0.56775224597E+02  0.00000000000E+00 0.  1.
</event>
<event>
12    1  0.8494789E-002  0.2081280E+03  0.7818608E-02  0.1144728E+00
         21   -1    0    0  501  502  0.00000000000E+00  0.00000000000E+00  0.78951569128E+03  0.78951569128E+03  0.00000000000E+00 0. -1.
         21   -1    0    0  502  503 -0.00000000000E+00 -0.00000000000E+00 -0.92954723058E+02  0.92954723058E+02  0.00000000000E+00 0. -1.
         -6    2    1    2    0  503 -0.11292315640E+03 -0.38844367357E+01  0.54121812942E+02  0.20715913415E+03  0.16498184181E+03 0.  0.
        -24    2    3    3    0    0 -0.57118030882E+01 -0.63607918127E+01 -0.10164288326E+02  0.82038394744E+02  0.80956167696E+02 0.  0.
          6    2    1    2  501    0  0.11292315640E+03  0.38844367357E+01  0.64243915528E+03  0.67531128019E+03  0.17478709567E+03 0.  0.
         24    2    5    5    0    0  0.10156352660E+03 -0.28749477945E+02  0.61923756643E+03  0.63342551528E+03  0.81431181482E+02 0.  0.
          5    1    5    5  501    0  0.11359629795E+02  0.32633914680E+02  0.23201588854E+02  0.41885764906E+02  0.47000000000E+01 0. -1.
        -13    1    6    6    0    0  0.57159884378E+00  0.19480584864E+01 -0.22542784676E+01  0.30337152988E+01  0.00000000000E+00 0.  1.
         14    1    6    6    0    0  0.10099192776E+03 -0.30697536431E+02  0.62149184489E+03  0.63039179998E+03  0.00000000000E+00 0. -1.
         -5    1    3    3    0  503 -0.10721135331E+03  0.24763550770E+01  0.64286101268E+02  0.12512073941E+03  0.47000000000E+01 0.  1.
         13    1    4    4    0    0 -0.40857511212E+02 -0.13206452758E+01  0.87567022228E+01  0.41806221549E+02  0.00000000000E+00 0. -1.
        -14    1    4    4    0    0  0.35145708124E+02 -0.50401465369E+01 -0.18920990549E+02  0.40232173195E+02  0.00000000000E+00 0.  1.
</event>
<event>
12    1  0.8494789E-002  0.1956327E+03  0.7818608E-02  0.1153832E+00
         21   -1    0    0  501  502  0.00000000000E+00  0.00000000000E+00  0.12784342066E+04  0.12784342066E+04  0.00000000000E+00 0. -1.
         21   -1    0    0  502  503 -0.00000000000E+00 -0.00000000000E+00 -0.29725718270E+02  0.29725718270E+02  0.00000000000E+00 0. -1.
         -6    2    1    2    0  503 -0.23967440011E+02 -0.86514246273E+02  0.65019774745E+03  0.67899135179E+03  0.17381884831E+03 0.  0.
        -24    2    3    3    0    0  0.28675909925E+01 -0.67854107818E+02  0.63375722373E+03  0.64210367802E+03  0.77694991296E+02 0.  0.
          6    2    1    2  501    0  0.23967440011E+02  0.86514246273E+02  0.59851074084E+03  0.62916857303E+03  0.17198498019E+03 0.  0.
         24    2    5    5    0    0  0.54042075597E+02  0.10556344442E+03  0.34867180066E+03  0.37676227026E+03  0.79458146088E+02 0.  0.
          5    1    5    5  501    0 -0.30074635586E+02 -0.19049198144E+02  0.24983894017E+03  0.25240630278E+03  0.47000000000E+01 0. -1.
        -11    1    6    6    0    0  0.10378249073E+02 -0.12862878196E+02  0.39494918186E+02  0.42813668984E+02  0.00000000000E+00 0.  1.
         12    1    6    6    0    0  0.43663826524E+02  0.11842632261E+03  0.30917688248E+03  0.33394860127E+03  0.00000000000E+00 0. -1.
         -5    1    3    3    0  503 -0.26835031003E+02 -0.18660138455E+02  0.16440523725E+02  0.36887673774E+02  0.47000000000E+01 0.  1.
         13    1    4    4    0    0  0.18409401623E+02 -0.41401535697E+02  0.13494223314E+03  0.14234605548E+03  0.00000000000E+00 0. -1.
        -14    1    4    4    0    0 -0.15541810631E+02 -0.26452572120E+02  0.49881499059E+03  0.49975762254E+03  0.00000000000E+00 0.  1.
</event>
<event>
12    1  0.8494789E-002  0.1909190E+03  0.7818608E-02  0.1158034E+00
         21   -1    0    0  503  502  0.00000000000E+00  0.00000000000E+00  0.37540925770E+03  0.37540925770E+03  0.00000000000E+00 0. -1.
         21   -1    0    0  501  503 -0.00000000000E+00 -0.00000000000E+00 -0.21514595635E+03  0.21514595635E+03  0.00000000000E+00 0. -1.
          6    2    1    2  501    0  0.79671686151E+02  0.59630772991E+01 -0.13925673529E+03  0.23631022091E+03  0.17339823043E+03 0.  0.
         24    2    3    3    0    0  0.65322822974E+02  0.15847900198E+02 -0.10661639844E+02  0.10645496237E+03  0.81858178004E+02 0.  0.
         -6    2    1    2    0  502 -0.79671686151E+02 -0.59630772991E+01  0.29952003665E+03  0.35424499314E+03  0.17144715497E+03 0.  0.
        -24    2    5    5    0    0 -0.11541206243E+03 -0.32317719565E+02  0.22050448303E+03  0.26348437735E+03  0.80233477546E+02 0.  0.
          5    1    3    3  501    0  0.14348863177E+02 -0.98848228987E+01 -0.12859509545E+03  0.12985525854E+03  0.47000000000E+01 0. -1.
        -13    1    4    4    0    0  0.93387895086E+01 -0.27519656551E+02 -0.19634825685E+02  0.35072366129E+02  0.00000000000E+00 0.  1.
         14    1    4    4    0    0  0.55984033466E+02  0.43367556749E+02  0.89731858409E+01  0.71382596238E+02  0.00000000000E+00 0. -1.
         -5    1    5    5    0  502  0.35740376277E+02  0.26354642266E+02  0.79015553616E+02  0.90760615790E+02  0.47000000000E+01 0.  1.
         11    1    6    6    0    0 -0.83326206074E+02 -0.17505749112E+02  0.21001830876E+03  0.22662170657E+03  0.00000000000E+00 0. -1.
        -12    1    6    6    0    0 -0.32085856354E+02 -0.14811970453E+02  0.10486174268E+02  0.36862670785E+02  0.00000000000E+00 0.  1.
</event>
<event>
12    1  0.8494789E-002  0.1926331E+03  0.7818608E-02  0.1156225E+00
         21   -1    0    0  501  502  0.00000000000E+00  0.00000000000E+00  0.41181929272E+02  0.41181929272E+02  0.00000000000E+00 0. -1.
         21   -1    0    0  502  503 -0.00000000000E+00 -0.00000000000E+00 -0.10825337848E+04  0.10825337848E+04  0.00000000000E+00 0.  1.
         -6    2    1    2    0  503  0.41173197585E+02  0.75328083145E+02 -0.75168801115E+03  0.77584697100E+03  0.17185489223E+03 0.  0.
        -24    2    3    3    0    0  0.60890271761E+01  0.52124876370E+02 -0.17440564588E+03  0.19701512402E+03  0.75123570132E+02 0.  0.
          6    2    1    2  501    0 -0.41173197585E+02 -0.75328083145E+02 -0.28966384435E+03  0.34786874305E+03  0.17244699869E+03 0.  0.
         24    2    5    5    0    0  0.66580324953E+00 -0.85395526713E+02 -0.28001310348E+03  0.30351694252E+03  0.80139609449E+02 0.  0.
          5    1    5    5  501    0 -0.41839000834E+02  0.10067443567E+02 -0.96507408742E+01  0.44351800530E+02  0.47000000000E+01 0. -1.
        -11    1    6    6    0    0  0.20062089722E+02 -0.69529976588E+02 -0.26409400419E+03  0.27382941430E+03  0.00000000000E+00 0.  1.
         12    1    6    6    0    0 -0.19396286473E+02 -0.15865550124E+02 -0.15919099288E+02  0.29687528220E+02  0.00000000000E+00 0. -1.
         -5    1    3    3    0  503  0.35084170409E+02  0.23203206775E+02 -0.57728236528E+03  0.57883184698E+03  0.47000000000E+01 0.  1.
         11    1    4    4    0    0 -0.56383392281E+01 -0.18577370958E+02 -0.28877784435E+02  0.34797069055E+02  0.00000000000E+00 0. -1.
        -12    1    4    4    0    0  0.11727366404E+02  0.70702247327E+02 -0.14552786144E+03  0.16221805496E+03  0.00000000000E+00 0.  1.
</event>
<event>
12    1  0.8494789E-002  0.1971533E+03  0.7818608E-02  0.1152280E+00
         21   -1    0    0  501  502  0.00000000000E+00  0.00000000000E+00  0.30047445371E+03  0.30047445371E+03  0.00000000000E+00 0.  1.
         21   -1    0    0  502  503 -0.00000000000E+00 -0.00000000000E+00 -0.17137904774E+03  0.17137904774E+03  0.00000000000E+00 0. -1.
         -6    2    1    2    0  503 -0.33914397970E+02  0.88977011639E+02 -0.52699857849E+02  0.20407526079E+03  0.17263354847E+03 0.  0.
        -24    2    3    3    0    0 -0.15242653122E+02  0.78446093457E+02 -0.10045433353E+03  0.15151944055E+03  0.80504283641E+02 0.  0.
          6    2    1    2  501    0  0.33914397970E+02 -0.88977011639E+02  0.18179526382E+03  0.26777824066E+03  0.17201329377E+03 0.  0.
         24    2    5    5    0    0 -0.63385791827E+01 -0.30236984803E+01  0.14739403852E+03  0.16671485206E+03  0.77585559014E+02 0.  0.
          5    1    5    5  501    0  0.40252977153E+02 -0.85953313159E+02  0.34401225297E+02  0.10106338860E+03  0.47000000000E+01 0. -1.
        -13    1    6    6    0    0 -0.10937651249E+02 -0.33173115199E+02  0.12239055096E+03  0.12727739293E+03  0.00000000000E+00 0.  1.
         14    1    6    6    0    0  0.45990720662E+01  0.30149416719E+02  0.25003487558E+02  0.39437459127E+02  0.00000000000E+00 0. -1.
         -5    1    3    3    0  503 -0.18671744848E+02  0.10530918183E+02  0.47754475686E+02  0.52555820243E+02  0.47000000000E+01 0.  1.
         11    1    4    4    0    0 -0.20016638620E+02  0.82034340666E+02 -0.44883447976E+02  0.95628566717E+02  0.00000000000E+00 0. -1.
        -12    1    4    4    0    0  0.47739854980E+01 -0.35882472093E+01 -0.55570885558E+02  0.55890873829E+02  0.00000000000E+00 0.  1.
</event>
<event>
12    1  0.8494789E-002  0.2057717E+03  0.7818608E-02  0.1145512E+00
         21   -1    0    0  503  502  0.00000000000E+00  0.00000000000E+00  0.25868875950E+03  0.25868875950E+03  0.00000000000E+00 0. -1.
         21   -1    0    0  501  503 -0.00000000000E+00 -0.00000000000E+00 -0.16187547474E+03  0.16187547474E+03  0.00000000000E+00 0.  1.
          6    2    1    2  501    0 -0.20780138491E+02  0.10561943742E+03  0.38456364296E+02  0.20667752876E+03  0.17219009617E+03 0.  0.
         24    2    3    3    0    0 -0.47988255383E+02  0.63405950313E+02 -0.36458650653E+02  0.11636357865E+03  0.76733708623E+02 0.  0.
         -6    2    1    2    0  502  0.20780138491E+02 -0.10561943742E+03  0.58356920470E+02  0.21388670548E+03  0.17537021668E+03 0.  0.
        -24    2    5    5    0    0  0.37190113256E+02 -0.89658824979E+00  0.60032791750E+02  0.10776855927E+03  0.81401584064E+02 0.  0.
          5    1    3    3  501    0  0.27208116892E+02  0.42213487110E+02  0.74915014949E+02  0.90313950105E+02  0.47000000000E+01 0. -1.
        -11    1    4    4    0    0  0.16402816034E+02  0.36506904191E+02 -0.19639640851E+02  0.44581632095E+02  0.00000000000E+00 0.  1.
         12    1    4    4    0    0 -0.64391071418E+02  0.26899046122E+02 -0.16819009802E+02  0.71781946556E+02  0.00000000000E+00 0. -1.
         -5    1    5    5    0  502 -0.16409974765E+02 -0.10472284917E+03 -0.16758712803E+01  0.10611814621E+03  0.47000000000E+01 0.  1.
         13    1    6    6    0    0 -0.10908549482E+02  0.18737598388E+02  0.50488903813E+02  0.54947460846E+02  0.00000000000E+00 0. -1.
        -14    1    6    6    0    0  0.48098662738E+02 -0.19634186638E+02  0.95438879367E+01  0.52821098428E+02  0.00000000000E+00 0.  1.
</event>
<event>
12    1  0.8494789E-002  0.1885731E+03  0.7818608E-02  0.1159919E+00
         21   -1    0    0  503  502  0.00000000000E+00  0.00000000000E+00  0.27575052725E+03  0.27575052725E+03  0.00000000000E+00 0. -1.
         21   -1    0    0  501  503 -0.00000000000E+00 -0.00000000000E+00 -0.13591354147E+03  0.13591354147E+03  0.00000000000E+00 0.  1.
          6    2    1    2  501    0  0.72849816239E+02  0.21092142636E+02  0.21852778922E+02  0.18983509677E+03  0.17264948831E+03 0.  0.
         24    2    3    3    0    0  0.10413280778E+03 -0.24257066617E+02  0.93955203599E+01  0.13315662087E+03  0.78805856018E+02 0.  0.
         -6    2    1    2    0  502 -0.72849816239E+02 -0.21092142636E+02  0.11798420685E+03  0.22182897195E+03  0.17185995904E+03 0.  0.
        -24    2    5    5    0    0 -0.99621059961E+00 -0.60082108444E+02  0.87920429941E+02  0.13459893836E+03  0.82316584094E+02 0.  0.
          5    1    3    3  501    0 -0.31282991541E+02  0.45349209253E+02  0.12457258562E+02  0.56678475901E+02  0.47000000000E+01 0. -1.
        -13    1    4    4    0    0  0.62230534029E+02 -0.10675885369E+02 -0.33668124722E+02  0.71555268962E+02  0.00000000000E+00 0.  1.
         14    1    4    4    0    0  0.41902273750E+02 -0.13581181248E+02  0.43063645082E+02  0.61601351911E+02  0.00000000000E+00 0. -1.
         -5    1    5    5    0  502 -0.71853605639E+02  0.38989965808E+02  0.30063776913E+02  0.87230033586E+02  0.47000000000E+01 0.  1.
         11    1    6    6    0    0  0.36032061203E+02 -0.18087365416E+02  0.59333427694E+02  0.71735053245E+02  0.00000000000E+00 0. -1.
        -12    1    6    6    0    0 -0.37028271802E+02 -0.41994743028E+02  0.28587002247E+02  0.62863885118E+02  0.00000000000E+00 0.  1.
</event>
<event>
12    1  0.8494789E-002  0.1745348E+03  0.7818608E-02  0.1173866E+00
         21   -1    0    0  503  502  0.00000000000E+00  0.00000000000E+00  0.42980075032E+03  0.42980075032E+03  0.00000000000E+00 0. -1.
         21   -1    0    0  501  503 -0.00000000000E+00 -0.00000000000E+00 -0.11071163739E+03  0.11071163739E+03  0.00000000000E+00 0. -1.
          6    2    1    2  501    0 -0.19589037332E+02  0.50285683381E+01 -0.39488918039E+01  0.17457942888E+03  0.17335906771E+03 0.  0.
         24    2    3    3    0    0  0.40212188634E+02  0.78823265191E+00 -0.47830127756E+02  0.10013602795E+03  0.78242325796E+02 0.  0.
         -6    2    1    2    0  502  0.19589037332E+02 -0.50285683381E+01  0.32303800473E+03  0.36593295883E+03  0.17071719589E+03 0.  0.
        -24    2    5    5    0    0  0.59254299530E+02  0.18337257340E+02  0.29579950051E+03  0.31223639519E+03  0.78402136161E+02 0.  0.
          5    1    3    3  501    0 -0.59801225966E+02  0.42403356862E+01  0.43881235953E+02  0.74443400933E+02  0.47000000000E+01 0. -1.
        -13    1    4    4    0    0 -0.19659516304E+01 -0.33134945132E+02 -0.24184336580E+02  0.41069108714E+02  0.00000000000E+00 0.  1.
         14    1    4    4    0    0  0.42178140265E+02  0.33923177784E+02 -0.23645791176E+02  0.59066919231E+02  0.00000000000E+00 0. -1.
         -5    1    5    5    0  502 -0.39665262198E+02 -0.23365825678E+02  0.27238504217E+02  0.53696563641E+02  0.47000000000E+01 0.  1.
         11    1    6    6    0    0  0.30483662284E+02 -0.28116235408E+02  0.17175220916E+03  0.17668785388E+03  0.00000000000E+00 0. -1.
        -12    1    6    6    0    0  0.28770637246E+02  0.46453492748E+02  0.12404729136E+03  0.13554854130E+03  0.00000000000E+00 0.  1.
</event>
<event>
12    1  0.8494789E-002  0.1770673E+03  0.7818608E-02  0.1170732E+00
         21   -1    0    0  503  502  0.00000000000E+00  0.00000000000E+00  0.11280365047E+02  0.11280365047E+02  0.00000000000E+00 0.  1.
         21   -1    0    0  501  503 -0.00000000000E+00 -0.00000000000E+00 -0.28568714102E+04  0.28568714102E+04  0.00000000000E+00 0.  1.
          6    2    1    2  501    0  0.27667370601E+02  0.29182576246E+02 -0.16656262812E+04  0.16750115668E+04  0.17244052266E+03 0.  0.
         24    2    3    3    0    0 -0.29103779242E+01  0.65790599341E+02 -0.14675681168E+04  0.14712365129E+04  0.80273446875E+02 0.  0.
         -6    2    1    2    0  502 -0.27667370601E+02 -0.29182576246E+02 -0.11799647639E+04  0.11931402085E+04  0.17219061208E+03 0.  0.
        -24    2    5    5    0    0 -0.38760150716E+02 -0.32117653395E+02 -0.33347767046E+03  0.34656230078E+03  0.79775802601E+02 0.  0.
          5    1    3    3  501    0  0.30577748525E+02 -0.36608023095E+02 -0.19805816447E+03  0.20377505385E+03  0.47000000000E+01 0. -1.
        -11    1    4    4    0    0 -0.30055955517E+02  0.53040137158E+02 -0.58688731061E+03  0.59004519485E+03  0.00000000000E+00 0.  1.
         12    1    4    4    0    0  0.27145577593E+02  0.12750462183E+02 -0.88068080616E+03  0.88119131805E+03  0.00000000000E+00 0. -1.
         -5    1    5    5    0  502  0.11092780115E+02  0.29350771492E+01 -0.84648709343E+03  0.84657790769E+03  0.47000000000E+01 0.  1.
         11    1    6    6    0    0 -0.39234769581E+02 -0.33585909822E+02 -0.33792808296E+03  0.34185197050E+03  0.00000000000E+00 0. -1.
        -12    1    6    6    0    0  0.47461886445E+00  0.14682564269E+01  0.44504124931E+01  0.47103302814E+01  0.00000000000E+00 0.  1.
</event>
<event>
12    1  0.8494789E-002  0.1861792E+03  0.7818608E-02  0.1162099E+00
         21   -1    0    0  503  502  0.00000000000E+00  0.00000000000E+00  0.24605752351E+03  0.24605752351E+03  0.00000000000E+00 0.  1.
         21   -1    0    0  501  503 -0.00000000000E+00 -0.00000000000E+00 -0.16633866742E+03  0.16633866742E+03  0.00000000000E+00 0.  1.
          6    2    1    2  501    0 -0.20730761549E+02  0.67564051624E+02 -0.41627477315E+02  0.19016290809E+03  0.17156462106E+03 0.  0.
         24    2    3    3    0    0 -0.20380116104E+02  0.10413635565E+03 -0.63012170877E+02  0.14753602112E+03  0.80849329927E+02 0.  0.
         -6    2    1    2    0  502  0.20730761549E+02 -0.67564051624E+02  0.12134633341E+03  0.22223328284E+03  0.17224411115E+03 0.  0.
        -24    2    5    5    0    0  0.19639395286E+02 -0.55572349951E+02  0.33708120633E-01  0.10023395889E+03  0.81073136446E+02 0.  0.
          5    1    3    3  501    0 -0.35064544565E+00 -0.36572304027E+02  0.21384693563E+02  0.42626886971E+02  0.47000000000E+01 0. -1.
        -13    1    4    4    0    0 -0.26736480775E+02  0.49426221442E+02 -0.72415115239E+02  0.91661004169E+02  0.00000000000E+00 0.  1.
         14    1    4    4    0    0  0.63563646714E+01  0.54710134209E+02  0.94029443612E+01  0.55875016954E+02  0.00000000000E+00 0. -1.
         -5    1    5    5    0  502  0.10913662632E+01 -0.11991701673E+02  0.12131262529E+03  0.12199932395E+03  0.47000000000E+01 0.  1.
         13    1    6    6    0    0  0.49644937463E+02 -0.33087131648E+02  0.12039524166E+02  0.60863192806E+02  0.00000000000E+00 0. -1.
        -14    1    6    6    0    0 -0.30005542177E+02 -0.22485218302E+02 -0.12005816045E+02  0.39370766088E+02  0.00000000000E+00 0.  1.
</event>
<event>
12    1  0.8494789E-002  0.2218124E+03  0.7818608E-02  0.1133173E+00
         21   -1    0    0  503  502  0.00000000000E+00  0.00000000000E+00  0.55426574462E+03  0.55426574462E+03  0.00000000000E+00 0. -1.
         21   -1    0    0  501  503 -0.00000000000E+00 -0.00000000000E+00 -0.10201540827E+04  0.10201540827E+04  0.00000000000E+00 0.  1.
          6    2    1    2  501    0 -0.66855950746E+02  0.11687223787E+03 -0.98582687637E+03  0.10104728544E+04  0.17627229242E+03 0.  0.
         24    2    3    3    0    0  0.18190645368E+02  0.28275213897E+02 -0.25184835491E+03  0.26627602815E+03  0.79655144190E+02 0.  0.
         -6    2    1    2    0  502  0.66855950746E+02 -0.11687223787E+03  0.51993853827E+03  0.56394697299E+03  0.17196298043E+03 0.  0.
        -24    2    5    5    0    0 -0.10310586732E+02 -0.14590292870E+01  0.18788988434E+03  0.20401186524E+03  0.78802256029E+02 0.  0.
          5    1    3    3  501    0 -0.85046596114E+02  0.88597023968E+02 -0.73397852146E+03  0.74419682620E+03  0.47000000000E+01 0. -1.
        -11    1    4    4    0    0  0.34179003802E+01  0.55387187638E+02 -0.15585346619E+03  0.16543798089E+03  0.00000000000E+00 0.  1.
         12    1    4    4    0    0  0.14772744988E+02 -0.27111973741E+02 -0.95994888720E+02  0.10083804726E+03  0.00000000000E+00 0. -1.
         -5    1    5    5    0  502  0.77166537477E+02 -0.11541320858E+03  0.33204865393E+03  0.35993510776E+03  0.47000000000E+01 0.  1.
         13    1    6    6    0    0 -0.97246762587E+01 -0.19068927698E+01  0.19580843646E+03  0.19605904559E+03  0.00000000000E+00 0. -1.
        -14    1    6    6    0    0 -0.58591047278E+00  0.44786348275E+00 -0.79185521169E+01  0.79528196515E+01  0.00000000000E+00 0.  1.
</event>
<event>
12    1  0.8494789E-002  0.2191333E+03  0.7818608E-02  0.1134807E+00
         21   -1    0    0  503  502  0.00000000000E+00  0.00000000000E+00  0.20356033299E+04  0.20356033299E+04  0.00000000000E+00 0.  1.
         21   -1    0    0  501  503 -0.00000000000E+00 -0.00000000000E+00 -0.85167796403E+03  0.85167796403E+03  0.00000000000E+00 0.  1.
          6    2    1    2  501    0  0.10639072882E+03  0.85460570225E+02 -0.83173497056E+03  0.85974436644E+03  0.16957245687E+03 0.  0.
         24    2    3    3    0    0  0.84669578759E+02  0.63447483085E+01 -0.60686880989E+03  0.62033258341E+03  0.96506829956E+02 0.  0.
         -6    2    1    2    0  502 -0.10639072882E+03 -0.85460570225E+02  0.20156603364E+04  0.20275369274E+04  0.17145525446E+03 0.  0.
        -24    2    5    5    0    0 -0.50001493667E+02  0.17499144579E+02  0.11394674794E+04  0.11435027306E+04  0.80037420480E+02 0.  0.
          5    1    3    3  501    0  0.21721150060E+02  0.79115821916E+02 -0.22486616067E+03  0.23941178302E+03  0.47000000000E+01 0. -1.
        -13    1    4    4    0    0  0.51713380829E+02  0.45068003744E+02 -0.45586913959E+03  0.46100116177E+03  0.00000000000E+00 0.  1.
         14    1    4    4    0    0  0.32956197931E+02 -0.38723255436E+02 -0.15099967029E+03  0.15933142164E+03  0.00000000000E+00 0. -1.
         -5    1    5    5    0  502 -0.56389235153E+02 -0.10295971480E+03  0.87619285695E+03  0.88403419690E+03  0.47000000000E+01 0.  1.
         11    1    6    6    0    0  0.10470537164E+02  0.23626058626E+01  0.64910929111E+03  0.64919803286E+03  0.00000000000E+00 0. -1.
        -12    1    6    6    0    0 -0.60472030831E+02  0.15136538716E+02  0.49035818831E+03  0.49430469769E+03  0.00000000000E+00 0.  1.
</event>
<event>
12    1  0.8494789E-002  0.1914257E+03  0.7818608E-02  0.1158089E+00
         21   -1    0    0  503  502  0.00000000000E+00  0.00000000000E+00  0.17003776601E+03  0.17003776601E+03  0.00000000000E+00 0. -1.
         21   -1    0    0  501  503 -0.00000000000E+00 -0.00000000000E+00 -0.56358903912E+03  0.56358903912E+03  0.00000000000E+00 0. -1.
          6    2    1    2  501    0 -0.52308853723E+02  0.53921506828E+02 -0.48768365167E+03  0.52390755697E+03  0.17606827956E+03 0.  0.
         24    2    3    3    0    0 -0.31917918293E+02 -0.39847513589E+02 -0.27053066348E+03  0.28645034036E+03  0.79122561669E+02 0.  0.
         -6    2    1    2    0  502  0.52308853723E+02 -0.53921506828E+02  0.94132378561E+02  0.20971924816E+03  0.17169016652E+03 0.  0.
        -24    2    5    5    0    0  0.34260658730E+02 -0.82755707294E+02  0.12501900783E+03  0.16353242833E+03  0.55594990515E+02 0.  0.
          5    1    3    3  501    0 -0.20390935429E+02  0.93769020417E+02 -0.21715298819E+03  0.23745721660E+03  0.47000000000E+01 0. -1.
        -11    1    4    4    0    0 -0.18392404992E+02 -0.42418346018E+02 -0.26859747411E+03  0.27254761004E+03  0.00000000000E+00 0.  1.
         12    1    4    4    0    0 -0.13525513301E+02  0.25708324285E+01 -0.19331893731E+01  0.13902730328E+02  0.00000000000E+00 0. -1.
         -5    1    5    5    0  502  0.18048194992E+02  0.28834200466E+02 -0.30886629265E+02  0.46186819834E+02  0.47000000000E+01 0.  1.
         11    1    6    6    0    0  0.30906724562E+02 -0.98954783794E+01  0.40283848386E+02  0.51729436072E+02  0.00000000000E+00 0. -1.
        -12    1    6    6    0    0  0.33539341678E+01 -0.72860228915E+02  0.84735159441E+02  0.11180299226E+03  0.00000000000E+00 0.  1.
</event>
<event>
12    1  0.8494789E-002  0.4384638E+03  0.7818608E-02  0.1031274E+00
         21   -1    0    0  503  502  0.00000000000E+00  0.00000000000E+00  0.12881835097E+04  0.12881835097E+04  0.00000000000E+00 0.  1.
         21   -1    0    0  501  503 -0.00000000000E+00 -0.00000000000E+00 -0.14942570002E+03  0.14942570002E+03  0.00000000000E+00 0. -1.
          6    2    1    2  501    0  0.23280824151E+03 -0.32737047216E+03  0.53148504864E+03  0.68900422345E+03  0.17572523905E+03 0.  0.
         24    2    3    3    0    0  0.25167253936E+03 -0.27678040714E+03  0.44438635866E+03  0.58642016909E+03  0.80392276405E+02 0.  0.
         -6    2    1    2    0  502 -0.23280824151E+03  0.32737047216E+03  0.60727276103E+03  0.74860498627E+03  0.17394860108E+03 0.  0.
        -24    2    5    5    0    0 -0.24203872989E+03  0.30820445276E+03  0.51408223794E+03  0.65290178982E+03  0.91801243570E+02 0.  0.
          5    1    3    3  501    0 -0.18864297849E+02 -0.50590065015E+02  0.87098689987E+02  0.10258405436E+03  0.47000000000E+01 0. -1.
        -11    1    4    4    0    0  0.23306891731E+03 -0.27246155244E+03  0.39495892682E+03  0.53343131858E+03  0.00000000000E+00 0.  1.
         12    1    4    4    0    0  0.18603622052E+02 -0.43188547026E+01  0.49427431840E+02  0.52988850504E+02  0.00000000000E+00 0. -1.
         -5    1    5    5    0  502  0.92304883789E+01  0.19166019399E+02  0.93190523097E+02  0.95703196448E+02  0.47000000000E+01 0.  1.
         11    1    6    6    0    0 -0.49807211701E+02  0.10060202726E+03  0.93960743300E+02  0.14639039418E+03  0.00000000000E+00 0. -1.
        -12    1    6    6    0    0 -0.19223151819E+03  0.20760242550E+03  0.42012149464E+03  0.50651139564E+03  0.00000000000E+00 0.  1.
</event>
<event>
12    1  0.8494789E-002  0.2487298E+03  0.7818608E-02  0.1114248E+00
         21   -1    0    0  501  502  0.00000000000E+00  0.00000000000E+00  0.11557000697E+04  0.11557000697E+04  0.00000000000E+00 0.  1.
         21   -1    0    0  502  503 -0.00000000000E+00 -0.00000000000E+00 -0.55380547667E+02  0.55380547667E+02  0.00000000000E+00 0.  1.
         -6    2    1    2    0  503  0.14461574974E+03 -0.10489839017E+03  0.43316684850E+03  0.49906993622E+03  0.17181354796E+03 0.  0.
        -24    2    3    3    0    0  0.11196316885E+03 -0.13159422424E+03  0.40714134403E+03  0.44928765545E+03  0.79009697430E+02 0.  0.
          6    2    1    2  501    0 -0.14461574974E+03  0.10489839017E+03  0.66715267351E+03  0.71201068113E+03  0.17305817790E+03 0.  0.
         24    2    5    5    0    0 -0.12457649503E+02  0.41854104937E+02  0.15642766529E+03  0.18068924417E+03  0.79196144839E+02 0.  0.
          5    1    5    5  501    0 -0.13215810023E+03  0.63044285234E+02  0.51072500822E+03  0.53132143697E+03  0.47000000000E+01 0. -1.
        -11    1    6    6    0    0 -0.26978019879E+02 -0.15327897419E+02  0.45938378250E+02  0.55435481346E+02  0.00000000000E+00 0.  1.
         12    1    6    6    0    0  0.14520370375E+02  0.57182002357E+02  0.11048928704E+03  0.12525376282E+03  0.00000000000E+00 0. -1.
         -5    1    3    3    0  503  0.32652580891E+02  0.26695834069E+02  0.26025504470E+02  0.49782280768E+02  0.47000000000E+01 0.  1.
         11    1    4    4    0    0  0.63544199382E+01 -0.43045079061E+02  0.48929110998E+02  0.65477594543E+02  0.00000000000E+00 0. -1.
        -12    1    4    4    0    0  0.10560874891E+03 -0.88549145179E+02  0.35821223303E+03  0.38381006091E+03  0.00000000000E+00 0.  1.
</event>
<event>
12    1  0.8494789E-002  0.2083060E+03  0.7818608E-02  0.1143501E+00
         21   -1    0    0  501  502  0.00000000000E+00  0.00000000000E+00  0.33690508715E+03  0.33690508715E+03  0.00000000000E+00 0. -1.
         21   -1    0    0  502  503 -0.00000000000E+00 -0.00000000000E+00 -0.13639220391E+03  0.13639220391E+03  0.00000000000E+00 0. -1.
         -6    2    1    2    0  503  0.38107793283E+01 -0.11609611699E+03  0.16169679667E+03  0.26140561290E+03  0.16939365391E+03 0.  0.
        -24    2    3    3    0    0  0.47534190432E+02 -0.10578153286E+03  0.16427286535E+03  0.21616344834E+03  0.79321057444E+02 0.  0.
          6    2    1    2  501    0 -0.38107793283E+01  0.11609611699E+03  0.38816086575E+02  0.21189167816E+03  0.17291201311E+03 0.  0.
         24    2    5    5    0    0 -0.17803837800E+02  0.24596091251E+02  0.74215287779E+02  0.11267850443E+03  0.79161809455E+02 0.  0.
          5    1    5    5  501    0  0.13993058471E+02  0.91500025740E+02 -0.35399201203E+02  0.99213173730E+02  0.47000000000E+01 0. -1.
        -11    1    6    6    0    0 -0.28280836518E+02 -0.15328146218E+02  0.56679306235E+01  0.32663178324E+02  0.00000000000E+00 0.  1.
         12    1    6    6    0    0  0.10476998719E+02  0.39924237469E+02  0.68547357155E+02  0.80015326110E+02  0.00000000000E+00 0. -1.
         -5    1    3    3    0  503 -0.43723411104E+02 -0.10314584128E+02 -0.25760686826E+01  0.45242164561E+02  0.47000000000E+01 0.  1.
         13    1    4    4    0    0  0.39498903965E+02 -0.66781721149E+02  0.43402226853E+02  0.88902840168E+02  0.00000000000E+00 0. -1.
        -14    1    4    4    0    0  0.80352864670E+01 -0.38999811713E+02  0.12087063850E+03  0.12726060817E+03  0.00000000000E+00 0.  1.
</event>
<event>
12    1  0.8494789E-002  0.2595495E+03  0.7818608E-02  0.1107555E+00
         21   -1    0    0  501  502  0.00000000000E+00  0.00000000000E+00  0.80156877634E+02  0.80156877634E+02  0.00000000000E+00 0. -1.
         21   -1    0    0  502  503 -0.00000000000E+00 -0.00000000000E+00 -0.87368117812E+03  0.87368117812E+03  0.00000000000E+00 0.  1.
         -6    2    1    2    0  503 -0.11038205006E+03 -0.15883513185E+03 -0.30026051894E+03  0.39689081311E+03  0.17306976111E+03 0.  0.
        -24    2    3    3    0    0 -0.34174838779E+02 -0.56513509649E+02 -0.22710795388E+03  0.24974924455E+03  0.80218240210E+02 0.  0.
          6    2    1    2  501    0  0.11038205006E+03  0.15883513185E+03 -0.49326378155E+03  0.55694724264E+03  0.17166326576E+03 0.  0.
         24    2    5    5    0    0  0.11234561906E+03  0.47536101655E+02 -0.27986559341E+03  0.31621459752E+03  0.82375373917E+02 0.  0.
          5    1    5    5  501    0 -0.19635689949E+01  0.11129903020E+03 -0.21339818814E+03  0.24073264512E+03  0.47000000000E+01 0. -1.
        -13    1    6    6    0    0  0.12706187716E+02 -0.15449981678E+02 -0.11433988731E+02  0.23040946994E+02  0.00000000000E+00 0.  1.
         14    1    6    6    0    0  0.99639431343E+02  0.62986083333E+02 -0.26843160468E+03  0.29317365053E+03  0.00000000000E+00 0. -1.
         -5    1    3    3    0  503 -0.76207211284E+02 -0.10232162221E+03 -0.73152565057E+02  0.14714156856E+03  0.47000000000E+01 0.  1.
         13    1    4    4    0    0  0.25108556341E+02 -0.57808426233E+01 -0.61552843824E+02  0.66727882672E+02  0.00000000000E+00 0. -1.
        -14    1    4    4    0    0 -0.59283395120E+02 -0.50732667025E+02 -0.16555511005E+03  0.18302136188E+03  0.00000000000E+00 0.  1.
</event>
<event>
12    1  0.8494789E-002  0.2030513E+03  0.7818608E-02  0.1147545E+00
         21   -1    0    0  503  502  0.00000000000E+00  0.00000000000E+00  0.62990013785E+03  0.62990013785E+03  0.00000000000E+00 0.  1.
         21   -1    0    0  501  503 -0.00000000000E+00 -0.00000000000E+00 -0.91153275844E+02  0.91153275844E+02  0.00000000000E+00 0.  1.
          6    2    1    2  501    0  0.75993275678E+02 -0.73593219681E+02  0.76718654897E+02  0.21706122552E+03  0.17331729193E+03 0.  0.
         24    2    3    3    0    0  0.10471691585E+03 -0.51209679095E+02  0.11463913698E+02  0.14218571789E+03  0.80605789837E+02 0.  0.
         -6    2    1    2    0  502 -0.75993275678E+02  0.73593219681E+02  0.46202820711E+03  0.50399218818E+03  0.17131001620E+03 0.  0.
        -24    2    5    5    0    0 -0.11440305260E+03  0.44612030015E+02  0.29470128772E+03  0.32982098427E+03  0.82793363365E+02 0.  0.
          5    1    3    3  501    0 -0.28723640172E+02 -0.22383540586E+02  0.65254741199E+02  0.74875507630E+02  0.47000000000E+01 0. -1.
        -11    1    4    4    0    0  0.65106821199E+02 -0.35305115651E+02 -0.32526463140E+02  0.80890791578E+02  0.00000000000E+00 0.  1.
         12    1    4    4    0    0  0.39610094651E+02 -0.15904563444E+02  0.43990376839E+02  0.61294926307E+02  0.00000000000E+00 0. -1.
         -5    1    5    5    0  502  0.38409776921E+02  0.28981189666E+02  0.16732691940E+03  0.17417120391E+03  0.47000000000E+01 0.  1.
         11    1    6    6    0    0 -0.29359717963E+02 -0.21951174685E+02  0.47038906199E+02  0.59636446954E+02  0.00000000000E+00 0. -1.
        -12    1    6    6    0    0 -0.85043334636E+02  0.66563204700E+02  0.24766238152E+03  0.27018453732E+03  0.00000000000E+00 0.  1.
</event>
<event>
12    1  0.8494789E-002  0.2985996E+03  0.7818608E-02  0.1085943E+00
         21   -1    0    0  503  502  0.00000000000E+00  0.00000000000E+00  0.41460272726E+03  0.41460272726E+03  0.00000000000E+00 0.  1.
         21   -1    0    0  501  503 -0.00000000000E+00 -0.00000000000E+00 -0.25496404185E+03  0.25496404185E+03  0.00000000000E+00 0. -1.
          6    2    1    2  501    0 -0.19847012579E+03 -0.13899092107E+03 -0.52639585858E+02  0.30320400854E+03  0.17450752941E+03 0.  0.
         24    2    3    3    0    0 -0.17933765238E+03 -0.52283054831E+02 -0.72321730547E+01  0.20336299120E+03  0.80054297061E+02 0.  0.
         -6    2    1    2    0  502  0.19847012579E+03  0.13899092107E+03  0.21227827128E+03  0.36636276057E+03  0.17450140660E+03 0.  0.
        -24    2    5    5    0    0  0.80563534041E+02  0.91579357488E+02  0.39107186093E+02  0.15151366124E+03  0.80930561614E+02 0.  0.
          5    1    3    3  501    0 -0.19132473415E+02 -0.86707866236E+02 -0.45407412804E+02  0.99841017341E+02  0.47000000000E+01 0. -1.
        -13    1    4    4    0    0 -0.72962077286E+02 -0.33706081459E+02  0.34672999856E+02  0.87531603254E+02  0.00000000000E+00 0.  1.
         14    1    4    4    0    0 -0.10637557509E+03 -0.18576973372E+02 -0.41905172910E+02  0.11583138794E+03  0.00000000000E+00 0. -1.
         -5    1    5    5    0  502  0.11790659175E+03  0.47411563579E+02  0.17317108518E+03  0.21484909933E+03  0.47000000000E+01 0.  1.
         13    1    6    6    0    0 -0.27857425019E+00 -0.36961477203E+01 -0.14926256583E+02  0.15379604909E+02  0.00000000000E+00 0. -1.
        -14    1    6    6    0    0  0.80842108292E+02  0.95275505208E+02  0.54033442676E+02  0.13613405633E+03  0.00000000000E+00 0.  1.
</event>
<event>
12    1  0.8494789E-002  0.2538832E+03  0.7818608E-02  0.1111056E+00
         21   -1    0    0  501  502  0.00000000000E+00  0.00000000000E+00  0.18246407126E+03  0.18246407126E+03  0.00000000000E+00 0.  1.
         21   -1    0    0  502  503 -0.00000000000E+00 -0.00000000000E+00 -0.39521165666E+03  0.39521165666E+03  0.00000000000E+00 0.  1.
         -6    2    1    2    0  503  0.18553678194E+03 -0.17396487598E+02 -0.20249902259E+03  0.32474995485E+03  0.17242431324E+03 0.  0.
        -24    2    3    3    0    0  0.85624322239E+02  0.52296406793E+02 -0.76297363704E+02  0.14928329752E+03  0.79986101839E+02 0.  0.
          6    2    1    2  501    0 -0.18553678194E+03  0.17396487598E+02 -0.10248562820E+02  0.25292577307E+03  0.17070406676E+03 0.  0.
         24    2    5    5    0    0 -0.93182417179E+02  0.40939107314E+02  0.50965434321E+02  0.13955546355E+03  0.80742049352E+02 0.  0.
          5    1    5    5  501    0 -0.92354364758E+02 -0.23542619716E+02 -0.61213997141E+02  0.11337030951E+03  0.47000000000E+01 0. -1.
        -11    1    6    6    0    0 -0.56647110478E+02  0.54229767420E+02  0.39110503212E+01  0.78517890410E+02  0.00000000000E+00 0.  1.
         12    1    6    6    0    0 -0.36535306701E+02 -0.13290660106E+02  0.47054384000E+02  0.61037573144E+02  0.00000000000E+00 0. -1.
         -5    1    3    3    0  503  0.99912459698E+02 -0.69692894390E+02 -0.12620165888E+03  0.17546665734E+03  0.47000000000E+01 0.  1.
         11    1    4    4    0    0  0.25098892858E+02  0.23692611032E+02  0.13685849991E+02  0.37129459062E+02  0.00000000000E+00 0. -1.
        -12    1    4    4    0    0  0.60525429380E+02  0.28603795760E+02 -0.89983213695E+02  0.11215383846E+03  0.00000000000E+00 0.  1.
</event>
<event>
12    1  0.8494789E-002  0.2096587E+03  0.7818608E-02  0.1141920E+00
         21   -1    0    0  503  502  0.00000000000E+00  0.00000000000E+00  0.31430632966E+03  0.31430632966E+03  0.00000000000E+00 0.  1.
         21   -1    0    0  501  503 -0.00000000000E+00 -0.00000000000E+00 -0.10428606002E+04  0.10428606002E+04  0.00000000000E+00 0.  1.
          6    2    1    2  501    0 -0.11858951412E+03  0.33214671303E+01 -0.99586895490E+03  0.10176992401E+04  0.17286486912E+03 0.  0.
         24    2    3    3    0    0 -0.11511645207E+03  0.64796290401E+01 -0.44234900485E+03  0.46413943191E+03  0.80367823372E+02 0.  0.
         -6    2    1    2    0  502  0.11858951412E+03 -0.33214671303E+01  0.26731468431E+03  0.33946768980E+03  0.17235622115E+03 0.  0.
        -24    2    5    5    0    0  0.14883712035E+03  0.14854463598E+02  0.18858922173E+03  0.25306704977E+03  0.78127419269E+02 0.  0.
          5    1    3    3  501    0 -0.34730620510E+01 -0.31581619099E+01 -0.55351995004E+03  0.55355980819E+03  0.47000000000E+01 0. -1.
        -11    1    4    4    0    0 -0.14858628358E+02 -0.16386675507E+02 -0.19522275240E+03  0.19647194463E+03  0.00000000000E+00 0.  1.
         12    1    4    4    0    0 -0.10025782371E+03  0.22866304547E+02 -0.24712625245E+03  0.26766748728E+03  0.00000000000E+00 0. -1.
         -5    1    5    5    0  502 -0.30247606227E+02 -0.18175930728E+02  0.78725462581E+02  0.86400640037E+02  0.47000000000E+01 0.  1.
         13    1    6    6    0    0  0.59865148399E+01 -0.27503104760E+01 -0.73979734641E+01  0.99061889250E+01  0.00000000000E+00 0. -1.
        -14    1    6    6    0    0  0.14285060551E+03  0.17604774074E+02  0.19598719520E+03  0.24316086084E+03  0.00000000000E+00 0.  1.
</event>
<event>
12    1  0.8494789E-002  0.1860410E+03  0.7818608E-02  0.1162102E+00
         21   -1    0    0  503  502  0.00000000000E+00  0.00000000000E+00  0.28079093150E+02  0.28079093150E+02  0.00000000000E+00 0. -1.
         21   -1    0    0  501  503 -0.00000000000E+00 -0.00000000000E+00 -0.22134146986E+04  0.22134146986E+04  0.00000000000E+00 0. -1.
          6    2    1    2  501    0 -0.40438327067E+02  0.58422426905E+02 -0.18390786185E+04  0.18484646063E+04  0.17193835378E+03 0.  0.
         24    2    3    3    0    0 -0.56539796525E+02 -0.22199423328E+02 -0.10373723951E+04  0.10425402310E+04  0.84018356265E+02 0.  0.
         -6    2    1    2    0  502  0.40438327067E+02 -0.58422426905E+02 -0.34625698697E+03  0.39302918546E+03  0.17184179158E+03 0.  0.
        -24    2    5    5    0    0  0.83605753455E+02 -0.52860904464E+02 -0.31387757638E+03  0.33857853383E+03  0.79574451820E+02 0.  0.
          5    1    3    3  501    0  0.16101469459E+02  0.80621850232E+02 -0.80170622333E+03  0.80592437522E+03  0.47000000000E+01 0. -1.
        -11    1    4    4    0    0 -0.35687318084E+00 -0.41966608292E+02 -0.53654825715E+03  0.53818710113E+03  0.00000000000E+00 0.  1.
         12    1    4    4    0    0 -0.56182923344E+02  0.19767184964E+02 -0.50082413798E+03  0.50435312992E+03  0.00000000000E+00 0. -1.
         -5    1    5    5    0  502 -0.43167426388E+02 -0.55615224407E+01 -0.32379410587E+02  0.54450651629E+02  0.47000000000E+01 0.  1.
         13    1    6    6    0    0  0.42261208215E+02 -0.70334492331E+02 -0.20491745818E+03  0.22073539634E+03  0.00000000000E+00 0. -1.
        -14    1    6    6    0    0  0.41344545240E+02  0.17473587868E+02 -0.10896011820E+03  0.11784313749E+03  0.00000000000E+00 0.  1.
</event>
<event>
12    1  0.8494789E-002  0.2028194E+03  0.7818608E-02  0.1147783E+00
         21   -1    0    0  503  502  0.00000000000E+00  0.00000000000E+00  0.13462704360E+04  0.13462704360E+04  0.00000000000E+00 0.  1.
         21   -1    0    0  501  503 -0.00000000000E+00 -0.00000000000E+00 -0.13451839259E+03  0.13451839259E+03  0.00000000000E+00 0.  1.
          6    2    1    2  501    0 -0.64593514141E+02  0.86004444881E+02 -0.45273747269E+02  0.20781104407E+03  0.17194950200E+03 0.  0.
         24    2    3    3    0    0 -0.13636005358E+02  0.24917825262E+01 -0.73304815021E+02  0.10593433803E+03  0.75208632793E+02 0.  0.
         -6    2    1    2    0  502  0.64593514141E+02 -0.86004444881E+02  0.12570257907E+04  0.12729777846E+04  0.16967473244E+03 0.  0.
        -24    2    5    5    0    0 -0.81571166358E+01 -0.31528701058E+01  0.39626164992E+03  0.40516787806E+03  0.84031155380E+02 0.  0.
          5    1    3    3  501    0 -0.50957508783E+02  0.83512662355E+02  0.28031067752E+02  0.10187670604E+03  0.47000000000E+01 0. -1.
        -11    1    4    4    0    0  0.12385776726E+02  0.33548557442E+02 -0.38162992360E+02  0.52300355232E+02  0.00000000000E+00 0.  1.
         12    1    4    4    0    0 -0.26021782084E+02 -0.31056774915E+02 -0.35141822661E+02  0.53633982799E+02  0.00000000000E+00 0. -1.
         -5    1    5    5    0  502  0.72750630777E+02 -0.82851574775E+02  0.86076414080E+03  0.86780990649E+03  0.47000000000E+01 0.  1.
         11    1    6    6    0    0  0.52908848194E+01  0.28256684852E+02  0.53737747181E+02  0.60944065938E+02  0.00000000000E+00 0. -1.
        -12    1    6    6    0    0 -0.13448001455E+02 -0.31409554957E+02  0.34252390274E+03  0.34422381212E+03  0.00000000000E+00 0.  1.
</event>
<event>
12    1  0.8494789E-002  0.1963429E+03  0.7818608E-02  0.1153103E+00
         21   -1    0    0  501  502  0.00000000000E+00  0.00000000000E+00  0.57343500231E+02  0.57343500231E+02  0.00000000000E+00 0. -1.
         21   -1    0    0  502  503 -0.00000000000E+00 -0.00000000000E+00 -0.73466717671E+03  0.73466717671E+03  0.00000000000E+00 0. -1.
         -6    2    1    2    0  503 -0.64808421176E+02 -0.66337810906E+02 -0.45841928215E+03  0.49869709257E+03  0.17305986039E+03 0.  0.
        -24    2    3    3    0    0 -0.43522689712E+02 -0.56387058312E+02 -0.46185669044E+03  0.47448953968E+03  0.82188782047E+02 0.  0.
          6    2    1    2  501    0  0.64808421176E+02  0.66337810906E+02 -0.21890439433E+03  0.29331358437E+03  0.17179315560E+03 0.  0.
         24    2    5    5    0    0 -0.86018319112E+01  0.16701599652E+02 -0.17682100667E+03  0.19509993846E+03  0.80283140480E+02 0.  0.
          5    1    5    5  501    0  0.73410253088E+02  0.49636211254E+02 -0.42083387660E+02  0.98213645910E+02  0.47000000000E+01 0. -1.
        -11    1    6    6    0    0 -0.38204483640E+02  0.18382653676E+02 -0.14721862867E+03  0.15320192282E+03  0.00000000000E+00 0.  1.
         12    1    6    6    0    0  0.29602651729E+02 -0.16810540240E+01 -0.29602377998E+02  0.41898015647E+02  0.00000000000E+00 0. -1.
         -5    1    3    3    0  503 -0.21285731464E+02 -0.99507525942E+01  0.34374082915E+01  0.24207552890E+02  0.47000000000E+01 0.  1.
         13    1    4    4    0    0 -0.59907262633E+02 -0.52366412666E+02 -0.25934944558E+03  0.27128077008E+03  0.00000000000E+00 0. -1.
        -14    1    4    4    0    0  0.16384572921E+02 -0.40206456460E+01 -0.20250724486E+03  0.20320876960E+03  0.00000000000E+00 0.  1.
</event>
<event>
12    1  0.8494789E-002  0.2201296E+03  0.7818608E-02  0.1134071E+00
         21   -1    0    0  501  502  0.00000000000E+00  0.00000000000E+00  0.69476192427E+02  0.69476192427E+02  0.00000000000E+00 0. -1.
         21   -1    0    0  502  503 -0.00000000000E+00 -0.00000000000E+00 -0.10104637111E+04  0.10104637111E+04  0.00000000000E+00 0. -1.
         -6    2    1    2    0  503 -0.34569704242E+02 -0.13149661876E+03 -0.77220265888E+03  0.80254961237E+03  0.17117975565E+03 0.  0.
        -24    2    3    3    0    0 -0.86610562430E+02 -0.10135748115E+03 -0.49281916553E+03  0.51672826101E+03  0.79766141360E+02 0.  0.
          6    2    1    2  501    0  0.34569704242E+02  0.13149661876E+03 -0.16878485977E+03  0.27739029113E+03  0.17312024586E+03 0.  0.
         24    2    5    5    0    0  0.18098795170E+02 -0.58392844520E+00 -0.37309688840E+02  0.90242295235E+02  0.80148310081E+02 0.  0.
          5    1    5    5  501    0  0.16470909072E+02  0.13208054721E+03 -0.13147517093E+03  0.18714799590E+03  0.47000000000E+01 0. -1.
        -13    1    6    6    0    0  0.74722379017E+01 -0.15201444373E+02 -0.59361711302E+02  0.61731118725E+02  0.00000000000E+00 0.  1.
         14    1    6    6    0    0  0.10626557269E+02  0.14617515928E+02  0.22052022462E+02  0.28511176510E+02  0.00000000000E+00 0. -1.
         -5    1    3    3    0  503  0.52040858188E+02 -0.30139137616E+02 -0.27938349335E+03  0.28582135136E+03  0.47000000000E+01 0.  1.
         13    1    4    4    0    0 -0.62207526881E+02 -0.10676279423E+03 -0.33744707257E+03  0.35935859169E+03  0.00000000000E+00 0. -1.
        -14    1    4    4    0    0 -0.24403035548E+02  0.54053130829E+01 -0.15537209296E+03  0.15736966932E+03  0.00000000000E+00 0.  1.
</event>
<event>
12    1  0.8494789E-002  0.2082977E+03  0.7818608E-02  0.1143481E+00
         21   -1    0    0  501  502  0.00000000000E+00  0.00000000000E+00  0.14059039459E+04  0.14059039459E+04  0.00000000000E+00 0. -1.
         21   -1    0    0  502  503 -0.00000000000E+00 -0.00000000000E+00 -0.36667469553E+02  0.36667469553E+02  0.00000000000E+00 0. -1.
         -6    2    1    2    0  503 -0.18237406195E+01  0.11173797118E+03  0.38381310159E+03  0.43537373897E+03  0.17247926078E+03 0.  0.
        -24    2    3    3    0    0 -0.13217945158E+02  0.81347303580E+02  0.10485695376E+03  0.15449646508E+03  0.77987685546E+02 0.  0.
          6    2    1    2  501    0  0.18237406195E+01 -0.11173797118E+03  0.98542337475E+03  0.10071976765E+04  0.17578177312E+03 0.  0.
         24    2    5    5    0    0 -0.39209276775E+02 -0.30685694767E+01  0.52465662807E+03  0.53199158199E+03  0.78763458752E+02 0.  0.
          5    1    5    5  501    0  0.41033017395E+02 -0.10866940171E+03  0.46076674668E+03  0.47520609448E+03  0.47000000000E+01 0. -1.
        -13    1    6    6    0    0 -0.50368644711E+01 -0.56518863453E+01  0.44753020111E+03  0.44759423000E+03  0.00000000000E+00 0.  1.
         14    1    6    6    0    0 -0.34172412304E+02  0.25833168686E+01  0.77126426959E+02  0.84397351997E+02  0.00000000000E+00 0. -1.
         -5    1    3    3    0  503  0.11394204538E+02  0.30390667602E+02  0.27895614784E+03  0.28087727389E+03  0.47000000000E+01 0.  1.
         11    1    4    4    0    0 -0.42357472661E+02  0.27682888973E+02  0.61307897965E+02  0.79493120363E+02  0.00000000000E+00 0. -1.
        -12    1    4    4    0    0  0.29139527504E+02  0.53664414607E+02  0.43549055792E+02  0.75003344716E+02  0.00000000000E+00 0.  1.
</event>
<event>
12    1  0.8494789E-002  0.2107681E+03  0.7818608E-02  0.1140962E+00
         21   -1    0    0  501  502  0.00000000000E+00  0.00000000000E+00  0.45726065113E+02  0.45726065113E+02  0.00000000000E+00 0.  1.
         21   -1    0    0  502  503 -0.00000000000E+00 -0.00000000000E+00 -0.14745851166E+04  0.14745851166E+04  0.00000000000E+00 0.  1.
         -6    2    1    2    0  503 -0.52206743079E+02  0.10830458939E+03 -0.11584765107E+04  0.11774935330E+04  0.17311200527E+03 0.  0.
        -24    2    3    3    0    0  0.30866987949E+02  0.46822279990E+02 -0.72861183565E+03  0.73535436035E+03  0.82010556588E+02 0.  0.
          6    2    1    2  501    0  0.52206743079E+02 -0.10830458939E+03 -0.27038254076E+03  0.34281764866E+03  0.17309475376E+03 0.  0.
         24    2    5    5    0    0  0.26337473988E+02 -0.13225849557E+03 -0.14727190368E+03  0.21467192042E+03  0.78797510221E+02 0.  0.
          5    1    5    5  501    0  0.25869269091E+02  0.23953906180E+02 -0.12311063708E+03  0.12814572824E+03  0.47000000000E+01 0. -1.
        -11    1    6    6    0    0 -0.26979269862E+02 -0.28045237419E+02 -0.41701166265E+02  0.57038615096E+02  0.00000000000E+00 0.  1.
         12    1    6    6    0    0  0.53316743851E+02 -0.10421325815E+03 -0.10557073742E+03  0.15763330533E+03  0.00000000000E+00 0. -1.
         -5    1    3    3    0  503 -0.83073731028E+02  0.61482309398E+02 -0.42986467504E+03  0.44213917266E+03  0.47000000000E+01 0.  1.
         11    1    4    4    0    0  0.23210929553E+02 -0.44511917286E+01 -0.56469516354E+02  0.61215738465E+02  0.00000000000E+00 0. -1.
        -12    1    4    4    0    0  0.76560583956E+01  0.51273471719E+02 -0.67214231930E+03  0.67413862189E+03  0.00000000000E+00 0.  1.
</event>
<event>
12    1  0.8494789E-002  0.2787356E+03  0.7818608E-02  0.1096414E+00
         21   -1    0    0  501  502  0.00000000000E+00  0.00000000000E+00  0.15539673345E+03  0.15539673345E+03  0.00000000000E+00 0. -1.
         21   -1    0    0  502  503 -0.00000000000E+00 -0.00000000000E+00 -0.89664621404E+03  0.89664621404E+03  0.00000000000E+00 0.  1.
         -6    2    1    2    0  503  0.16838116596E+03 -0.14023257718E+03 -0.72059685886E+03  0.77254330969E+03  0.17188932366E+03 0.  0.
        -24    2    3    3    0    0  0.98586294047E+02 -0.19819700041E+02 -0.27572729753E+03  0.30638711084E+03  0.87951357014E+02 0.  0.
          6    2    1    2  501    0 -0.16838116596E+03  0.14023257718E+03 -0.20652621723E+02  0.27949963780E+03  0.17226759415E+03 0.  0.
         24    2    5    5    0    0 -0.18857572405E+03  0.14530702904E+03 -0.19517549392E+01  0.25112037324E+03  0.79891777532E+02 0.  0.
          5    1    5    5  501    0  0.20194558095E+02 -0.50744518674E+01 -0.18700866783E+02  0.28379264558E+02  0.47000000000E+01 0. -1.
        -11    1    6    6    0    0 -0.73641352312E+01  0.41448267277E+02  0.29282981697E+01  0.42199102812E+02  0.00000000000E+00 0.  1.
         12    1    6    6    0    0 -0.18121158882E+03  0.10385876177E+03 -0.48800531088E+01  0.20892127043E+03  0.00000000000E+00 0. -1.
         -5    1    3    3    0  503  0.69794871909E+02 -0.12041287713E+03 -0.44486956133E+03  0.46615619885E+03  0.47000000000E+01 0.  1.
         11    1    4    4    0    0 -0.30891596954E+01 -0.27106149983E+01  0.54938158490E+01  0.68609295198E+01  0.00000000000E+00 0. -1.
        -12    1    4    4    0    0  0.10167545374E+03 -0.17109085043E+02 -0.28122111338E+03  0.29952618132E+03  0.00000000000E+00 0.  1.
</event>
<event>
12    1  0.8494789E-002  0.3326848E+03  0.7818608E-02  0.1069958E+00
         21   -1    0    0  501  502  0.00000000000E+00  0.00000000000E+00  0.14633519763E+03  0.14633519763E+03  0.00000000000E+00 0. -1.
         21   -1    0    0  502  503 -0.00000000000E+00 -0.00000000000E+00 -0.92112465315E+03  0.92112465315E+03  0.00000000000E+00 0. -1.
         -6    2    1    2    0  503 -0.19898452578E+03 -0.20324185210E+03 -0.61317365741E+03  0.69759655765E+03  0.17250197437E+03 0.  0.
        -24    2    3    3    0    0 -0.11067116491E+03 -0.17026971324E+03 -0.52462340479E+03  0.56817612307E+03  0.79715167829E+02 0.  0.
          6    2    1    2  501    0  0.19898452578E+03  0.20324185210E+03 -0.16161579810E+03  0.36986329313E+03  0.17256041686E+03 0.  0.
         24    2    5    5    0    0  0.68560104505E+02  0.34169567129E+02 -0.17935432352E+02  0.11244902641E+03  0.80343366622E+02 0.  0.
          5    1    5    5  501    0  0.13042442127E+03  0.16907228497E+03 -0.14368036575E+03  0.25741426672E+03  0.47000000000E+01 0. -1.
        -13    1    6    6    0    0  0.10436919258E+02  0.89890138215E+01  0.30000899564E+02  0.33011901304E+02  0.00000000000E+00 0.  1.
         14    1    6    6    0    0  0.58123185247E+02  0.25180553308E+02 -0.47936331915E+02  0.79437125110E+02  0.00000000000E+00 0. -1.
         -5    1    3    3    0  503 -0.88313360865E+02 -0.32972138852E+02 -0.88550252617E+02  0.12942043458E+03  0.47000000000E+01 0.  1.
         11    1    4    4    0    0 -0.86342567942E+02 -0.15039064539E+03 -0.34837859728E+03  0.38915296775E+03  0.00000000000E+00 0. -1.
        -12    1    4    4    0    0 -0.24328596969E+02 -0.19879067853E+02 -0.17624480751E+03  0.17902315532E+03  0.00000000000E+00 0.  1.
</event>
<event>
12    1  0.8494789E-002  0.2668228E+03  0.7818608E-02  0.1104405E+00
         21   -1    0    0  501  502  0.00000000000E+00  0.00000000000E+00  0.13532186165E+04  0.13532186165E+04  0.00000000000E+00 0.  1.
         21   -1    0    0  502  503 -0.00000000000E+00 -0.00000000000E+00 -0.55480284285E+02  0.55480284285E+02  0.00000000000E+00 0.  1.
         -6    2    1    2    0  503  0.35543412879E+02  0.18888845928E+03  0.43660849338E+03  0.50717850896E+03  0.17222334107E+03 0.  0.
        -24    2    3    3    0    0 -0.25212365090E+02  0.42843134455E+02  0.23212908459E+03  0.24861629192E+03  0.73857641269E+02 0.  0.
          6    2    1    2  501    0 -0.35543412879E+02 -0.18888845928E+03  0.86112983878E+03  0.90152039178E+03  0.18507358887E+03 0.  0.
         24    2    5    5    0    0  0.37015365597E+02 -0.62777610445E+02  0.23737165774E+03  0.26100100804E+03  0.80405575892E+02 0.  0.
          5    1    5    5  501    0 -0.72558778475E+02 -0.12611084883E+03  0.62375818105E+03  0.64051938374E+03  0.47000000000E+01 0. -1.
        -13    1    6    6    0    0  0.72585473628E+01 -0.75355296971E+02  0.17749235620E+03  0.19296280419E+03  0.00000000000E+00 0.  1.
         14    1    6    6    0    0  0.29756818234E+02  0.12577686526E+02  0.59879301541E+02  0.68038203847E+02  0.00000000000E+00 0. -1.
         -5    1    3    3    0  503  0.60755777968E+02  0.14604532482E+03  0.20447940880E+03  0.25856221704E+03  0.47000000000E+01 0.  1.
         13    1    4    4    0    0  0.17052078218E+02 -0.38246905496E+01  0.16689034690E+02  0.24164550653E+02  0.00000000000E+00 0. -1.
        -14    1    4    4    0    0 -0.42264443307E+02  0.46667825005E+02  0.21544004990E+03  0.22445174127E+03  0.00000000000E+00 0.  1.
</event>
<event>
12    1  0.8494789E-002  0.2028810E+03  0.7818608E-02  0.1148547E+00
         21   -1    0    0  503  502  0.00000000000E+00  0.00000000000E+00  0.31827845503E+04  0.31827845503E+04  0.00000000000E+00 0. -1.
         21   -1    0    0  501  503 -0.00000000000E+00 -0.00000000000E+00 -0.49900516960E+02  0.49900516960E+02  0.00000000000E+00 0.  1.
          6    2    1    2  501    0  0.73574254759E+02 -0.83992891899E+02  0.16268856255E+03  0.25556870720E+03  0.16241865305E+03 0.  0.
         24    2    3    3    0    0  0.60448238143E+01 -0.41830929307E+02  0.21176648783E+02  0.93132360057E+02  0.80242255043E+02 0.  0.
         -6    2    1    2    0  502 -0.73574254759E+02  0.83992891899E+02  0.29701954707E+04  0.29771163600E+04  0.16938922582E+03 0.  0.
        -24    2    5    5    0    0  0.41904846408E+01  0.43971883715E+02  0.22111846792E+04  0.22130689090E+04  0.79907593909E+02 0.  0.
          5    1    3    3  501    0  0.67529430944E+02 -0.42161962592E+02  0.14151191377E+03  0.16243634714E+03  0.47000000000E+01 0. -1.
        -11    1    4    4    0    0 -0.20201565021E+02  0.16900768822E+02  0.51738514793E+01  0.26842279248E+02  0.00000000000E+00 0.  1.
         12    1    4    4    0    0  0.26246388836E+02 -0.58731698130E+02  0.16002797303E+02  0.66290080809E+02  0.00000000000E+00 0. -1.
         -5    1    5    5    0  502 -0.77764739400E+02  0.40021008185E+02  0.75901079151E+03  0.76404745102E+03  0.47000000000E+01 0.  1.
         13    1    6    6    0    0 -0.20680408305E+01  0.54329998778E+02  0.80580490201E+03  0.80763702594E+03  0.00000000000E+00 0. -1.
        -14    1    6    6    0    0  0.62585254713E+01 -0.10358115063E+02  0.14053797772E+04  0.14054318831E+04  0.00000000000E+00 0.  1.
</event>
<event>
12    1  0.8494789E-002  0.2261581E+03  0.7818608E-02  0.1129646E+00
         21   -1    0    0  501  502  0.00000000000E+00  0.00000000000E+00  0.50779219964E+03  0.50779219964E+03  0.00000000000E+00 0.  1.
         21   -1    0    0  502  503 -0.00000000000E+00 -0.00000000000E+00 -0.10711684043E+03  0.10711684043E+03  0.00000000000E+00 0. -1.
         -6    2    1    2    0  503  0.43097671394E+02  0.13857311358E+03  0.12076480206E+03  0.25505156068E+03  0.17148540493E+03 0.  0.
        -24    2    3    3    0    0  0.25281944826E+02  0.86319272202E+02  0.14736933429E+03  0.19358811474E+03  0.87569652232E+02 0.  0.
          6    2    1    2  501    0 -0.43097671394E+02 -0.13857311358E+03  0.27991055715E+03  0.35985747939E+03  0.17345768470E+03 0.  0.
         24    2    5    5    0    0 -0.75087363188E+01 -0.16381979083E+03  0.21960193640E+03  0.28527070611E+03  0.79126862091E+02 0.  0.
          5    1    5    5  501    0 -0.35588935075E+02  0.25246677250E+02  0.60308620751E+02  0.74586773283E+02  0.47000000000E+01 0. -1.
        -13    1    6    6    0    0 -0.68011655177E+01 -0.14496529315E+03  0.13371076222E+03  0.19733159910E+03  0.00000000000E+00 0.  1.
         14    1    6    6    0    0 -0.70757080113E+00 -0.18854497679E+02  0.85891174178E+02  0.87939107005E+02  0.00000000000E+00 0. -1.
         -5    1    3    3    0  503  0.17815726567E+02  0.52253841378E+02 -0.26604532229E+02  0.61463445941E+02  0.47000000000E+01 0.  1.
         11    1    4    4    0    0 -0.17561869715E+02  0.25090875907E+02  0.26841991666E+01  0.30743718819E+02  0.00000000000E+00 0. -1.
        -12    1    4    4    0    0  0.42843814542E+02  0.61228396296E+02  0.14468513512E+03  0.16284439592E+03  0.00000000000E+00 0.  1.
</event>
<event>
12    1  0.8494789E-002  0.1853016E+03  0.7818608E-02  0.1162920E+00
         21   -1    0    0  501  502  0.00000000000E+00  0.00000000000E+00  0.14160906784E+04  0.14160906784E+04  0.00000000000E+00 0. -1.
         21   -1    0    0  502  503 -0.00000000000E+00 -0.00000000000E+00 -0.21839927839E+03  0.21839927839E+03  0.00000000000E+00 0. -1.
         -6    2    1    2    0  503 -0.67982272936E+02 -0.65887308915E+01 -0.17175011709E+03  0.25265548668E+03  0.17225472829E+03 0.  0.
        -24    2    3    3    0    0 -0.62915793909E+02  0.15417565420E+02 -0.19564683141E+03  0.21944269935E+03  0.75374512999E+02 0.  0.
          6    2    1    2  501    0  0.67982272936E+02  0.65887308915E+01  0.13694415171E+04  0.13818344701E+04  0.17155591866E+03 0.  0.
         24    2    5    5    0    0  0.45336251582E+02  0.55087817970E+02  0.52986326821E+03  0.54053860674E+03  0.79604390429E+02 0.  0.
          5    1    5    5  501    0  0.22646021355E+02 -0.48499087079E+02  0.83957824886E+03  0.84129586335E+03  0.47000000000E+01 0. -1.
        -13    1    6    6    0    0  0.25718903123E+02  0.15313276818E+02  0.47524524753E+02  0.56165281783E+02  0.00000000000E+00 0.  1.
         14    1    6    6    0    0  0.19617348458E+02  0.39774541153E+02  0.48233874346E+03  0.48437332495E+03  0.00000000000E+00 0. -1.
         -5    1    3    3    0  503 -0.50664790276E+01 -0.22006296312E+02  0.23896714318E+02  0.33212787331E+02  0.47000000000E+01 0.  1.
         11    1    4    4    0    0 -0.18330734784E+02  0.40843690990E+02 -0.63642240994E+02  0.77811038871E+02  0.00000000000E+00 0. -1.
        -12    1    4    4    0    0 -0.44585059125E+02 -0.25426125570E+02 -0.13200459041E+03  0.14163166048E+03  0.00000000000E+00 0.  1.
</event>
<event>
12    1  0.8494789E-002  0.2124565E+03  0.7818608E-02  0.1139692E+00
         21   -1    0    0  503  502  0.00000000000E+00  0.00000000000E+00  0.21538716321E+02  0.21538716321E+02  0.00000000000E+00 0.  1.
         21   -1    0    0  501  503 -0.00000000000E+00 -0.00000000000E+00 -0.21689039681E+04  0.21689039681E+04  0.00000000000E+00 0. -1.
          6    2    1    2  501    0 -0.97389045056E+02 -0.77427200232E+02 -0.12795544247E+04  0.12970725914E+04  0.17221551684E+03 0.  0.
         24    2    3    3    0    0  0.69136872635E+01 -0.65190116346E+02 -0.49556273796E+03  0.50606446185E+03  0.78874976702E+02 0.  0.
         -6    2    1    2    0  502  0.97389045056E+02  0.77427200232E+02 -0.86781082714E+03  0.89337009305E+03  0.17185719078E+03 0.  0.
        -24    2    5    5    0    0  0.69578952033E+02  0.11087077602E+03 -0.51241767418E+03  0.53529432285E+03  0.82671516976E+02 0.  0.
          5    1    3    3  501    0 -0.10430273232E+03 -0.12237083886E+02 -0.78399168673E+03  0.79100812957E+03  0.47000000000E+01 0. -1.
        -11    1    4    4    0    0  0.39004617906E+01  0.15751882465E+02 -0.36986024450E+02  0.40389372464E+02  0.00000000000E+00 0.  1.
         12    1    4    4    0    0  0.30132254729E+01 -0.80941998811E+02 -0.45857671351E+03  0.46567508938E+03  0.00000000000E+00 0. -1.
         -5    1    5    5    0  502  0.27810093023E+02 -0.33443575790E+02 -0.35539315296E+03  0.35807577020E+03  0.47000000000E+01 0.  1.
         13    1    6    6    0    0  0.65599205685E+02  0.42687406340E+02 -0.35785718201E+03  0.36631575610E+03  0.00000000000E+00 0. -1.
        -14    1    6    6    0    0  0.39797463477E+01  0.68183369681E+02 -0.15456049216E+03  0.16897856675E+03  0.00000000000E+00 0.  1.
</event>
<event>
12    1  0.8494789E-002  0.1821839E+03  0.7818608E-02  0.1166690E+00
         21   -1    0    0  503  502  0.00000000000E+00  0.00000000000E+00  0.37337307138E+03  0.37337307138E+03  0.00000000000E+00 0.  1.
         21   -1    0    0  501  503 -0.00000000000E+00 -0.00000000000E+00 -0.87663042621E+02  0.87663042621E+02  0.00000000000E+00 0.  1.
          6    2    1    2  501    0  0.38156416069E+02  0.34564044829E+02  0.11996282213E+03  0.21473726425E+03  0.17050052400E+03 0.  0.
         24    2    3    3    0    0 -0.35204354414E+02 -0.16506642872E+02  0.52419679557E+02  0.10260259568E+03  0.79168516507E+02 0.  0.
         -6    2    1    2    0  502 -0.38156416069E+02 -0.34564044829E+02  0.16574720663E+03  0.24629884975E+03  0.17475812313E+03 0.  0.
        -24    2    5    5    0    0 -0.16574918848E+02  0.44990016491E+02  0.12375303321E+03  0.15366942518E+03  0.77463859239E+02 0.  0.
          5    1    3    3  501    0  0.73360770482E+02  0.51070687701E+02  0.67543142571E+02  0.11213466857E+03  0.47000000000E+01 0. -1.
        -13    1    4    4    0    0  0.24881995371E+02 -0.11195648164E+01  0.74731085451E+01  0.26004124103E+02  0.00000000000E+00 0.  1.
         14    1    4    4    0    0 -0.60086349785E+02 -0.15387078055E+02  0.44946571012E+02  0.76598471573E+02  0.00000000000E+00 0. -1.
         -5    1    5    5    0  502 -0.21581497220E+02 -0.79554061320E+02  0.41994173422E+02  0.92629424570E+02  0.47000000000E+01 0.  1.
         13    1    6    6    0    0  0.28238798999E+02  0.35377673110E+02  0.62056260411E+02  0.76811385743E+02  0.00000000000E+00 0. -1.
        -14    1    6    6    0    0 -0.44813717847E+02  0.96123433807E+01  0.61696772796E+02  0.76858039436E+02  0.00000000000E+00 0.  1.
</event>
<event>
12    1  0.8494789E-002  0.1758573E+03  0.7818608E-02  0.1172362E+00
         21   -1    0    0  503  502  0.00000000000E+00  0.00000000000E+00  0.10823657830E+03  0.10823657830E+03  0.00000000000E+00 0. -1.
         21   -1    0    0  501  503 -0.00000000000E+00 -0.00000000000E+00 -0.31416211561E+03  0.31416211561E+03  0.00000000000E+00 0. -1.
          6    2    1    2  501    0  0.88899882920E+01  0.31461918144E+02 -0.17045228670E+03  0.24490766021E+03  0.17279148071E+03 0.  0.
         24    2    3    3    0    0 -0.34172528717E+02 -0.36478619609E+02 -0.10537196323E+03  0.14133239510E+03  0.79831972678E+02 0.  0.
         -6    2    1    2    0  502 -0.88899882920E+01 -0.31461918144E+02 -0.35473250612E+02  0.17749103370E+03  0.17080934210E+03 0.  0.
        -24    2    5    5    0    0 -0.46449852497E+02 -0.64371446750E+02 -0.53467174259E+02  0.12420265072E+03  0.79159887373E+02 0.  0.
          5    1    3    3  501    0  0.43062517009E+02  0.67940537754E+02 -0.65080323472E+02  0.10357526512E+03  0.47000000000E+01 0. -1.
        -11    1    4    4    0    0 -0.46502228540E+01  0.18266057142E+01  0.12749840092E+02  0.13693775353E+02  0.00000000000E+00 0.  1.
         12    1    4    4    0    0 -0.29522305863E+02 -0.38305225324E+02 -0.11812180332E+03  0.12763861974E+03  0.00000000000E+00 0. -1.
         -5    1    5    5    0  502  0.37559864205E+02  0.32909528606E+02  0.17993923647E+02  0.53288382978E+02  0.47000000000E+01 0.  1.
         11    1    6    6    0    0 -0.33718915516E+02 -0.13737752146E+02  0.13899465454E+02  0.38972891059E+02  0.00000000000E+00 0. -1.
        -12    1    6    6    0    0 -0.12730936981E+02 -0.50633694604E+02 -0.67366639713E+02  0.85229759661E+02  0.00000000000E+00 0.  1.
</event>
<event>
12    1  0.8494789E-002  0.2454683E+03  0.7818608E-02  0.1116347E+00
         21   -1    0    0  503  502  0.00000000000E+00  0.00000000000E+00  0.12651417424E+03  0.12651417424E+03  0.00000000000E+00 0.  1.
         21   -1    0    0  501  503 -0.00000000000E+00 -0.00000000000E+00 -0.53309175544E+03  0.53309175544E+03  0.00000000000E+00 0. -1.
          6    2    1    2  501    0 -0.13839534386E+03 -0.10701671235E+03 -0.31292204216E+03  0.39771207633E+03  0.17218839469E+03 0.  0.
         24    2    3    3    0    0 -0.11986546289E+03 -0.96419638172E+02 -0.14100788952E+03  0.22441400841E+03  0.82546631926E+02 0.  0.
         -6    2    1    2    0  502  0.13839534386E+03  0.10701671235E+03 -0.93655539031E+02  0.26189385335E+03  0.17091279211E+03 0.  0.
        -24    2    5    5    0    0  0.83866143624E+00  0.25558221600E+02 -0.50757967875E+02  0.96305151424E+02  0.77745641959E+02 0.  0.
          5    1    3    3  501    0 -0.18529880967E+02 -0.10597074177E+02 -0.17191415264E+03  0.17329806793E+03  0.47000000000E+01 0. -1.
        -13    1    4    4    0    0 -0.10933765294E+03 -0.57378731716E+02 -0.13596242570E+03  0.18366497327E+03  0.00000000000E+00 0.  1.
         14    1    4    4    0    0 -0.10527809948E+02 -0.39040906456E+02 -0.50454638208E+01  0.40749035134E+02  0.00000000000E+00 0. -1.
         -5    1    5    5    0  502  0.13755668242E+03  0.81458490749E+02 -0.42897571156E+02  0.16558870192E+03  0.47000000000E+01 0.  1.
         11    1    6    6    0    0  0.18142063018E+02 -0.16352954449E+02 -0.44188096964E+02  0.50489023392E+02  0.00000000000E+00 0. -1.
        -12    1    6    6    0    0 -0.17303401582E+02  0.41911176049E+02 -0.65698709113E+01  0.45816128032E+02  0.00000000000E+00 0.  1.
</event>
<event>
12    1  0.8494789E-002  0.2161539E+03  0.7818608E-02  0.1137271E+00
         21   -1    0    0  503  502  0.00000000000E+00  0.00000000000E+00  0.60015269099E+02  0.60015269099E+02  0.00000000000E+00 0.  1.
         21   -1    0    0  501  503 -0.00000000000E+00 -0.00000000000E+00 -0.97815102662E+03  0.97815102662E+03  0.00000000000E+00 0. -1.
          6    2    1    2  501    0 -0.27043119042E+02 -0.12354015550E+03 -0.69673590368E+03  0.72874683318E+03  0.17215553165E+03 0.  0.
         24    2    3    3    0    0 -0.41455167385E+02 -0.12179416652E+03 -0.69697437271E+03  0.71348569029E+03  0.82074381707E+02 0.  0.
         -6    2    1    2    0  502  0.27043119042E+02  0.12354015550E+03 -0.22139985384E+03  0.30941946254E+03  0.17529691444E+03 0.  0.
        -24    2    5    5    0    0 -0.45487724771E+02  0.10597239379E+03 -0.15515486240E+03  0.20952032118E+03  0.80786461167E+02 0.  0.
          5    1    3    3  501    0  0.14412048343E+02 -0.17459889796E+01  0.23846902199E+00  0.15261142894E+02  0.47000000000E+01 0. -1.
        -13    1    4    4    0    0  0.55749777194E+01 -0.55026742223E+01 -0.31994754495E+01  0.84614681540E+01  0.00000000000E+00 0.  1.
         14    1    4    4    0    0 -0.47030145104E+02 -0.11629149229E+03 -0.69377489726E+03  0.70502422213E+03  0.00000000000E+00 0. -1.
         -5    1    5    5    0  502  0.72530843813E+02  0.17567761705E+02 -0.66244991437E+02  0.99899141367E+02  0.47000000000E+01 0.  1.
         13    1    6    6    0    0 -0.44504631714E+02  0.24232070722E+02 -0.96208100044E+02  0.10873754646E+03  0.00000000000E+00 0. -1.
        -14    1    6    6    0    0 -0.98309305638E+00  0.81740323069E+02 -0.58946762360E+02  0.10078277472E+03  0.00000000000E+00 0.  1.
</event>
<event>
12    1  0.8494789E-002  0.1834559E+03  0.7818608E-02  0.1164712E+00
         21   -1    0    0  501  502  0.00000000000E+00  0.00000000000E+00  0.70831771183E+03  0.70831771183E+03  0.00000000000E+00 0.  1.
         21   -1    0    0  502  503 -0.00000000000E+00 -0.00000000000E+00 -0.60167075600E+02  0.60167075600E+02  0.00000000000E+00 0.  1.
         -6    2    1    2    0  503 -0.38880831637E+01  0.61867421658E+02  0.50250813065E+03  0.53494903699E+03  0.17266544460E+03 0.  0.
        -24    2    3    3    0    0 -0.37742702744E+02  0.78996959336E+02  0.21584195023E+03  0.24574470555E+03  0.78343357300E+02 0.  0.
          6    2    1    2  501    0  0.38880831637E+01 -0.61867421658E+02  0.14564250558E+03  0.23353575044E+03  0.17171054786E+03 0.  0.
         24    2    5    5    0    0 -0.99247783833E+01  0.27436109742E+02  0.95277600471E+02  0.12997596321E+03  0.83454709371E+02 0.  0.
          5    1    5    5  501    0  0.13812861547E+02 -0.89303531400E+02  0.50364905110E+02  0.10355978723E+03  0.47000000000E+01 0. -1.
        -13    1    6    6    0    0 -0.24961703093E+02  0.28577229331E+02  0.47954971281E+01  0.38245803041E+02  0.00000000000E+00 0.  1.
         14    1    6    6    0    0  0.15036924710E+02 -0.11411195886E+01  0.90482103343E+02  0.91730160166E+02  0.00000000000E+00 0. -1.
         -5    1    3    3    0  503  0.33854619580E+02 -0.17129537678E+02  0.28666618042E+03  0.28920433144E+03  0.47000000000E+01 0.  1.
         13    1    4    4    0    0 -0.40436916450E+02  0.77507484602E+02  0.22214622395E+03  0.23872892409E+03  0.00000000000E+00 0. -1.
        -14    1    4    4    0    0  0.26942137069E+01  0.14894747336E+01 -0.63042737169E+01  0.70157814659E+01  0.00000000000E+00 0.  1.
</event>
<event>
12    1  0.8494789E-002  0.1780419E+03  0.7818608E-02  0.1170961E+00
         21   -1    0    0  503  502  0.00000000000E+00  0.00000000000E+00  0.18169216737E+03  0.18169216737E+03  0.00000000000E+00 0.  1.
         21   -1    0    0  501  503 -0.00000000000E+00 -0.00000000000E+00 -0.17443026238E+03  0.17443026238E+03  0.00000000000E+00 0.  1.
          6    2    1    2  501    0 -0.16654181775E+02 -0.93834298515E+01 -0.26089084579E+02  0.17498375604E+03  0.17196878792E+03 0.  0.
         24    2    3    3    0    0 -0.11670958263E+02  0.12737446364E+02  0.55202087164E+02  0.90458551015E+02  0.69548725493E+02 0.  0.
         -6    2    1    2    0  502  0.16654181775E+02  0.93834298515E+01  0.33350989568E+02  0.18113867372E+03  0.17701276814E+03 0.  0.
        -24    2    5    5    0    0  0.26461365476E+02 -0.56900545294E+02  0.46570953486E+02  0.11267990029E+03  0.81179001612E+02 0.  0.
          5    1    3    3  501    0 -0.49832235114E+01 -0.22120876216E+02 -0.81291171743E+02  0.84525205025E+02  0.47000000000E+01 0. -1.
        -13    1    4    4    0    0 -0.27135387172E+02 -0.17315285006E+02  0.44665797333E+02  0.55056169347E+02  0.00000000000E+00 0.  1.
         14    1    4    4    0    0  0.15464428909E+02  0.30052731371E+02  0.10536289831E+02  0.35402381667E+02  0.00000000000E+00 0. -1.
         -5    1    5    5    0  502 -0.98071837008E+01  0.66283975145E+02 -0.13219963918E+02  0.68458773427E+02  0.47000000000E+01 0.  1.
         13    1    6    6    0    0 -0.12048764287E+02 -0.46441617302E+02 -0.41322814415E+01  0.48156747070E+02  0.00000000000E+00 0. -1.
        -14    1    6    6    0    0  0.38510129762E+02 -0.10458927992E+02  0.50703234927E+02  0.64523153218E+02  0.00000000000E+00 0.  1.
</event>
<event>
12    1  0.8494789E-002  0.1793603E+03  0.7818608E-02  0.1168479E+00
         21   -1    0    0  503  502  0.00000000000E+00  0.00000000000E+00  0.55387948302E+02  0.55387948302E+02  0.00000000000E+00 0.  1.
         21   -1    0    0  501  503 -0.00000000000E+00 -0.00000000000E+00 -0.93570567972E+03  0.93570567972E+03  0.00000000000E+00 0.  1.
          6    2    1    2  501    0  0.12601913511E+01  0.50697975041E+02 -0.74548769057E+03  0.76670724915E+03  0.17180289972E+03 0.  0.
         24    2    3    3    0    0 -0.28967207362E+02  0.83162120183E+02 -0.36238882515E+03  0.38102026851E+03  0.78075265501E+02 0.  0.
         -6    2    1    2    0  502 -0.12601913511E+01 -0.50697975041E+02 -0.13483004085E+03  0.22438637887E+03  0.17204137396E+03 0.  0.
        -24    2    5    5    0    0 -0.39963438196E+02 -0.63984441351E+02 -0.33207635861E+02  0.11473386090E+03  0.79812446579E+02 0.  0.
          5    1    3    3  501    0  0.30227398713E+02 -0.32464145143E+02 -0.38309886542E+03  0.38568698064E+03  0.47000000000E+01 0. -1.
        -13    1    4    4    0    0 -0.36150828965E+02  0.27940607577E+01 -0.13300338659E+03  0.13785713639E+03  0.00000000000E+00 0.  1.
         14    1    4    4    0    0  0.71836216030E+01  0.80368059426E+02 -0.22938543856E+03  0.24316313212E+03  0.00000000000E+00 0. -1.
         -5    1    5    5    0  502  0.38703246845E+02  0.13286466311E+02 -0.10162240498E+03  0.10965251797E+03  0.47000000000E+01 0.  1.
         13    1    6    6    0    0 -0.11098011351E+02 -0.74765186776E+02 -0.36143120178E+02  0.83781406921E+02  0.00000000000E+00 0. -1.
        -14    1    6    6    0    0 -0.28865426845E+02  0.10780745424E+02  0.29354843167E+01  0.30952453974E+02  0.00000000000E+00 0.  1.
</event>
<event>
12    1  0.8494789E-002  0.3197027E+03  0.7818608E-02  0.1076012E+00
         21   -1    0    0  503  502  0.00000000000E+00  0.00000000000E+00  0.86478041282E+03  0.86478041282E+03  0.00000000000E+00 0.  1.
         21   -1    0    0  501  503 -0.00000000000E+00 -0.00000000000E+00 -0.12261091220E+03  0.12261091220E+03  0.00000000000E+00 0. -1.
          6    2    1    2  501    0  0.11504495512E+03  0.24215209704E+03  0.26889354326E+03  0.41625216784E+03  0.17055541570E+03 0.  0.
         24    2    3    3    0    0  0.86923881035E+01  0.13129311728E+03  0.80841792154E+02  0.17338155825E+03  0.78818329901E+02 0.  0.
         -6    2    1    2    0  502 -0.11504495512E+03 -0.24215209704E+03  0.47327595737E+03  0.57113915719E+03  0.17417469751E+03 0.  0.
        -24    2    5    5    0    0 -0.62294232567E+02 -0.16582814173E+03  0.19105613611E+03  0.27402284596E+03  0.84891277317E+02 0.  0.
          5    1    3    3  501    0  0.10635256702E+03  0.11085897976E+03  0.18805175110E+03  0.24287060958E+03  0.47000000000E+01 0. -1.
        -11    1    4    4    0    0 -0.29588580244E+02  0.22098679586E+02  0.27061470717E+02  0.45783828124E+02  0.00000000000E+00 0.  1.
         12    1    4    4    0    0  0.38280968347E+02  0.10919443769E+03  0.53780321436E+02  0.12759773013E+03  0.00000000000E+00 0. -1.
         -5    1    5    5    0  502 -0.52750722557E+02 -0.76323955308E+02  0.28221982126E+03  0.29711631123E+03  0.47000000000E+01 0.  1.
         13    1    6    6    0    0 -0.79458592489E+02 -0.15054444521E+03  0.18232159391E+03  0.24943628747E+03  0.00000000000E+00 0. -1.
        -14    1    6    6    0    0  0.17164359922E+02 -0.15283696521E+02  0.87345422001E+01  0.24586558489E+02  0.00000000000E+00 0.  1.
</event>
<event>
12    1  0.8494789E-002  0.2552309E+03  0.7818608E-02  0.1110090E+00
         21   -1    0    0  501  502  0.00000000000E+00  0.00000000000E+00  0.16966693526E+03  0.16966693526E+03  0.00000000000E+00 0.  1.
         21   -1    0    0  502  503 -0.00000000000E+00 -0.00000000000E+00 -0.44976406024E+03  0.44976406024E+03  0.00000000000E+00 0. -1.
         -6    2    1    2    0  503 -0.17093120665E+03 -0.78435175006E+02 -0.25901045206E+03  0.36363336248E+03  0.17254927975E+03 0.  0.
        -24    2    3    3    0    0 -0.94325105331E+02 -0.60852938852E+02 -0.24802119006E+03  0.28413189289E+03  0.81339511759E+02 0.  0.
          6    2    1    2  501    0  0.17093120665E+03  0.78435175006E+02 -0.21086672916E+02  0.25579763303E+03  0.17209946892E+03 0.  0.
         24    2    5    5    0    0  0.19428824539E+03  0.52966509722E+02 -0.32318608509E+02  0.21915816596E+03  0.80202467545E+02 0.  0.
          5    1    5    5  501    0 -0.23357038741E+02  0.25468665284E+02  0.11231935594E+02  0.36639467072E+02  0.47000000000E+01 0. -1.
        -11    1    6    6    0    0  0.12207567481E+03  0.30667427263E+02  0.19711409770E+02  0.12740290872E+03  0.00000000000E+00 0.  1.
         12    1    6    6    0    0  0.72212570582E+02  0.22299082460E+02 -0.52030018279E+02  0.91755257237E+02  0.00000000000E+00 0. -1.
         -5    1    3    3    0  503 -0.76606101321E+02 -0.17582236154E+02 -0.10989262002E+02  0.79501469591E+02  0.47000000000E+01 0.  1.
         13    1    4    4    0    0 -0.34530529758E+02  0.99938772587E+01 -0.12514646983E+03  0.13020704274E+03  0.00000000000E+00 0. -1.
        -14    1    4    4    0    0 -0.59794575573E+02 -0.70846816111E+02 -0.12287472023E+03  0.15392485015E+03  0.00000000000E+00 0.  1.
</event>
<event>
12    1  0.8494789E-002  0.1906873E+03  0.7818608E-02  0.1158030E+00
         21   -1    0    0  501  502  0.00000000000E+00  0.00000000000E+00  0.69868252408E+03  0.69868252408E+03  0.00000000000E+00 0.  1.
         21   -1    0    0  502  503 -0.00000000000E+00 -0.00000000000E+00 -0.54707266888E+02  0.54707266888E+02  0.00000000000E+00 0. -1.
         -6    2    1    2    0  503  0.66049012244E+02 -0.46401749048E+02  0.23473005249E+03  0.30189969940E+03  0.17184189425E+03 0.  0.
        -24    2    3    3    0    0  0.10719707629E+03 -0.79551983089E+01  0.16451752912E+03  0.21177096438E+03  0.78907703173E+02 0.  0.
          6    2    1    2  501    0 -0.66049012244E+02  0.46401749048E+02  0.40924520469E+03  0.45149009157E+03  0.17276015422E+03 0.  0.
         24    2    5    5    0    0  0.28796139665E+02  0.14891836837E+02  0.13661904279E+03  0.16108418329E+03  0.78945340517E+02 0.  0.
          5    1    5    5  501    0 -0.94845151909E+02  0.31509912211E+02  0.27262616190E+03  0.29040590828E+03  0.47000000000E+01 0. -1.
        -11    1    6    6    0    0 -0.23739867564E+00  0.44745733644E+01  0.12930558380E+03  0.12938319893E+03  0.00000000000E+00 0.  1.
         12    1    6    6    0    0  0.29033538340E+02  0.10417263472E+02  0.73134589934E+01  0.31700984358E+02  0.00000000000E+00 0. -1.
         -5    1    3    3    0  503 -0.41148064042E+02 -0.38446550739E+02  0.70212523371E+02  0.90128735020E+02  0.47000000000E+01 0.  1.
         13    1    4    4    0    0  0.14371012342E+02  0.12802291414E+02 -0.26584824855E+01  0.19429158250E+02  0.00000000000E+00 0. -1.
        -14    1    4    4    0    0  0.92826063944E+02 -0.20757489723E+02  0.16717601161E+03  0.19234180613E+03  0.00000000000E+00 0.  1.
</event>
<event>
12    1  0.8494789E-002  0.3129363E+03  0.7818608E-02  0.1079035E+00
         21   -1    0    0  503  502  0.00000000000E+00  0.00000000000E+00  0.34625147735E+03  0.34625147735E+03  0.00000000000E+00 0.  1.
         21   -1    0    0  501  503 -0.00000000000E+00 -0.00000000000E+00 -0.42529520682E+03  0.42529520682E+03  0.00000000000E+00 0.  1.
          6    2    1    2  501    0  0.80552045155E+02  0.24780880611E+03 -0.26329186379E+03  0.40839864909E+03  0.17195643249E+03 0.  0.
         24    2    3    3    0    0  0.10025235819E+03  0.11418817165E+03 -0.18588539770E+03  0.25265389868E+03  0.78683782157E+02 0.  0.
         -6    2    1    2    0  502 -0.80552045155E+02 -0.24780880611E+03  0.18424813432E+03  0.36314803508E+03  0.17329536640E+03 0.  0.
        -24    2    5    5    0    0 -0.10042751879E+03 -0.98970282280E+02  0.94911364805E+02  0.18835933689E+03  0.81180473749E+02 0.  0.
          5    1    3    3  501    0 -0.19700313030E+02  0.13362063446E+03 -0.77406466092E+02  0.15574475041E+03  0.47000000000E+01 0. -1.
        -13    1    4    4    0    0  0.50389897024E+02  0.57819775631E+02 -0.35551499297E+02  0.84535065377E+02  0.00000000000E+00 0.  1.
         14    1    4    4    0    0  0.49862461161E+02  0.56368396023E+02 -0.15033389840E+03  0.16811883331E+03  0.00000000000E+00 0. -1.
         -5    1    5    5    0  502  0.19875473636E+02 -0.14883852383E+03  0.89336769512E+02  0.17478869819E+03  0.47000000000E+01 0.  1.
         11    1    6    6    0    0  0.13133069571E+01 -0.27364860139E+02 -0.61431154028E+01  0.28076648882E+02  0.00000000000E+00 0. -1.
        -12    1    6    6    0    0 -0.10174082575E+03 -0.71605422141E+02  0.10105448021E+03  0.16028268800E+03  0.00000000000E+00 0.  1.
</event>
<event>
12    1  0.8494789E-002  0.2713278E+03  0.7818608E-02  0.1100590E+00
         21   -1    0    0  503  502  0.00000000000E+00  0.00000000000E+00  0.41731362259E+03  0.41731362259E+03  0.00000000000E+00 0. -1.
         21   -1    0    0  501  503 -0.00000000000E+00 -0.00000000000E+00 -0.17978542075E+03  0.17978542075E+03  0.00000000000E+00 0. -1.
          6    2    1    2  501    0  0.88030757887E+02 -0.19025177291E+03  0.75915672679E+02  0.28128681513E+03  0.17150490249E+03 0.  0.
         24    2    3    3    0    0 -0.39188774127E+01 -0.85307558314E+02 -0.10369872635E+02  0.11716701456E+03  0.79547708558E+02 0.  0.
         -6    2    1    2    0  502 -0.88030757887E+02  0.19025177291E+03  0.16161252917E+03  0.31581222821E+03  0.17226027539E+03 0.  0.
        -24    2    5    5    0    0 -0.15386372217E+00  0.15757257015E+03  0.11626836512E+03  0.21156031200E+03  0.80064313822E+02 0.  0.
          5    1    3    3  501    0  0.91949635300E+02 -0.10494421459E+03  0.86285545314E+02  0.16411980057E+03  0.47000000000E+01 0. -1.
        -13    1    4    4    0    0  0.27847107080E+02 -0.62371907420E+02 -0.28477269998E+02  0.74004534418E+02  0.00000000000E+00 0.  1.
         14    1    4    4    0    0 -0.31765984493E+02 -0.22935650894E+02  0.18107397363E+02  0.43162480142E+02  0.00000000000E+00 0. -1.
         -5    1    5    5    0  502 -0.87876894165E+02  0.32679202756E+02  0.45344164051E+02  0.10425191621E+03  0.47000000000E+01 0.  1.
         11    1    6    6    0    0 -0.21568096575E+02  0.11673147670E+03  0.45574140923E+02  0.12715511300E+03  0.00000000000E+00 0. -1.
        -12    1    6    6    0    0  0.21414232853E+02  0.40841093455E+02  0.70694224194E+02  0.84405198997E+02  0.00000000000E+00 0.  1.
</event>
<event>
12    1  0.8494789E-002  0.1964404E+03  0.7818608E-02  0.1152945E+00
         21   -1    0    0  501  502  0.00000000000E+00  0.00000000000E+00  0.23078450225E+03  0.23078450225E+03  0.00000000000E+00 0. -1.
         21   -1    0    0  502  503 -0.00000000000E+00 -0.00000000000E+00 -0.28023733124E+03  0.28023733124E+03  0.00000000000E+00 0. -1.
         -6    2    1    2    0  503 -0.47638927597E+02  0.80380008465E+02 -0.18744219241E+03  0.27095959591E+03  0.17191309996E+03 0.  0.
        -24    2    3    3    0    0 -0.43368139732E+02  0.10734632131E+03 -0.19688999860E+03  0.24168891605E+03  0.79017924247E+02 0.  0.
          6    2    1    2  501    0  0.47638927597E+02 -0.80380008465E+02  0.13798936343E+03  0.24006223758E+03  0.17279583417E+03 0.  0.
         24    2    5    5    0    0  0.66177938376E+02 -0.10128099059E+03  0.15016662888E+03  0.20922521813E+03  0.81165367552E+02 0.  0.
          5    1    5    5  501    0 -0.18539010779E+02  0.20900982122E+02 -0.12177265454E+02  0.30837019445E+02  0.47000000000E+01 0. -1.
        -13    1    6    6    0    0  0.75999205052E+01 -0.35125449147E+01 -0.97488396818E+01  0.12850550128E+02  0.00000000000E+00 0.  1.
         14    1    6    6    0    0  0.58578017870E+02 -0.97768445672E+02  0.15991546856E+03  0.19637466800E+03  0.00000000000E+00 0. -1.
         -5    1    3    3    0  503 -0.42707878650E+01 -0.26966312850E+02  0.94478061868E+01  0.29270679860E+02  0.47000000000E+01 0.  1.
         11    1    4    4    0    0 -0.15953215476E+02  0.59555867176E+02 -0.16908392084E+03  0.17997438341E+03  0.00000000000E+00 0. -1.
        -12    1    4    4    0    0 -0.27414924256E+02  0.47790454139E+02 -0.27806077759E+02  0.61714532641E+02  0.00000000000E+00 0.  1.
</event>
<event>
12    1  0.8494789E-002  0.1957902E+03  0.7818608E-02  0.1153438E+00
         21   -1    0    0  503  502  0.00000000000E+00  0.00000000000E+00  0.61087376069E+03  0.61087376069E+03  0.00000000000E+00 0.  1.
         21   -1    0    0  501  503 -0.00000000000E+00 -0.00000000000E+00 -0.11181847811E+03  0.11181847811E+03  0.00000000000E+00 0.  1.
          6    2    1    2  501    0  0.68880586001E+02 -0.62463762502E+02  0.96533099094E+01  0.19557926092E+03  0.17179000017E+03 0.  0.
         24    2    3    3    0    0  0.10099000620E+03 -0.85762947647E+02  0.39469802772E+01  0.15522434683E+03  0.80775953441E+02 0.  0.
         -6    2    1    2    0  502 -0.68880586001E+02  0.62463762502E+02  0.48940197267E+03  0.52711297787E+03  0.17230073660E+03 0.  0.
        -24    2    5    5    0    0 -0.88884926479E+02  0.60451896761E+02  0.23660557429E+03  0.27347479014E+03  0.85154571692E+02 0.  0.
          5    1    3    3  501    0 -0.32109420196E+02  0.23299185145E+02  0.57063296322E+01  0.40354914095E+02  0.47000000000E+01 0. -1.
        -11    1    4    4    0    0  0.10517328411E+03 -0.46735726337E+02 -0.40764333684E+01  0.11516190826E+03  0.00000000000E+00 0.  1.
         12    1    4    4    0    0 -0.41832779094E+01 -0.39027221310E+02  0.80234136456E+01  0.40062438565E+02  0.00000000000E+00 0. -1.
         -5    1    5    5    0  502  0.20004340478E+02  0.20118657415E+01  0.25279639838E+03  0.25363818773E+03  0.47000000000E+01 0.  1.
         11    1    6    6    0    0 -0.16167283563E+02 -0.27158329692E+01  0.12491633432E+03  0.12598748900E+03  0.00000000000E+00 0. -1.
        -12    1    6    6    0    0 -0.72717642916E+02  0.63167729730E+02  0.11168923997E+03  0.14748730113E+03  0.00000000000E+00 0.  1.
</event>
<event>
12    1  0.8494789E-002  0.2111413E+03  0.7818608E-02  0.1140747E+00
         21   -1    0    0  501  502  0.00000000000E+00  0.00000000000E+00  0.21592025290E+04  0.21592025290E+04  0.00000000000E+00 0. -1.
         21   -1    0    0  502  503 -0.00000000000E+00 -0.00000000000E+00 -0.20887099886E+02  0.20887099886E+02  0.00000000000E+00 0. -1.
         -6    2    1    2    0  503  0.35556853903E+02 -0.11602630609E+03  0.94177454922E+03  0.96506258107E+03  0.17227910567E+03 0.  0.
        -24    2    3    3    0    0  0.80316926947E+01 -0.85385235577E+02  0.29797101164E+03  0.31992570047E+03  0.78807255390E+02 0.  0.
          6    2    1    2  501    0 -0.35556853903E+02  0.11602630609E+03  0.11965408798E+04  0.12150270478E+04  0.17278384216E+03 0.  0.
         24    2    5    5    0    0  0.66448738624E+01  0.10406466993E+03  0.11119056957E+04  0.11195845470E+04  0.79130725913E+02 0.  0.
          5    1    5    5  501    0 -0.42201727766E+02  0.11961636161E+02  0.84635184143E+02  0.95442500810E+02  0.47000000000E+01 0. -1.
        -11    1    6    6    0    0 -0.26879515257E+02  0.18315716772E+02  0.46811715792E+03  0.46924582828E+03  0.00000000000E+00 0.  1.
         12    1    6    6    0    0  0.33524389120E+02  0.85748953154E+02  0.64378853778E+03  0.65033871868E+03  0.00000000000E+00 0. -1.
         -5    1    3    3    0  503  0.27525161209E+02 -0.30641070511E+02  0.64380353759E+03  0.64513688060E+03  0.47000000000E+01 0.  1.
         13    1    4    4    0    0  0.30403041492E+02 -0.80084514220E+02  0.27234021902E+03  0.28549442945E+03  0.00000000000E+00 0. -1.
        -14    1    4    4    0    0 -0.22371348797E+02 -0.53007213567E+01  0.25630792617E+02  0.34431271021E+02  0.00000000000E+00 0.  1.
</event>
<event>
12    1  0.8494789E-002  0.2172604E+03  0.7818608E-02  0.1135975E+00
         21   -1    0    0  503  502  0.00000000000E+00  0.00000000000E+00  0.52793353325E+03  0.52793353325E+03  0.00000000000E+00 0. -1.
         21   -1    0    0  501  503 -0.00000000000E+00 -0.00000000000E+00 -0.13821528481E+03  0.13821528481E+03  0.00000000000E+00 0.  1.
          6    2    1    2  501    0  0.50951808906E+02 -0.12191628735E+03 -0.31602546517E+01  0.21728337531E+03  0.17245987946E+03 0.  0.
         24    2    3    3    0    0  0.34875845485E+02 -0.87075645216E+02  0.64481082009E+02  0.13937479190E+03  0.80430280935E+02 0.  0.
         -6    2    1    2    0  502 -0.50951808906E+02  0.12191628735E+03  0.39287850309E+03  0.44886544275E+03  0.17224110877E+03 0.  0.
        -24    2    5    5    0    0  0.18421056635E+02  0.81386056589E+01  0.12711752194E+03  0.15152902650E+03  0.79978805059E+02 0.  0.
          5    1    3    3  501    0  0.16075963421E+02 -0.34840642137E+02 -0.67641336660E+02  0.77908583414E+02  0.47000000000E+01 0. -1.
        -13    1    4    4    0    0  0.33181492712E+02 -0.67410409279E+02  0.34303773608E+01  0.75212646719E+02  0.00000000000E+00 0.  1.
         14    1    4    4    0    0  0.16943527727E+01 -0.19665235937E+02  0.61050704648E+02  0.64162145178E+02  0.00000000000E+00 0. -1.
         -5    1    5    5    0  502 -0.69372865541E+02  0.11377768169E+03  0.26576098115E+03  0.29733641625E+03  0.47000000000E+01 0.  1.
         11    1    6    6    0    0 -0.11156913785E+02 -0.24825904112E+02  0.15216982605E+02  0.31182668259E+02  0.00000000000E+00 0. -1.
        -12    1    6    6    0    0  0.29577970420E+02  0.32964509771E+02  0.11190053934E+03  0.12034635825E+03  0.00000000000E+00 0.  1.
</event>
<event>
12    1  0.8494789E-002  0.1863902E+03  0.7818608E-02  0.1162593E+00
         21   -1    0    0  501  502  0.00000000000E+00  0.00000000000E+00  0.87243278982E+03  0.87243278982E+03  0.00000000000E+00 0. -1.
         21   -1    0    0  502  503 -0.00000000000E+00 -0.00000000000E+00 -0.44994619760E+02  0.44994619760E+02  0.00000000000E+00 0. -1.
         -6    2    1    2    0  503 -0.44720818357E+02 -0.45285368644E+02  0.57681227440E+03  0.60509001420E+03  0.17137913868E+03 0.  0.
        -24    2    3    3    0    0  0.30020776957E+02 -0.47779290618E+01  0.39724062843E+03  0.40635595882E+03  0.80006079358E+02 0.  0.
          6    2    1    2  501    0  0.44720818357E+02  0.45285368644E+02  0.25062589566E+03  0.31233739539E+03  0.17518730768E+03 0.  0.
         24    2    5    5    0    0  0.59605938719E+02  0.89392317247E+02  0.21636585636E+03  0.25434748233E+03  0.79590223372E+02 0.  0.
          5    1    5    5  501    0 -0.14885120362E+02 -0.44106948604E+02  0.34260039305E+02  0.57989913058E+02  0.47000000000E+01 0. -1.
        -13    1    6    6    0    0 -0.16898272875E+02  0.22834115330E+02  0.76386511314E+02  0.81497531004E+02  0.00000000000E+00 0.  1.
         14    1    6    6    0    0  0.76504211594E+02  0.66558201917E+02  0.13997934504E+03  0.17284995133E+03  0.00000000000E+00 0. -1.
         -5    1    3    3    0  503 -0.74741595314E+02 -0.40507439582E+02  0.17957164597E+03  0.19873405538E+03  0.47000000000E+01 0.  1.
         13    1    4    4    0    0 -0.17554499071E+02  0.16257751351E+02  0.52275728165E+02  0.57491100806E+02  0.00000000000E+00 0. -1.
        -14    1    4    4    0    0  0.47575276028E+02 -0.21035680413E+02  0.34496490027E+03  0.34886485801E+03  0.00000000000E+00 0.  1.
</event>
<event>
12    1  0.8494789E-002  0.2165985E+03  0.7818608E-02  0.1136587E+00
         21   -1    0    0  503  502  0.00000000000E+00  0.00000000000E+00  0.85241912999E+03  0.85241912999E+03  0.00000000000E+00 0. -1.
         21   -1    0    0  501  503 -0.00000000000E+00 -0.00000000000E+00 -0.20363692915E+03  0.20363692915E+03  0.00000000000E+00 0.  1.
          6    2    1    2  501    0  0.12812699916E+03 -0.26736391357E+02 -0.12680893226E+03  0.25098887692E+03  0.17257910795E+03 0.  0.
         24    2    3    3    0    0  0.14273703067E+03 -0.49531565971E+02 -0.62179936521E+02  0.18076017840E+03  0.77334737582E+02 0.  0.
         -6    2    1    2    0  502 -0.12812699916E+03  0.26736391357E+02  0.77559113310E+03  0.80506718222E+03  0.17163973781E+03 0.  0.
        -24    2    5    5    0    0 -0.14056218514E+03  0.55959855796E+02  0.51424415838E+03  0.54175562546E+03  0.78503948534E+02 0.  0.
          5    1    3    3  501    0 -0.14610031508E+02  0.22795174614E+02 -0.64628995738E+02  0.70228698524E+02  0.47000000000E+01 0. -1.
        -13    1    4    4    0    0  0.90942536881E+02 -0.21685013565E+02 -0.75844775384E+02  0.12038776840E+03  0.00000000000E+00 0.  1.
         14    1    4    4    0    0  0.51794493785E+02 -0.27846552406E+02  0.13664838863E+02  0.60372409994E+02  0.00000000000E+00 0. -1.
         -5    1    5    5    0  502  0.12435185986E+02 -0.29223464439E+02  0.26134697472E+03  0.26331155676E+03  0.47000000000E+01 0.  1.
         13    1    6    6    0    0 -0.38278482624E+02 -0.65868588286E+01  0.56444453027E+02  0.68517189221E+02  0.00000000000E+00 0. -1.
        -14    1    6    6    0    0 -0.10228370252E+03  0.62546714625E+02  0.45779970535E+03  0.47323843624E+03  0.00000000000E+00 0.  1.
</event>
<event>
12    1  0.8494789E-002  0.2329994E+03  0.7818608E-02  0.1124548E+00
         21   -1    0    0  503  502  0.00000000000E+00  0.00000000000E+00  0.11214061722E+04  0.11214061722E+04  0.00000000000E+00 0. -1.
         21   -1    0    0  501  503 -0.00000000000E+00 -0.00000000000E+00 -0.73390726429E+02  0.73390726429E+02  0.00000000000E+00 0.  1.
          6    2    1    2  501    0 -0.14823967339E+03  0.50791187394E+02  0.17546300505E+03  0.29167094294E+03  0.17242368553E+03 0.  0.
         24    2    3    3    0    0 -0.11001958120E+03  0.93560036307E+02  0.88373776608E+02  0.18728428864E+03  0.80048058937E+02 0.  0.
         -6    2    1    2    0  502  0.14823967339E+03 -0.50791187394E+02  0.87255244075E+03  0.90312595572E+03  0.17243545039E+03 0.  0.
        -24    2    5    5    0    0  0.65563301156E+02 -0.81531072667E+02  0.66038150548E+03  0.67330228669E+03  0.79286658483E+02 0.  0.
          5    1    3    3  501    0 -0.38220092188E+02 -0.42768848912E+02  0.87089228442E+02  0.10438665429E+03  0.47000000000E+01 0. -1.
        -11    1    4    4    0    0 -0.11742094768E+03  0.80166879753E+02  0.94589765473E+02  0.17076777007E+03  0.00000000000E+00 0.  1.
         12    1    4    4    0    0  0.74013664770E+01  0.13393156553E+02 -0.62159888648E+01  0.16516518572E+02  0.00000000000E+00 0. -1.
         -5    1    5    5    0  502  0.82676372235E+02  0.30739885273E+02  0.21217093527E+03  0.22982366903E+03  0.47000000000E+01 0.  1.
         13    1    6    6    0    0 -0.20398043562E+01 -0.14279680697E+02  0.30527248746E+03  0.30561309148E+03  0.00000000000E+00 0. -1.
        -14    1    6    6    0    0  0.67603105512E+02 -0.67251391970E+02  0.35510901802E+03  0.36768919521E+03  0.00000000000E+00 0.  1.
</event>
<event>
12    1  0.8494789E-002  0.1938828E+03  0.7818608E-02  0.1155431E+00
         21   -1    0    0  501  502  0.00000000000E+00  0.00000000000E+00  0.90167156202E+02  0.90167156202E+02  0.00000000000E+00 0.  1.
         21   -1    0    0  502  503 -0.00000000000E+00 -0.00000000000E+00 -0.11096244944E+04  0.11096244944E+04  0.00000000000E+00 0. -1.
         -6    2    1    2    0  503 -0.43958790791E+02  0.80378431511E+02 -0.98418107636E+03  0.10027258184E+04  0.16868197399E+03 0.  0.
        -24    2    3    3    0    0 -0.79908819140E+02  0.49041438593E+02 -0.86696993073E+03  0.87609661831E+03  0.84367895272E+02 0.  0.
          6    2    1    2  501    0  0.43958790791E+02 -0.80378431511E+02 -0.35276261885E+02  0.19706583222E+03  0.17087264273E+03 0.  0.
         24    2    5    5    0    0 -0.40995948835E+02 -0.42365156766E+02 -0.17958885531E+02  0.10228029342E+03  0.81628809395E+02 0.  0.
          5    1    5    5  501    0  0.84954739625E+02 -0.38013274745E+02 -0.17317376354E+02  0.94785538799E+02  0.47000000000E+01 0. -1.
        -13    1    6    6    0    0  0.63698766045E+00 -0.36771383308E+02 -0.40418422213E+02  0.54646035884E+02  0.00000000000E+00 0.  1.
         14    1    6    6    0    0 -0.41632936495E+02 -0.55937734582E+01  0.22459536682E+02  0.47634257533E+02  0.00000000000E+00 0. -1.
         -5    1    3    3    0  503  0.35950028349E+02  0.31336992919E+02 -0.11721114563E+03  0.12662920012E+03  0.47000000000E+01 0.  1.
         13    1    4    4    0    0  0.10362385296E+01  0.43607289284E+02 -0.36772593520E+03  0.37030397363E+03  0.00000000000E+00 0. -1.
        -14    1    4    4    0    0 -0.80945057669E+02  0.54341493090E+01 -0.49924399553E+03  0.50579264468E+03  0.00000000000E+00 0.  1.
</event>
<event>
12    1  0.8494789E-002  0.2117951E+03  0.7818608E-02  0.1140342E+00
         21   -1    0    0  503  502  0.00000000000E+00  0.00000000000E+00  0.31634349134E+03  0.31634349134E+03  0.00000000000E+00 0.  1.
         21   -1    0    0  501  503 -0.00000000000E+00 -0.00000000000E+00 -0.24263101283E+03  0.24263101283E+03  0.00000000000E+00 0. -1.
          6    2    1    2  501    0 -0.11233864841E+03 -0.51772385820E+02 -0.14394060258E+03  0.25528051642E+03  0.17073046927E+03 0.  0.
         24    2    3    3    0    0 -0.12880881291E+02  0.23328555498E+02 -0.48294106879E+02  0.98110732542E+02  0.81137269342E+02 0.  0.
         -6    2    1    2    0  502  0.11233864841E+03  0.51772385820E+02  0.21765308109E+03  0.30369398774E+03  0.17192097784E+03 0.  0.
        -24    2    5    5    0    0  0.75916064254E+02 -0.15395780698E+02  0.56028170452E+02  0.12485643864E+03  0.80309996327E+02 0.  0.
          5    1    3    3  501    0 -0.99457767115E+02 -0.75100941318E+02 -0.95646495699E+02  0.15716978388E+03  0.47000000000E+01 0. -1.
        -13    1    4    4    0    0  0.15153752964E+02 -0.10697088489E+02  0.12969066942E+02  0.22633175393E+02  0.00000000000E+00 0.  1.
         14    1    4    4    0    0 -0.28034634255E+02  0.34025643986E+02 -0.61263173821E+02  0.75477557149E+02  0.00000000000E+00 0. -1.
         -5    1    5    5    0  502  0.36422584152E+02  0.67168166518E+02  0.16162491064E+03  0.17883754910E+03  0.47000000000E+01 0.  1.
         11    1    6    6    0    0  0.59459696867E+02  0.14291100510E+01 -0.47642975740E+01  0.59667381696E+02  0.00000000000E+00 0. -1.
        -12    1    6    6    0    0  0.16456367386E+02 -0.16824890748E+02  0.60792468026E+02  0.65189056942E+02  0.00000000000E+00 0.  1.
</event>
<event>
12    1  0.8494789E-002  0.1855117E+03  0.7818608E-02  0.1162759E+00
         21   -1    0    0  503  502  0.00000000000E+00  0.00000000000E+00  0.52012061318E+03  0.52012061318E+03  0.00000000000E+00 0. -1.
         21   -1    0    0  501  503 -0.00000000000E+00 -0.00000000000E+00 -0.44605255155E+03  0.44605255155E+03  0.00000000000E+00 0. -1.
          6    2    1    2  501    0  0.70125079528E+02  0.31444990111E+02 -0.40893986181E+03  0.44905056321E+03  0.16884396218E+03 0.  0.
         24    2    3    3    0    0  0.92818576281E+02 -0.24752919959E+02 -0.31006261341E+03  0.33298161757E+03  0.74228958347E+02 0.  0.
         -6    2    1    2    0  502 -0.70125079528E+02 -0.31444990111E+02  0.48300792344E+03  0.51712260152E+03  0.16796671311E+03 0.  0.
        -24    2    5    5    0    0 -0.17275459426E+02 -0.74255604798E+02  0.35503423969E+03  0.37212196425E+03  0.81321021789E+02 0.  0.
          5    1    3    3  501    0 -0.22693496754E+02  0.56197910070E+02 -0.98877248395E+02  0.11606894564E+03  0.47000000000E+01 0. -1.
        -11    1    4    4    0    0  0.42641812891E+02 -0.18480960770E+02 -0.25083393429E+03  0.25510298452E+03  0.00000000000E+00 0.  1.
         12    1    4    4    0    0  0.50176763391E+02 -0.62719591892E+01 -0.59228679120E+02  0.77878633057E+02  0.00000000000E+00 0. -1.
         -5    1    5    5    0  502 -0.52849620101E+02  0.42810614687E+02  0.12797368375E+03  0.14500063727E+03  0.47000000000E+01 0.  1.
         13    1    6    6    0    0 -0.36339306104E+02 -0.39472421444E+01  0.87050865438E+02  0.94413871132E+02  0.00000000000E+00 0. -1.
        -14    1    6    6    0    0  0.19063846678E+02 -0.70308362654E+02  0.26798337425E+03  0.27770809312E+03  0.00000000000E+00 0.  1.
</event>
<event>
12    1  0.8494789E-002  0.1798796E+03  0.7818608E-02  0.1168109E+00
         21   -1    0    0  503  502  0.00000000000E+00  0.00000000000E+00  0.20588835911E+03  0.20588835911E+03  0.00000000000E+00 0. -1.
         21   -1    0    0  501  503 -0.00000000000E+00 -0.00000000000E+00 -0.26991271138E+03  0.26991271138E+03  0.00000000000E+00 0. -1.
          6    2    1    2  501    0  0.43656024126E+02  0.21021500052E+02 -0.18619796538E+03  0.25835437071E+03  0.17242258160E+03 0.  0.
         24    2    3    3    0    0  0.59643568518E+01  0.21509852168E+02 -0.27018550311E+02  0.94705122459E+02  0.87981878055E+02 0.  0.
         -6    2    1    2    0  502 -0.43656024126E+02 -0.21021500052E+02  0.12217361312E+03  0.21744669978E+03  0.17323083905E+03 0.  0.
        -24    2    5    5    0    0  0.67133797367E-01  0.52021560578E+02  0.64934749321E+02  0.11475599537E+03  0.79032711780E+02 0.  0.
          5    1    3    3  501    0  0.37691667274E+02 -0.48835211599E+00 -0.15917941507E+03  0.16364924825E+03  0.47000000000E+01 0. -1.
        -11    1    4    4    0    0 -0.30620158220E+02  0.31800760617E+00 -0.40094088638E+02  0.50450284062E+02  0.00000000000E+00 0.  1.
         12    1    4    4    0    0  0.36584515072E+02  0.21191844562E+02  0.13075538327E+02  0.44254838397E+02  0.00000000000E+00 0. -1.
         -5    1    5    5    0  502 -0.43723157923E+02 -0.73043060630E+02  0.57238863795E+02  0.10269070442E+03  0.47000000000E+01 0.  1.
         11    1    6    6    0    0 -0.39386495880E+02  0.29265907241E+02  0.33276215162E+02  0.59288244028E+02  0.00000000000E+00 0. -1.
        -12    1    6    6    0    0  0.39453629678E+02  0.22755653337E+02  0.31658534158E+02  0.55467751339E+02  0.00000000000E+00 0.  1.
</event>
<event>
12    1  0.8494789E-002  0.2824858E+03  0.7818608E-02  0.1094421E+00
         21   -1    0    0  501  502  0.00000000000E+00  0.00000000000E+00  0.26420963744E+03  0.26420963744E+03  0.00000000000E+00 0. -1.
         21   -1    0    0  502  503 -0.00000000000E+00 -0.00000000000E+00 -0.59246917412E+03  0.59246917412E+03  0.00000000000E+00 0.  1.
         -6    2    1    2    0  503 -0.17974161385E+03 -0.13280984469E+03 -0.46445939827E+03  0.54361823260E+03  0.17277947673E+03 0.  0.
        -24    2    3    3    0    0 -0.11681745133E+03 -0.16361919094E+02 -0.17180832139E+03  0.22239196904E+03  0.77627696483E+02 0.  0.
          6    2    1    2  501    0  0.17974161385E+03  0.13280984469E+03  0.13619986159E+03  0.31306057896E+03  0.17178772136E+03 0.  0.
         24    2    5    5    0    0  0.50973401176E+02 -0.81064726338E+01  0.63551172102E+02  0.10876035095E+03  0.71596507855E+02 0.  0.
          5    1    5    5  501    0  0.12876821267E+03  0.14091631732E+03  0.72648689488E+02  0.20430022801E+03  0.47000000000E+01 0. -1.
        -13    1    6    6    0    0  0.12267722361E+02 -0.20955586042E+02 -0.86998814045E+01  0.25793827455E+02  0.00000000000E+00 0.  1.
         14    1    6    6    0    0  0.38705678816E+02  0.12849113409E+02  0.72251053506E+02  0.82966523494E+02  0.00000000000E+00 0. -1.
         -5    1    3    3    0  503 -0.62924162515E+02 -0.11644792559E+03 -0.29265107687E+03  0.32122626356E+03  0.47000000000E+01 0.  1.
         11    1    4    4    0    0 -0.31559909594E+02 -0.30684987280E+02 -0.21484725515E+02  0.48981524766E+02  0.00000000000E+00 0. -1.
        -12    1    4    4    0    0 -0.85257541740E+02  0.14323068186E+02 -0.15032359588E+03  0.17341044428E+03  0.00000000000E+00 0.  1.
</event>
<event>
12    1  0.8494789E-002  0.2092093E+03  0.7818608E-02  0.1142750E+00
         21   -1    0    0  503  502  0.00000000000E+00  0.00000000000E+00  0.81283706220E+03  0.81283706220E+03  0.00000000000E+00 0. -1.
         21   -1    0    0  501  503 -0.00000000000E+00 -0.00000000000E+00 -0.88303852132E+02  0.88303852132E+02  0.00000000000E+00 0. -1.
          6    2    1    2  501    0  0.88511146344E+02 -0.71560787312E+02  0.76460590374E+02  0.22013677078E+03  0.17221732393E+03 0.  0.
         24    2    3    3    0    0  0.13232528221E+03 -0.46720516385E+02  0.59705397976E+02  0.16684939860E+03  0.67684564715E+02 0.  0.
         -6    2    1    2    0  502 -0.88511146344E+02  0.71560787312E+02  0.64807261970E+03  0.68100414356E+03  0.17553732888E+03 0.  0.
        -24    2    5    5    0    0  0.24799224673E+02  0.16755451161E+02  0.28120574377E+03  0.29311722743E+03  0.77105719620E+02 0.  0.
          5    1    3    3  501    0 -0.43814135869E+02 -0.24840270926E+02  0.16755192398E+02  0.53287372181E+02  0.47000000000E+01 0. -1.
        -13    1    4    4    0    0  0.66672662268E+01  0.14494835091E+02  0.46134531665E+01  0.16608330241E+02  0.00000000000E+00 0.  1.
         14    1    4    4    0    0  0.12565801599E+03 -0.61215351477E+02  0.55091944809E+02  0.15024106836E+03  0.00000000000E+00 0. -1.
         -5    1    5    5    0  502 -0.11331037102E+03  0.54805336151E+02  0.36686687593E+03  0.38788691613E+03  0.47000000000E+01 0.  1.
         13    1    6    6    0    0  0.31188259485E+02 -0.25307982952E+02  0.13649244037E+03  0.14227925994E+03  0.00000000000E+00 0. -1.
        -14    1    6    6    0    0 -0.63890348121E+01  0.42063434113E+02  0.14471330340E+03  0.15083796749E+03  0.00000000000E+00 0.  1.
</event>
<event>
12    1  0.8494789E-002  0.1942476E+03  0.7818608E-02  0.1155347E+00
         21   -1    0    0  501  502  0.00000000000E+00  0.00000000000E+00  0.89006207401E+03  0.89006207401E+03  0.00000000000E+00 0.  1.
         21   -1    0    0  502  503 -0.00000000000E+00 -0.00000000000E+00 -0.46907938164E+02  0.46907938164E+02  0.00000000000E+00 0.  1.
         -6    2    1    2    0  503  0.41741729229E+02 -0.73581106328E+02  0.26901265575E+03  0.33181310580E+03  0.17485873458E+03 0.  0.
        -24    2    3    3    0    0 -0.34345049963E+01  0.11281369467E+02  0.56167669052E+02  0.98215994732E+02  0.79702631406E+02 0.  0.
          6    2    1    2  501    0 -0.41741729229E+02  0.73581106328E+02  0.57414148010E+03  0.60515690638E+03  0.17152227551E+03 0.  0.
         24    2    5    5    0    0  0.24360526384E+02  0.66138365224E+02  0.21567502383E+03  0.24054040530E+03  0.79851437520E+02 0.  0.
          5    1    5    5  501    0 -0.66102255613E+02  0.74427411043E+01  0.35846645626E+03  0.36461650108E+03  0.47000000000E+01 0. -1.
        -11    1    6    6    0    0 -0.37443149729E+01  0.37799057598E+02  0.18841857765E+03  0.19220912844E+03  0.00000000000E+00 0.  1.
         12    1    6    6    0    0  0.28104841357E+02  0.28339307625E+02  0.27256446182E+02  0.48331276859E+02  0.00000000000E+00 0. -1.
         -5    1    3    3    0  503  0.45176234225E+02 -0.84862475795E+02  0.21284498669E+03  0.23359711106E+03  0.47000000000E+01 0.  1.
         11    1    4    4    0    0 -0.20485512749E+02 -0.43731230937E+01  0.68749728817E+02  0.71870060878E+02  0.00000000000E+00 0. -1.
        -12    1    4    4    0    0  0.17051007752E+02  0.15654492560E+02 -0.12582059766E+02  0.26345933854E+02  0.00000000000E+00 0.  1.
</event>
<event>
12    1  0.8494789E-002  0.1931383E+03  0.7818608E-02  0.1155961E+00
         21   -1    0    0  501  502  0.00000000000E+00  0.00000000000E+00  0.12318657258E+03  0.12318657258E+03  0.00000000000E+00 0. -1.
         21   -1    0    0  502  503 -0.00000000000E+00 -0.00000000000E+00 -0.52440075497E+03  0.52440075497E+03  0.00000000000E+00 0. -1.
         -6    2    1    2    0  503 -0.58521855326E+02  0.65549611013E+02 -0.41168600520E+03  0.45416536426E+03  0.17046774521E+03 0.  0.
        -24    2    3    3    0    0 -0.26091268537E+02  0.23206640378E+02 -0.38376786343E+03  0.39378173434E+03  0.81036898064E+02 0.  0.
          6    2    1    2  501    0  0.58521855326E+02 -0.65549611013E+02  0.10471822813E+02  0.19342196329E+03  0.17199080719E+03 0.  0.
         24    2    5    5    0    0  0.48216408922E+02 -0.90346318528E+02 -0.40242180365E+02  0.13584524015E+03  0.79669422181E+02 0.  0.
          5    1    5    5  501    0  0.10305446404E+02  0.24796707515E+02  0.50714003179E+02  0.57576723141E+02  0.47000000000E+01 0. -1.
        -13    1    6    6    0    0  0.20649891624E+02 -0.11523832592E+02 -0.46437377528E+02  0.52111867875E+02  0.00000000000E+00 0.  1.
         14    1    6    6    0    0  0.27566517298E+02 -0.78822485936E+02  0.61951971629E+01  0.83733372278E+02  0.00000000000E+00 0. -1.
         -5    1    3    3    0  503 -0.32430586789E+02  0.42342970634E+02 -0.27918141770E+02  0.60383629913E+02  0.47000000000E+01 0.  1.
         13    1    4    4    0    0  0.19704423921E+02 -0.10123959031E+02 -0.43334653008E+02  0.48668788971E+02  0.00000000000E+00 0. -1.
        -14    1    4    4    0    0 -0.45795692458E+02  0.33330599409E+02 -0.34043321042E+03  0.34511294537E+03  0.00000000000E+00 0.  1.
</event>
<event>
12    1  0.8494789E-002  0.2118073E+03  0.7818608E-02  0.1140393E+00
         21   -1    0    0  501  502  0.00000000000E+00  0.00000000000E+00  0.11554505984E+03  0.11554505984E+03  0.00000000000E+00 0.  1.
         21   -1    0    0  502  503 -0.00000000000E+00 -0.00000000000E+00 -0.51796493289E+03  0.51796493289E+03  0.00000000000E+00 0.  1.
         -6    2    1    2    0  503 -0.71881636665E+02  0.97609447281E+02 -0.36158243704E+03  0.41905153572E+03  0.17368867818E+03 0.  0.
        -24    2    3    3    0    0 -0.62436471254E+02  0.11703646564E+03 -0.17959722902E+03  0.23572852536E+03  0.75610354855E+02 0.  0.
          6    2    1    2  501    0  0.71881636665E+02 -0.97609447281E+02 -0.40837436010E+02  0.21445845700E+03  0.17213413290E+03 0.  0.
         24    2    5    5    0    0  0.49910046432E+01 -0.35505997683E+02  0.35764622132E+02  0.95205950040E+02  0.80619344626E+02 0.  0.
          5    1    5    5  501    0  0.66890632022E+02 -0.62103449598E+02 -0.76602058142E+02  0.11925250696E+03  0.47000000000E+01 0. -1.
        -13    1    6    6    0    0 -0.20405282004E+01 -0.56232771027E+02  0.37102379844E+01  0.56391968919E+02  0.00000000000E+00 0.  1.
         14    1    6    6    0    0  0.70315328437E+01  0.20726773343E+02  0.32054384148E+02  0.38813981121E+02  0.00000000000E+00 0. -1.
         -5    1    3    3    0  503 -0.94451654109E+01 -0.19427018364E+02 -0.18198520802E+03  0.18332301036E+03  0.47000000000E+01 0.  1.
         13    1    4    4    0    0  0.10757214806E+02  0.21817516743E+02 -0.67354187858E+01  0.25240593761E+02  0.00000000000E+00 0. -1.
        -14    1    4    4    0    0 -0.73193686061E+02  0.95218948902E+02 -0.17286181024E+03  0.21048793160E+03  0.00000000000E+00 0.  1.
</event>
<event>
12    1  0.8494789E-002  0.2228177E+03  0.7818608E-02  0.1131953E+00
         21   -1    0    0  501  502  0.00000000000E+00  0.00000000000E+00  0.12033477197E+03  0.12033477197E+03  0.00000000000E+00 0. -1.
         21   -1    0    0  502  503 -0.00000000000E+00 -0.00000000000E+00 -0.46019431928E+03  0.46019431928E+03  0.00000000000E+00 0.  1.
         -6    2    1    2    0  503  0.12601220049E+03  0.65023040827E+02 -0.26508623238E+03  0.34629239406E+03  0.17187391040E+03 0.  0.
        -24    2    3    3    0    0  0.31966585301E+02  0.92118259088E+01 -0.20091147006E+03  0.21940677799E+03  0.81652894088E+02 0.  0.
          6    2    1    2  501    0 -0.12601220049E+03 -0.65023040827E+02 -0.74773314920E+02  0.23423669718E+03  0.17078849836E+03 0.  0.
         24    2    5    5    0    0 -0.29066839286E+02 -0.42944215311E+02  0.19360897819E+02  0.97235903013E+02  0.79943040320E+02 0.  0.
          5    1    5    5  501    0 -0.96945361205E+02 -0.22078825516E+02 -0.94134212739E+02  0.13700079417E+03  0.47000000000E+01 0. -1.
        -11    1    6    6    0    0  0.14036125412E+02  0.15322116593E+02 -0.38510665076E+01  0.21133167929E+02  0.00000000000E+00 0.  1.
         12    1    6    6    0    0 -0.43102964698E+02 -0.58266331904E+02  0.23211964327E+02  0.76102735084E+02  0.00000000000E+00 0. -1.
         -5    1    3    3    0  503  0.94045615190E+02  0.55811214918E+02 -0.64174762323E+02  0.12688561607E+03  0.47000000000E+01 0.  1.
         11    1    4    4    0    0  0.26919980794E+02 -0.32040641476E+01 -0.11379327871E+02  0.29401368944E+02  0.00000000000E+00 0. -1.
        -12    1    4    4    0    0  0.50466045068E+01  0.12415890056E+02 -0.18953214219E+03  0.19000540904E+03  0.00000000000E+00 0.  1.
</event>
<event>
12    1  0.8494789E-002  0.2194690E+03  0.7818608E-02  0.1135070E+00
         21   -1    0    0  503  502  0.00000000000E+00  0.00000000000E+00  0.47041254478E+02  0.47041254478E+02  0.00000000000E+00 0.  1.
         21   -1    0    0  501  503 -0.00000000000E+00 -0.00000000000E+00 -0.10066007031E+04  0.10066007031E+04  0.00000000000E+00 0. -1.
          6    2    1    2  501    0 -0.12551398009E+03 -0.52716520548E+02 -0.46025993552E+03  0.50990766844E+03  0.17214479765E+03 0.  0.
         24    2    3    3    0    0 -0.74901686275E+02 -0.11862570075E+01 -0.40308627952E+03  0.41766944813E+03  0.79734242036E+02 0.  0.
         -6    2    1    2    0  502  0.12551398009E+03  0.52716520548E+02 -0.49929951309E+03  0.54373428912E+03  0.16677584554E+03 0.  0.
        -24    2    5    5    0    0  0.72292775716E+02  0.97635980935E+02 -0.34187482546E+03  0.37152837519E+03  0.79974415254E+02 0.  0.
          5    1    3    3  501    0 -0.50612293817E+02 -0.51530263541E+02 -0.57173655998E+02  0.92238220311E+02  0.47000000000E+01 0. -1.
        -11    1    4    4    0    0 -0.42252970229E+02  0.34599552284E+02 -0.14224531564E+03  0.15236854115E+03  0.00000000000E+00 0.  1.
         12    1    4    4    0    0 -0.32648716045E+02 -0.35785809291E+02 -0.26084096388E+03  0.26530090698E+03  0.00000000000E+00 0. -1.
         -5    1    5    5    0  502  0.53221204375E+02 -0.44919460387E+02 -0.15742468762E+03  0.17220591392E+03  0.47000000000E+01 0.  1.
         11    1    6    6    0    0  0.22239562400E+02  0.63348732699E+02 -0.26619652005E+03  0.27453278011E+03  0.00000000000E+00 0. -1.
        -12    1    6    6    0    0  0.50053213316E+02  0.34287248236E+02 -0.75678305415E+02  0.96995595082E+02  0.00000000000E+00 0.  1.
</event>
<event>
12    1  0.8494789E-002  0.2615028E+03  0.7818608E-02  0.1106257E+00
         21   -1    0    0  501  502  0.00000000000E+00  0.00000000000E+00  0.84010669722E+03  0.84010669722E+03  0.00000000000E+00 0.  1.
         21   -1    0    0  502  503 -0.00000000000E+00 -0.00000000000E+00 -0.84981473747E+02  0.84981473747E+02  0.00000000000E+00 0. -1.
         -6    2    1    2    0  503  0.17851182339E+03 -0.82102106573E+02  0.28217163468E+03  0.38465424431E+03  0.17242630093E+03 0.  0.
        -24    2    3    3    0    0  0.17246154877E+03 -0.84944985538E+02  0.30002424660E+03  0.36502025500E+03  0.79161869871E+02 0.  0.
          6    2    1    2  501    0 -0.17851182339E+03  0.82102106573E+02  0.47295358878E+03  0.54043392665E+03  0.17255869997E+03 0.  0.
         24    2    5    5    0    0 -0.18543449186E+02  0.63890031434E+01  0.13295195525E+03  0.15709914401E+03  0.81358710502E+02 0.  0.
          5    1    5    5  501    0 -0.15996837421E+03  0.75713103430E+02  0.34000163353E+03  0.38333478264E+03  0.47000000000E+01 0. -1.
        -13    1    6    6    0    0 -0.46409577375E+02 -0.10980154154E+02  0.98879209688E+02  0.10977937313E+03  0.00000000000E+00 0.  1.
         14    1    6    6    0    0  0.27866128189E+02  0.17369157297E+02  0.34072745561E+02  0.47319770873E+02  0.00000000000E+00 0. -1.
         -5    1    3    3    0  503  0.60502746251E+01  0.28428789645E+01 -0.17852611919E+02  0.19633989309E+02  0.47000000000E+01 0.  1.
         11    1    4    4    0    0  0.13472858593E+03 -0.84393260441E+02  0.18479358649E+03  0.24376768425E+03  0.00000000000E+00 0. -1.
        -12    1    4    4    0    0  0.37732962835E+02 -0.55172509705E+00  0.11523066011E+03  0.12125257076E+03  0.00000000000E+00 0.  1.
</event>
<event>
12    1  0.8494789E-002  0.1891821E+03  0.7818608E-02  0.1160808E+00
         21   -1    0    0  503  502  0.00000000000E+00  0.00000000000E+00  0.26014056414E+02  0.26014056414E+02  0.00000000000E+00 0. -1.
         21   -1    0    0  501  503 -0.00000000000E+00 -0.00000000000E+00 -0.17458141393E+04  0.17458141393E+04  0.00000000000E+00 0. -1.
          6    2    1    2  501    0  0.63751213562E+02 -0.37335851598E+02 -0.12821931684E+04  0.12950791312E+04  0.16659067146E+03 0.  0.
         24    2    3    3    0    0  0.41863314929E+02 -0.27300980931E+02 -0.35247824959E+03  0.36504058411E+03  0.80720696947E+02 0.  0.
         -6    2    1    2    0  502 -0.63751213562E+02  0.37335851598E+02 -0.43760691445E+03  0.47674906452E+03  0.17415991474E+03 0.  0.
        -24    2    5    5    0    0 -0.40620460327E+02 -0.35872563221E+02 -0.33243415123E+03  0.34644977876E+03  0.81105620725E+02 0.  0.
          5    1    3    3  501    0  0.21887898633E+02 -0.10034870666E+02 -0.92971491881E+03  0.93003854705E+03  0.47000000000E+01 0. -1.
        -11    1    4    4    0    0  0.15976160461E+02 -0.49778940731E+02 -0.28029958466E+03  0.28513336845E+03  0.00000000000E+00 0.  1.
         12    1    4    4    0    0  0.25887154467E+02  0.22477959799E+02 -0.72178664931E+02  0.79907215659E+02  0.00000000000E+00 0. -1.
         -5    1    5    5    0  502 -0.23130753235E+02  0.73208414818E+02 -0.10517276322E+03  0.13029928576E+03  0.47000000000E+01 0.  1.
         13    1    6    6    0    0 -0.64192154531E+02 -0.16290561566E+02 -0.24535040251E+03  0.25413153112E+03  0.00000000000E+00 0. -1.
        -14    1    6    6    0    0  0.23571694204E+02 -0.19582001655E+02 -0.87083748718E+02  0.92318247640E+02  0.00000000000E+00 0.  1.
</event>
<event>
12    1  0.8494789E-002  0.1892549E+03  0.7818608E-02  0.1159743E+00
         21   -1    0    0  503  502  0.00000000000E+00  0.00000000000E+00  0.13305326095E+04  0.13305326095E+04  0.00000000000E+00 0.  1.
         21   -1    0    0  501  503 -0.00000000000E+00 -0.00000000000E+00 -0.28033621805E+02  0.28033621805E+02  0.00000000000E+00 0. -1.
          6    2    1    2  501    0  0.69407192828E+01 -0.77802511801E+02  0.81227144172E+03  0.83402776680E+03  0.17238334122E+03 0.  0.
         24    2    3    3    0    0  0.68334015058E+02 -0.63549864178E+02  0.60318683930E+03  0.61559989381E+03  0.80129540741E+02 0.  0.
         -6    2    1    2    0  502 -0.69407192828E+01  0.77802511801E+02  0.49022754592E+03  0.52453846445E+03  0.16945840045E+03 0.  0.
        -24    2    5    5    0    0 -0.37844591251E+02  0.10083870571E+03  0.27351464151E+03  0.30437423377E+03  0.78947814466E+02 0.  0.
          5    1    3    3  501    0 -0.61393295775E+02 -0.14252647623E+02  0.20908460242E+03  0.21842787299E+03  0.47000000000E+01 0. -1.
        -13    1    4    4    0    0 -0.11276075712E+02  0.50587528521E+01  0.14449033592E+03  0.14501792316E+03  0.00000000000E+00 0.  1.
         14    1    4    4    0    0  0.79610090770E+02 -0.68608617030E+02  0.45869650338E+03  0.47058197065E+03  0.00000000000E+00 0. -1.
         -5    1    5    5    0  502  0.30903871968E+02 -0.23036193908E+02  0.21671290441E+03  0.22016423068E+03  0.47000000000E+01 0.  1.
         13    1    6    6    0    0 -0.18498191106E+02 -0.32615444777E+01  0.12134139795E+02  0.22361978784E+02  0.00000000000E+00 0. -1.
        -14    1    6    6    0    0 -0.19346400145E+02  0.10410025019E+03  0.26138050172E+03  0.28201225499E+03  0.00000000000E+00 0.  1.
</event>
<event>
12    1  0.8494789E-002  0.2186481E+03  0.7818608E-02  0.1135127E+00
         21   -1    0    0  501  502  0.00000000000E+00  0.00000000000E+00  0.29080725276E+03  0.29080725276E+03  0.00000000000E+00 0.  1.
         21   -1    0    0  502  503 -0.00000000000E+00 -0.00000000000E+00 -0.23200594639E+03  0.23200594639E+03  0.00000000000E+00 0.  1.
         -6    2    1    2    0  503  0.14819450317E+01 -0.13517047990E+03 -0.11273632905E+03  0.24490646818E+03  0.17028342101E+03 0.  0.
        -24    2    3    3    0    0  0.22615179208E+02 -0.66809107253E+01 -0.71771005142E+02  0.10831792277E+03  0.77624830537E+02 0.  0.
          6    2    1    2  501    0 -0.14819450317E+01  0.13517047990E+03  0.17153763542E+03  0.27790673098E+03  0.17185382149E+03 0.  0.
         24    2    5    5    0    0 -0.46190062137E+02  0.14568166532E+03  0.12728226802E+03  0.21395418374E+03  0.78860303949E+02 0.  0.
          5    1    5    5  501    0  0.44708117105E+02 -0.10511185422E+02  0.44255367405E+02  0.63952547238E+02  0.47000000000E+01 0. -1.
        -13    1    6    6    0    0 -0.16922155026E+02  0.87384439875E+02  0.24671070024E+02  0.92363744831E+02  0.00000000000E+00 0.  1.
         14    1    6    6    0    0 -0.29267907110E+02  0.58297225443E+02  0.10261119799E+03  0.12159043891E+03  0.00000000000E+00 0. -1.
         -5    1    3    3    0  503 -0.21133234177E+02 -0.12848956917E+03 -0.40965323907E+02  0.13658854540E+03  0.47000000000E+01 0.  1.
         13    1    4    4    0    0 -0.16029603876E+02  0.14948924544E+02  0.22777455210E+01  0.22036484976E+02  0.00000000000E+00 0. -1.
        -14    1    4    4    0    0  0.38644783085E+02 -0.21629835269E+02 -0.74048750663E+02  0.86281437796E+02  0.00000000000E+00 0.  1.
</event>
<event>
12    1  0.8494789E-002  0.2377810E+03  0.7818608E-02  0.1123645E+00
         21   -1    0    0  501  502  0.00000000000E+00  0.00000000000E+00  0.19694509889E+04  0.19694509889E+04  0.00000000000E+00 0.  1.
         21   -1    0    0  502  503 -0.00000000000E+00 -0.00000000000E+00 -0.30968130232E+02  0.30968130232E+02  0.00000000000E+00 0.  1.
         -6    2    1    2    0  503  0.11896166007E+03 -0.11136542937E+03  0.64038798482E+03  0.68310802468E+03  0.17316369957E+03 0.  0.
        -24    2    3    3    0    0  0.12354930488E+03 -0.59810920945E+02  0.30942034749E+03  0.34808477058E+03  0.81118919304E+02 0.  0.
          6    2    1    2  501    0 -0.11896166007E+03  0.11136542937E+03  0.12980948739E+04  0.13173110945E+04  0.15396130241E+03 0.  0.
         24    2    5    5    0    0 -0.20974197107E+02  0.21221188081E+02  0.41736975979E+03  0.42656626923E+03  0.82891554992E+02 0.  0.
          5    1    5    5  501    0 -0.97987462965E+02  0.90144241288E+02  0.88072511409E+03  0.89074482526E+03  0.47000000000E+01 0. -1.
        -11    1    6    6    0    0 -0.23702636357E+02  0.52025767395E+02  0.26944321810E+03  0.27544172383E+03  0.00000000000E+00 0.  1.
         12    1    6    6    0    0  0.27284392501E+01 -0.30804579313E+02  0.14792654168E+03  0.15112454540E+03  0.00000000000E+00 0. -1.
         -5    1    3    3    0  503 -0.45876448117E+01 -0.51554508424E+02  0.33096763733E+03  0.33502325410E+03  0.47000000000E+01 0.  1.
         11    1    4    4    0    0  0.17117947529E+01 -0.23814494607E+02  0.17150821570E+02  0.29397467156E+02  0.00000000000E+00 0. -1.
        -12    1    4    4    0    0  0.12183751013E+03 -0.35996426339E+02  0.29226952592E+03  0.31868730342E+03  0.00000000000E+00 0.  1.
</event>
<event>
12    1  0.8494789E-002  0.1742331E+03  0.7818608E-02  0.1173590E+00
         21   -1    0    0  501  502  0.00000000000E+00  0.00000000000E+00  0.13914053389E+03  0.13914053389E+03  0.00000000000E+00 0. -1.
         21   -1    0    0  502  503 -0.00000000000E+00 -0.00000000000E+00 -0.33364586311E+03  0.33364586311E+03  0.00000000000E+00 0. -1.
         -6    2    1    2    0  503  0.91944809451E+01 -0.14975268263E+02 -0.23651468522E+03  0.29356041515E+03  0.17300209213E+03 0.  0.
        -24    2    3    3    0    0 -0.30964690526E+02  0.46306625323E+02 -0.11364501411E+03  0.15042664690E+03  0.81301114743E+02 0.  0.
          6    2    1    2  501    0 -0.91944809451E+01  0.14975268263E+02  0.42009355997E+02  0.17922598185E+03  0.17334465506E+03 0.  0.
         24    2    5    5    0    0 -0.57642238695E+02 -0.25587111498E+02 -0.39221452263E+01  0.10096817273E+03  0.78751893471E+02 0.  0.
          5    1    5    5  501    0  0.48447757750E+02  0.40562379761E+02  0.45931501224E+02  0.78257809116E+02  0.47000000000E+01 0. -1.
        -11    1    6    6    0    0 -0.28347140202E+02 -0.52525324989E+02 -0.10581072834E+02  0.60617070410E+02  0.00000000000E+00 0.  1.
         12    1    6    6    0    0 -0.29295098494E+02  0.26938213491E+02  0.66589276073E+01  0.40351102323E+02  0.00000000000E+00 0. -1.
         -5    1    3    3    0  503  0.40159171471E+02 -0.61281893586E+02 -0.12286967111E+03  0.14313376825E+03  0.47000000000E+01 0.  1.
         11    1    4    4    0    0 -0.19586263564E+02 -0.21246967992E+02 -0.44752803286E+02  0.53271650727E+02  0.00000000000E+00 0. -1.
        -12    1    4    4    0    0 -0.11378426962E+02  0.67553593315E+02 -0.68892210825E+02  0.97154996177E+02  0.00000000000E+00 0.  1.
</event>
<event>
12    1  0.8494789E-002  0.2320839E+03  0.7818608E-02  0.1125331E+00
         21   -1    0    0  503  502  0.00000000000E+00  0.00000000000E+00  0.55054356013E+03  0.55054356013E+03  0.00000000000E+00 0. -1.
         21   -1    0    0  501  503 -0.00000000000E+00 -0.00000000000E+00 -0.97537264114E+02  0.97537264114E+02  0.00000000000E+00 0. -1.
          6    2    1    2  501    0  0.15493811445E+03 -0.19421997001E+02  0.21865359176E+03  0.31886096045E+03  0.17169707520E+03 0.  0.
         24    2    3    3    0    0  0.13752488899E+03  0.41741371320E+02  0.14673553909E+03  0.22274397784E+03  0.86186565431E+02 0.  0.
         -6    2    1    2    0  502 -0.15493811445E+03  0.19421997001E+02  0.23435270425E+03  0.32921986379E+03  0.17053297467E+03 0.  0.
        -24    2    5    5    0    0 -0.18055624819E+03  0.36055108606E+02  0.20569155600E+03  0.28707130988E+03  0.78742562377E+02 0.  0.
          5    1    3    3  501    0  0.17413225452E+02 -0.61163368321E+02  0.71918052674E+02  0.96116982607E+02  0.47000000000E+01 0. -1.
        -13    1    4    4    0    0  0.14207910892E+02 -0.45853736408E-01 -0.11174875511E+02  0.18076080249E+02  0.00000000000E+00 0.  1.
         14    1    4    4    0    0  0.12331697810E+03  0.41787225056E+02  0.15791041460E+03  0.20466789759E+03  0.00000000000E+00 0. -1.
         -5    1    5    5    0  502  0.25618133741E+02 -0.16633111605E+02  0.28661148252E+02  0.42148553915E+02  0.47000000000E+01 0.  1.
         13    1    6    6    0    0 -0.10078649137E+03  0.58039676018E+02  0.10447891024E+03  0.15634053703E+03  0.00000000000E+00 0. -1.
        -14    1    6    6    0    0 -0.79769756819E+02 -0.21984567411E+02  0.10121264576E+03  0.13073077285E+03  0.00000000000E+00 0.  1.
</event>
<event>
12    1  0.8494789E-002  0.1966177E+03  0.7818608E-02  0.1152798E+00
         21   -1    0    0  503  502  0.00000000000E+00  0.00000000000E+00  0.10150138635E+03  0.10150138635E+03  0.00000000000E+00 0. -1.
         21   -1    0    0  501  503 -0.00000000000E+00 -0.00000000000E+00 -0.41906788974E+03  0.41906788974E+03  0.00000000000E+00 0. -1.
          6    2    1    2  501    0  0.70360015064E+02 -0.62448973120E+02 -0.23865957700E+03  0.30870885058E+03  0.17173338281E+03 0.  0.
         24    2    3    3    0    0  0.84437600443E+02 -0.13237931765E+02 -0.87995188462E+02  0.14951791813E+03  0.85483936755E+02 0.  0.
         -6    2    1    2    0  502 -0.70360015064E+02  0.62448973120E+02 -0.78906926390E+02  0.21186042551E+03  0.17265031393E+03 0.  0.
        -24    2    5    5    0    0 -0.28393367586E+02  0.92965039272E+02 -0.91341633028E+02  0.15829605561E+03  0.85238872858E+02 0.  0.
          5    1    3    3  501    0 -0.14077585379E+02 -0.49211041356E+02 -0.15066438854E+03  0.15919093245E+03  0.47000000000E+01 0. -1.
        -11    1    4    4    0    0  0.91893976654E+02 -0.33663056806E+02 -0.79817003495E+02  0.12628720595E+03  0.00000000000E+00 0.  1.
         12    1    4    4    0    0 -0.74563762117E+01  0.20425125041E+02 -0.81781849679E+01  0.23230712183E+02  0.00000000000E+00 0. -1.
         -5    1    5    5    0  502 -0.41966647478E+02 -0.30516066152E+02  0.12434706638E+02  0.53564369903E+02  0.47000000000E+01 0.  1.
         11    1    6    6    0    0 -0.38750580747E+02  0.99305748489E+02 -0.97691557534E+02  0.14459211460E+03  0.00000000000E+00 0. -1.
        -12    1    6    6    0    0  0.10357213161E+02 -0.63407092167E+01  0.63499245062E+01  0.13703941005E+02  0.00000000000E+00 0.  1.
</event>
<event>
12    1  0.8494789E-002  0.2298543E+03  0.7818608E-02  0.1126764E+00
         21   -1    0    0  503  502  0.00000000000E+00  0.00000000000E+00  0.21398984730E+03  0.21398984730E+03  0.00000000000E+00 0. -1.
         21   -1    0    0  501  503 -0.00000000000E+00 -0.00000000000E+00 -0.25743291637E+03  0.25743291637E+03  0.00000000000E+00 0.  1.
          6    2    1    2  501    0  0.43606658450E+01 -0.15284497264E+03 -0.69697328215E+02  0.24007391436E+03  0.17145601689E+03 0.  0.
         24    2    3    3    0    0  0.33958518966E+02 -0.81008672545E+02 -0.10279678116E+03  0.15549170165E+03  0.76778284867E+02 0.  0.
         -6    2    1    2    0  502 -0.43606658450E+01  0.15284497264E+03  0.26254259137E+02  0.23134884931E+03  0.17161702388E+03 0.  0.
        -24    2    5    5    0    0 -0.55536081341E+02  0.13604868327E+03  0.45671997001E+02  0.17390168201E+03  0.81008414027E+02 0.  0.
          5    1    3    3  501    0 -0.29597853121E+02 -0.71836300097E+02  0.33099452949E+02  0.84582212708E+02  0.47000000000E+01 0. -1.
        -11    1    4    4    0    0  0.32173208907E+01 -0.50362591217E+00 -0.58514687621E+02  0.58605234068E+02  0.00000000000E+00 0.  1.
         12    1    4    4    0    0  0.30741198075E+02 -0.80505046633E+02 -0.44282093543E+02  0.96886467584E+02  0.00000000000E+00 0. -1.
         -5    1    5    5    0  502  0.51175415496E+02  0.16796289369E+02 -0.19417737864E+02  0.57447167306E+02  0.47000000000E+01 0.  1.
         11    1    6    6    0    0  0.12198609345E+02 -0.40869751440E+00  0.13497094543E+02  0.18197380710E+02  0.00000000000E+00 0. -1.
        -12    1    6    6    0    0 -0.67734690686E+02  0.13645738079E+03  0.32174902458E+02  0.15570430130E+03  0.00000000000E+00 0.  1.
</event>
<event>
12    1  0.8494789E-002  0.2154504E+03  0.7818608E-02  0.1138019E+00
         21   -1    0    0  503  502  0.00000000000E+00  0.00000000000E+00  0.43429980896E+03  0.43429980896E+03  0.00000000000E+00 0.  1.
         21   -1    0    0  501  503 -0.00000000000E+00 -0.00000000000E+00 -0.11477036774E+03  0.11477036774E+03  0.00000000000E+00 0. -1.
          6    2    1    2  501    0  0.10641976992E+03  0.61733695526E+02  0.81309945733E+02  0.23028279488E+03  0.17686899601E+03 0.  0.
         24    2    3    3    0    0  0.10861037458E+03  0.83461028483E+02  0.11156544632E+03  0.19267480288E+03  0.76907568612E+02 0.  0.
         -6    2    1    2    0  502 -0.10641976992E+03 -0.61733695526E+02  0.23821949549E+03  0.31878738183E+03  0.17245477723E+03 0.  0.
        -24    2    5    5    0    0 -0.10800063903E+03  0.67771066756E+01  0.20782549930E+03  0.24367337402E+03  0.66896994245E+02 0.  0.
          5    1    3    3  501    0 -0.21906046592E+01 -0.21727332956E+02 -0.30255500589E+02  0.37607991997E+02  0.47000000000E+01 0. -1.
        -13    1    4    4    0    0 -0.83579134225E+01 -0.56049344160E+01  0.75930700852E+01  0.12606534809E+02  0.00000000000E+00 0.  1.
         14    1    4    4    0    0  0.11696828800E+03  0.89065962899E+02  0.10397237624E+03  0.18006826807E+03  0.00000000000E+00 0. -1.
         -5    1    5    5    0  502  0.15808691106E+01 -0.68510802202E+02  0.30393996188E+02  0.75114007813E+02  0.47000000000E+01 0.  1.
         11    1    6    6    0    0 -0.53262622166E+02  0.33322574919E+02  0.76882740781E+02  0.99288754395E+02  0.00000000000E+00 0. -1.
        -12    1    6    6    0    0 -0.54738016866E+02 -0.26545468244E+02  0.13094275852E+03  0.14438461962E+03  0.00000000000E+00 0.  1.
</event>
<event>
12    1  0.8494789E-002  0.2122535E+03  0.7818608E-02  0.1139927E+00
         21   -1    0    0  501  502  0.00000000000E+00  0.00000000000E+00  0.27938728988E+02  0.27938728988E+02  0.00000000000E+00 0. -1.
         21   -1    0    0  502  503 -0.00000000000E+00 -0.00000000000E+00 -0.18269187791E+04  0.18269187791E+04  0.00000000000E+00 0.  1.
         -6    2    1    2    0  503 -0.57979319122E+02  0.10948043498E+03 -0.57923776990E+03  0.61690190093E+03  0.17234846736E+03 0.  0.
        -24    2    3    3    0    0 -0.74307151987E+02  0.78407502942E+02 -0.25219453134E+03  0.28794674422E+03  0.87418284814E+02 0.  0.
          6    2    1    2  501    0  0.57979319122E+02 -0.10948043498E+03 -0.12197422802E+04  0.12379556071E+04  0.17150885712E+03 0.  0.
         24    2    5    5    0    0  0.55794347504E+02 -0.11996237292E+01 -0.43241362589E+03  0.44319903556E+03  0.79557482076E+02 0.  0.
          5    1    5    5  501    0  0.21849716181E+01 -0.10828081125E+03 -0.78732865427E+03  0.79475657155E+03  0.47000000000E+01 0. -1.
        -11    1    6    6    0    0  0.23899847748E+02 -0.24213194384E+02 -0.35243101223E+03  0.35406934333E+03  0.00000000000E+00 0.  1.
         12    1    6    6    0    0  0.31894499756E+02  0.23013570654E+02 -0.79982613664E+02  0.89129692232E+02  0.00000000000E+00 0. -1.
         -5    1    3    3    0  503  0.16327832865E+02  0.31072932038E+02 -0.32704323857E+03  0.32895515671E+03  0.47000000000E+01 0.  1.
         11    1    4    4    0    0 -0.19222553393E+02  0.73950814983E+02 -0.98787145685E+02  0.12488846924E+03  0.00000000000E+00 0. -1.
        -12    1    4    4    0    0 -0.55084598595E+02  0.44566879583E+01 -0.15340738565E+03  0.16305827499E+03  0.00000000000E+00 0.  1.
</event>
<event>
12    1  0.8494789E-002  0.1883753E+03  0.7818608E-02  0.1159943E+00
         21   -1    0    0  501  502  0.00000000000E+00  0.00000000000E+00  0.46595356215E+03  0.46595356215E+03  0.00000000000E+00 0.  1.
         21   -1    0    0  502  503 -0.00000000000E+00 -0.00000000000E+00 -0.91989884976E+02  0.91989884976E+02  0.00000000000E+00 0.  1.
         -6    2    1    2    0  503 -0.43096554624E+02  0.63239579846E+02  0.71177486176E+02  0.20134178063E+03  0.17209218637E+03 0.  0.
        -24    2    3    3    0    0  0.24995844718E+02 -0.13400300365E+02  0.21149449996E+02  0.87170240875E+02  0.79668007104E+02 0.  0.
          6    2    1    2  501    0  0.43096554624E+02 -0.63239579846E+02  0.30278619099E+03  0.35660166649E+03  0.17212993234E+03 0.  0.
         24    2    5    5    0    0 -0.37390685809E+02 -0.63553851091E+02  0.14389717507E+03  0.17842730240E+03  0.75450313938E+02 0.  0.
          5    1    5    5  501    0  0.80487240433E+02  0.31427124507E+00  0.15888901592E+03  0.17817436409E+03  0.47000000000E+01 0. -1.
        -13    1    6    6    0    0 -0.24920987797E+02 -0.11399995101E+02  0.11355339663E+03  0.11681348128E+03  0.00000000000E+00 0.  1.
         14    1    6    6    0    0 -0.12469698012E+02 -0.52153855990E+02  0.30343778440E+02  0.61613821121E+02  0.00000000000E+00 0. -1.
         -5    1    3    3    0  503 -0.68092399341E+02  0.76639880211E+02  0.50028036180E+02  0.11417153976E+03  0.47000000000E+01 0.  1.
         11    1    4    4    0    0  0.45535815002E+02  0.15342200699E+02  0.19338698837E+02  0.51796513810E+02  0.00000000000E+00 0. -1.
        -12    1    4    4    0    0 -0.20539970284E+02 -0.28742501064E+02  0.18107511593E+01  0.35373727065E+02  0.00000000000E+00 0.  1.
</event>
<event>
12    1  0.8494789E-002  0.2756020E+03  0.7818608E-02  0.1098245E+00
         21   -1    0    0  503  502  0.00000000000E+00  0.00000000000E+00  0.40888098704E+03  0.40888098704E+03  0.00000000000E+00 0. -1.
         21   -1    0    0  501  503 -0.00000000000E+00 -0.00000000000E+00 -0.13373713433E+04  0.13373713433E+04  0.00000000000E+00 0.  1.
          6    2    1    2  501    0 -0.20221875752E+03 -0.73031545590E+02 -0.12747936383E+04  0.13042451023E+04  0.17242515556E+03 0.  0.
         24    2    3    3    0    0 -0.12569429792E+03 -0.33446034932E+01 -0.98611984945E+03  0.99754181060E+03  0.82746984893E+02 0.  0.
         -6    2    1    2    0  502  0.20221875752E+03  0.73031545590E+02  0.34630328197E+03  0.44200722803E+03  0.17093388776E+03 0.  0.
        -24    2    5    5    0    0  0.29507814052E+02  0.51967979215E+02  0.13775086629E+03  0.17036602366E+03  0.80485395587E+02 0.  0.
          5    1    3    3  501    0 -0.76524459603E+02 -0.69686942097E+02 -0.28867378880E+03  0.30670329173E+03  0.47000000000E+01 0. -1.
        -11    1    4    4    0    0 -0.61053100416E+00  0.19707279515E+02 -0.73384763662E+02  0.75987322309E+02  0.00000000000E+00 0.  1.
         12    1    4    4    0    0 -0.12508376691E+03 -0.23051883008E+02 -0.91273508579E+03  0.92155448829E+03  0.00000000000E+00 0. -1.
         -5    1    5    5    0  502  0.17271094347E+03  0.21063566375E+02  0.20855241568E+03  0.27164120437E+03  0.47000000000E+01 0.  1.
         13    1    6    6    0    0  0.56947681357E+02  0.26963863290E+02  0.90563393640E+02  0.11032595616E+03  0.00000000000E+00 0. -1.
        -14    1    6    6    0    0 -0.27439867305E+02  0.25004115925E+02  0.47187472645E+02  0.60040067501E+02  0.00000000000E+00 0.  1.
</event>
<event>
12    1  0.8494789E-002  0.2753885E+03  0.7818608E-02  0.1098274E+00
         21   -1    0    0  503  502  0.00000000000E+00  0.00000000000E+00  0.18416378796E+03  0.18416378796E+03  0.00000000000E+00 0.  1.
         21   -1    0    0  501  503 -0.00000000000E+00 -0.00000000000E+00 -0.72743812621E+03  0.72743812621E+03  0.00000000000E+00 0. -1.
          6    2    1    2  501    0 -0.21475532303E+03 -0.76602193185E+01 -0.57200086217E+03  0.63471924467E+03  0.17177021132E+03 0.  0.
         24    2    3    3    0    0 -0.14450489904E+03  0.50216692038E+02 -0.40922127696E+03  0.44816056140E+03  0.99912227870E+02 0.  0.
         -6    2    1    2    0  502  0.21475532303E+03  0.76602193185E+01  0.28726523919E+02  0.27688266950E+03  0.17222157753E+03 0.  0.
        -24    2    5    5    0    0  0.79291242418E+02  0.60657057654E+02  0.51716242704E+01  0.12945097241E+03  0.82246147592E+02 0.  0.
          5    1    3    3  501    0 -0.70250423985E+02 -0.57876911357E+02 -0.16277958522E+03  0.18655868327E+03  0.47000000000E+01 0. -1.
        -11    1    4    4    0    0  0.41427284720E+01  0.89755247004E+01 -0.11969049086E+03  0.12009802599E+03  0.00000000000E+00 0.  1.
         12    1    4    4    0    0 -0.14864762751E+03  0.41241167338E+02 -0.28953078609E+03  0.32806253542E+03  0.00000000000E+00 0. -1.
         -5    1    5    5    0  502  0.13546408061E+03 -0.52996838336E+02  0.23554899649E+02  0.14743169709E+03  0.47000000000E+01 0.  1.
         13    1    6    6    0    0  0.69589899263E+02  0.11373937694E+02 -0.19962541793E+02  0.73284538703E+02  0.00000000000E+00 0. -1.
        -14    1    6    6    0    0  0.97013431544E+01  0.49283119960E+02  0.25134166063E+02  0.56166433710E+02  0.00000000000E+00 0.  1.
</event>
<event>
12    1  0.8494789E-002  0.1809546E+03  0.7818608E-02  0.1167355E+00
         21   -1    0    0  501  502  0.00000000000E+00  0.00000000000E+00  0.71368059174E+02  0.71368059174E+02  0.00000000000E+00 0. -1.
         21   -1    0    0  502  503 -0.00000000000E+00 -0.00000000000E+00 -0.55007054420E+03  0.55007054420E+03  0.00000000000E+00 0. -1.
         -6    2    1    2    0  503 -0.12509305094E+02 -0.49021858698E+02 -0.37036760462E+03  0.41220959050E+03  0.17373818981E+03 0.  0.
        -24    2    3    3    0    0 -0.79451780069E+01 -0.47985270386E+02 -0.84440431515E+02  0.12620549246E+03  0.80199300656E+02 0.  0.
          6    2    1    2  501    0  0.12509305094E+02  0.49021858698E+02 -0.10833488040E+03  0.20922901288E+03  0.17169947051E+03 0.  0.
         24    2    5    5    0    0  0.36921760024E+02 -0.22562463220E+02 -0.92833818946E+02  0.13188138197E+03  0.83080081012E+02 0.  0.
          5    1    5    5  501    0 -0.24412454931E+02  0.71584321918E+02 -0.15501061456E+02  0.77347630904E+02  0.47000000000E+01 0. -1.
        -11    1    6    6    0    0  0.59982019317E+02 -0.10115554962E+01 -0.73474111196E+02  0.94854155955E+02  0.00000000000E+00 0.  1.
         12    1    6    6    0    0 -0.23060259293E+02 -0.21550907724E+02 -0.19359707751E+02  0.37027226018E+02  0.00000000000E+00 0. -1.
         -5    1    3    3    0  503 -0.45641270868E+01 -0.10365883120E+01 -0.28592717311E+03  0.28600409804E+03  0.47000000000E+01 0.  1.
         13    1    4    4    0    0 -0.18905430627E+02 -0.38127087567E+02 -0.97581135250E+02  0.10645735329E+03  0.00000000000E+00 0. -1.
        -14    1    4    4    0    0  0.10960252621E+02 -0.98581828181E+01  0.13140703735E+02  0.19748139169E+02  0.00000000000E+00 0.  1.
</event>
<event>
12    1  0.8494789E-002  0.1859626E+03  0.7818608E-02  0.1162282E+00
         21   -1    0    0  501  502  0.00000000000E+00  0.00000000000E+00  0.93034057585E+03  0.93034057585E+03  0.00000000000E+00 0.  1.
         21   -1    0    0  502  503 -0.00000000000E+00 -0.00000000000E+00 -0.67228818090E+02  0.67228818090E+02  0.00000000000E+00 0. -1.
         -6    2    1    2    0  503  0.15780134759E+02 -0.66987351644E+02  0.97078906520E+02  0.20928744248E+03  0.17216446078E+03 0.  0.
        -24    2    3    3    0    0 -0.11634334024E+02 -0.29386190957E+01  0.11158276110E+03  0.13796952721E+03  0.80255122290E+02 0.  0.
          6    2    1    2  501    0 -0.15780134759E+02  0.66987351644E+02  0.76603285124E+03  0.78828195146E+03  0.17275933517E+03 0.  0.
         24    2    5    5    0    0 -0.14045577820E+02  0.91762535372E+02  0.74648277773E+03  0.75632708030E+03  0.78590545229E+02 0.  0.
          5    1    5    5  501    0 -0.17345569395E+01 -0.24775183728E+02  0.19550073512E+02  0.31954871160E+02  0.47000000000E+01 0. -1.
        -11    1    6    6    0    0  0.27473550780E+02  0.60296172126E+02  0.50210726820E+03  0.50646039643E+03  0.00000000000E+00 0.  1.
         12    1    6    6    0    0 -0.41519128600E+02  0.31466363246E+02  0.24437550952E+03  0.24986668388E+03  0.00000000000E+00 0. -1.
         -5    1    3    3    0  503  0.27414468783E+02 -0.64048732548E+02 -0.14503854584E+02  0.71317915263E+02  0.47000000000E+01 0.  1.
         13    1    4    4    0    0  0.28378456382E+02  0.37168199859E+01  0.13131224722E+02  0.31489372812E+02  0.00000000000E+00 0. -1.
        -14    1    4    4    0    0 -0.40012790405E+02 -0.66554390816E+01  0.98451536382E+02  0.10648015440E+03  0.00000000000E+00 0.  1.
</event>
<event>
12    1  0.8494789E-002  0.1922262E+03  0.7818608E-02  0.1156792E+00
         21   -1    0    0  501  502  0.00000000000E+00  0.00000000000E+00  0.28527615839E+02  0.28527615839E+02  0.00000000000E+00 0.  1.
         21   -1    0    0  502  503 -0.00000000000E+00 -0.00000000000E+00 -0.18211883043E+04  0.18211883043E+04  0.00000000000E+00 0. -1.
         -6    2    1    2    0  503  0.12004383200E+02 -0.87161208740E+02 -0.14003181283E+04  0.14134503047E+04  0.17090851953E+03 0.  0.
        -24    2    3    3    0    0 -0.47445800125E+02 -0.11449776722E+02 -0.57887030341E+03  0.58636798464E+03  0.79714389564E+02 0.  0.
          6    2    1    2  501    0 -0.12004383200E+02  0.87161208740E+02 -0.39234256015E+03  0.43626561537E+03  0.16927439595E+03 0.  0.
         24    2    5    5    0    0  0.34230036538E+02  0.54929126771E+02 -0.10411888877E+03  0.14254550468E+03  0.72729454405E+02 0.  0.
          5    1    5    5  501    0 -0.46234419738E+02  0.32232081970E+02 -0.28822367138E+03  0.29372011069E+03  0.47000000000E+01 0. -1.
        -13    1    6    6    0    0  0.22614017967E+02  0.47408086715E+02 -0.11401540582E+03  0.12553259839E+03  0.00000000000E+00 0.  1.
         14    1    6    6    0    0  0.11616018571E+02  0.75210400554E+01  0.98965170476E+01  0.17012906296E+02  0.00000000000E+00 0. -1.
         -5    1    3    3    0  503  0.59450183325E+02 -0.75711432018E+02 -0.82144782485E+03  0.82708232008E+03  0.47000000000E+01 0.  1.
         11    1    4    4    0    0  0.36908620215E+01  0.10882861230E+02 -0.36982129595E+03  0.36999979739E+03  0.00000000000E+00 0. -1.
        -12    1    4    4    0    0 -0.51136662146E+02 -0.22332637952E+02 -0.20904900747E+03  0.21636818725E+03  0.00000000000E+00 0.  1.
</event>
<event>
12    1  0.8494789E-002  0.2453158E+03  0.7818608E-02  0.1116493E+00
         21   -1    0    0  501  502  0.00000000000E+00  0.00000000000E+00  0.15449330381E+03  0.15449330381E+03  0.00000000000E+00 0.  1.
         21   -1    0    0  502  503 -0.00000000000E+00 -0.00000000000E+00 -0.41009036090E+03  0.41009036090E+03  0.00000000000E+00 0. -1.
         -6    2    1    2    0  503  0.20042669379E+02 -0.17249370978E+03 -0.61477511689E+02  0.25175425435E+03  0.17159525527E+03 0.  0.
        -24    2    3    3    0    0  0.21998908001E+02 -0.13414256657E+02 -0.28157135261E+02  0.89142948595E+02  0.80558964636E+02 0.  0.
          6    2    1    2  501    0 -0.20042669379E+02  0.17249370978E+03 -0.19411954540E+03  0.31282941035E+03  0.17327450351E+03 0.  0.
         24    2    5    5    0    0 -0.43750961736E+02  0.94701359325E+02 -0.19034122790E+03  0.23128127366E+03  0.79867079541E+02 0.  0.
          5    1    5    5  501    0  0.23708292357E+02  0.77792350454E+02 -0.37783174995E+01  0.81548136697E+02  0.47000000000E+01 0. -1.
        -11    1    6    6    0    0 -0.47774056523E+02  0.17033860054E+02 -0.99612650076E+02  0.11178189889E+03  0.00000000000E+00 0.  1.
         12    1    6    6    0    0  0.40230947873E+01  0.77667499271E+02 -0.90728577825E+02  0.11949937476E+03  0.00000000000E+00 0. -1.
         -5    1    3    3    0  503 -0.19562386225E+01 -0.15907945312E+03 -0.33320376428E+02  0.16261130576E+03  0.47000000000E+01 0.  1.
         11    1    4    4    0    0  0.54862436275E+01  0.19472390802E+02  0.20058328773E+02  0.28488759640E+02  0.00000000000E+00 0. -1.
        -12    1    4    4    0    0  0.16512664374E+02 -0.32886647459E+02 -0.48215464034E+02  0.60654188955E+02  0.00000000000E+00 0.  1.
</event>
<event>
12    1  0.8494789E-002  0.1991070E+03  0.7818608E-02  0.1151257E+00
         21   -1    0    0  501  502  0.00000000000E+00  0.00000000000E+00  0.12414107517E+03  0.12414107517E+03  0.00000000000E+00 0. -1.
         21   -1    0    0  502  503 -0.00000000000E+00 -0.00000000000E+00 -0.16034245425E+04  0.16034245425E+04  0.00000000000E+00 0. -1.
         -6    2    1    2    0  503 -0.92606541753E+02  0.29289653848E+02 -0.15156436034E+04  0.15286658041E+04  0.17380952986E+03 0.  0.
        -24    2    3    3    0    0 -0.10893137949E+03 -0.20972219605E+02 -0.12660170831E+04  0.12734634415E+04  0.81265014762E+02 0.  0.
          6    2    1    2  501    0  0.92606541753E+02 -0.29289653848E+02  0.36360135991E+02  0.19889981365E+03  0.16972100926E+03 0.  0.
         24    2    5    5    0    0  0.31811350003E+02  0.40257514381E+02  0.43382646876E+02  0.10614061137E+03  0.82165356930E+02 0.  0.
          5    1    5    5  501    0  0.60795191750E+02 -0.69547168229E+02 -0.70225108853E+01  0.92759202281E+02  0.47000000000E+01 0. -1.
        -11    1    6    6    0    0  0.84238185386E+01  0.51594731423E+02 -0.36492224566E+01  0.52405093778E+02  0.00000000000E+00 0.  1.
         12    1    6    6    0    0  0.23387531465E+02 -0.11337217041E+02  0.47031869333E+02  0.53735517595E+02  0.00000000000E+00 0. -1.
         -5    1    3    3    0  503  0.16324837737E+02  0.50261873453E+02 -0.24962652023E+03  0.25520236255E+03  0.47000000000E+01 0.  1.
         13    1    4    4    0    0 -0.40483555294E+02 -0.26902286087E+01 -0.15606909179E+03  0.16125668045E+03  0.00000000000E+00 0. -1.
        -14    1    4    4    0    0 -0.68447824197E+02 -0.18281990996E+02 -0.11099479913E+04  0.11122067611E+04  0.00000000000E+00 0.  1.
</event>
<event>
12    1  0.8494789E-002  0.1753679E+03  0.7818608E-02  0.1172404E+00
         21   -1    0    0  503  502  0.00000000000E+00  0.00000000000E+00  0.49898451320E+03  0.49898451320E+03  0.00000000000E+00 0.  1.
         21   -1    0    0  501  503 -0.00000000000E+00 -0.00000000000E+00 -0.93785132449E+02  0.93785132449E+02  0.00000000000E+00 0.  1.
          6    2    1    2  501    0 -0.15598491734E+01  0.31764455640E+02  0.28843608755E+02  0.17756177722E+03  0.17229282397E+03 0.  0.
         24    2    3    3    0    0  0.49010096499E+02 -0.21955154290E+02  0.37411990677E+02  0.10313985125E+03  0.79712944433E+02 0.  0.
         -6    2    1    2    0  502  0.15598491734E+01 -0.31764455640E+02  0.37635577200E+03  0.41520786844E+03  0.17246012038E+03 0.  0.
        -24    2    5    5    0    0  0.34387674386E+02 -0.67510754337E+02  0.16727507555E+03  0.20051671443E+03  0.80534388715E+02 0.  0.
          5    1    3    3  501    0 -0.50569945672E+02  0.53719609931E+02 -0.85683819222E+01  0.74421925970E+02  0.47000000000E+01 0. -1.
        -13    1    4    4    0    0  0.24067026880E+02 -0.19768281845E+02 -0.22356697672E+02  0.38338344783E+02  0.00000000000E+00 0.  1.
         14    1    4    4    0    0  0.24943069619E+02 -0.21868724455E+01  0.59768688349E+02  0.64801506465E+02  0.00000000000E+00 0. -1.
         -5    1    5    5    0  502 -0.32827825213E+02  0.35746298697E+02  0.20908069645E+03  0.21469115400E+03  0.47000000000E+01 0.  1.
         11    1    6    6    0    0  0.60792386347E+02 -0.42484781762E+02  0.11022213310E+03  0.13285175778E+03  0.00000000000E+00 0. -1.
        -12    1    6    6    0    0 -0.26404711961E+02 -0.25025972575E+02  0.57052942447E+02  0.67664956653E+02  0.00000000000E+00 0.  1.
</event>
<event>
12    1  0.8494789E-002  0.4853614E+03  0.7818608E-02  0.1017687E+00
         21   -1    0    0  503  502  0.00000000000E+00  0.00000000000E+00  0.61857031337E+03  0.61857031337E+03  0.00000000000E+00 0. -1.
         21   -1    0    0  501  503 -0.00000000000E+00 -0.00000000000E+00 -0.42527983602E+03  0.42527983602E+03  0.00000000000E+00 0.  1.
          6    2    1    2  501    0 -0.41005192543E+03 -0.19490295291E+03  0.26567093236E+03  0.55312153716E+03  0.17097557710E+03 0.  0.
         24    2    3    3    0    0 -0.24386002692E+03 -0.16593130929E+03  0.11395871801E+03  0.32619029372E+03  0.80078749833E+02 0.  0.
         -6    2    1    2    0  502  0.41005192543E+03  0.19490295291E+03 -0.72380455020E+02  0.49072861223E+03  0.17159807108E+03 0.  0.
        -24    2    5    5    0    0  0.10441230917E+03  0.22796790092E+02 -0.36494294602E+02  0.13810131208E+03  0.79489086767E+02 0.  0.
          5    1    3    3  501    0 -0.16619189851E+03 -0.28971643618E+02  0.15171221436E+03  0.22693124344E+03  0.47000000000E+01 0. -1.
        -11    1    4    4    0    0 -0.55234090207E+02 -0.20404337738E+02 -0.64807928626E+01  0.59238014785E+02  0.00000000000E+00 0.  1.
         12    1    4    4    0    0 -0.18862593671E+03 -0.14552697155E+03  0.12043951087E+03  0.26695227893E+03  0.00000000000E+00 0. -1.
         -5    1    5    5    0  502  0.30563961626E+03  0.17210616282E+03 -0.35886160418E+02  0.35262730016E+03  0.47000000000E+01 0.  1.
         11    1    6    6    0    0  0.54930209316E+02  0.46479571431E+02 -0.41415209136E+02  0.83023478629E+02  0.00000000000E+00 0. -1.
        -12    1    6    6    0    0  0.49482099851E+02 -0.23682781338E+02  0.49209145342E+01  0.55077833449E+02  0.00000000000E+00 0.  1.
</event>
<event>
12    1  0.8494789E-002  0.1877290E+03  0.7818608E-02  0.1160594E+00
         21   -1    0    0  501  502  0.00000000000E+00  0.00000000000E+00  0.31125216291E+03  0.31125216291E+03  0.00000000000E+00 0. -1.
         21   -1    0    0  502  503 -0.00000000000E+00 -0.00000000000E+00 -0.23816500774E+03  0.23816500774E+03  0.00000000000E+00 0. -1.
         -6    2    1    2    0  503 -0.19935659968E+02 -0.73373389378E+02 -0.16255167063E+03  0.24832483687E+03  0.17164234377E+03 0.  0.
        -24    2    3    3    0    0 -0.74888293952E+02 -0.25374735757E+02 -0.95113432167E+02  0.14885791403E+03  0.82824995055E+02 0.  0.
          6    2    1    2  501    0  0.19935659968E+02  0.73373389378E+02  0.23563882581E+03  0.30109233378E+03  0.17131798629E+03 0.  0.
         24    2    5    5    0    0  0.58196169391E+02 -0.76313735843E+01  0.12892188279E+03  0.16167843873E+03  0.77936087248E+02 0.  0.
          5    1    5    5  501    0 -0.38260509423E+02  0.81004762963E+02  0.10671694302E+03  0.13941389504E+03  0.47000000000E+01 0. -1.
        -13    1    6    6    0    0  0.54983003325E+02  0.10904134415E+02  0.35428982299E+02  0.66311715321E+02  0.00000000000E+00 0.  1.
         14    1    6    6    0    0  0.32131660656E+01 -0.18535507999E+02  0.93492900489E+02  0.95366723414E+02  0.00000000000E+00 0. -1.
         -5    1    3    3    0  503  0.54952633985E+02 -0.47998653621E+02 -0.67438238466E+02  0.99466922837E+02  0.47000000000E+01 0.  1.
         11    1    4    4    0    0 -0.73482884534E+02 -0.11140496062E+02 -0.26712121047E+02  0.78977100369E+02  0.00000000000E+00 0. -1.
        -12    1    4    4    0    0 -0.14054094186E+01 -0.14234239695E+02 -0.68401311121E+02  0.69880813664E+02  0.00000000000E+00 0.  1.
</event>
<event>
12    1  0.8494789E-002  0.1866121E+03  0.7818608E-02  0.1161899E+00
         21   -1    0    0  501  502  0.00000000000E+00  0.00000000000E+00  0.20967064087E+04  0.20967064087E+04  0.00000000000E+00 0. -1.
         21   -1    0    0  502  503 -0.00000000000E+00 -0.00000000000E+00 -0.62993460509E+02  0.62993460509E+02  0.00000000000E+00 0. -1.
         -6    2    1    2    0  503  0.49090349782E+02  0.52725269595E+02  0.87848630320E+02  0.20490780405E+03  0.17052861876E+03 0.  0.
        -24    2    3    3    0    0  0.47414423519E+02  0.28707464526E+02  0.12552461939E+03  0.15994966973E+03  0.82190149638E+02 0.  0.
          6    2    1    2  501    0 -0.49090349782E+02 -0.52725269595E+02  0.19458643179E+04  0.19547920651E+04  0.17214603670E+03 0.  0.
         24    2    5    5    0    0 -0.76955512582E+02 -0.29222132548E+02  0.76948461648E+03  0.77783830371E+03  0.78420455044E+02 0.  0.
          5    1    5    5  501    0  0.27865162800E+02 -0.23503137047E+02  0.11763797014E+04  0.11769537614E+04  0.47000000000E+01 0. -1.
        -13    1    6    6    0    0 -0.23225937751E+02 -0.49847385991E+02  0.43125514923E+03  0.43474729420E+03  0.00000000000E+00 0.  1.
         14    1    6    6    0    0 -0.53729574831E+02  0.20625253443E+02  0.33822946725E+03  0.34309100951E+03  0.00000000000E+00 0. -1.
         -5    1    3    3    0  503  0.16759262625E+01  0.24017805069E+02 -0.37675989068E+02  0.44958134318E+02  0.47000000000E+01 0.  1.
         11    1    4    4    0    0  0.63689191942E+02  0.31489893907E+02  0.61943976033E+02  0.94260186480E+02  0.00000000000E+00 0. -1.
        -12    1    4    4    0    0 -0.16274768422E+02 -0.27824293812E+01  0.63580643354E+02  0.65689483251E+02  0.00000000000E+00 0.  1.
</event>
<event>
12    1  0.8494789E-002  0.1931244E+03  0.7818608E-02  0.1155748E+00
         21   -1    0    0  503  502  0.00000000000E+00  0.00000000000E+00  0.18626446721E+04  0.18626446721E+04  0.00000000000E+00 0. -1.
         21   -1    0    0  501  503 -0.00000000000E+00 -0.00000000000E+00 -0.23954432786E+02  0.23954432786E+02  0.00000000000E+00 0. -1.
          6    2    1    2  501    0 -0.43928340149E+02 -0.74573991941E+02  0.13024915587E+04  0.13166815104E+04  0.17226421606E+03 0.  0.
         24    2    3    3    0    0 -0.30502374634E+02 -0.13385327658E+02  0.11261192277E+04  0.11294554483E+04  0.80097022188E+02 0.  0.
         -6    2    1    2    0  502  0.43928340149E+02  0.74573991941E+02  0.53619868060E+03  0.56991759442E+03  0.17264431648E+03 0.  0.
        -24    2    5    5    0    0  0.62110710177E+02  0.11027849639E+03  0.36736268114E+03  0.39632872689E+03  0.78115511751E+02 0.  0.
          5    1    3    3  501    0 -0.13425965515E+02 -0.61188664283E+02  0.17637233103E+03  0.18722606213E+03  0.47000000000E+01 0. -1.
        -13    1    4    4    0    0 -0.19136769486E+02  0.32198638807E+02  0.37417649913E+03  0.37604656731E+03  0.00000000000E+00 0.  1.
         14    1    4    4    0    0 -0.11365605148E+02 -0.45583966465E+02  0.75194272853E+03  0.75340888100E+03  0.00000000000E+00 0. -1.
         -5    1    5    5    0  502 -0.18182370028E+02 -0.35704504453E+02  0.16883599946E+03  0.17358886753E+03  0.47000000000E+01 0.  1.
         11    1    6    6    0    0  0.56188126602E+02  0.11140094019E+03  0.36945008191E+03  0.38994953272E+03  0.00000000000E+00 0. -1.
        -12    1    6    6    0    0  0.59225835750E+01 -0.11224437941E+01 -0.20874007679E+01  0.63791941685E+01  0.00000000000E+00 0.  1.
</event>
<event>
12    1  0.8494789E-002  0.2076940E+03  0.7818608E-02  0.1143650E+00
         21   -1    0    0  503  502  0.00000000000E+00  0.00000000000E+00  0.93059431452E+02  0.93059431452E+02  0.00000000000E+00 0.  1.
         21   -1    0    0  501  503 -0.00000000000E+00 -0.00000000000E+00 -0.94818574726E+03  0.94818574726E+03  0.00000000000E+00 0.  1.
          6    2    1    2  501    0 -0.83494652109E+02 -0.82046203615E+02 -0.80020155768E+03  0.82641148830E+03  0.17008961937E+03 0.  0.
         24    2    3    3    0    0 -0.10387918064E+03 -0.10338160624E+03 -0.55382736230E+03  0.57823199164E+03  0.78414592090E+02 0.  0.
         -6    2    1    2    0  502  0.83494652109E+02  0.82046203615E+02 -0.54924758132E+02  0.21483369042E+03  0.17156295936E+03 0.  0.
        -24    2    5    5    0    0  0.23000682779E+02  0.32380142485E+02  0.34213181296E+02  0.96115957123E+02  0.80561966235E+02 0.  0.
          5    1    3    3  501    0  0.20384528526E+02  0.21335402624E+02 -0.24637419538E+03  0.24817949665E+03  0.47000000000E+01 0. -1.
        -13    1    4    4    0    0 -0.20200162685E+02 -0.64346658406E+02 -0.31582610982E+03  0.32294685424E+03  0.00000000000E+00 0.  1.
         14    1    4    4    0    0 -0.83679017950E+02 -0.39034947833E+02 -0.23800125248E+03  0.25528513740E+03  0.00000000000E+00 0. -1.
         -5    1    5    5    0  502  0.60493969331E+02  0.49666061130E+02 -0.89137939428E+02  0.11871773330E+03  0.47000000000E+01 0.  1.
         13    1    6    6    0    0 -0.11056356345E+02 -0.18698739528E+02  0.26462981997E+02  0.34237045605E+02  0.00000000000E+00 0. -1.
        -14    1    6    6    0    0  0.34057039124E+02  0.51078882013E+02  0.77501992987E+01  0.61878911519E+02  0.00000000000E+00 0.  1.
</event>
<event>
12    1  0.8494789E-002  0.1786737E+03  0.7818608E-02  0.1169682E+00
         21   -1    0    0  503  502  0.00000000000E+00  0.00000000000E+00  0.92244803547E+03  0.92244803547E+03  0.00000000000E+00 0. -1.
         21   -1    0    0  501  503 -0.00000000000E+00 -0.00000000000E+00 -0.36555350097E+02  0.36555350097E+02  0.00000000000E+00 0. -1.
          6    2    1    2  501    0  0.30296430750E+02  0.32844835602E+02  0.31705367415E+03  0.36276339243E+03  0.17052152255E+03 0.  0.
         24    2    3    3    0    0  0.81009500617E+02  0.30980649783E+01  0.23199510070E+03  0.25925621039E+03  0.82582798914E+02 0.  0.
         -6    2    1    2    0  502 -0.30296430750E+02 -0.32844835602E+02  0.56883901123E+03  0.59623999314E+03  0.17299610338E+03 0.  0.
        -24    2    5    5    0    0 -0.97483117295E+01  0.40817495489E+02  0.20034722832E+03  0.21986697566E+03  0.80258193171E+02 0.  0.
          5    1    3    3  501    0 -0.50713069867E+02  0.29746770624E+02  0.85058573446E+02  0.10350718204E+03  0.47000000000E+01 0. -1.
        -11    1    4    4    0    0  0.69109375000E+02  0.18420465151E+02  0.22864243384E+03  0.23956790645E+03  0.00000000000E+00 0.  1.
         12    1    4    4    0    0  0.11900125617E+02 -0.15322400172E+02  0.33526668640E+01  0.19688303935E+02  0.00000000000E+00 0. -1.
         -5    1    5    5    0  502 -0.20548119020E+02 -0.73662331091E+02  0.36849178291E+03  0.37637301748E+03  0.47000000000E+01 0.  1.
         13    1    6    6    0    0  0.18497902988E+02 -0.16918684343E+02  0.41156649311E+02  0.48190082769E+02  0.00000000000E+00 0. -1.
        -14    1    6    6    0    0 -0.28246214718E+02  0.57736179831E+02  0.15919057901E+03  0.17167689289E+03  0.00000000000E+00 0.  1.
</event>
<event>
12    1  0.8494789E-002  0.1795130E+03  0.7818608E-02  0.1168834E+00
         21   -1    0    0  501  502  0.00000000000E+00  0.00000000000E+00  0.98362489372E+02  0.98362489372E+02  0.00000000000E+00 0.  1.
         21   -1    0    0  502  503 -0.00000000000E+00 -0.00000000000E+00 -0.42306719190E+03  0.42306719190E+03  0.00000000000E+00 0.  1.
         -6    2    1    2    0  503  0.29945361066E+02 -0.36616069148E+02 -0.28965342651E+03  0.34076974118E+03  0.17316884202E+03 0.  0.
        -24    2    3    3    0    0  0.49594127949E+02 -0.76941546104E+02 -0.15046933499E+03  0.19446007143E+03  0.82426449407E+02 0.  0.
          6    2    1    2  501    0 -0.29945361066E+02  0.36616069148E+02 -0.35051276017E+02  0.18065994009E+03  0.17079801180E+03 0.  0.
         24    2    5    5    0    0 -0.33689946211E+02 -0.38095077676E+02  0.98683417353E+01  0.93277794109E+02  0.77570066948E+02 0.  0.
          5    1    5    5  501    0  0.37445851447E+01  0.74711146825E+02 -0.44919617752E+02  0.87382145984E+02  0.47000000000E+01 0. -1.
        -11    1    6    6    0    0 -0.19706384366E+02 -0.31279269619E+02 -0.31822553067E+02  0.48779187943E+02  0.00000000000E+00 0.  1.
         12    1    6    6    0    0 -0.13983561845E+02 -0.68158080572E+01  0.41690894802E+02  0.44498606166E+02  0.00000000000E+00 0. -1.
         -5    1    3    3    0  503 -0.19648766883E+02  0.40325476956E+02 -0.13918409152E+03  0.14630966976E+03  0.47000000000E+01 0.  1.
         11    1    4    4    0    0 -0.20508744653E+02 -0.19619059429E+02 -0.16725631415E+02  0.32943327797E+02  0.00000000000E+00 0. -1.
        -12    1    4    4    0    0  0.70102872602E+02 -0.57322486675E+02 -0.13374370358E+03  0.16151674363E+03  0.00000000000E+00 0.  1.
</event>
<event>
12    1  0.8494789E-002  0.2216973E+03  0.7818608E-02  0.1132678E+00
         21   -1    0    0  503  502  0.00000000000E+00  0.00000000000E+00  0.24251579808E+02  0.24251579808E+02  0.00000000000E+00 0. -1.
         21   -1    0    0  501  503 -0.00000000000E+00 -0.00000000000E+00 -0.27134318639E+04  0.27134318639E+04  0.00000000000E+00 0. -1.
          6    2    1    2  501    0 -0.12435311277E+03 -0.64928702694E+02 -0.20352321832E+04  0.20472712943E+04  0.17166909948E+03 0.  0.
         24    2    3    3    0    0 -0.96523561240E+02 -0.86875868868E+02 -0.10068587689E+04  0.10182765754E+04  0.79109981724E+02 0.  0.
         -6    2    1    2    0  502  0.12435311277E+03  0.64928702694E+02 -0.65394810089E+03  0.69041214944E+03  0.17129326999E+03 0.  0.
        -24    2    5    5    0    0  0.67273657735E+02  0.77190013951E+02 -0.25288824963E+03  0.28509807587E+03  0.82730905859E+02 0.  0.
          5    1    3    3  501    0 -0.27829551527E+02  0.21947166173E+02 -0.10283734144E+04  0.10289947188E+04  0.47000000000E+01 0. -1.
        -11    1    4    4    0    0 -0.66113820249E+02 -0.42492853179E+02 -0.32779897086E+03  0.33708877925E+03  0.00000000000E+00 0.  1.
         12    1    4    4    0    0 -0.30409740990E+02 -0.44383015688E+02 -0.67905979799E+03  0.68118779619E+03  0.00000000000E+00 0. -1.
         -5    1    5    5    0  502  0.57079455031E+02 -0.12261311257E+02 -0.40105985126E+03  0.40531407357E+03  0.47000000000E+01 0.  1.
         11    1    6    6    0    0 -0.18929259595E+02  0.22041361788E+02 -0.63470605239E+02  0.69804414099E+02  0.00000000000E+00 0. -1.
        -12    1    6    6    0    0  0.86202917330E+02  0.55148652163E+02 -0.18941764439E+03  0.21529366177E+03  0.00000000000E+00 0.  1.
</event>
<event>
12    1  0.8494789E-002  0.2407814E+03  0.7818608E-02  0.1119344E+00
         21   -1    0    0  501  502  0.00000000000E+00  0.00000000000E+00  0.59372994918E+03  0.59372994918E+03  0.00000000000E+00 0.  1.
         21   -1    0    0  502  503 -0.00000000000E+00 -0.00000000000E+00 -0.12121619205E+03  0.12121619205E+03  0.00000000000E+00 0.  1.
         -6    2    1    2    0  503  0.49735177332E+02 -0.16035226098E+03  0.77885572450E+02  0.25266150244E+03  0.17200359575E+03 0.  0.
        -24    2    3    3    0    0  0.35449552975E+02 -0.91332122562E+02 -0.21527221751E+02  0.13070719861E+03  0.83801688970E+02 0.  0.
          6    2    1    2  501    0 -0.49735177332E+02  0.16035226098E+03  0.39462818467E+03  0.46228463879E+03  0.17259561888E+03 0.  0.
         24    2    5    5    0    0 -0.43711746054E+02  0.10206342865E+03  0.11711461463E+03  0.17861274865E+03  0.76544240864E+02 0.  0.
          5    1    5    5  501    0 -0.60234312776E+01  0.58288832334E+02  0.27751357004E+03  0.28367189014E+03  0.47000000000E+01 0. -1.
        -11    1    6    6    0    0 -0.63240943180E+02  0.70437305512E+02  0.99979279555E+02  0.13768328600E+03  0.00000000000E+00 0.  1.
         12    1    6    6    0    0  0.19529197126E+02  0.31626123136E+02  0.17135335075E+02  0.40929462654E+02  0.00000000000E+00 0. -1.
         -5    1    3    3    0  503  0.14285624357E+02 -0.69020138420E+02  0.99412794201E+02  0.12195430383E+03  0.47000000000E+01 0.  1.
         13    1    4    4    0    0  0.10092147869E+02 -0.30085760651E+01 -0.36156098462E+02  0.37658550617E+02  0.00000000000E+00 0. -1.
        -14    1    4    4    0    0  0.25357405106E+02 -0.88323546497E+02  0.14628876711E+02  0.93048647993E+02  0.00000000000E+00 0.  1.
</event>
<event>
12    1  0.8494789E-002  0.1860559E+03  0.7818608E-02  0.1163369E+00
         21   -1    0    0  501  502  0.00000000000E+00  0.00000000000E+00  0.36916263689E+02  0.36916263689E+02  0.00000000000E+00 0. -1.
         21   -1    0    0  502  503 -0.00000000000E+00 -0.00000000000E+00 -0.94167456911E+03  0.94167456911E+03  0.00000000000E+00 0.  1.
         -6    2    1    2    0  503  0.62790523382E+02 -0.49602588005E+02 -0.35614521648E+03  0.39928684976E+03  0.16182554375E+03 0.  0.
        -24    2    3    3    0    0  0.86597292979E+02 -0.71101098736E+02 -0.21825033087E+03  0.25763220735E+03  0.78655514388E+02 0.  0.
          6    2    1    2  501    0 -0.62790523382E+02  0.49602588005E+02 -0.54861308895E+03  0.57930398304E+03  0.16796939256E+03 0.  0.
         24    2    5    5    0    0 -0.66024045145E+01  0.79008910408E+02 -0.43546090833E+03  0.44950666998E+03  0.78383952456E+02 0.  0.
          5    1    5    5  501    0 -0.56188118867E+02 -0.29406322403E+02 -0.11315218061E+03  0.12979731306E+03  0.47000000000E+01 0. -1.
        -11    1    6    6    0    0 -0.39325627060E+02  0.64781313171E+02 -0.29164842764E+03  0.30133358397E+03  0.00000000000E+00 0.  1.
         12    1    6    6    0    0  0.32723222545E+02  0.14227597236E+02 -0.14381248069E+03  0.14817308601E+03  0.00000000000E+00 0. -1.
         -5    1    3    3    0  503 -0.23806769598E+02  0.21498510732E+02 -0.13789488560E+03  0.14165464242E+03  0.47000000000E+01 0.  1.
         11    1    4    4    0    0  0.77572905091E+02 -0.44188419538E+02 -0.20981701704E+03  0.22802050931E+03  0.00000000000E+00 0. -1.
        -12    1    4    4    0    0  0.90243878883E+01 -0.26912679198E+02 -0.84333138285E+01  0.29611698035E+02  0.00000000000E+00 0.  1.
</event>
<event>
12    1  0.8494789E-002  0.2690594E+03  0.7818608E-02  0.1102067E+00
         21   -1    0    0  503  502  0.00000000000E+00  0.00000000000E+00  0.48187391034E+03  0.48187391034E+03  0.00000000000E+00 0. -1.
         21   -1    0    0  501  503 -0.00000000000E+00 -0.00000000000E+00 -0.19537721749E+03  0.19537721749E+03  0.00000000000E+00 0.  1.
          6    2    1    2  501    0  0.17713527798E+03  0.10258535336E+03 -0.21595123042E+02  0.26821133528E+03  0.17196019774E+03 0.  0.
         24    2    3    3    0    0  0.16861267188E+03  0.60442762456E+02  0.28374178460E+02  0.20212310732E+03  0.89247385714E+02 0.  0.
         -6    2    1    2    0  502 -0.17713527798E+03 -0.10258535336E+03  0.30809181589E+03  0.40903979254E+03  0.17462051264E+03 0.  0.
        -24    2    5    5    0    0 -0.12151587572E+03 -0.12532671974E+03  0.28587707895E+03  0.34480372642E+03  0.81798598723E+02 0.  0.
          5    1    3    3  501    0  0.85226060968E+01  0.42142590902E+02 -0.49969301503E+02  0.66088227963E+02  0.47000000000E+01 0. -1.
        -11    1    4    4    0    0  0.10817895629E+03  0.49627485651E+02 -0.24011404120E+02  0.12141713818E+03  0.00000000000E+00 0.  1.
         12    1    4    4    0    0  0.60433715597E+02  0.10815276805E+02  0.52385582580E+02  0.80705969144E+02  0.00000000000E+00 0. -1.
         -5    1    5    5    0  502 -0.55619402259E+02  0.22741366386E+02  0.22214736942E+02  0.64236066117E+02  0.47000000000E+01 0.  1.
         13    1    6    6    0    0 -0.52712788913E+02 -0.10691939073E+03  0.15209567751E+03  0.19324463601E+03  0.00000000000E+00 0. -1.
        -14    1    6    6    0    0 -0.68803086808E+02 -0.18407329010E+02  0.13378140144E+03  0.15155909041E+03  0.00000000000E+00 0.  1.
</event>
<event>
12    1  0.8494789E-002  0.2122583E+03  0.7818608E-02  0.1140523E+00
         21   -1    0    0  503  502  0.00000000000E+00  0.00000000000E+00  0.46066227642E+02  0.46066227642E+02  0.00000000000E+00 0. -1.
         21   -1    0    0  501  503 -0.00000000000E+00 -0.00000000000E+00 -0.14045672139E+04  0.14045672139E+04  0.00000000000E+00 0. -1.
          6    2    1    2  501    0 -0.10754787178E+03  0.41584242610E+02 -0.10909686350E+04  0.11114252823E+04  0.17820718732E+03 0.  0.
         24    2    3    3    0    0 -0.85022542759E+02  0.88122770392E+02 -0.94781124246E+03  0.95914477122E+03  0.81351615699E+02 0.  0.
         -6    2    1    2    0  502  0.10754787178E+03 -0.41584242610E+02 -0.26753235130E+03  0.33920815929E+03  0.17376081946E+03 0.  0.
        -24    2    5    5    0    0  0.53882819336E+01  0.27611954061E+02 -0.14569794941E+03  0.16574229257E+03  0.73831981535E+02 0.  0.
          5    1    3    3  501    0 -0.22525329016E+02 -0.46538527781E+02 -0.14315739251E+03  0.15228051105E+03  0.47000000000E+01 0. -1.
        -11    1    4    4    0    0 -0.10481924363E+02  0.18867662912E+01 -0.37238708889E+03  0.37253935979E+03  0.00000000000E+00 0.  1.
         12    1    4    4    0    0 -0.74540618397E+02  0.86236004100E+02 -0.57542415357E+03  0.58660541142E+03  0.00000000000E+00 0. -1.
         -5    1    5    5    0  502  0.10215958984E+03 -0.69196196671E+02 -0.12183440190E+03  0.17346586672E+03  0.47000000000E+01 0.  1.
         11    1    6    6    0    0  0.36296155614E+02  0.29835630205E+02 -0.10051405457E+03  0.11095337267E+03  0.00000000000E+00 0. -1.
        -12    1    6    6    0    0 -0.30907873681E+02 -0.22236761442E+01 -0.45183894837E+02  0.54788919899E+02  0.00000000000E+00 0.  1.
</event>
<event>
12    1  0.8494789E-002  0.1899490E+03  0.7818608E-02  0.1160009E+00
         21   -1    0    0  501  502  0.00000000000E+00  0.00000000000E+00  0.65040519381E+03  0.65040519381E+03  0.00000000000E+00 0.  1.
         21   -1    0    0  502  503 -0.00000000000E+00 -0.00000000000E+00 -0.20454062143E+03  0.20454062143E+03  0.00000000000E+00 0.  1.
         -6    2    1    2    0  503  0.54073804382E+02  0.35853582987E+02 -0.14326880891E+03  0.23792134215E+03  0.17852494982E+03 0.  0.
        -24    2    3    3    0    0  0.77109384304E+02  0.41384911612E+02 -0.30482989834E+02  0.12257852909E+03  0.80235372928E+02 0.  0.
          6    2    1    2  501    0 -0.54073804382E+02 -0.35853582987E+02  0.58913338129E+03  0.61702447310E+03  0.17155641556E+03 0.  0.
         24    2    5    5    0    0 -0.86392661471E+02 -0.39492921613E+02  0.55921154560E+03  0.57258170586E+03  0.78159288218E+02 0.  0.
          5    1    5    5  501    0  0.32318857089E+02  0.36393386259E+01  0.29921835684E+02  0.44442767239E+02  0.47000000000E+01 0. -1.
        -13    1    6    6    0    0 -0.54665409835E+02 -0.56587799776E+02  0.27305468010E+03  0.28416429128E+03  0.00000000000E+00 0.  1.
         14    1    6    6    0    0 -0.31727251635E+02  0.17094878164E+02  0.28615686551E+03  0.28841741458E+03  0.00000000000E+00 0. -1.
         -5    1    3    3    0  503 -0.23035579922E+02 -0.55313286248E+01 -0.11278581907E+03  0.11534281305E+03  0.47000000000E+01 0.  1.
         13    1    4    4    0    0  0.88378325420E+02  0.35785984905E+02 -0.43208673355E+02  0.10468215976E+03  0.00000000000E+00 0. -1.
        -14    1    4    4    0    0 -0.11268941116E+02  0.55989267068E+01  0.12725683521E+02  0.17896369331E+02  0.00000000000E+00 0.  1.
</event>
<event>
12    1  0.8494789E-002  0.1991057E+03  0.7818608E-02  0.1150554E+00
         21   -1    0    0  503  502  0.00000000000E+00  0.00000000000E+00  0.20123432002E+03  0.20123432002E+03  0.00000000000E+00 0. -1.
         21   -1    0    0  501  503 -0.00000000000E+00 -0.00000000000E+00 -0.51734055929E+03  0.51734055929E+03  0.00000000000E+00 0. -1.
          6    2    1    2  501    0 -0.95456752546E+02  0.27382872475E+02 -0.44085308895E+03  0.48361775880E+03  0.17225817042E+03 0.  0.
         24    2    3    3    0    0 -0.93052113752E+01 -0.18599600396E+02 -0.30297854696E+03  0.31459718258E+03  0.82114890693E+02 0.  0.
         -6    2    1    2    0  502  0.95456752546E+02 -0.27382872475E+02  0.12474684968E+03  0.23495712050E+03  0.17257247364E+03 0.  0.
        -24    2    5    5    0    0  0.80394112406E+02  0.45871560747E+02  0.93411127969E+02  0.15373450930E+03  0.79631947907E+02 0.  0.
          5    1    3    3  501    0 -0.86151541171E+02  0.45982472872E+02 -0.13787454199E+03  0.16902057622E+03  0.47000000000E+01 0. -1.
        -13    1    4    4    0    0  0.22233122061E+01  0.31776395960E+02 -0.91141411454E+02  0.96547601416E+02  0.00000000000E+00 0.  1.
         14    1    4    4    0    0 -0.11528523581E+02 -0.50375996356E+02 -0.21183713550E+03  0.21804958116E+03  0.00000000000E+00 0. -1.
         -5    1    5    5    0  502  0.15062640140E+02 -0.73254433223E+02  0.31335721714E+02  0.81222611200E+02  0.47000000000E+01 0. -1.
         11    1    6    6    0    0  0.44885480445E+01  0.43602651109E+02  0.20244228301E+02  0.48282160543E+02  0.00000000000E+00 0. -1.
        -12    1    6    6    0    0  0.75905564361E+02  0.22689096389E+01  0.73166899668E+02  0.10545234876E+03  0.00000000000E+00 0.  1.
</event>
<event>
12    1  0.8494789E-002  0.1805541E+03  0.7818608E-02  0.1167427E+00
         21   -1    0    0  503  502  0.00000000000E+00  0.00000000000E+00  0.46042282895E+02  0.46042282895E+02  0.00000000000E+00 0.  1.
         21   -1    0    0  501  503 -0.00000000000E+00 -0.00000000000E+00 -0.74751698501E+03  0.74751698501E+03  0.00000000000E+00 0.  1.
          6    2    1    2  501    0  0.35747494373E+02  0.45042280814E+02 -0.44545415085E+03  0.48065495307E+03  0.17115225091E+03 0.  0.
         24    2    3    3    0    0  0.74867413019E+02  0.24448030139E+02 -0.40549643765E+03  0.42087870327E+03  0.80676429126E+02 0.  0.
         -6    2    1    2    0  502 -0.35747494373E+02 -0.45042280814E+02 -0.25602055127E+03  0.31290431484E+03  0.17045790435E+03 0.  0.
        -24    2    5    5    0    0 -0.65278458339E+02  0.76494435444E+01 -0.22103598028E+03  0.24294356973E+03  0.76451830477E+02 0.  0.
          5    1    3    3  501    0 -0.39119918646E+02  0.20594250675E+02 -0.39957713203E+02  0.59776249800E+02  0.47000000000E+01 0. -1.
        -11    1    4    4    0    0  0.20931761951E+02  0.35509191988E+02 -0.29017623839E+03  0.29308921969E+03  0.00000000000E+00 0.  1.
         12    1    4    4    0    0  0.53935651068E+02 -0.11061161849E+02 -0.11532019925E+03  0.12778948358E+03  0.00000000000E+00 0. -1.
         -5    1    5    5    0  502  0.29530963966E+02 -0.52691724359E+02 -0.34984570988E+02  0.69960745106E+02  0.47000000000E+01 0.  1.
         13    1    6    6    0    0 -0.17272584183E+02  0.16524604036E+02 -0.17233948039E+03  0.17398937095E+03  0.00000000000E+00 0. -1.
        -14    1    6    6    0    0 -0.48005874156E+02 -0.88751604916E+01 -0.48696499893E+02  0.68954198777E+02  0.00000000000E+00 0.  1.
</event>
<event>
12    1  0.8494789E-002  0.2376923E+03  0.7818608E-02  0.1122501E+00
         21   -1    0    0  503  502  0.00000000000E+00  0.00000000000E+00  0.20638074341E+03  0.20638074341E+03  0.00000000000E+00 0.  1.
         21   -1    0    0  501  503 -0.00000000000E+00 -0.00000000000E+00 -0.27435756187E+03  0.27435756187E+03  0.00000000000E+00 0.  1.
          6    2    1    2  501    0  0.55213718037E+02  0.14335527088E+03 -0.76408932184E+02  0.24967165803E+03  0.18137895016E+03 0.  0.
         24    2    3    3    0    0 -0.74032983492E+01  0.96374656395E+02 -0.10749433545E+03  0.16531253775E+03  0.80189274604E+02 0.  0.
         -6    2    1    2    0  502 -0.55213718037E+02 -0.14335527088E+03  0.84321137277E+01  0.23106664724E+03  0.17239897499E+03 0.  0.
        -24    2    5    5    0    0 -0.49946315955E+02 -0.15243075645E+02 -0.25987484824E+02  0.98223586241E+02  0.79028714364E+02 0.  0.
          5    1    3    3  501    0  0.62617016386E+02  0.46980614482E+02  0.31085403269E+02  0.84359120281E+02  0.47000000000E+01 0. -1.
        -11    1    4    4    0    0  0.32446410711E+02  0.36730893144E+02 -0.22024532723E+02  0.53730886097E+02  0.00000000000E+00 0.  1.
         12    1    4    4    0    0 -0.39849709060E+02  0.59643763251E+02 -0.85469802731E+02  0.11158165165E+03  0.00000000000E+00 0. -1.
         -5    1    5    5    0  502 -0.52674020818E+01 -0.12811219523E+03  0.34419598552E+02  0.13284306100E+03  0.47000000000E+01 0.  1.
         11    1    6    6    0    0  0.22908004650E+00 -0.35286291457E+02  0.54610284940E+01  0.35707109582E+02  0.00000000000E+00 0. -1.
        -12    1    6    6    0    0 -0.50175396002E+02  0.20043215812E+02 -0.31448513318E+02  0.62516476660E+02  0.00000000000E+00 0.  1.
</event>
<event>
12    1  0.8494789E-002  0.1821092E+03  0.7818608E-02  0.1167181E+00
         21   -1    0    0  501  502  0.00000000000E+00  0.00000000000E+00  0.98792914788E+03  0.98792914788E+03  0.00000000000E+00 0.  1.
         21   -1    0    0  502  503 -0.00000000000E+00 -0.00000000000E+00 -0.32961230320E+02  0.32961230320E+02  0.00000000000E+00 0.  1.
         -6    2    1    2    0  503  0.23658308725E+02  0.31102786104E+02  0.42540493670E+03  0.46274518391E+03  0.17786693393E+03 0.  0.
        -24    2    3    3    0    0 -0.46516608224E+02 -0.18927001518E+02  0.19556478014E+03  0.21723329787E+03  0.80141725996E+02 0.  0.
          6    2    1    2  501    0 -0.23658308725E+02 -0.31102786104E+02  0.52956298086E+03  0.55814519429E+03  0.17193605886E+03 0.  0.
         24    2    5    5    0    0 -0.75188237383E+02 -0.48730025815E+02  0.38826732157E+03  0.40664401785E+03  0.81116939052E+02 0.  0.
          5    1    5    5  501    0  0.51529928658E+02  0.17627239711E+02  0.14129565929E+03  0.15150117643E+03  0.47000000000E+01 0. -1.
        -13    1    6    6    0    0 -0.19473435842E+02 -0.60747335626E+02  0.21217212781E+03  0.22155465535E+03  0.00000000000E+00 0.  1.
         14    1    6    6    0    0 -0.55714801542E+02  0.12017309811E+02  0.17609519376E+03  0.18508936250E+03  0.00000000000E+00 0. -1.
         -5    1    3    3    0  503  0.70174916949E+02  0.50029787622E+02  0.22984015656E+03  0.24551188604E+03  0.47000000000E+01 0.  1.
         11    1    4    4    0    0  0.20187728776E+02 -0.18872832983E+02  0.50498721718E+02  0.57566041319E+02  0.00000000000E+00 0. -1.
        -12    1    4    4    0    0 -0.66704337000E+02 -0.54168534276E-01  0.14506605843E+03  0.15966725656E+03  0.00000000000E+00 0.  1.
</event>
<event>
12    1  0.8494789E-002  0.1768665E+03  0.7818608E-02  0.1171001E+00
         21   -1    0    0  503  502  0.00000000000E+00  0.00000000000E+00  0.20619121570E+03  0.20619121570E+03  0.00000000000E+00 0.  1.
         21   -1    0    0  501  503 -0.00000000000E+00 -0.00000000000E+00 -0.22708287518E+03  0.22708287518E+03  0.00000000000E+00 0.  1.
          6    2    1    2  501    0  0.40367341126E+02  0.23107147209E+02 -0.13563741682E+03  0.22288842713E+03  0.17064079122E+03 0.  0.
         24    2    3    3    0    0 -0.23028790717E+02  0.18511022818E+02 -0.13419525036E+03  0.15913606454E+03  0.80267917936E+02 0.  0.
         -6    2    1    2    0  502 -0.40367341126E+02 -0.23107147209E+02  0.11474575733E+03  0.21038566375E+03  0.17009431561E+03 0.  0.
        -24    2    5    5    0    0 -0.25986282780E+02  0.51925082212E+02  0.53822671700E+02  0.11255743340E+03  0.80004967148E+02 0.  0.
          5    1    3    3  501    0  0.63396131843E+02  0.45961243914E+01 -0.14421664557E+01  0.63752362593E+02  0.47000000000E+01 0. -1.
        -11    1    4    4    0    0 -0.32845601267E+02  0.26496785803E+02 -0.24671175240E+02  0.48883331190E+02  0.00000000000E+00 0.  1.
         12    1    4    4    0    0  0.98168105499E+01 -0.79857629855E+01 -0.10952407512E+03  0.11025273335E+03  0.00000000000E+00 0. -1.
         -5    1    5    5    0  502 -0.14381058347E+02 -0.75032229421E+02  0.60923085632E+02  0.97828230352E+02  0.47000000000E+01 0.  1.
         13    1    6    6    0    0  0.22505877536E+02  0.43683828919E+02  0.32701620784E+02  0.59027005976E+02  0.00000000000E+00 0. -1.
        -14    1    6    6    0    0 -0.48492160315E+02  0.82412532930E+01  0.21121050916E+02  0.53530427419E+02  0.00000000000E+00 0.  1.
</event>
<event>
12    1  0.8494789E-002  0.2076304E+03  0.7818608E-02  0.1143648E+00
         21   -1    0    0  501  502  0.00000000000E+00  0.00000000000E+00  0.16433032859E+03  0.16433032859E+03  0.00000000000E+00 0. -1.
         21   -1    0    0  502  503 -0.00000000000E+00 -0.00000000000E+00 -0.26164482567E+03  0.26164482567E+03  0.00000000000E+00 0. -1.
         -6    2    1    2    0  503 -0.11108375826E+03 -0.31299824271E+02 -0.57907741419E+02  0.21463828112E+03  0.17145554777E+03 0.  0.
        -24    2    3    3    0    0 -0.10550805084E+03 -0.79267431065E+02 -0.62163673918E+02  0.16593322208E+03  0.79083736733E+02 0.  0.
          6    2    1    2  501    0  0.11108375826E+03  0.31299824271E+02 -0.39406755661E+02  0.21133687314E+03  0.17260098843E+03 0.  0.
         24    2    5    5    0    0  0.46801168315E+02  0.80278515335E+02 -0.45487701437E+02  0.13015663263E+03  0.78972328411E+02 0.  0.
          5    1    5    5  501    0  0.64282589943E+02 -0.48978691064E+02  0.60809457768E+01  0.81180240513E+02  0.47000000000E+01 0. -1.
        -13    1    6    6    0    0 -0.22087401892E+02  0.19964598795E+02 -0.16906978697E+02  0.34238639810E+02  0.00000000000E+00 0.  1.
         14    1    6    6    0    0  0.68888570208E+02  0.60313916541E+02 -0.28580722740E+02  0.95917992817E+02  0.00000000000E+00 0. -1.
         -5    1    3    3    0  503 -0.55757074156E+01  0.47967606795E+02  0.42559324981E+01  0.48705059041E+02  0.47000000000E+01 0.  1.
         13    1    4    4    0    0 -0.11040050207E+03 -0.46041496786E+02 -0.42081524986E+02  0.12680278005E+03  0.00000000000E+00 0. -1.
        -14    1    4    4    0    0  0.48924512290E+01 -0.33225934280E+02 -0.20082148932E+02  0.39130442031E+02  0.00000000000E+00 0.  1.
</event>
<event>
12    1  0.8494789E-002  0.1892610E+03  0.7818608E-02  0.1160378E+00
         21   -1    0    0  503  502  0.00000000000E+00  0.00000000000E+00  0.17743587079E+03  0.17743587079E+03  0.00000000000E+00 0.  1.
         21   -1    0    0  501  503 -0.00000000000E+00 -0.00000000000E+00 -0.19735399627E+03  0.19735399627E+03  0.00000000000E+00 0. -1.
          6    2    1    2  501    0 -0.58984356572E+02  0.31508964299E+02 -0.24845411439E+02  0.19088484182E+03  0.17705298421E+03 0.  0.
         24    2    3    3    0    0 -0.93621964932E+02 -0.22028605079E+02 -0.21986359701E+02  0.12688250261E+03  0.79783693170E+02 0.  0.
         -6    2    1    2    0  502  0.58984356572E+02 -0.31508964299E+02  0.49272859672E+01  0.18390502524E+03  0.17124488608E+03 0.  0.
        -24    2    5    5    0    0 -0.10395920974E+02 -0.61462088144E+02  0.32611293499E+02  0.10328674683E+03  0.75624018377E+02 0.  0.
          5    1    3    3  501    0  0.34637608360E+02  0.53537569379E+02 -0.28590517383E+01  0.64002339213E+02  0.47000000000E+01 0. -1.
        -13    1    4    4    0    0  0.68533445850E+01 -0.22839997323E+02 -0.93452230106E+01  0.25611852780E+02  0.00000000000E+00 0.  1.
         14    1    4    4    0    0 -0.10047530952E+03  0.81139224333E+00 -0.12641136691E+02  0.10127064983E+03  0.00000000000E+00 0. -1.
         -5    1    5    5    0  502  0.69380277546E+02  0.29953123845E+02 -0.27684007532E+02  0.80618278408E+02  0.47000000000E+01 0.  1.
         13    1    6    6    0    0  0.18328967532E+01  0.75082090052E+01 -0.16174223775E+02  0.17925909397E+02  0.00000000000E+00 0. -1.
        -14    1    6    6    0    0 -0.12228817727E+02 -0.68970297150E+02  0.48785517274E+02  0.85360837435E+02  0.00000000000E+00 0.  1.
</event>
<event>
12    1  0.8494789E-002  0.2174027E+03  0.7818608E-02  0.1135960E+00
         21   -1    0    0  501  502  0.00000000000E+00  0.00000000000E+00  0.88315120566E+03  0.88315120566E+03  0.00000000000E+00 0.  1.
         21   -1    0    0  502  503 -0.00000000000E+00 -0.00000000000E+00 -0.12704970540E+03  0.12704970540E+03  0.00000000000E+00 0. -1.
         -6    2    1    2    0  503 -0.12376533940E+03 -0.50679368683E+02 -0.63974104766E+01  0.21749684016E+03  0.17139921520E+03 0.  0.
        -24    2    3    3    0    0 -0.70764986001E+02  0.33417137486E+02  0.24865677050E+02  0.11318610029E+03  0.77899955595E+02 0.  0.
          6    2    1    2  501    0  0.12376533940E+03  0.50679368683E+02  0.76249891075E+03  0.79270407090E+03  0.17055467595E+03 0.  0.
         24    2    5    5    0    0  0.72089156308E+02  0.16834067946E+02  0.20754390137E+03  0.23430181024E+03  0.79640661630E+02 0.  0.
          5    1    5    5  501    0  0.51676183096E+02  0.33845300737E+02  0.55495500937E+03  0.55840226066E+03  0.47000000000E+01 0. -1.
        -13    1    6    6    0    0  0.26172162900E+02 -0.15914048502E+02  0.15231664758E+03  0.15536602003E+03  0.00000000000E+00 0.  1.
         14    1    6    6    0    0  0.45916993408E+02  0.32748116449E+02  0.55227253792E+02  0.78935790209E+02  0.00000000000E+00 0. -1.
         -5    1    3    3    0  503 -0.53000353403E+02 -0.84096506169E+02 -0.31263087526E+02  0.10431073987E+03  0.47000000000E+01 0.  1.
         11    1    4    4    0    0 -0.27987305904E+02 -0.22879731941E+02 -0.48822903115E+01  0.36477502438E+02  0.00000000000E+00 0. -1.
        -12    1    4    4    0    0 -0.42777680097E+02  0.56296869428E+02  0.29747967361E+02  0.76708597849E+02  0.00000000000E+00 0.  1.
</event>
<event>
12    1  0.8494789E-002  0.1968805E+03  0.7818608E-02  0.1152459E+00
         21   -1    0    0  501  502  0.00000000000E+00  0.00000000000E+00  0.21293434972E+03  0.21293434972E+03  0.00000000000E+00 0.  1.
         21   -1    0    0  502  503 -0.00000000000E+00 -0.00000000000E+00 -0.65626596905E+03  0.65626596905E+03  0.00000000000E+00 0.  1.
         -6    2    1    2    0  503  0.54563358736E+02 -0.76376960270E+02 -0.59116396592E+03  0.62299646814E+03  0.17274016482E+03 0.  0.
        -24    2    3    3    0    0  0.10160927909E+02 -0.88006536486E+02 -0.23344745094E+03  0.26231652970E+03  0.80398100003E+02 0.  0.
          6    2    1    2  501    0 -0.54563358736E+02  0.76376960270E+02  0.14783234659E+03  0.24620385062E+03  0.17306453475E+03 0.  0.
         24    2    5    5    0    0 -0.72061700856E+02  0.35067303928E+02  0.16338861152E+03  0.19848837030E+03  0.79241341699E+02 0.  0.
          5    1    5    5  501    0  0.17498342120E+02  0.41309656342E+02 -0.15556264933E+02  0.47715480326E+02  0.47000000000E+01 0. -1.
        -11    1    6    6    0    0 -0.11416073492E+00 -0.18829746245E+02  0.52276789983E+02  0.55564693351E+02  0.00000000000E+00 0.  1.
         12    1    6    6    0    0 -0.71947540121E+02  0.53897050173E+02  0.11111182154E+03  0.14292367695E+03  0.00000000000E+00 0. -1.
         -5    1    3    3    0  503  0.44402430827E+02  0.11629576215E+02 -0.35771651497E+03  0.36067993844E+03  0.47000000000E+01 0.  1.
         13    1    4    4    0    0 -0.22966511081E+02 -0.20503569123E+02 -0.21842182712E+02  0.37748349946E+02  0.00000000000E+00 0. -1.
        -14    1    4    4    0    0  0.33127438990E+02 -0.67502967363E+02 -0.21160526823E+03  0.22456817976E+03  0.00000000000E+00 0.  1.
</event>
<event>
12    1  0.8494789E-002  0.2800232E+03  0.7818608E-02  0.1096621E+00
         21   -1    0    0  501  502  0.00000000000E+00  0.00000000000E+00  0.15078754541E+04  0.15078754541E+04  0.00000000000E+00 0. -1.
         21   -1    0    0  502  503 -0.00000000000E+00 -0.00000000000E+00 -0.13364905999E+03  0.13364905999E+03  0.00000000000E+00 0.  1.
         -6    2    1    2    0  503 -0.20129241029E+03  0.92687644911E+02  0.37469345598E+02  0.27575280066E+03  0.15976864916E+03 0.  0.
        -24    2    3    3    0    0 -0.18151410985E+03  0.11010564353E+03 -0.46957306844E+01  0.22580731536E+03  0.76787166715E+02 0.  0.
          6    2    1    2  501    0  0.20129241029E+03 -0.92687644911E+02  0.13367570485E+04  0.13657717134E+04  0.17118216176E+03 0.  0.
         24    2    5    5    0    0  0.11283829083E+03 -0.76740901621E+01  0.46002208199E+03  0.48048208441E+03  0.80320271282E+02 0.  0.
          5    1    5    5  501    0  0.88454119457E+02 -0.85013554749E+02  0.87673496647E+03  0.88528962897E+03  0.47000000000E+01 0. -1.
        -13    1    6    6    0    0  0.11461932268E+03  0.48518380318E+00  0.45767158934E+03  0.47180621893E+03  0.00000000000E+00 0.  1.
         14    1    6    6    0    0 -0.17810318493E+01 -0.81592739653E+01  0.23504926577E+01  0.86758654797E+01  0.00000000000E+00 0. -1.
         -5    1    3    3    0  503 -0.19778300443E+02 -0.17417998618E+02  0.42165076283E+02  0.49945485303E+02  0.47000000000E+01 0.  1.
         11    1    4    4    0    0 -0.93163482698E+02  0.66321681226E+02 -0.39880360172E+02  0.12111334789E+03  0.00000000000E+00 0. -1.
        -12    1    4    4    0    0 -0.88350627152E+02  0.43783962303E+02  0.35184629487E+02  0.10469396747E+03  0.00000000000E+00 0.  1.
</event>
<event>
12    1  0.8494789E-002  0.1775849E+03  0.7818608E-02  0.1170330E+00
         21   -1    0    0  503  502  0.00000000000E+00  0.00000000000E+00  0.74552126648E+03  0.74552126648E+03  0.00000000000E+00 0. -1.
         21   -1    0    0  501  503 -0.00000000000E+00 -0.00000000000E+00 -0.20575377576E+03  0.20575377576E+03  0.00000000000E+00 0. -1.
          6    2    1    2  501    0  0.45989188816E+02  0.34909631239E+01 -0.15436734975E+03  0.23478388734E+03  0.17078349678E+03 0.  0.
         24    2    3    3    0    0 -0.31722976499E+02  0.12811844917E+02 -0.44946868142E+02  0.10016965603E+03  0.82723928976E+02 0.  0.
         -6    2    1    2    0  502 -0.45989188816E+02 -0.34909631239E+01  0.69413484047E+03  0.71649115490E+03  0.17149112508E+03 0.  0.
        -24    2    5    5    0    0 -0.63117809879E+02 -0.53631185389E+02  0.57539117010E+03  0.58637743233E+03  0.76833147436E+02 0.  0.
          5    1    3    3  501    0  0.77712165316E+02 -0.93208817932E+01 -0.10942048161E+03  0.13461423131E+03  0.47000000000E+01 0. -1.
        -11    1    4    4    0    0 -0.18760999867E+02  0.37015961907E+02 -0.56732775417E+02  0.70290570907E+02  0.00000000000E+00 0.  1.
         12    1    4    4    0    0 -0.12961976632E+02 -0.24204116990E+02  0.11785907275E+02  0.29879085123E+02  0.00000000000E+00 0. -1.
         -5    1    5    5    0  502  0.17128621062E+02  0.50140222265E+02  0.11874367037E+03  0.13011372257E+03  0.47000000000E+01 0.  1.
         13    1    6    6    0    0 -0.99284846010E+01 -0.43930823592E+00  0.31960913874E+03  0.31976361482E+03  0.00000000000E+00 0. -1.
        -14    1    6    6    0    0 -0.53189325278E+02 -0.53191877153E+02  0.25578203137E+03  0.26661381751E+03  0.00000000000E+00 0.  1.
</event>
<event>
12    1  0.8494789E-002  0.3106331E+03  0.7818608E-02  0.1080120E+00
         21   -1    0    0  503  502  0.00000000000E+00  0.00000000000E+00  0.45257706550E+03  0.45257706550E+03  0.00000000000E+00 0. -1.
         21   -1    0    0  501  503 -0.00000000000E+00 -0.00000000000E+00 -0.35244557011E+03  0.35244557011E+03  0.00000000000E+00 0.  1.
          6    2    1    2  501    0 -0.23538714191E+03  0.10737332508E+03 -0.20336129705E+03  0.37074073646E+03  0.17075344512E+03 0.  0.
         24    2    3    3    0    0 -0.12582872797E+03  0.57921457232E+02 -0.18894862066E+03  0.24958650195E+03  0.86046944838E+02 0.  0.
         -6    2    1    2    0  502  0.23538714191E+03 -0.10737332508E+03  0.30349279243E+03  0.43428189914E+03  0.17192078219E+03 0.  0.
        -24    2    5    5    0    0  0.31434834835E+02 -0.39795839336E+02  0.11225846461E+03  0.14660861523E+03  0.79500097566E+02 0.  0.
          5    1    3    3  501    0 -0.10955841394E+03  0.49451867851E+02 -0.14412676386E+02  0.12115423451E+03  0.47000000000E+01 0. -1.
        -11    1    4    4    0    0 -0.97104064923E+02  0.22071662611E+02 -0.69022315014E+02  0.12116285604E+03  0.00000000000E+00 0.  1.
         12    1    4    4    0    0 -0.28724663043E+02  0.35849794621E+02 -0.11992630565E+03  0.12842364590E+03  0.00000000000E+00 0. -1.
         -5    1    5    5    0  502  0.20395230708E+03 -0.67577485747E+02  0.19123432782E+03  0.28767328392E+03  0.47000000000E+01 0.  1.
         11    1    6    6    0    0  0.43058194086E+02 -0.57042395775E+02  0.98402949778E+02  0.12161818745E+03  0.00000000000E+00 0. -1.
        -12    1    6    6    0    0 -0.11623359251E+02  0.17246556438E+02  0.13855514833E+02  0.24990427778E+02  0.00000000000E+00 0.  1.
</event>
<event>
12    1  0.8494789E-002  0.1781973E+03  0.7818608E-02  0.1170799E+00
         21   -1    0    0  501  502  0.00000000000E+00  0.00000000000E+00  0.59670917196E+03  0.59670917196E+03  0.00000000000E+00 0. -1.
         21   -1    0    0  502  503 -0.00000000000E+00 -0.00000000000E+00 -0.54076970632E+02  0.54076970632E+02  0.00000000000E+00 0. -1.
         -6    2    1    2    0  503  0.30421754540E+02  0.32943499898E+02  0.19997643991E+03  0.26456436143E+03  0.16731099033E+03 0.  0.
        -24    2    3    3    0    0  0.55702492163E+02 -0.30592909751E+02  0.14336745664E+03  0.17566746591E+03  0.79158936302E+02 0.  0.
          6    2    1    2  501    0 -0.30421754540E+02 -0.32943499898E+02  0.34265576141E+03  0.38622178116E+03  0.17246314411E+03 0.  0.
         24    2    5    5    0    0 -0.86332229196E+02 -0.24614054792E+02  0.25414545843E+03  0.28109554958E+03  0.79785264682E+02 0.  0.
          5    1    5    5  501    0  0.55910474655E+02 -0.83294451056E+01  0.88510302982E+02  0.10512623158E+03  0.47000000000E+01 0. -1.
        -13    1    6    6    0    0 -0.50916338093E+02 -0.29834766252E+02  0.23111095448E+03  0.23852643468E+03  0.00000000000E+00 0.  1.
         14    1    6    6    0    0 -0.35415891103E+02  0.52207114597E+01  0.23034503954E+02  0.42569114898E+02  0.00000000000E+00 0. -1.
         -5    1    3    3    0  503 -0.25280737622E+02  0.63536409648E+02  0.56608983271E+02  0.88896895518E+02  0.47000000000E+01 0.  1.
         13    1    4    4    0    0  0.48178982090E+02  0.13859141077E+02  0.44614453090E+02  0.67109906357E+02  0.00000000000E+00 0. -1.
        -14    1    4    4    0    0  0.75235100724E+01 -0.44452050828E+02  0.98753003548E+02  0.10855755955E+03  0.00000000000E+00 0.  1.
</event>
<event>
12    1  0.8494789E-002  0.2044231E+03  0.7818608E-02  0.1146195E+00
         21   -1    0    0  501  502  0.00000000000E+00  0.00000000000E+00  0.26865513250E+03  0.26865513250E+03  0.00000000000E+00 0. -1.
         21   -1    0    0  502  503 -0.00000000000E+00 -0.00000000000E+00 -0.31341559513E+03  0.31341559513E+03  0.00000000000E+00 0. -1.
         -6    2    1    2    0  503 -0.50732344765E+02 -0.97822023729E+02 -0.22924318557E+03  0.30671153973E+03  0.17139606572E+03 0.  0.
        -24    2    3    3    0    0  0.35602277177E+02 -0.70918985312E+02 -0.14476787976E+03  0.18287451896E+03  0.78665914200E+02 0.  0.
          6    2    1    2  501    0  0.50732344765E+02  0.97822023729E+02  0.18448272294E+03  0.27535918790E+03  0.17217981347E+03 0.  0.
         24    2    5    5    0    0 -0.36100886121E+02  0.32208437080E+02  0.70389610322E+02  0.11761103074E+03  0.80851715588E+02 0.  0.
          5    1    5    5  501    0  0.86833230887E+02  0.65613586648E+02  0.11409311262E+03  0.15774815716E+03  0.47000000000E+01 0. -1.
        -13    1    6    6    0    0  0.11862859133E+02  0.19228792124E+02 -0.86975170281E+01  0.24209929282E+02  0.00000000000E+00 0.  1.
         14    1    6    6    0    0 -0.47963745254E+02  0.12979644956E+02  0.79087127350E+02  0.93401101463E+02  0.00000000000E+00 0. -1.
         -5    1    3    3    0  503 -0.86334621942E+02 -0.26903038416E+02 -0.84475305816E+02  0.12383702078E+03  0.47000000000E+01 0.  1.
         11    1    4    4    0    0 -0.13999043695E+02 -0.51804983126E+02 -0.45868976560E+02  0.70595272588E+02  0.00000000000E+00 0. -1.
        -12    1    4    4    0    0  0.49601320873E+02 -0.19114002186E+02 -0.98898903198E+02  0.11227924637E+03  0.00000000000E+00 0.  1.
</event>
<event>
12    1  0.8494789E-002  0.1977608E+03  0.7818608E-02  0.1151883E+00
         21   -1    0    0  503  502  0.00000000000E+00  0.00000000000E+00  0.24274246181E+03  0.24274246181E+03  0.00000000000E+00 0.  1.
         21   -1    0    0  501  503 -0.00000000000E+00 -0.00000000000E+00 -0.17516264193E+03  0.17516264193E+03  0.00000000000E+00 0.  1.
          6    2    1    2  501    0  0.15346263239E+02 -0.95292233910E+02 -0.27188482809E+02  0.19962099455E+03  0.17260709786E+03 0.  0.
         24    2    3    3    0    0 -0.25830724781E+02  0.96783486063E+01 -0.19982603381E+02  0.86535264975E+02  0.79549675498E+02 0.  0.
         -6    2    1    2    0  502 -0.15346263239E+02  0.95292233910E+02  0.94768302689E+02  0.21828410919E+03  0.17132076200E+03 0.  0.
        -24    2    5    5    0    0 -0.12997762420E+02  0.15920607878E+01 -0.58217686231E+01  0.80713435186E+02  0.79431033886E+02 0.  0.
          5    1    3    3  501    0  0.41176988020E+02 -0.10497058252E+03 -0.72058794278E+01  0.11308572958E+03  0.47000000000E+01 0. -1.
        -11    1    4    4    0    0 -0.45696130957E+01 -0.34693887211E+02 -0.83165458638E+01  0.35968209696E+02  0.00000000000E+00 0.  1.
         12    1    4    4    0    0 -0.21261111685E+02  0.44372235817E+02 -0.11666057517E+02  0.50567055278E+02  0.00000000000E+00 0. -1.
         -5    1    5    5    0  502 -0.23485008185E+01  0.93700173122E+02  0.10059007131E+03  0.13757067400E+03  0.47000000000E+01 0.  1.
         13    1    6    6    0    0  0.33370971799E+02 -0.43236412180E+01 -0.45069129782E+01  0.33950374030E+02  0.00000000000E+00 0. -1.
        -14    1    6    6    0    0 -0.46368734219E+02  0.59157020058E+01 -0.13148556449E+01  0.46763061156E+02  0.00000000000E+00 0.  1.
</event>
<event>
12    1  0.8494789E-002  0.2138678E+03  0.7818608E-02  0.1138575E+00
         21   -1    0    0  501  502  0.00000000000E+00  0.00000000000E+00  0.93477903138E+03  0.93477903138E+03  0.00000000000E+00 0. -1.
         21   -1    0    0  502  503 -0.00000000000E+00 -0.00000000000E+00 -0.11427187965E+03  0.11427187965E+03  0.00000000000E+00 0.  1.
         -6    2    1    2    0  503  0.12627210479E+03  0.18948861420E+02  0.13566339628E+02  0.21429764148E+03  0.17156844050E+03 0.  0.
        -24    2    3    3    0    0  0.81378363095E+02  0.66943588720E+02  0.46765865066E+02  0.14051932230E+03  0.80341469696E+02 0.  0.
          6    2    1    2  501    0 -0.12627210479E+03 -0.18948861420E+02  0.80694081210E+03  0.83475326955E+03  0.17133546916E+03 0.  0.
         24    2    5    5    0    0 -0.66963739562E+01 -0.42537480367E+02  0.29281495860E+03  0.30635733695E+03  0.79119777956E+02 0.  0.
          5    1    5    5  501    0 -0.11957573084E+03  0.23588618947E+02  0.51412585350E+03  0.52839593259E+03  0.47000000000E+01 0. -1.
        -13    1    6    6    0    0 -0.42503931191E+02 -0.29201691011E+02  0.15569251454E+03  0.16401061554E+03  0.00000000000E+00 0.  1.
         14    1    6    6    0    0  0.35807557235E+02 -0.13335789357E+02  0.13712244406E+03  0.14234672141E+03  0.00000000000E+00 0. -1.
         -5    1    3    3    0  503  0.44893741699E+02 -0.47994727299E+02 -0.33199525437E+02  0.73778319183E+02  0.47000000000E+01 0.  1.
         13    1    4    4    0    0 -0.24475893209E+01  0.18182046536E+02  0.39160446262E+02  0.43244861673E+02  0.00000000000E+00 0. -1.
        -14    1    4    4    0    0  0.83825952416E+02  0.48761542184E+02  0.76054188036E+01  0.97274460624E+02  0.00000000000E+00 0.  1.
</event>
<event>
12    1  0.8494789E-002  0.1947213E+03  0.7818608E-02  0.1154663E+00
         21   -1    0    0  501  502  0.00000000000E+00  0.00000000000E+00  0.24103573728E+02  0.24103573728E+02  0.00000000000E+00 0. -1.
         21   -1    0    0  502  503 -0.00000000000E+00 -0.00000000000E+00 -0.16509831065E+04  0.16509831065E+04  0.00000000000E+00 0. -1.
         -6    2    1    2    0  503 -0.86035824936E+02 -0.12685048279E+02 -0.10079498737E+04  0.10262490215E+04  0.17222378630E+03 0.  0.
        -24    2    3    3    0    0 -0.11119197654E+03 -0.48945137961E+02 -0.68070283851E+03  0.69600617430E+03  0.79428950251E+02 0.  0.
          6    2    1    2  501    0  0.86035824936E+02  0.12685048279E+02 -0.61892965910E+03  0.64883765878E+03  0.17422201616E+03 0.  0.
         24    2    5    5    0    0  0.65707096254E+01  0.63074234568E+02 -0.34576655466E+03  0.35988446833E+03  0.77076500503E+02 0.  0.
          5    1    5    5  501    0  0.79465115310E+02 -0.50389186289E+02 -0.27316310444E+03  0.28895319045E+03  0.47000000000E+01 0. -1.
        -11    1    6    6    0    0  0.27604873479E+02 -0.19886520240E+01 -0.14968789694E+03  0.15222499882E+03  0.00000000000E+00 0.  1.
         12    1    6    6    0    0 -0.21034163854E+02  0.65062886592E+02 -0.19607865772E+03  0.20765946950E+03  0.00000000000E+00 0. -1.
         -5    1    3    3    0  503  0.25156151604E+02  0.36260089682E+02 -0.32724703520E+03  0.33024284718E+03  0.47000000000E+01 0.  1.
         13    1    4    4    0    0 -0.62549099770E+01 -0.15032986633E+02 -0.27798938900E+03  0.27846582373E+03  0.00000000000E+00 0. -1.
        -14    1    4    4    0    0 -0.10493706656E+03 -0.33912151328E+02 -0.40271344951E+03  0.41754035058E+03  0.00000000000E+00 0.  1.
</event>
<event>
12    1  0.8494789E-002  0.2386942E+03  0.7818608E-02  0.1120671E+00
         21   -1    0    0  503  502  0.00000000000E+00  0.00000000000E+00  0.57860867864E+02  0.57860867864E+02  0.00000000000E+00 0.  1.
         21   -1    0    0  501  503 -0.00000000000E+00 -0.00000000000E+00 -0.98538209391E+03  0.98538209391E+03  0.00000000000E+00 0.  1.
          6    2    1    2  501    0  0.29260980738E+02  0.16232480680E+03 -0.44857007425E+03  0.50810827535E+03  0.17249162321E+03 0.  0.
         24    2    3    3    0    0 -0.29835911294E+02  0.15768914041E+03 -0.35149592045E+03  0.39426885605E+03  0.78374116612E+02 0.  0.
         -6    2    1    2    0  502 -0.29260980738E+02 -0.16232480680E+03 -0.47895115179E+03  0.53513468642E+03  0.17253805060E+03 0.  0.
        -24    2    5    5    0    0 -0.98184751805E+00 -0.87227684515E+02 -0.41753283910E+03  0.43397349680E+03  0.79935544194E+02 0.  0.
          5    1    3    3  501    0  0.59096892032E+02  0.46356663842E+01 -0.97074153799E+02  0.11383941930E+03  0.47000000000E+01 0. -1.
        -11    1    4    4    0    0  0.20058663527E+02  0.59846711239E+02 -0.83745699168E+02  0.10486811221E+03  0.00000000000E+00 0.  1.
         12    1    4    4    0    0 -0.49894574821E+02  0.97842429174E+02 -0.26775022128E+03  0.28940074385E+03  0.00000000000E+00 0. -1.
         -5    1    5    5    0  502 -0.28279133220E+02 -0.75097122282E+02 -0.61418312692E+02  0.10116118962E+03  0.47000000000E+01 0.  1.
         13    1    6    6    0    0 -0.35108103946E+01  0.15322521644E+02 -0.52973730988E+02  0.55256869563E+02  0.00000000000E+00 0. -1.
        -14    1    6    6    0    0  0.25289628765E+01 -0.10255020616E+03 -0.36455910811E+03  0.37871662724E+03  0.00000000000E+00 0.  1.
</event>
<event>
12    1  0.8494789E-002  0.3888101E+03  0.7818608E-02  0.1047756E+00
         21   -1    0    0  501  502  0.00000000000E+00  0.00000000000E+00  0.77366991763E+03  0.77366991763E+03  0.00000000000E+00 0.  1.
         21   -1    0    0  502  503 -0.00000000000E+00 -0.00000000000E+00 -0.22081271548E+03  0.22081271548E+03  0.00000000000E+00 0. -1.
         -6    2    1    2    0  503  0.28863376914E+03 -0.19480434715E+03  0.10726386962E+03  0.40333465279E+03  0.17295987413E+03 0.  0.
        -24    2    3    3    0    0  0.51826036353E+02 -0.43977909314E+02  0.18921801188E+02  0.10896595929E+03  0.83039455512E+02 0.  0.
          6    2    1    2  501    0 -0.28863376914E+03  0.19480434715E+03  0.44559333253E+03  0.59114798032E+03  0.17217528941E+03 0.  0.
         24    2    5    5    0    0 -0.76930475236E+02  0.34629740895E+02  0.19231786234E+03  0.22420828100E+03  0.78521819368E+02 0.  0.
          5    1    5    5  501    0 -0.21170329391E+03  0.16017460626E+03  0.25327547018E+03  0.36693969932E+03  0.47000000000E+01 0. -1.
        -11    1    6    6    0    0 -0.86771130709E+02  0.88342810140E+01  0.15393607038E+03  0.17692819846E+03  0.00000000000E+00 0.  1.
         12    1    6    6    0    0  0.98406554729E+01  0.25795459881E+02  0.38381791965E+02  0.47280082540E+02  0.00000000000E+00 0. -1.
         -5    1    3    3    0  503  0.23680773279E+03 -0.15082643784E+03  0.88342068434E+02  0.29436869350E+03  0.47000000000E+01 0.  1.
         13    1    4    4    0    0 -0.28995526900E+01 -0.51773102976E+02  0.12297342115E+02  0.53292459323E+02  0.00000000000E+00 0. -1.
        -14    1    4    4    0    0  0.54725589043E+02  0.77951936621E+01  0.66244590723E+01  0.55673499965E+02  0.00000000000E+00 0.  1.
</event>
<event>
12    1  0.8494789E-002  0.2266370E+03  0.7818608E-02  0.1129042E+00
         21   -1    0    0  503  502  0.00000000000E+00  0.00000000000E+00  0.41528626750E+03  0.41528626750E+03  0.00000000000E+00 0. -1.
         21   -1    0    0  501  503 -0.00000000000E+00 -0.00000000000E+00 -0.33450798526E+03  0.33450798526E+03  0.00000000000E+00 0. -1.
          6    2    1    2  501    0 -0.13798508051E+03 -0.51012061615E+02 -0.25725932227E+03  0.34285080602E+03  0.17240128601E+03 0.  0.
         24    2    3    3    0    0 -0.14686301208E+03 -0.39861380268E+02 -0.27171987416E+03  0.32200967063E+03  0.81858805362E+02 0.  0.
         -6    2    1    2    0  502  0.13798508051E+03  0.51012061615E+02  0.33803760451E+03  0.40694344674E+03  0.17231202483E+03 0.  0.
        -24    2    5    5    0    0  0.14903871794E+03  0.74337707425E+02  0.33127024411E+03  0.37984813682E+03  0.82498474060E+02 0.  0.
          5    1    3    3  501    0  0.88779315606E+01 -0.11150681347E+02  0.14460551889E+02  0.20841135387E+02  0.47000000000E+01 0.  1.
        -11    1    4    4    0    0 -0.23183980126E+02 -0.42829132392E+02 -0.86626723761E+02  0.99378170569E+02  0.00000000000E+00 0.  1.
         12    1    4    4    0    0 -0.12367903195E+03  0.29677521236E+01 -0.18509315040E+03  0.22263150007E+03  0.00000000000E+00 0. -1.
         -5    1    5    5    0  502 -0.11053637424E+02 -0.23325645809E+02  0.67673604077E+01  0.27095309919E+02  0.47000000000E+01 0.  1.
         13    1    6    6    0    0  0.38846622374E+02  0.64874528790E+01  0.23217379949E+02  0.45718637845E+02  0.00000000000E+00 0. -1.
        -14    1    6    6    0    0  0.11019209556E+03  0.67850254546E+02  0.30805286416E+03  0.33412949897E+03  0.00000000000E+00 0.  1.
</event>
<event>
12    1  0.8494789E-002  0.1726192E+03  0.7818608E-02  0.1176110E+00
         21   -1    0    0  501  502  0.00000000000E+00  0.00000000000E+00  0.16907132913E+03  0.16907132913E+03  0.00000000000E+00 0.  1.
         21   -1    0    0  502  503 -0.00000000000E+00 -0.00000000000E+00 -0.31106496680E+03  0.31106496680E+03  0.00000000000E+00 0.  1.
         -6    2    1    2    0  503  0.13382672131E+02 -0.12087604405E+02 -0.23081848207E+03  0.28600427177E+03  0.16791684166E+03 0.  0.
        -24    2    3    3    0    0  0.64744661191E+02 -0.22055338339E+02 -0.17148042125E+03  0.20675463391E+03  0.93078647749E+02 0.  0.
          6    2    1    2  501    0 -0.13382672131E+02  0.12087604405E+02  0.88824844404E+02  0.19413202416E+03  0.17167464498E+03 0.  0.
         24    2    5    5    0    0 -0.56140551134E+02 -0.17971712983E+01  0.32300337430E+01  0.97335408387E+02  0.79427685989E+02 0.  0.
          5    1    5    5  501    0  0.42757879003E+02  0.13884775703E+02  0.85594810661E+02  0.96796615774E+02  0.47000000000E+01 0. -1.
        -11    1    6    6    0    0 -0.13331111103E+02 -0.28769072118E+02 -0.24101266996E+02  0.39827742900E+02  0.00000000000E+00 0.  1.
         12    1    6    6    0    0 -0.42809440032E+02  0.26971900819E+02  0.27331300739E+02  0.57507665487E+02  0.00000000000E+00 0. -1.
         -5    1    3    3    0  503 -0.51361989060E+02  0.99677339342E+01 -0.59338060813E+02  0.79249637861E+02  0.47000000000E+01 0.  1.
         11    1    4    4    0    0 -0.10154038560E+02  0.24790184802E+02 -0.47252541758E+02  0.54318141207E+02  0.00000000000E+00 0. -1.
        -12    1    4    4    0    0  0.74898699751E+02 -0.46845523141E+02 -0.12422787950E+03  0.15243649270E+03  0.00000000000E+00 0.  1.
</event>
<event>
12    1  0.8494789E-002  0.1808141E+03  0.7818608E-02  0.1167129E+00
         21   -1    0    0  501  502  0.00000000000E+00  0.00000000000E+00  0.13347064039E+03  0.13347064039E+03  0.00000000000E+00 0.  1.
         21   -1    0    0  502  503 -0.00000000000E+00 -0.00000000000E+00 -0.79468152419E+03  0.79468152419E+03  0.00000000000E+00 0.  1.
         -6    2    1    2    0  503 -0.15800961749E+02 -0.53698527284E+02 -0.71693815600E+03  0.73938761199E+03  0.17193172776E+03 0.  0.
        -24    2    3    3    0    0 -0.21911451920E+02  0.20085545287E+02 -0.22956305286E+03  0.24639875956E+03  0.84437033472E+02 0.  0.
          6    2    1    2  501    0  0.15800961749E+02  0.53698527284E+02  0.55727272196E+02  0.18876455260E+03  0.17144481686E+03 0.  0.
         24    2    5    5    0    0 -0.32570618931E+02 -0.51722176381E+01  0.69885887493E+02  0.11112351441E+03  0.79854875433E+02 0.  0.
          5    1    5    5  501    0  0.48371580680E+02  0.58870744922E+02 -0.14158615297E+02  0.77641038197E+02  0.47000000000E+01 0. -1.
        -13    1    6    6    0    0 -0.27802576648E+02  0.23760958713E+02  0.13722670098E+01  0.36598491006E+02  0.00000000000E+00 0.  1.
         14    1    6    6    0    0 -0.47680422831E+01 -0.28933176351E+02  0.68513620483E+02  0.74525023399E+02  0.00000000000E+00 0. -1.
         -5    1    3    3    0  503  0.61104901712E+01 -0.73784072571E+02 -0.48737510314E+03  0.49298885242E+03  0.47000000000E+01 0.  1.
         13    1    4    4    0    0 -0.21854085726E+02 -0.29589644769E+02 -0.13040026219E+03  0.13548939634E+03  0.00000000000E+00 0. -1.
        -14    1    4    4    0    0 -0.57366193738E-01  0.49675190055E+02 -0.99162790664E+02  0.11090936322E+03  0.00000000000E+00 0.  1.
</event>
<event>
12    1  0.8494789E-002  0.1980698E+03  0.7818608E-02  0.1151824E+00
         21   -1    0    0  503  502  0.00000000000E+00  0.00000000000E+00  0.39851184629E+03  0.39851184629E+03  0.00000000000E+00 0.  1.
         21   -1    0    0  501  503 -0.00000000000E+00 -0.00000000000E+00 -0.99034802994E+02  0.99034802994E+02  0.00000000000E+00 0.  1.
          6    2    1    2  501    0  0.61235398135E+02 -0.73140566054E+02  0.11714486785E+03  0.22833171054E+03  0.17121078701E+03 0.  0.
         24    2    3    3    0    0  0.97129809839E+02 -0.91047366559E+02  0.98499464864E+02  0.18384796802E+03  0.79838010066E+02 0.  0.
         -6    2    1    2    0  502 -0.61235398135E+02  0.73140566054E+02  0.18233217545E+03  0.26921493874E+03  0.17358670644E+03 0.  0.
        -24    2    5    5    0    0  0.80308163609E+01 -0.12738147417E+02  0.42707643660E+02  0.91197912099E+02  0.79160355818E+02 0.  0.
          5    1    3    3  501    0 -0.35894411704E+02  0.17906800504E+02  0.18645402984E+02  0.44483742517E+02  0.47000000000E+01 0. -1.
        -13    1    4    4    0    0  0.53364350029E+02 -0.55220043004E+02  0.10142033992E+03  0.12721278376E+03  0.00000000000E+00 0.  1.
         14    1    4    4    0    0  0.43765459810E+02 -0.35827323554E+02 -0.29208750519E+01  0.56635184263E+02  0.00000000000E+00 0. -1.
         -5    1    5    5    0  502 -0.69266214496E+02  0.85878713471E+02  0.13962453179E+03  0.17801702664E+03  0.47000000000E+01 0.  1.
         11    1    6    6    0    0 -0.29297768740E+02  0.14767196138E+02  0.94716171335E+01  0.34148804753E+02  0.00000000000E+00 0. -1.
        -12    1    6    6    0    0  0.37328585101E+02 -0.27505343555E+02  0.33236026526E+02  0.57049107346E+02  0.00000000000E+00 0.  1.
</event>
<event>
12    1  0.8494789E-002  0.1845005E+03  0.7818608E-02  0.1163570E+00
         21   -1    0    0  501  502  0.00000000000E+00  0.00000000000E+00  0.28187593007E+03  0.28187593007E+03  0.00000000000E+00 0.  1.
         21   -1    0    0  502  503 -0.00000000000E+00 -0.00000000000E+00 -0.11071200561E+04  0.11071200561E+04  0.00000000000E+00 0.  1.
         -6    2    1    2    0  503  0.55056724448E+02 -0.36481471700E+02 -0.10682248479E+04  0.10840409374E+04  0.17227387397E+03 0.  0.
        -24    2    3    3    0    0  0.99358034702E+02 -0.50729437875E+02 -0.78493069083E+03  0.79691155882E+03  0.80661937963E+02 0.  0.
          6    2    1    2  501    0 -0.55056724448E+02  0.36481471700E+02  0.24298072188E+03  0.30495504873E+03  0.17203432756E+03 0.  0.
         24    2    5    5    0    0 -0.67617365953E+02 -0.24656746678E+02  0.90670742186E+02  0.14028546631E+03  0.79238659968E+02 0.  0.
          5    1    5    5  501    0  0.12560641505E+02  0.61138218378E+02  0.15230997969E+03  0.16466958242E+03  0.47000000000E+01 0. -1.
        -13    1    6    6    0    0  0.89328311295E+00  0.15916568864E+02  0.46660345823E+02  0.49308447465E+02  0.00000000000E+00 0.  1.
         14    1    6    6    0    0 -0.68510649066E+02 -0.40573315542E+02  0.44010396363E+02  0.90977018843E+02  0.00000000000E+00 0. -1.
         -5    1    3    3    0  503 -0.44301310254E+02  0.14247966175E+02 -0.28329415708E+03  0.28712937862E+03  0.47000000000E+01 0.  1.
         11    1    4    4    0    0  0.59257182913E+02 -0.16759734517E+02 -0.19149495829E+03  0.20115322885E+03  0.00000000000E+00 0. -1.
        -12    1    4    4    0    0  0.40100851789E+02 -0.33969703357E+02 -0.59343573254E+03  0.59575832996E+03  0.00000000000E+00 0.  1.
</event>
<event>
12    1  0.8494789E-002  0.2450912E+03  0.7818608E-02  0.1116923E+00
         21   -1    0    0  503  502  0.00000000000E+00  0.00000000000E+00  0.20687006915E+04  0.20687006915E+04  0.00000000000E+00 0. -1.
         21   -1    0    0  501  503 -0.00000000000E+00 -0.00000000000E+00 -0.33196480626E+02  0.33196480626E+02  0.00000000000E+00 0. -1.
          6    2    1    2  501    0  0.74511946858E+02 -0.15708260877E+03  0.62538693776E+03  0.67063884128E+03  0.16858427361E+03 0.  0.
         24    2    3    3    0    0  0.10335327840E+03 -0.72551778857E+02  0.33527123789E+03  0.36704949212E+03  0.79830231980E+02 0.  0.
         -6    2    1    2    0  502 -0.74511946858E+02  0.15708260877E+03  0.14101172731E+04  0.14312583308E+04  0.17275042542E+03 0.  0.
        -24    2    5    5    0    0 -0.10302412589E+03  0.12887005195E+03  0.13223941424E+04  0.13346854031E+04  0.73738704402E+02 0.  0.
          5    1    3    3  501    0 -0.28841331544E+02 -0.84530829915E+02  0.29011569988E+03  0.30358934916E+03  0.47000000000E+01 0. -1.
        -11    1    4    4    0    0  0.81019374407E+02 -0.24982786328E+02  0.13034970263E+03  0.15549702125E+03  0.00000000000E+00 0.  1.
         12    1    4    4    0    0  0.22333903995E+02 -0.47568992529E+02  0.20492153526E+03  0.21155247087E+03  0.00000000000E+00 0. -1.
         -5    1    5    5    0  502  0.28512179033E+02  0.28212556818E+02  0.87723130691E+02  0.96572927747E+02  0.47000000000E+01 0.  1.
         13    1    6    6    0    0 -0.86561087747E+02  0.11780264587E+03  0.89742318880E+03  0.90925170612E+03  0.00000000000E+00 0. -1.
        -14    1    6    6    0    0 -0.16463038143E+02  0.11067406079E+02  0.42497095362E+03  0.42543369697E+03  0.00000000000E+00 0.  1.
</event>
<event>
12    1  0.8494789E-002  0.1759422E+03  0.7818608E-02  0.1172107E+00
         21   -1    0    0  501  502  0.00000000000E+00  0.00000000000E+00  0.11709282429E+03  0.11709282429E+03  0.00000000000E+00 0.  1.
         21   -1    0    0  502  503 -0.00000000000E+00 -0.00000000000E+00 -0.29453933801E+03  0.29453933801E+03  0.00000000000E+00 0.  1.
         -6    2    1    2    0  503 -0.42175596319E+01  0.25959188691E+02 -0.15635496036E+03  0.23443029957E+03  0.17268185904E+03 0.  0.
        -24    2    3    3    0    0  0.18559281635E+02  0.24503249851E+02 -0.18067304882E+03  0.20074998363E+03  0.81932589163E+02 0.  0.
          6    2    1    2  501    0  0.42175596319E+01 -0.25959188691E+02 -0.21091553354E+02  0.17720186272E+03  0.17396545416E+03 0.  0.
         24    2    5    5    0    0  0.40536697655E+02 -0.70387055593E+02  0.11638310285E+02  0.11097309920E+03  0.74712897330E+02 0.  0.
          5    1    5    5  501    0 -0.36319138023E+02  0.44427866902E+02 -0.32729863639E+02  0.66228763525E+02  0.47000000000E+01 0. -1.
        -13    1    6    6    0    0  0.25650973126E+02 -0.19962051122E+01  0.29092786454E+02  0.38837449463E+02  0.00000000000E+00 0.  1.
         14    1    6    6    0    0  0.14885724529E+02 -0.68390850481E+02 -0.17454476169E+02  0.72135649734E+02  0.00000000000E+00 0. -1.
         -5    1    3    3    0  503 -0.22776841267E+02  0.14559388395E+01  0.24318088460E+02  0.33680315948E+02  0.47000000000E+01 0.  1.
         11    1    4    4    0    0  0.37957715984E+02 -0.36234668638E+01 -0.37221760761E+02  0.53285806637E+02  0.00000000000E+00 0. -1.
        -12    1    4    4    0    0 -0.19398434349E+02  0.28126716715E+02 -0.14345128806E+03  0.14746417699E+03  0.00000000000E+00 0.  1.
</event>
<event>
12    1  0.8494789E-002  0.1781376E+03  0.7818608E-02  0.1170534E+00
         21   -1    0    0  501  502  0.00000000000E+00  0.00000000000E+00  0.46143471067E+03  0.46143471067E+03  0.00000000000E+00 0.  1.
         21   -1    0    0  502  503 -0.00000000000E+00 -0.00000000000E+00 -0.10054537279E+03  0.10054537279E+03  0.00000000000E+00 0.  1.
         -6    2    1    2    0  503 -0.28925399270E+02  0.20831495060E+02  0.17736176012E+02  0.17534447422E+03  0.17076440727E+03 0.  0.
        -24    2    3    3    0    0 -0.69729127395E+01  0.26847414984E+02  0.75667907476E+02  0.11292429745E+03  0.79100313077E+02 0.  0.
          6    2    1    2  501    0  0.28925399270E+02 -0.20831495060E+02  0.34315316187E+03  0.38663560925E+03  0.17453472986E+03 0.  0.
         24    2    5    5    0    0  0.40367974328E+02 -0.60677247583E+02  0.32253731850E+03  0.34009831758E+03  0.79531390473E+02 0.  0.
          5    1    5    5  501    0 -0.11442575058E+02  0.39845752523E+02  0.20615843372E+02  0.46537291671E+02  0.47000000000E+01 0. -1.
        -11    1    6    6    0    0  0.37484813702E+02  0.86545723124E+01  0.11727994192E+03  0.12342851233E+03  0.00000000000E+00 0.  1.
         12    1    6    6    0    0  0.28831606259E+01 -0.69331819896E+02  0.20525737658E+03  0.21666980525E+03  0.00000000000E+00 0. -1.
         -5    1    3    3    0  503 -0.21952486530E+02 -0.60159199238E+01 -0.57931731464E+02  0.62420176769E+02  0.47000000000E+01 0.  1.
         11    1    4    4    0    0  0.16110063451E+02  0.86828345046E+00  0.76479118667E+02  0.78162290477E+02  0.00000000000E+00 0. -1.
        -12    1    4    4    0    0 -0.23082976190E+02  0.25979131533E+02 -0.81121119118E+00  0.34762006971E+02  0.00000000000E+00 0.  1.
</event>
<event>
12    1  0.8494789E-002  0.2677961E+03  0.7818608E-02  0.1102804E+00
         21   -1    0    0  501  502  0.00000000000E+00  0.00000000000E+00  0.74678959823E+02  0.74678959823E+02  0.00000000000E+00 0. -1.
         21   -1    0    0  502  503 -0.00000000000E+00 -0.00000000000E+00 -0.96076747269E+03  0.96076747269E+03  0.00000000000E+00 0.  1.
         -6    2    1    2    0  503 -0.19293415173E+03  0.63162559820E+02 -0.48797426578E+03  0.55662703542E+03  0.17464729206E+03 0.  0.
        -24    2    3    3    0    0 -0.80169442846E+02  0.70239221984E+02 -0.14982365720E+03  0.20006864918E+03  0.78864746586E+02 0.  0.
          6    2    1    2  501    0  0.19293415173E+03 -0.63162559820E+02 -0.39811424708E+03  0.47881939709E+03  0.17193011789E+03 0.  0.
         24    2    5    5    0    0  0.12268942899E+03 -0.75088335029E+02 -0.36387442797E+03  0.39962974878E+03  0.81291959836E+02 0.  0.
          5    1    5    5  501    0  0.70244722742E+02  0.11925775210E+02 -0.34239819107E+02  0.79189648312E+02  0.47000000000E+01 0. -1.
        -13    1    6    6    0    0  0.27691364716E+02  0.16697493872E+02 -0.88205486389E+02  0.93945866384E+02  0.00000000000E+00 0.  1.
         14    1    6    6    0    0  0.94998064272E+02 -0.91785828902E+02 -0.27566894159E+03  0.30568388240E+03  0.00000000000E+00 0. -1.
         -5    1    3    3    0  503 -0.11276470888E+03 -0.70766621640E+01 -0.33815060858E+03  0.35655838624E+03  0.47000000000E+01 0.  1.
         13    1    4    4    0    0  0.17001961741E+01 -0.14253871795E+02 -0.22694167701E+02  0.26853096206E+02  0.00000000000E+00 0. -1.
        -14    1    4    4    0    0 -0.81869639020E+02  0.84493093779E+02 -0.12712948950E+03  0.17321555297E+03  0.00000000000E+00 0.  1.
</event>
<event>
12    1  0.8494789E-002  0.1815611E+03  0.7818608E-02  0.1166412E+00
         21   -1    0    0  503  502  0.00000000000E+00  0.00000000000E+00  0.28974345788E+03  0.28974345788E+03  0.00000000000E+00 0. -1.
         21   -1    0    0  501  503 -0.00000000000E+00 -0.00000000000E+00 -0.32307557521E+03  0.32307557521E+03  0.00000000000E+00 0. -1.
          6    2    1    2  501    0  0.40401576858E+02  0.44134462486E+02 -0.26345634840E+03  0.31969519232E+03  0.17092580346E+03 0.  0.
         24    2    3    3    0    0  0.25066305934E+02 -0.27596229481E+02 -0.20989982773E+03  0.22875095880E+03  0.82940893979E+02 0.  0.
         -6    2    1    2    0  502 -0.40401576858E+02 -0.44134462486E+02  0.23012423106E+03  0.29312384078E+03  0.17141845326E+03 0.  0.
        -24    2    5    5    0    0 -0.22470539834E+02 -0.96893680863E+02  0.15641389553E+03  0.20060162303E+03  0.76696765877E+02 0.  0.
          5    1    3    3  501    0  0.15335270925E+02  0.71730691968E+02 -0.53556520666E+02  0.90944233519E+02  0.47000000000E+01 0. -1.
        -13    1    4    4    0    0 -0.79445045467E+01  0.22279062153E+02 -0.24990729692E+02  0.34409422161E+02  0.00000000000E+00 0.  1.
         14    1    4    4    0    0  0.33010810481E+02 -0.49875291634E+02 -0.18490909804E+03  0.19434153664E+03  0.00000000000E+00 0. -1.
         -5    1    5    5    0  502 -0.17931037024E+02  0.52759218376E+02  0.73710335527E+02  0.92522217742E+02  0.47000000000E+01 0.  1.
         13    1    6    6    0    0 -0.47743765988E+02 -0.45566193684E+02  0.10300325965E+03  0.12233321992E+03  0.00000000000E+00 0. -1.
        -14    1    6    6    0    0  0.25273226154E+02 -0.51327487179E+02  0.53410635882E+02  0.78268403112E+02  0.00000000000E+00 0.  1.
</event>
<event>
12    1  0.8494789E-002  0.1825447E+03  0.7818608E-02  0.1167716E+00
         21   -1    0    0  501  502  0.00000000000E+00  0.00000000000E+00  0.10638446939E+04  0.10638446939E+04  0.00000000000E+00 0.  1.
         21   -1    0    0  502  503 -0.00000000000E+00 -0.00000000000E+00 -0.32027787666E+02  0.32027787666E+02  0.00000000000E+00 0.  1.
         -6    2    1    2    0  503 -0.20669541317E+02 -0.65509184756E+01  0.38098513161E+03  0.42245975596E+03  0.18125239426E+03 0.  0.
        -24    2    3    3    0    0 -0.29687921507E+02 -0.71480613566E+02  0.28684849014E+03  0.30765124689E+03  0.79852254960E+02 0.  0.
          6    2    1    2  501    0  0.20669541317E+02  0.65509184756E+01  0.65083177458E+03  0.67341272556E+03  0.17155919001E+03 0.  0.
         24    2    5    5    0    0  0.41965115763E+02  0.57078869106E+02  0.29524339146E+03  0.31359087590E+03  0.78431556194E+02 0.  0.
          5    1    5    5  501    0 -0.21295574446E+02 -0.50527950631E+02  0.35558838311E+03  0.35982184966E+03  0.47000000000E+01 0. -1.
        -11    1    6    6    0    0  0.26993265756E+02  0.51651675278E+02  0.86861799834E+02  0.10460164543E+03  0.00000000000E+00 0.  1.
         12    1    6    6    0    0  0.14971850007E+02  0.54271938278E+01  0.20838159163E+03  0.20898923048E+03  0.00000000000E+00 0. -1.
         -5    1    3    3    0  503  0.90183801906E+01  0.64929695091E+02  0.94136641477E+02  0.11480850907E+03  0.47000000000E+01 0.  1.
         13    1    4    4    0    0  0.66847412431E+01 -0.73306684431E+02  0.21193370918E+03  0.22435341057E+03  0.00000000000E+00 0. -1.
        -14    1    4    4    0    0 -0.36372662750E+02  0.18260708642E+01  0.74914780956E+02  0.83297836323E+02  0.00000000000E+00 0.  1.
</event>
<event>
12    1  0.8494789E-002  0.2338625E+03  0.7818608E-02  0.1124527E+00
         21   -1    0    0  501  502  0.00000000000E+00  0.00000000000E+00  0.15994134825E+03  0.15994134825E+03  0.00000000000E+00 0.  1.
         21   -1    0    0  502  503 -0.00000000000E+00 -0.00000000000E+00 -0.36182017217E+03  0.36182017217E+03  0.00000000000E+00 0. -1.
         -6    2    1    2    0  503 -0.48731389927E+02 -0.14420604253E+03 -0.16979547314E+03  0.28900202686E+03  0.17754305891E+03 0.  0.
        -24    2    3    3    0    0 -0.17816761606E+02 -0.38715065386E+02 -0.15204640529E+03  0.17755167957E+03  0.81180023856E+02 0.  0.
          6    2    1    2  501    0  0.48731389927E+02  0.14420604253E+03 -0.32083350782E+02  0.23275949355E+03  0.17314014375E+03 0.  0.
         24    2    5    5    0    0  0.25906289042E+02  0.31600739958E+02 -0.58684340641E+02  0.11473135259E+03  0.89720058257E+02 0.  0.
          5    1    5    5  501    0  0.22825100886E+02  0.11260530257E+03  0.26600989859E+02  0.11802814096E+03  0.47000000000E+01 0. -1.
        -11    1    6    6    0    0  0.17546433628E+02 -0.30396017272E+02 -0.13686964803E+02  0.37671318063E+02  0.00000000000E+00 0.  1.
         12    1    6    6    0    0  0.83598554134E+01  0.61996757230E+02 -0.44997375837E+02  0.77060034531E+02  0.00000000000E+00 0. -1.
         -5    1    3    3    0  503 -0.30914628322E+02 -0.10549097714E+03 -0.17749067849E+02  0.11145034729E+03  0.47000000000E+01 0.  1.
         11    1    4    4    0    0  0.29154103386E+02 -0.98556194708E+01 -0.27187491835E+02  0.41064031605E+02  0.00000000000E+00 0. -1.
        -12    1    4    4    0    0 -0.46970864992E+02 -0.28859445915E+02 -0.12485891346E+03  0.13648764796E+03  0.00000000000E+00 0.  1.
</event>
<event>
12    1  0.8494789E-002  0.2184707E+03  0.7818608E-02  0.1136440E+00
         21   -1    0    0  503  502  0.00000000000E+00  0.00000000000E+00  0.27128881199E+02  0.27128881199E+02  0.00000000000E+00 0. -1.
         21   -1    0    0  501  503 -0.00000000000E+00 -0.00000000000E+00 -0.18516733038E+04  0.18516733038E+04  0.00000000000E+00 0. -1.
          6    2    1    2  501    0  0.12782307629E+03  0.38259033205E+02 -0.11949907798E+04  0.12147972672E+04  0.17299405753E+03 0.  0.
         24    2    3    3    0    0  0.12114443131E+03  0.86330319600E+02 -0.95857399550E+03  0.97340456058E+03  0.80767792962E+02 0.  0.
         -6    2    1    2    0  502 -0.12782307629E+03 -0.38259033205E+02 -0.62955364278E+03  0.66400491785E+03  0.16359171541E+03 0.  0.
        -24    2    5    5    0    0 -0.10782350862E+03 -0.73290170805E+02 -0.57961347132E+03  0.59963664901E+03  0.81332506162E+02 0.  0.
          5    1    3    3  501    0  0.66786449767E+01 -0.48071286395E+02 -0.23641678434E+03  0.24139270658E+03  0.47000000000E+01 0. -1.
        -13    1    4    4    0    0  0.68755082065E+01  0.27136839212E+02 -0.36339330691E+03  0.36446999350E+03  0.00000000000E+00 0.  1.
         14    1    4    4    0    0  0.11426892310E+03  0.59193480388E+02 -0.59518068860E+03  0.60893456708E+03  0.00000000000E+00 0. -1.
         -5    1    5    5    0  502 -0.19999567668E+02  0.35031137600E+02 -0.49940171458E+02  0.64368268842E+02  0.47000000000E+01 0.  1.
         11    1    6    6    0    0 -0.60429840500E+02 -0.86311663912E+01 -0.37396882812E+03  0.37891812713E+03  0.00000000000E+00 0. -1.
        -12    1    6    6    0    0 -0.47393668118E+02 -0.64659004414E+02 -0.20564464319E+03  0.22071852189E+03  0.00000000000E+00 0.  1.
</event>
<event>
12    1  0.8494789E-002  0.2366163E+03  0.7818608E-02  0.1123104E+00
         21   -1    0    0  503  502  0.00000000000E+00  0.00000000000E+00  0.39342229173E+02  0.39342229173E+02  0.00000000000E+00 0.  1.
         21   -1    0    0  501  503 -0.00000000000E+00 -0.00000000000E+00 -0.14367996833E+04  0.14367996833E+04  0.00000000000E+00 0.  1.
          6    2    1    2  501    0  0.74764846735E+00  0.16044349600E+03 -0.57013446679E+03  0.61728485461E+03  0.17390976720E+03 0.  0.
         24    2    3    3    0    0 -0.57215760779E+02  0.82485901169E+02 -0.41301053884E+03  0.43249534697E+03  0.79980952607E+02 0.  0.
         -6    2    1    2    0  502 -0.74764846735E+00 -0.16044349600E+03 -0.82732298732E+03  0.85885705785E+03  0.16561837480E+03 0.  0.
        -24    2    5    5    0    0 -0.63745288905E+01 -0.73594404842E+02 -0.22536003893E+03  0.25061704958E+03  0.81024609538E+02 0.  0.
          5    1    3    3  501    0  0.57963409246E+02  0.77957594827E+02 -0.15712392795E+03  0.18478950765E+03  0.47000000000E+01 0. -1.
        -13    1    4    4    0    0 -0.34872791359E+02  0.89523573516E+02 -0.38038823728E+03  0.39233377735E+03  0.00000000000E+00 0.  1.
         14    1    4    4    0    0 -0.22342969420E+02 -0.70376723464E+01 -0.32622301567E+02  0.40161569617E+02  0.00000000000E+00 0. -1.
         -5    1    5    5    0  502  0.56268804232E+01 -0.86849091155E+02 -0.60196294840E+03  0.60824000827E+03  0.47000000000E+01 0.  1.
         13    1    6    6    0    0 -0.30672992652E+02 -0.64552687664E+02 -0.20660790861E+03  0.21862001249E+03  0.00000000000E+00 0. -1.
        -14    1    6    6    0    0  0.24298463761E+02 -0.90417171784E+01 -0.18752130320E+02  0.31997037085E+02  0.00000000000E+00 0.  1.
</event>
<event>
12    1  0.8494789E-002  0.1848385E+03  0.7818608E-02  0.1163482E+00
         21   -1    0    0  503  502  0.00000000000E+00  0.00000000000E+00  0.10631463259E+04  0.10631463259E+04  0.00000000000E+00 0. -1.
         21   -1    0    0  501  503 -0.00000000000E+00 -0.00000000000E+00 -0.77390899348E+02  0.77390899348E+02  0.00000000000E+00 0. -1.
          6    2    1    2  501    0 -0.10107643489E+02  0.64956358062E+02  0.56457554061E+02  0.19326853609E+03  0.17275352015E+03 0.  0.
         24    2    3    3    0    0  0.11663457897E+02 -0.16492321829E+02  0.75543419013E+02  0.10669932359E+03  0.72594108369E+02 0.  0.
         -6    2    1    2    0  502  0.10107643489E+02 -0.64956358062E+02  0.92929787249E+03  0.94726868916E+03  0.17146994118E+03 0.  0.
        -24    2    5    5    0    0  0.80406573164E+01 -0.18142300803E+02  0.85430278455E+03  0.85871259618E+03  0.84618437060E+02 0.  0.
          5    1    3    3  501    0 -0.21771101386E+02  0.81448679891E+02 -0.19085864951E+02  0.86569212498E+02  0.47000000000E+01 0. -1.
        -13    1    4    4    0    0  0.13060523377E+01  0.29380531529E+01  0.83294359637E+02  0.83356393135E+02  0.00000000000E+00 0.  1.
         14    1    4    4    0    0  0.10357405559E+02 -0.19430374982E+02 -0.77509406245E+01  0.23342930459E+02  0.00000000000E+00 0. -1.
         -5    1    5    5    0  502  0.20669861730E+01 -0.46814057259E+02  0.74995087940E+02  0.88556092981E+02  0.47000000000E+01 0.  1.
         13    1    6    6    0    0  0.38614887530E+02  0.12470370765E+02  0.52746292196E+03  0.52902150592E+03  0.00000000000E+00 0. -1.
        -14    1    6    6    0    0 -0.30574230214E+02 -0.30612671569E+02  0.32683986259E+03  0.32969109026E+03  0.00000000000E+00 0.  1.
</event>
<event>
12    1  0.8494789E-002  0.2237793E+03  0.7818608E-02  0.1131352E+00
         21   -1    0    0  501  502  0.00000000000E+00  0.00000000000E+00  0.44401712943E+03  0.44401712943E+03  0.00000000000E+00 0.  1.
         21   -1    0    0  502  503 -0.00000000000E+00 -0.00000000000E+00 -0.12338207458E+03  0.12338207458E+03  0.00000000000E+00 0.  1.
         -6    2    1    2    0  503  0.63558717971E+02 -0.12664526615E+03  0.74906177500E+02  0.23598325136E+03  0.17320053530E+03 0.  0.
        -24    2    3    3    0    0  0.42050776099E+02 -0.59466576807E+01 -0.25129029189E+01  0.90908961209E+02  0.80339865814E+02 0.  0.
          6    2    1    2  501    0 -0.63558717971E+02  0.12664526615E+03  0.24572887735E+03  0.33141595265E+03  0.17139171053E+03 0.  0.
         24    2    5    5    0    0 -0.10922037740E+01  0.10032837224E+03  0.22878760531E+03  0.26138923633E+03  0.76899865661E+02 0.  0.
          5    1    5    5  501    0 -0.62466514197E+02  0.26316893914E+02  0.16941272041E+02  0.70026716327E+02  0.47000000000E+01 0. -1.
        -11    1    6    6    0    0 -0.32711336570E+02  0.64369285278E+02  0.95235039006E+02  0.11951212943E+03  0.00000000000E+00 0.  1.
         12    1    6    6    0    0  0.31619132796E+02  0.35959086961E+02  0.13355256630E+03  0.14187710689E+03  0.00000000000E+00 0. -1.
         -5    1    3    3    0  503  0.21507941872E+02 -0.12069860847E+03  0.77419080418E+02  0.14507429015E+03  0.47000000000E+01 0.  1.
         11    1    4    4    0    0 -0.11825595014E+02 -0.19193372582E+02  0.20851926989E+02  0.30708844128E+02  0.00000000000E+00 0. -1.
        -12    1    4    4    0    0  0.53876371113E+02  0.13246714901E+02 -0.23364829908E+02  0.60200117081E+02  0.00000000000E+00 0.  1.
</event>
<event>
12    1  0.8494789E-002  0.2473390E+03  0.7818608E-02  0.1115190E+00
         21   -1    0    0  503  502  0.00000000000E+00  0.00000000000E+00  0.81761668237E+03  0.81761668237E+03  0.00000000000E+00 0. -1.
         21   -1    0    0  501  503 -0.00000000000E+00 -0.00000000000E+00 -0.75069411314E+02  0.75069411314E+02  0.00000000000E+00 0. -1.
          6    2    1    2  501    0 -0.10094368457E+03  0.14346879303E+03  0.41232458966E+03  0.48082028407E+03  0.17436644262E+03 0.  0.
         24    2    3    3    0    0  0.86181446870E+01  0.49613189455E+02  0.22580038085E+03  0.24496855263E+03  0.80548363116E+02 0.  0.
         -6    2    1    2    0  502  0.10094368457E+03 -0.14346879303E+03  0.33022268140E+03  0.41186580961E+03  0.17266587326E+03 0.  0.
        -24    2    5    5    0    0  0.51525580052E+02 -0.13974439279E+03  0.16220093848E+03  0.23662478615E+03  0.86595405541E+02 0.  0.
          5    1    3    3  501    0 -0.10956182926E+03  0.93855603571E+02  0.18652420880E+03  0.23585173144E+03  0.47000000000E+01 0. -1.
        -13    1    4    4    0    0 -0.11022341011E+02 -0.17757948575E+02  0.86513299324E+02  0.89002178057E+02  0.00000000000E+00 0.  1.
         14    1    4    4    0    0  0.19640485698E+02  0.67371138030E+02  0.13928708153E+03  0.15596637458E+03  0.00000000000E+00 0. -1.
         -5    1    5    5    0  502  0.49418104521E+02 -0.37244002402E+01  0.16802174291E+03  0.17524102346E+03  0.47000000000E+01 0.  1.
         11    1    6    6    0    0  0.74972186671E+02 -0.90129456756E+02  0.11537461894E+03  0.16448541104E+03  0.00000000000E+00 0. -1.
        -12    1    6    6    0    0 -0.23446606620E+02 -0.49614936031E+02  0.46826319541E+02  0.72139375109E+02  0.00000000000E+00 0.  1.
</event>
<event>
12    1  0.8494789E-002  0.1786499E+03  0.7818608E-02  0.1169718E+00
         21   -1    0    0  501  502  0.00000000000E+00  0.00000000000E+00  0.21054956974E+03  0.21054956974E+03  0.00000000000E+00 0.  1.
         21   -1    0    0  502  503 -0.00000000000E+00 -0.00000000000E+00 -0.28963890587E+03  0.28963890587E+03  0.00000000000E+00 0.  1.
         -6    2    1    2    0  503 -0.20148436677E+02  0.30420205863E+02 -0.21335337692E+03  0.27671000558E+03  0.17238739895E+03 0.  0.
        -24    2    3    3    0    0 -0.70069591097E+02 -0.12465712898E+02 -0.12722045045E+03  0.16820979954E+03  0.83930638353E+02 0.  0.
          6    2    1    2  501    0  0.20148436677E+02 -0.30420205863E+02  0.13426404079E+03  0.22347847003E+03  0.17488409159E+03 0.  0.
         24    2    5    5    0    0  0.65688662379E+02  0.98860380285E+01  0.43306291065E+02  0.11396176953E+03  0.81848127379E+02 0.  0.
          5    1    5    5  501    0 -0.45540225702E+02 -0.40306243891E+02  0.90957749724E+02  0.10951670050E+03  0.47000000000E+01 0. -1.
        -13    1    6    6    0    0  0.51636617733E+02 -0.26302523917E+02  0.47480429529E+02  0.74916982344E+02  0.00000000000E+00 0.  1.
         14    1    6    6    0    0  0.14052044646E+02  0.36188561946E+02 -0.41741384639E+01  0.39044787185E+02  0.00000000000E+00 0. -1.
         -5    1    3    3    0  503  0.49921154421E+02  0.42885918760E+02 -0.86132926470E+02  0.10850020603E+03  0.47000000000E+01 0.  1.
         13    1    4    4    0    0 -0.66263728108E+02  0.20482663495E+02 -0.11195509436E+03  0.13169800423E+03  0.00000000000E+00 0. -1.
        -14    1    4    4    0    0 -0.38058629896E+01 -0.32948376393E+02 -0.15265356097E+02  0.36511795310E+02  0.00000000000E+00 0.  1.
</event>
<event>
12    1  0.8494789E-002  0.1755889E+03  0.7818608E-02  0.1172276E+00
         21   -1    0    0  501  502  0.00000000000E+00  0.00000000000E+00  0.16342983604E+04  0.16342983604E+04  0.00000000000E+00 0. -1.
         21   -1    0    0  502  503 -0.00000000000E+00 -0.00000000000E+00 -0.19986729456E+02  0.19986729456E+02  0.00000000000E+00 0. -1.
         -6    2    1    2    0  503 -0.14853033411E+02 -0.28709639068E+02  0.60742071672E+03  0.63229058962E+03  0.17258796782E+03 0.  0.
        -24    2    3    3    0    0 -0.36822909296E+02 -0.21225868761E+02  0.60095613986E+03  0.60774343055E+03  0.79983318140E+02 0.  0.
          6    2    1    2  501    0  0.14853033411E+02  0.28709639068E+02  0.10068909142E+04  0.10219945002E+04  0.17204240582E+03 0.  0.
         24    2    5    5    0    0 -0.41852061835E+02 -0.18116107045E+02  0.42106392323E+03  0.43155104681E+03  0.82835319407E+02 0.  0.
          5    1    5    5  501    0  0.56705095246E+02  0.46825746113E+02  0.58582699096E+03  0.59044345340E+03  0.47000000000E+01 0. -1.
        -11    1    6    6    0    0 -0.24971301097E+02  0.28169726590E+02  0.27110618699E+03  0.27370725967E+03  0.00000000000E+00 0.  1.
         12    1    6    6    0    0 -0.16880760738E+02 -0.46285833635E+02  0.14995773624E+03  0.15784378714E+03  0.00000000000E+00 0. -1.
         -5    1    3    3    0  503  0.21969875885E+02 -0.74837703069E+01  0.64645768602E+01  0.24547159070E+02  0.47000000000E+01 0.  1.
         13    1    4    4    0    0 -0.14706033046E+02  0.20146639631E+02  0.63187938148E+02  0.67932834652E+02  0.00000000000E+00 0. -1.
        -14    1    4    4    0    0 -0.22116876249E+02 -0.41372508392E+02  0.53776820172E+03  0.53981059590E+03  0.00000000000E+00 0.  1.
</event>
<event>
12    1  0.8494789E-002  0.2259102E+03  0.7818608E-02  0.1129774E+00
         21   -1    0    0  503  502  0.00000000000E+00  0.00000000000E+00  0.40687624633E+02  0.40687624633E+02  0.00000000000E+00 0.  1.
         21   -1    0    0  501  503 -0.00000000000E+00 -0.00000000000E+00 -0.12759105868E+04  0.12759105868E+04  0.00000000000E+00 0. -1.
          6    2    1    2  501    0 -0.11534622270E+03 -0.89569024323E+02 -0.52101390635E+03  0.56788283193E+03  0.17236025927E+03 0.  0.
         24    2    3    3    0    0  0.51254955408E+01 -0.33879589742E+02 -0.27741694229E+03  0.29043676704E+03  0.78862275359E+02 0.  0.
         -6    2    1    2    0  502  0.11534622270E+03  0.89569024323E+02 -0.71420905586E+03  0.74871537955E+03  0.17074186041E+03 0.  0.
        -24    2    5    5    0    0  0.55393297388E+02  0.12199133399E+03 -0.47123798527E+03  0.49632165823E+03  0.79496205616E+02 0.  0.
          5    1    3    3  501    0 -0.12047171824E+03 -0.55689434582E+02 -0.24359696407E+03  0.27744606489E+03  0.47000000000E+01 0. -1.
        -11    1    4    4    0    0 -0.18956402742E+02  0.19571680527E+02 -0.81257689545E+02  0.85704188892E+02  0.00000000000E+00 0.  1.
         12    1    4    4    0    0  0.24081898283E+02 -0.53451270269E+02 -0.19615925274E+03  0.20473257815E+03  0.00000000000E+00 0. -1.
         -5    1    5    5    0  502  0.59952925308E+02 -0.32422309665E+02 -0.24297107059E+03  0.25239372132E+03  0.47000000000E+01 0.  1.
         13    1    6    6    0    0 -0.72536260054E+01  0.63686793980E+02 -0.13624822301E+03  0.15057290956E+03  0.00000000000E+00 0. -1.
        -14    1    6    6    0    0  0.62646923394E+02  0.58304540008E+02 -0.33498976225E+03  0.34574874867E+03  0.00000000000E+00 0.  1.
</event>
<event>
12    1  0.8494789E-002  0.1808279E+03  0.7818608E-02  0.1169857E+00
         21   -1    0    0  503  502  0.00000000000E+00  0.00000000000E+00  0.20686053399E+03  0.20686053399E+03  0.00000000000E+00 0. -1.
         21   -1    0    0  501  503 -0.00000000000E+00 -0.00000000000E+00 -0.80966774174E+03  0.80966774174E+03  0.00000000000E+00 0. -1.
          6    2    1    2  501    0  0.39850310272E+02 -0.29735234278E+02 -0.75894722599E+03  0.77761736089E+03  0.16191243536E+03 0.  0.
         24    2    3    3    0    0  0.30016847801E+02  0.36362695445E+01 -0.18544423092E+03  0.20304088242E+03  0.76953255578E+02 0.  0.
         -6    2    1    2    0  502 -0.39850310272E+02  0.29735234278E+02  0.15614001825E+03  0.23891091485E+03  0.17385766750E+03 0.  0.
        -24    2    5    5    0    0 -0.28531622001E+01  0.50378352960E+02  0.18946444964E+02  0.95247788527E+02  0.78530595700E+02 0.  0.
          5    1    3    3  501    0  0.98334624717E+01 -0.33371503823E+02 -0.57350299508E+03  0.57457647847E+03  0.47000000000E+01 0. -1.
        -11    1    4    4    0    0 -0.12593158105E+02  0.13146679062E+02 -0.13544632997E+03  0.13666430077E+03  0.00000000000E+00 0.  1.
         12    1    4    4    0    0  0.42610005905E+02 -0.95104095179E+01 -0.49997900943E+02  0.66376581647E+02  0.00000000000E+00 0. -1.
         -5    1    5    5    0  502 -0.36997148072E+02 -0.20643118682E+02  0.13719357328E+03  0.14366312632E+03  0.47000000000E+01 0.  1.
         13    1    6    6    0    0  0.11654729256E+02 -0.54636757963E+01  0.33378406475E+02  0.35774327192E+02  0.00000000000E+00 0. -1.
        -14    1    6    6    0    0 -0.14507891456E+02  0.55842028756E+02 -0.14431961512E+02  0.59473461335E+02  0.00000000000E+00 0.  1.
</event>
<event>
12    1  0.8494789E-002  0.1815018E+03  0.7818608E-02  0.1166903E+00
         21   -1    0    0  503  502  0.00000000000E+00  0.00000000000E+00  0.19563655043E+03  0.19563655043E+03  0.00000000000E+00 0.  1.
         21   -1    0    0  501  503 -0.00000000000E+00 -0.00000000000E+00 -0.34345198864E+03  0.34345198864E+03  0.00000000000E+00 0. -1.
          6    2    1    2  501    0  0.13555962640E+02 -0.54366024704E+02 -0.26726822670E+03  0.32180564894E+03  0.17025610685E+03 0.  0.
         24    2    3    3    0    0  0.66087057585E+02 -0.33911261320E+02 -0.22923693376E+03  0.25364127023E+03  0.79163434378E+02 0.  0.
         -6    2    1    2    0  502 -0.13555962640E+02  0.54366024704E+02  0.11945278849E+03  0.21728289013E+03  0.17263677737E+03 0.  0.
        -24    2    5    5    0    0 -0.52774989608E+02  0.97961133450E+01  0.18108375640E+02  0.99735499301E+02  0.82085889090E+02 0.  0.
          5    1    3    3  501    0 -0.52531094945E+02 -0.20454763384E+02 -0.38031292947E+02  0.68164378707E+02  0.47000000000E+01 0. -1.
        -13    1    4    4    0    0  0.31347630098E+02 -0.25533347073E+02 -0.27816296747E+02  0.49075167755E+02  0.00000000000E+00 0.  1.
         14    1    4    4    0    0  0.34739427487E+02 -0.83779142471E+01 -0.20142063701E+03  0.20456610248E+03  0.00000000000E+00 0. -1.
         -5    1    5    5    0  502  0.39219026968E+02  0.44569911359E+02  0.10134441285E+03  0.11754739083E+03  0.47000000000E+01 0.  1.
         13    1    6    6    0    0 -0.73792886866E+02  0.76175051068E+01  0.23697997443E+02  0.77878184486E+02  0.00000000000E+00 0. -1.
        -14    1    6    6    0    0  0.21017897258E+02  0.21786082382E+01 -0.55896218035E+01  0.21857314815E+02  0.00000000000E+00 0.  1.
</event>
<event>
12    1  0.8494789E-002  0.1852473E+03  0.7818608E-02  0.1163287E+00
         21   -1    0    0  501  502  0.00000000000E+00  0.00000000000E+00  0.44786016468E+02  0.44786016468E+02  0.00000000000E+00 0. -1.
         21   -1    0    0  502  503 -0.00000000000E+00 -0.00000000000E+00 -0.85221498671E+03  0.85221498671E+03  0.00000000000E+00 0. -1.
         -6    2    1    2    0  503 -0.63666201969E+02  0.98002041803E+01 -0.55477410495E+03  0.58488533488E+03  0.17368683934E+03 0.  0.
        -24    2    3    3    0    0 -0.82828696583E+02  0.50569907268E+02 -0.48929056769E+03  0.50526402152E+03  0.80427379096E+02 0.  0.
          6    2    1    2  501    0  0.63666201969E+02 -0.98002041803E+01 -0.25265486529E+03  0.31211566830E+03  0.17155838705E+03 0.  0.
         24    2    5    5    0    0  0.23900253478E+02 -0.32319150445E+02 -0.25056268184E+03  0.26612761733E+03  0.80165463700E+02 0.  0.
          5    1    5    5  501    0  0.39765948491E+02  0.22518946265E+02 -0.20921834462E+01  0.45988050968E+02  0.47000000000E+01 0. -1.
        -13    1    6    6    0    0 -0.13893595815E+01  0.78742946836E+01  0.27090999488E+01  0.84423965403E+01  0.00000000000E+00 0.  1.
         14    1    6    6    0    0  0.25289613060E+02 -0.40193445129E+02 -0.25327178179E+03  0.25768522079E+03  0.00000000000E+00 0. -1.
         -5    1    3    3    0  503  0.19162494613E+02 -0.40769703088E+02 -0.65483537255E+02  0.79621313360E+02  0.47000000000E+01 0.  1.
         13    1    4    4    0    0 -0.21035987986E+02  0.24952837869E+02 -0.34131079067E+03  0.34286763151E+03  0.00000000000E+00 0. -1.
        -14    1    4    4    0    0 -0.61792708597E+02  0.25617069399E+02 -0.14797977702E+03  0.16239639001E+03  0.00000000000E+00 0.  1.
</event>
<event>
12    1  0.8494789E-002  0.1968609E+03  0.7818608E-02  0.1152722E+00
         21   -1    0    0  503  502  0.00000000000E+00  0.00000000000E+00  0.52353562994E+03  0.52353562994E+03  0.00000000000E+00 0.  1.
         21   -1    0    0  501  503 -0.00000000000E+00 -0.00000000000E+00 -0.14035655671E+03  0.14035655671E+03  0.00000000000E+00 0. -1.
          6    2    1    2  501    0 -0.10113767490E+02  0.92876670315E+02 -0.37161330159E+02  0.20033770278E+03  0.17327973487E+03 0.  0.
         24    2    3    3    0    0  0.41902051880E+02  0.11483593801E+02  0.58448635068E+01  0.94497724216E+02  0.83713813522E+02 0.  0.
         -6    2    1    2    0  502  0.10113767490E+02 -0.92876670315E+02  0.42034040339E+03  0.46355448387E+03  0.17166345159E+03 0.  0.
        -24    2    5    5    0    0  0.53553736137E+02 -0.52517351037E+02  0.15366150209E+03  0.19032265570E+03  0.83575003636E+02 0.  0.
          5    1    3    3  501    0 -0.52015819370E+02  0.81393076514E+02 -0.43006193666E+02  0.10583997857E+03  0.47000000000E+01 0. -1.
        -13    1    4    4    0    0  0.45679259608E+02  0.11649497472E+02  0.38966366810E+02  0.61161125660E+02  0.00000000000E+00 0.  1.
         14    1    4    4    0    0 -0.37772077281E+01 -0.16590367089E+00 -0.33121503303E+02  0.33336598556E+02  0.00000000000E+00 0. -1.
         -5    1    5    5    0  502 -0.43439968647E+02 -0.40359319278E+02  0.26667890130E+03  0.27323182817E+03  0.47000000000E+01 0.  1.
         11    1    6    6    0    0  0.45268280684E+02 -0.43023117598E+02  0.16305493132E+03  0.17460560275E+03  0.00000000000E+00 0. -1.
        -12    1    6    6    0    0  0.82854554526E+01 -0.94942334392E+01 -0.93934292292E+01  0.15717052947E+02  0.00000000000E+00 0.  1.
</event>
<event>
12    1  0.8494789E-002  0.2316099E+03  0.7818608E-02  0.1127644E+00
         21   -1    0    0  501  502  0.00000000000E+00  0.00000000000E+00  0.10223562410E+04  0.10223562410E+04  0.00000000000E+00 0.  1.
         21   -1    0    0  502  503 -0.00000000000E+00 -0.00000000000E+00 -0.17725679582E+03  0.17725679582E+03  0.00000000000E+00 0. -1.
         -6    2    1    2    0  503 -0.66204796018E+01 -0.15480739311E+03 -0.89123574612E+02  0.23710808149E+03  0.15578212684E+03 0.  0.
        -24    2    3    3    0    0 -0.58327465425E+02 -0.13757839631E+03 -0.81273120202E+02  0.18184353274E+03  0.64279405549E+02 0.  0.
          6    2    1    2  501    0  0.66204796018E+01  0.15480739311E+03  0.93422301976E+03  0.96250495530E+03  0.17214522537E+03 0.  0.
         24    2    5    5    0    0  0.27989977223E+02  0.98862949030E+02  0.32326340181E+03  0.34859927768E+03  0.80404651185E+02 0.  0.
          5    1    5    5  501    0 -0.21369497621E+02  0.55944444082E+02  0.61095961795E+03  0.61390567762E+03  0.47000000000E+01 0. -1.
        -11    1    6    6    0    0  0.42504597623E+02  0.97535258844E+02  0.31348514734E+03  0.33104788950E+03  0.00000000000E+00 0.  1.
         12    1    6    6    0    0 -0.14514620400E+02  0.13276901857E+01  0.97782544667E+01  0.17551388179E+02  0.00000000000E+00 0. -1.
         -5    1    3    3    0  503  0.51706985823E+02 -0.17228996798E+02 -0.78504544102E+01  0.55264548745E+02  0.47000000000E+01 0.  1.
         11    1    4    4    0    0 -0.31962183866E+02 -0.66862668574E+02 -0.76057162510E+02  0.10619270039E+03  0.00000000000E+00 0. -1.
        -12    1    4    4    0    0 -0.26365281559E+02 -0.70715727740E+02 -0.52159576918E+01  0.75650832356E+02  0.00000000000E+00 0.  1.
</event>
<event>
12    1  0.8494789E-002  0.3244777E+03  0.7818608E-02  0.1073607E+00
         21   -1    0    0  503  502  0.00000000000E+00  0.00000000000E+00  0.10588399764E+03  0.10588399764E+03  0.00000000000E+00 0. -1.
         21   -1    0    0  501  503 -0.00000000000E+00 -0.00000000000E+00 -0.11544464350E+04  0.11544464350E+04  0.00000000000E+00 0.  1.
          6    2    1    2  501    0  0.83864353459E+01  0.27486071678E+03 -0.75896043309E+03  0.82541079004E+03  0.17223033234E+03 0.  0.
         24    2    3    3    0    0 -0.45784016723E+02  0.16415615044E+03 -0.46510046084E+03  0.50671703079E+03  0.10677215325E+03 0.  0.
         -6    2    1    2    0  502 -0.83864353459E+01 -0.27486071678E+03 -0.28960200428E+03  0.43491964262E+03  0.17224119347E+03 0.  0.
        -24    2    5    5    0    0  0.21369676114E+02 -0.10881352189E+03 -0.55457889015E+02  0.14629765141E+03  0.77655519759E+02 0.  0.
          5    1    3    3  501    0  0.54170452069E+02  0.11070456634E+03 -0.29385997226E+03  0.31869375924E+03  0.47000000000E+01 0. -1.
        -11    1    4    4    0    0  0.18391677283E+02  0.12335008725E+03 -0.27439153782E+03  0.30140373893E+03  0.00000000000E+00 0.  1.
         12    1    4    4    0    0 -0.64175694006E+02  0.40806063191E+02 -0.19070892302E+03  0.20531329186E+03  0.00000000000E+00 0. -1.
         -5    1    5    5    0  502 -0.29756111460E+02 -0.16604719489E+03 -0.23414411527E+03  0.28862199122E+03  0.47000000000E+01 0.  1.
         13    1    6    6    0    0  0.30718825199E+02 -0.93302476382E+02 -0.71983002141E+02  0.12178074937E+03  0.00000000000E+00 0. -1.
        -14    1    6    6    0    0 -0.93491490850E+01 -0.15511045511E+02  0.16525113127E+02  0.24516902033E+02  0.00000000000E+00 0.  1.
</event>
<event>
12    1  0.8494789E-002  0.1877163E+03  0.7818608E-02  0.1160850E+00
         21   -1    0    0  503  502  0.00000000000E+00  0.00000000000E+00  0.18104094036E+04  0.18104094036E+04  0.00000000000E+00 0.  1.
         21   -1    0    0  501  503 -0.00000000000E+00 -0.00000000000E+00 -0.20328598925E+02  0.20328598925E+02  0.00000000000E+00 0. -1.
          6    2    1    2  501    0 -0.14596676234E+02  0.70508867639E+02  0.10955257525E+04  0.11112630937E+04  0.17188491955E+03 0.  0.
         24    2    3    3    0    0  0.26407332267E+02  0.46794141411E+02  0.99763487590E+03  0.10024125968E+04  0.81661678150E+02 0.  0.
         -6    2    1    2    0  502  0.14596676234E+02 -0.70508867639E+02  0.69455505218E+03  0.71947490887E+03  0.17335760904E+03 0.  0.
        -24    2    5    5    0    0 -0.13434427654E+02 -0.10487211107E+03  0.60675571901E+03  0.62099959120E+03  0.79431393010E+02 0.  0.
          5    1    3    3  501    0 -0.41004008501E+02  0.23714726228E+02  0.97890876644E+02  0.10885049694E+03  0.47000000000E+01 0. -1.
        -11    1    4    4    0    0  0.58683304200E+01 -0.21513371488E+02  0.13455492346E+03  0.13639021182E+03  0.00000000000E+00 0.  1.
         12    1    4    4    0    0  0.20539001847E+02  0.68307512899E+02  0.86307995244E+03  0.86602238494E+03  0.00000000000E+00 0. -1.
         -5    1    5    5    0  502  0.28031103888E+02  0.34363243436E+02  0.87799333176E+02  0.98475317672E+02  0.47000000000E+01 0.  1.
         13    1    6    6    0    0 -0.71339776973E+01  0.57841028641E+01  0.83387395074E+01  0.12405001423E+02  0.00000000000E+00 0. -1.
        -14    1    6    6    0    0 -0.63004499563E+01 -0.11065621394E+03  0.59841697950E+03  0.60859458978E+03  0.00000000000E+00 0.  1.
</event>
<event>
12    1  0.8494789E-002  0.2924644E+03  0.7818608E-02  0.1089348E+00
         21   -1    0    0  503  502  0.00000000000E+00  0.00000000000E+00  0.13732147906E+04  0.13732147906E+04  0.00000000000E+00 0.  1.
         21   -1    0    0  501  503 -0.00000000000E+00 -0.00000000000E+00 -0.14262819558E+03  0.14262819558E+03  0.00000000000E+00 0. -1.
          6    2    1    2  501    0  0.22850396421E+03 -0.50226784103E+02  0.43862305532E+02  0.29361142465E+03  0.17189233647E+03 0.  0.
         24    2    3    3    0    0  0.21491573856E+03 -0.90288120869E+02  0.48468955941E+02  0.25079948931E+03  0.78806247817E+02 0.  0.
         -6    2    1    2    0  502 -0.22850396421E+03  0.50226784103E+02  0.11867242895E+04  0.12222315615E+04  0.17549546786E+03 0.  0.
        -24    2    5    5    0    0 -0.14416798271E+03  0.43715187131E+02  0.45999743773E+03  0.49058344547E+03  0.79868951567E+02 0.  0.
          5    1    3    3  501    0  0.13588225652E+02  0.40061336766E+02 -0.46066504089E+01  0.42811935343E+02  0.47000000000E+01 0. -1.
        -13    1    4    4    0    0  0.11001989191E+03 -0.71303043419E+02  0.58825774263E+02  0.14369750288E+03  0.00000000000E+00 0.  1.
         14    1    4    4    0    0  0.10489584665E+03 -0.18985077451E+02 -0.10356818322E+02  0.10710198643E+03  0.00000000000E+00 0. -1.
         -5    1    5    5    0  502 -0.84335981501E+02  0.65115969722E+01  0.72672685177E+03  0.73164811608E+03  0.47000000000E+01 0.  1.
         11    1    6    6    0    0 -0.25089133851E+02  0.41873821092E+02  0.97737786494E+02  0.10924997226E+03  0.00000000000E+00 0. -1.
        -12    1    6    6    0    0 -0.11907884886E+03  0.18413660389E+01  0.36225965124E+03  0.38133347321E+03  0.00000000000E+00 0.  1.
</event>
<event>
12    1  0.8494789E-002  0.1725697E+03  0.7818608E-02  0.1175454E+00
         21   -1    0    0  503  502  0.00000000000E+00  0.00000000000E+00  0.30275328985E+03  0.30275328985E+03  0.00000000000E+00 0. -1.
         21   -1    0    0  501  503 -0.00000000000E+00 -0.00000000000E+00 -0.25450394095E+03  0.25450394095E+03  0.00000000000E+00 0. -1.
          6    2    1    2  501    0  0.31657584224E+01 -0.12360231156E+02 -0.19448972894E+03  0.26001258820E+03  0.17209733879E+03 0.  0.
         24    2    3    3    0    0 -0.56172916015E+02  0.27327967675E+02 -0.11482418997E+03  0.15293822381E+03  0.79393270425E+02 0.  0.
         -6    2    1    2    0  502 -0.31657584224E+01  0.12360231156E+02  0.24273907784E+03  0.29724464259E+03  0.17108278785E+03 0.  0.
        -24    2    5    5    0    0  0.44745298910E+01  0.75406355316E+01  0.26248464760E+03  0.27502798145E+03  0.81641397300E+02 0.  0.
          5    1    3    3  501    0  0.59338674437E+02 -0.39688198832E+02 -0.79665538972E+02  0.10707436439E+03  0.47000000000E+01 0. -1.
        -13    1    4    4    0    0  0.75901154593E+00  0.20184298759E+02 -0.86730315782E+02  0.89051275626E+02  0.00000000000E+00 0.  1.
         14    1    4    4    0    0 -0.56931927561E+02  0.71436689167E+01 -0.28093874189E+02  0.63886948184E+02  0.00000000000E+00 0. -1.
         -5    1    5    5    0  502 -0.76402883134E+01  0.48195956247E+01 -0.19745569755E+02  0.22216661145E+02  0.47000000000E+01 0.  1.
         11    1    6    6    0    0  0.93563626381E+01  0.38598751104E+02  0.74432831507E+02  0.84366175181E+02  0.00000000000E+00 0. -1.
        -12    1    6    6    0    0 -0.48818327472E+01 -0.31058115572E+02  0.18805181609E+03  0.19066180626E+03  0.00000000000E+00 0.  1.
</event>
<event>
12    1  0.8494789E-002  0.2534189E+03  0.7818608E-02  0.1111281E+00
         21   -1    0    0  503  502  0.00000000000E+00  0.00000000000E+00  0.35635824664E+03  0.35635824664E+03  0.00000000000E+00 0. -1.
         21   -1    0    0  501  503 -0.00000000000E+00 -0.00000000000E+00 -0.23698313426E+03  0.23698313426E+03  0.00000000000E+00 0. -1.
          6    2    1    2  501    0  0.30620761015E+02  0.18321749074E+03 -0.86133561725E+02  0.26765670892E+03  0.17237993925E+03 0.  0.
         24    2    3    3    0    0  0.44982020552E+02  0.18940056614E+03 -0.35118055293E+02  0.21409227955E+03  0.81891817243E+02 0.  0.
         -6    2    1    2    0  502 -0.30620761015E+02 -0.18321749074E+03  0.20550867410E+03  0.32568467198E+03  0.17126123471E+03 0.  0.
        -24    2    5    5    0    0 -0.67111924276E+02 -0.98602032360E+02  0.65433895964E+02  0.15795150811E+03  0.80254052896E+02 0.  0.
          5    1    3    3  501    0 -0.14361259537E+02 -0.61830753964E+01 -0.51015506432E+02  0.53564429366E+02  0.47000000000E+01 0. -1.
        -13    1    4    4    0    0  0.19013282400E+02  0.16459345921E+03 -0.53019911128E+02  0.17396442940E+03  0.00000000000E+00 0.  1.
         14    1    4    4    0    0  0.25968738152E+02  0.24807106928E+02  0.17901855835E+02  0.40127850150E+02  0.00000000000E+00 0. -1.
         -5    1    5    5    0  502  0.36491163261E+02 -0.84615458379E+02  0.14007477814E+03  0.16773316388E+03  0.47000000000E+01 0.  1.
         11    1    6    6    0    0  0.36432552295E+01 -0.62435951314E+02  0.16693019598E+02  0.64731586018E+02  0.00000000000E+00 0. -1.
        -12    1    6    6    0    0 -0.70755179505E+02 -0.36166081046E+02  0.48740876366E+02  0.93219922087E+02  0.00000000000E+00 0.  1.
</event>
<event>
12    1  0.8494789E-002  0.1730004E+03  0.7818608E-02  0.1174777E+00
         21   -1    0    0  501  502  0.00000000000E+00  0.00000000000E+00  0.39198692277E+03  0.39198692277E+03  0.00000000000E+00 0. -1.
         21   -1    0    0  502  503 -0.00000000000E+00 -0.00000000000E+00 -0.12493958988E+03  0.12493958988E+03  0.00000000000E+00 0. -1.
         -6    2    1    2    0  503 -0.13523813352E+01  0.18955314119E+02 -0.27740310519E+02  0.17512410428E+03  0.17186562834E+03 0.  0.
        -24    2    3    3    0    0 -0.14852616354E+02 -0.88162044067E+01  0.46242559689E+02  0.94818010674E+02  0.80955266345E+02 0.  0.
          6    2    1    2  501    0  0.13523813352E+01 -0.18955314119E+02  0.29478764341E+03  0.34180240836E+03  0.17195347856E+03 0.  0.
         24    2    5    5    0    0  0.60738754811E+02  0.11421823987E+02  0.16729719282E+03  0.19783916004E+03  0.85629014498E+02 0.  0.
          5    1    5    5  501    0 -0.59386373476E+02 -0.30377138106E+02  0.12749045059E+03  0.14396324832E+03  0.47000000000E+01 0. -1.
        -13    1    6    6    0    0  0.74850971226E+02  0.25655547090E+02  0.15577652840E+03  0.17472035311E+03  0.00000000000E+00 0.  1.
         14    1    6    6    0    0 -0.14112216415E+02 -0.14233723103E+02  0.11520664413E+02  0.23118806934E+02  0.00000000000E+00 0. -1.
         -5    1    3    3    0  503  0.13500235019E+02  0.27771518525E+02 -0.73982870208E+02  0.80306093610E+02  0.47000000000E+01 0.  1.
         13    1    4    4    0    0  0.85446732289E+01  0.16059414605E+02 -0.15736652981E+02  0.24053242715E+02  0.00000000000E+00 0. -1.
        -14    1    4    4    0    0 -0.23397289583E+02 -0.24875619012E+02  0.61979212671E+02  0.70764767959E+02  0.00000000000E+00 0.  1.
</event>
<event>
12    1  0.8494789E-002  0.2338885E+03  0.7818608E-02  0.1123987E+00
         21   -1    0    0  501  502  0.00000000000E+00  0.00000000000E+00  0.22977954202E+03  0.22977954202E+03  0.00000000000E+00 0. -1.
         21   -1    0    0  502  503 -0.00000000000E+00 -0.00000000000E+00 -0.33524178841E+03  0.33524178841E+03  0.00000000000E+00 0.  1.
         -6    2    1    2    0  503  0.26135835074E+02  0.15682903008E+03  0.99643440790E+02  0.25393906688E+03  0.17110759142E+03 0.  0.
        -24    2    3    3    0    0  0.51725892233E+02  0.92125385296E+02  0.12075770738E+03  0.18107402088E+03  0.83920930662E+02 0.  0.
          6    2    1    2  501    0 -0.26135835074E+02 -0.15682903008E+03 -0.20510568718E+03  0.31108226355E+03  0.17153834916E+03 0.  0.
         24    2    5    5    0    0 -0.24892628170E+02 -0.55250242501E+02 -0.18011062921E+03  0.20636054387E+03  0.80452489574E+02 0.  0.
          5    1    5    5  501    0 -0.12432069041E+01 -0.10157878758E+03 -0.24995057967E+02  0.10472171968E+03  0.47000000000E+01 0. -1.
        -13    1    6    6    0    0  0.25164076209E+02 -0.26426526226E+01 -0.70264063099E+02  0.74681007676E+02  0.00000000000E+00 0.  1.
         14    1    6    6    0    0 -0.50056704379E+02 -0.52607589878E+02 -0.10984656611E+03  0.13167953619E+03  0.00000000000E+00 0. -1.
         -5    1    3    3    0  503 -0.25590057160E+02  0.64703644786E+02 -0.21114266592E+02  0.72865045994E+02  0.47000000000E+01 0.  1.
         11    1    4    4    0    0  0.41841579675E+02  0.10554501291E+03  0.11874021952E+03  0.16428544449E+03  0.00000000000E+00 0. -1.
        -12    1    4    4    0    0  0.98843125584E+01 -0.13419627611E+02  0.20174878581E+01  0.16788576391E+02  0.00000000000E+00 0.  1.
</event>
<event>
12    1  0.8494789E-002  0.1738526E+03  0.7818608E-02  0.1174045E+00
         21   -1    0    0  501  502  0.00000000000E+00  0.00000000000E+00  0.69925248269E+02  0.69925248269E+02  0.00000000000E+00 0. -1.
         21   -1    0    0  502  503 -0.00000000000E+00 -0.00000000000E+00 -0.45029562025E+03  0.45029562025E+03  0.00000000000E+00 0.  1.
         -6    2    1    2    0  503  0.17909073786E+02 -0.18836382487E+01 -0.24410421234E+03  0.29932905777E+03  0.17229839037E+03 0.  0.
        -24    2    3    3    0    0  0.71366296573E+02 -0.15460065954E+02 -0.20981330202E+03  0.23421415480E+03  0.74178748171E+02 0.  0.
          6    2    1    2  501    0 -0.17909073786E+02  0.18836382487E+01 -0.13626615964E+03  0.22089181075E+03  0.17291744497E+03 0.  0.
         24    2    5    5    0    0 -0.51200093976E+02  0.57056339059E+02 -0.80989361135E+02  0.13586279574E+03  0.77605072000E+02 0.  0.
          5    1    5    5  501    0  0.33291020190E+02 -0.55172700810E+02 -0.55276798500E+02  0.85029015004E+02  0.47000000000E+01 0. -1.
        -13    1    6    6    0    0 -0.43562725973E+01  0.19907714197E+02 -0.72703235810E+02  0.75505328903E+02  0.00000000000E+00 0.  1.
         14    1    6    6    0    0 -0.46843821379E+02  0.37148624862E+02 -0.82861253257E+01  0.60357466841E+02  0.00000000000E+00 0. -1.
         -5    1    3    3    0  503 -0.53457222787E+02  0.13576427705E+02 -0.34290910322E+02  0.65114902965E+02  0.47000000000E+01 0.  1.
         13    1    4    4    0    0  0.21617211867E+02 -0.24430719967E+02 -0.21107627942E+02  0.38854805164E+02  0.00000000000E+00 0. -1.
        -14    1    4    4    0    0  0.49749084706E+02  0.89706540134E+01 -0.18870567408E+03  0.19535934964E+03  0.00000000000E+00 0.  1.
</event>
<event>
12    1  0.8494789E-002  0.1980924E+03  0.7818608E-02  0.1151988E+00
         21   -1    0    0  501  502  0.00000000000E+00  0.00000000000E+00  0.21047701059E+03  0.21047701059E+03  0.00000000000E+00 0. -1.
         21   -1    0    0  502  503 -0.00000000000E+00 -0.00000000000E+00 -0.22498221594E+03  0.22498221594E+03  0.00000000000E+00 0. -1.
         -6    2    1    2    0  503 -0.98104523465E+02 -0.10943810386E+01 -0.10047950331E+03  0.21951438268E+03  0.16871496206E+03 0.  0.
        -24    2    3    3    0    0 -0.10336726322E+03  0.12622283935E+02 -0.15854946915E+02  0.13349549596E+03  0.82009480799E+02 0.  0.
          6    2    1    2  501    0  0.98104523465E+02  0.10943810386E+01  0.85974297955E+02  0.21594484385E+03  0.17208980354E+03 0.  0.
         24    2    5    5    0    0  0.93509385933E+02 -0.14559712172E+02 -0.43050815549E+01  0.12408286974E+03  0.80137596411E+02 0.  0.
          5    1    5    5  501    0  0.45951375319E+01  0.15654093210E+02  0.90279379510E+02  0.91861974113E+02  0.47000000000E+01 0. -1.
        -13    1    6    6    0    0  0.89092255188E+02  0.18170895731E+02 -0.15316114944E+01  0.90939305144E+02  0.00000000000E+00 0.  1.
         14    1    6    6    0    0  0.44171307446E+01 -0.32730607902E+02 -0.27734700606E+01  0.33143564592E+02  0.00000000000E+00 0. -1.
         -5    1    3    3    0  503  0.52627397574E+01 -0.13716664973E+02 -0.84624556397E+02  0.86018886723E+02  0.47000000000E+01 0.  1.
         11    1    4    4    0    0 -0.52372319548E+02  0.32935291482E+02 -0.39847336461E+02  0.73589425211E+02  0.00000000000E+00 0. -1.
        -12    1    4    4    0    0 -0.50994943675E+02 -0.20313007547E+02  0.23992389546E+02  0.59906070745E+02  0.00000000000E+00 0.  1.
</event>
<event>
12    1  0.8494789E-002  0.1793036E+03  0.7818608E-02  0.1169428E+00
         21   -1    0    0  501  502  0.00000000000E+00  0.00000000000E+00  0.23263982461E+03  0.23263982461E+03  0.00000000000E+00 0.  1.
         21   -1    0    0  502  503 -0.00000000000E+00 -0.00000000000E+00 -0.17639818380E+03  0.17639818380E+03  0.00000000000E+00 0.  1.
         -6    2    1    2    0  503  0.21994016195E+02  0.36251362248E+02 -0.70434367407E+02  0.19264159983E+03  0.17421793208E+03 0.  0.
        -24    2    3    3    0    0 -0.54996845887E+02  0.24305473922E+02 -0.24774251585E+02  0.10221354406E+03  0.78857060104E+02 0.  0.
          6    2    1    2  501    0 -0.21994016195E+02 -0.36251362248E+02  0.12667600821E+03  0.21639640858E+03  0.17024305149E+03 0.  0.
         24    2    5    5    0    0 -0.48246767222E+02 -0.66415433037E+02  0.12929194354E+03  0.17604778753E+03  0.86819678292E+02 0.  0.
          5    1    5    5  501    0  0.26252751027E+02  0.30164070790E+02 -0.26159353270E+01  0.40348621051E+02  0.47000000000E+01 0. -1.
        -11    1    6    6    0    0 -0.50108829692E+02 -0.34331870789E+01  0.86021468719E+02  0.99611117187E+02  0.00000000000E+00 0.  1.
         12    1    6    6    0    0  0.18620624701E+01 -0.62982245959E+02  0.43270474818E+02  0.76436670346E+02  0.00000000000E+00 0. -1.
         -5    1    3    3    0  503  0.76990862082E+02  0.11945888326E+02 -0.45660115822E+02  0.90428055762E+02  0.47000000000E+01 0.  1.
         11    1    4    4    0    0 -0.46308764854E+02 -0.82639423462E+01 -0.43139950324E+02  0.63826716658E+02  0.00000000000E+00 0. -1.
        -12    1    4    4    0    0 -0.86880810326E+01  0.32569416268E+02  0.18365698739E+02  0.38386827405E+02  0.00000000000E+00 0.  1.
</event>
<event>
12    1  0.8494789E-002  0.1851982E+03  0.7818608E-02  0.1164605E+00
         21   -1    0    0  503  502  0.00000000000E+00  0.00000000000E+00  0.51894642650E+02  0.51894642650E+02  0.00000000000E+00 0. -1.
         21   -1    0    0  501  503 -0.00000000000E+00 -0.00000000000E+00 -0.63627003856E+03  0.63627003856E+03  0.00000000000E+00 0.  1.
          6    2    1    2  501    0  0.10368544840E+02  0.65402929081E+02 -0.30095158535E+03  0.34959794547E+03  0.16511152867E+03 0.  0.
         24    2    3    3    0    0  0.68941254352E+02  0.41359410343E+02 -0.20805155112E+03  0.23707523908E+03  0.80347518238E+02 0.  0.
         -6    2    1    2    0  502 -0.10368544840E+02 -0.65402929081E+02 -0.28342381056E+03  0.33856673574E+03  0.17295470015E+03 0.  0.
        -24    2    5    5    0    0  0.58198562415E+02 -0.13110360502E+02 -0.15195227591E+03  0.18126824449E+03  0.78801827941E+02 0.  0.
          5    1    3    3  501    0 -0.58572709513E+02  0.24043518738E+02 -0.92900034229E+02  0.11252270639E+03  0.47000000000E+01 0. -1.
        -13    1    4    4    0    0  0.48910411313E+02 -0.16826748833E+02 -0.85161161287E+02  0.99638301886E+02  0.00000000000E+00 0.  1.
         14    1    4    4    0    0  0.20030843040E+02  0.58186159176E+02 -0.12289038983E+03  0.13743693720E+03  0.00000000000E+00 0. -1.
         -5    1    5    5    0  502 -0.68567107255E+02 -0.52292568579E+02 -0.13147153465E+03  0.15729849125E+03  0.47000000000E+01 0.  1.
         13    1    6    6    0    0  0.21482919630E+02 -0.27776465079E+02 -0.14068583381E+02  0.37828202263E+02  0.00000000000E+00 0. -1.
        -14    1    6    6    0    0  0.36715642785E+02  0.14666104577E+02 -0.13788369253E+03  0.14344004223E+03  0.00000000000E+00 0.  1.
</event>
<event>
12    1  0.8494789E-002  0.2424506E+03  0.7818608E-02  0.1118768E+00
         21   -1    0    0  501  502  0.00000000000E+00  0.00000000000E+00  0.78453184109E+02  0.78453184109E+02  0.00000000000E+00 0. -1.
         21   -1    0    0  502  503 -0.00000000000E+00 -0.00000000000E+00 -0.17587310957E+04  0.17587310957E+04  0.00000000000E+00 0. -1.
         -6    2    1    2    0  503 -0.94585104576E+02 -0.13794556761E+03 -0.15425218675E+04  0.15614595735E+04  0.17551913338E+03 0.  0.
        -24    2    3    3    0    0 -0.50706972090E+02 -0.18858090343E+02 -0.97661115476E+03  0.98147324384E+03  0.81200715326E+02 0.  0.
          6    2    1    2  501    0  0.94585104576E+02  0.13794556761E+03 -0.13775604403E+03  0.27572470630E+03  0.17050532063E+03 0.  0.
         24    2    5    5    0    0  0.41108726363E+02  0.60230022992E+02 -0.14448086792E+03  0.18103182294E+03  0.81118534666E+02 0.  0.
          5    1    5    5  501    0  0.53476378213E+02  0.77715544622E+02  0.67248238927E+01  0.94692883360E+02  0.47000000000E+01 0. -1.
        -13    1    6    6    0    0 -0.71903562766E+01 -0.16650023795E+02 -0.27700636231E+02  0.33109662689E+02  0.00000000000E+00 0.  1.
         14    1    6    6    0    0  0.48299082640E+02  0.76880046787E+02 -0.11678023169E+03  0.14792216025E+03  0.00000000000E+00 0. -1.
         -5    1    3    3    0  503 -0.43878132486E+02 -0.11908747727E+03 -0.56591071276E+03  0.57998632964E+03  0.47000000000E+01 0.  1.
         13    1    4    4    0    0 -0.67649677942E+02 -0.27836493710E+02 -0.61169521464E+03  0.61605388151E+03  0.00000000000E+00 0. -1.
        -14    1    4    4    0    0  0.16942705852E+02  0.89784033671E+01 -0.36491594012E+03  0.36541936233E+03  0.00000000000E+00 0.  1.
</event>
<event>
12    1  0.8494789E-002  0.2411166E+03  0.7818608E-02  0.1119205E+00
         21   -1    0    0  501  502  0.00000000000E+00  0.00000000000E+00  0.44835754211E+03  0.44835754211E+03  0.00000000000E+00 0. -1.
         21   -1    0    0  502  503 -0.00000000000E+00 -0.00000000000E+00 -0.14113186627E+03  0.14113186627E+03  0.00000000000E+00 0. -1.
         -6    2    1    2    0  503 -0.15449127397E+03 -0.66294121339E+02  0.68075925868E+02  0.25054246097E+03  0.17284307568E+03 0.  0.
        -24    2    3    3    0    0 -0.77566134366E+02 -0.55078324371E+02  0.10615114530E+03  0.16385287948E+03  0.80805776090E+02 0.  0.
          6    2    1    2  501    0  0.15449127397E+03  0.66294121339E+02  0.23914974997E+03  0.33894694740E+03  0.17155164232E+03 0.  0.
         24    2    5    5    0    0  0.48115029576E+02  0.81621192867E+02  0.80369606180E+02  0.14715526730E+03  0.78856349775E+02 0.  0.
          5    1    5    5  501    0  0.10637624439E+03 -0.15327071527E+02  0.15878014379E+03  0.19179168010E+03  0.47000000000E+01 0. -1.
        -13    1    6    6    0    0 -0.42659481869E+01 -0.92538524976E+01 -0.55172615240E+01  0.11587591411E+02  0.00000000000E+00 0.  1.
         14    1    6    6    0    0  0.52380977763E+02  0.90875045364E+02  0.85886867704E+02  0.13556767589E+03  0.00000000000E+00 0. -1.
         -5    1    3    3    0  503 -0.76925139603E+02 -0.11215796969E+02 -0.38075219433E+02  0.86689581493E+02  0.47000000000E+01 0.  1.
         13    1    4    4    0    0 -0.92507546794E+02 -0.54032736554E+02  0.79960752863E+02  0.13368210363E+03  0.00000000000E+00 0. -1.
        -14    1    4    4    0    0  0.14941412428E+02 -0.10455878173E+01  0.26190392438E+02  0.30170775849E+02  0.00000000000E+00 0.  1.
</event>
<event>
12    1  0.8494789E-002  0.1944789E+03  0.7818608E-02  0.1154575E+00
         21   -1    0    0  503  502  0.00000000000E+00  0.00000000000E+00  0.89956695990E+02  0.89956695990E+02  0.00000000000E+00 0. -1.
         21   -1    0    0  501  503 -0.00000000000E+00 -0.00000000000E+00 -0.52941590889E+03  0.52941590889E+03  0.00000000000E+00 0. -1.
          6    2    1    2  501    0 -0.72984395555E+02  0.54665133766E+02 -0.36100442128E+03  0.41005638767E+03  0.17177616262E+03 0.  0.
         24    2    3    3    0    0 -0.83856164002E+01  0.79176261829E+02 -0.14545455949E+03  0.18365490671E+03  0.78948697783E+02 0.  0.
         -6    2    1    2    0  502  0.72984395555E+02 -0.54665133766E+02 -0.78454791622E+02  0.20931621721E+03  0.17129835263E+03 0.  0.
        -24    2    5    5    0    0  0.34616970527E+02 -0.86444588021E+02 -0.97536052872E+02  0.15576084822E+03  0.77956133709E+02 0.  0.
          5    1    3    3  501    0 -0.64598779154E+02 -0.24511128063E+02 -0.21554986179E+03  0.22640148096E+03  0.47000000000E+01 0. -1.
        -13    1    4    4    0    0  0.48467665683E+01  0.27127299236E+02 -0.12196250464E+03  0.12503693073E+03  0.00000000000E+00 0.  1.
         14    1    4    4    0    0 -0.13232382968E+02  0.52048962592E+02 -0.23492054853E+02  0.58617975973E+02  0.00000000000E+00 0. -1.
         -5    1    5    5    0  502  0.38367425027E+02  0.31779454255E+02  0.19081261250E+02  0.53555368983E+02  0.47000000000E+01 0.  1.
         11    1    6    6    0    0  0.35549617566E+02 -0.21370834785E+01 -0.18219754051E+02  0.40003773229E+02  0.00000000000E+00 0. -1.
        -12    1    6    6    0    0 -0.93264703818E+00 -0.84307504543E+02 -0.79316298821E+02  0.11575707500E+03  0.00000000000E+00 0.  1.
</event>
<event>
12    1  0.8494789E-002  0.2709086E+03  0.7818608E-02  0.1100767E+00
         21   -1    0    0  501  502  0.00000000000E+00  0.00000000000E+00  0.97956911624E+02  0.97956911624E+02  0.00000000000E+00 0.  1.
         21   -1    0    0  502  503 -0.00000000000E+00 -0.00000000000E+00 -0.82371970732E+03  0.82371970732E+03  0.00000000000E+00 0. -1.
         -6    2    1    2    0  503  0.20403053143E+03 -0.45644739229E+02 -0.22420094198E+03  0.35164973389E+03  0.17227760442E+03 0.  0.
        -24    2    3    3    0    0  0.18583691622E+03 -0.78772028245E+02 -0.22642843749E+03  0.31349902422E+03  0.79192228285E+02 0.  0.
          6    2    1    2  501    0 -0.20403053143E+03  0.45644739229E+02 -0.50156185371E+03  0.57002688505E+03  0.17220469394E+03 0.  0.
         24    2    5    5    0    0 -0.49504354089E+02  0.23495708798E+02 -0.30123173856E+03  0.31601278295E+03  0.78235473197E+02 0.  0.
          5    1    5    5  501    0 -0.15452617734E+03  0.22149030431E+02 -0.20033011515E+03  0.25401410210E+03  0.47000000000E+01 0. -1.
        -13    1    6    6    0    0  0.94857318703E+01  0.14480685198E+02 -0.12948371877E+02  0.21617809490E+02  0.00000000000E+00 0.  1.
         14    1    6    6    0    0 -0.58990085959E+02  0.90150236003E+01 -0.28828336669E+03  0.29439497346E+03  0.00000000000E+00 0. -1.
         -5    1    3    3    0  503  0.18193615208E+02  0.33127289016E+02  0.22274955070E+01  0.38150709667E+02  0.47000000000E+01 0.  1.
         11    1    4    4    0    0  0.14109585300E+02  0.11337613122E+02 -0.42599606236E+02  0.46285508748E+02  0.00000000000E+00 0. -1.
        -12    1    4    4    0    0  0.17172733092E+03 -0.90109641367E+02 -0.18382883125E+03  0.26721351547E+03  0.00000000000E+00 0.  1.
</event>
<event>
12    1  0.8494789E-002  0.1814505E+03  0.7818608E-02  0.1166776E+00
         21   -1    0    0  501  502  0.00000000000E+00  0.00000000000E+00  0.17105315588E+03  0.17105315588E+03  0.00000000000E+00 0. -1.
         21   -1    0    0  502  503 -0.00000000000E+00 -0.00000000000E+00 -0.29525772190E+03  0.29525772190E+03  0.00000000000E+00 0. -1.
         -6    2    1    2    0  503  0.53846123440E+02  0.99074581535E+01 -0.20057617897E+03  0.26944314416E+03  0.17138040036E+03 0.  0.
        -24    2    3    3    0    0  0.68013001674E+02  0.64559429977E+02 -0.14579659849E+03  0.19063685697E+03  0.79322598972E+02 0.  0.
          6    2    1    2  501    0 -0.53846123440E+02 -0.99074581535E+01  0.76371612953E+02  0.19686773361E+03  0.17299340605E+03 0.  0.
         24    2    5    5    0    0 -0.66520967104E+02 -0.66103760559E+02  0.51437197756E+02  0.13391941253E+03  0.80584598494E+02 0.  0.
          5    1    5    5  501    0  0.12674843664E+02  0.56196302406E+02  0.24934415197E+02  0.62948321083E+02  0.47000000000E+01 0. -1.
        -13    1    6    6    0    0  0.10779805452E+02 -0.34418320833E+02  0.49545067604E+00  0.36070354668E+02  0.00000000000E+00 0.  1.
         14    1    6    6    0    0 -0.77300772557E+02 -0.31685439727E+02  0.50941747080E+02  0.97849057860E+02  0.00000000000E+00 0. -1.
         -5    1    3    3    0  503 -0.14166878234E+02 -0.54651971823E+02 -0.54779580482E+02  0.78806287191E+02  0.47000000000E+01 0.  1.
         11    1    4    4    0    0  0.20098513266E+02 -0.16455633618E+02 -0.16737481811E+02  0.30901155490E+02  0.00000000000E+00 0. -1.
        -12    1    4    4    0    0  0.47914488409E+02  0.81015063595E+02 -0.12905911668E+03  0.15973570148E+03  0.00000000000E+00 0.  1.
</event>
<event>
12    1  0.8494789E-002  0.4170230E+03  0.7818608E-02  0.1038099E+00
         21   -1    0    0  501  502  0.00000000000E+00  0.00000000000E+00  0.11480596079E+04  0.11480596079E+04  0.00000000000E+00 0. -1.
         21   -1    0    0  502  503 -0.00000000000E+00 -0.00000000000E+00 -0.15421715650E+03  0.15421715650E+03  0.00000000000E+00 0. -1.
         -6    2    1    2    0  503  0.25861811309E+03 -0.27751129205E+03  0.58731166200E+03  0.71988905838E+03  0.17149175615E+03 0.  0.
        -24    2    3    3    0    0  0.45523191791E+02 -0.68688293320E+02  0.20605381096E+03  0.23574431839E+03  0.79540983230E+02 0.  0.
          6    2    1    2  501    0 -0.25861811309E+03  0.27751129205E+03  0.40653078944E+03  0.58238770606E+03  0.17324061816E+03 0.  0.
         24    2    5    5    0    0 -0.34917169199E+02  0.57258440337E+02  0.87255938566E+02  0.13460209734E+03  0.77500890945E+02 0.  0.
          5    1    5    5  501    0 -0.22370094389E+03  0.22025285172E+03  0.31927485087E+03  0.44778560873E+03  0.47000000000E+01 0. -1.
        -13    1    6    6    0    0  0.44687448834E+01  0.62547443415E+02  0.51494013566E+02  0.81140531128E+02  0.00000000000E+00 0.  1.
         14    1    6    6    0    0 -0.39385914083E+02 -0.52890030774E+01  0.35761924999E+02  0.53461566207E+02  0.00000000000E+00 0. -1.
         -5    1    3    3    0  503  0.21309492130E+03 -0.20882299873E+03  0.38125785104E+03  0.48414473999E+03  0.47000000000E+01 0.  1.
         13    1    4    4    0    0  0.64506905613E+02 -0.68939668282E+02  0.15776784422E+03  0.18386003210E+03  0.00000000000E+00 0. -1.
        -14    1    4    4    0    0 -0.18983713822E+02  0.25137496258E+00  0.48285966743E+02  0.51884286293E+02  0.00000000000E+00 0.  1.
</event>
<event>
12    1  0.8494789E-002  0.2063232E+03  0.7818608E-02  0.1145143E+00
         21   -1    0    0  501  502  0.00000000000E+00  0.00000000000E+00  0.37901751960E+03  0.37901751960E+03  0.00000000000E+00 0.  1.
         21   -1    0    0  502  503 -0.00000000000E+00 -0.00000000000E+00 -0.13326138378E+03  0.13326138378E+03  0.00000000000E+00 0. -1.
         -6    2    1    2    0  503  0.28550737700E+02  0.10439817309E+03  0.18114238058E+02  0.20711683104E+03  0.17565629198E+03 0.  0.
        -24    2    3    3    0    0  0.36472211575E+02  0.11743772204E+03 -0.35346387535E+02  0.15132338991E+03  0.80793319310E+02 0.  0.
          6    2    1    2  501    0 -0.28550737700E+02 -0.10439817309E+03  0.22764189777E+03  0.30516207234E+03  0.17201434128E+03 0.  0.
         24    2    5    5    0    0 -0.27388593456E+02 -0.37816092788E+02  0.33821309647E+02  0.10016686660E+03  0.81910489272E+02 0.  0.
          5    1    5    5  501    0 -0.11621442443E+01 -0.66582080304E+02  0.19382058812E+03  0.20499520574E+03  0.47000000000E+01 0. -1.
        -13    1    6    6    0    0 -0.39382720699E+02 -0.39108984752E+02  0.53497089220E+02  0.77087287752E+02  0.00000000000E+00 0.  1.
         14    1    6    6    0    0  0.11994127244E+02  0.12928919639E+01 -0.19675779573E+02  0.23079578847E+02  0.00000000000E+00 0. -1.
         -5    1    3    3    0  503 -0.79214738750E+01 -0.13039548950E+02  0.53460625593E+02  0.55793441137E+02  0.47000000000E+01 0.  1.
         11    1    4    4    0    0 -0.22994386934E+01 -0.11109619582E+02  0.29102131655E+01  0.11712403947E+02  0.00000000000E+00 0. -1.
        -12    1    4    4    0    0  0.38771650268E+02  0.12854734162E+03 -0.38256600700E+02  0.13961098596E+03  0.00000000000E+00 0.  1.
</event>
<event>
12    1  0.8494789E-002  0.2236660E+03  0.7818608E-02  0.1131269E+00
         21   -1    0    0  501  502  0.00000000000E+00  0.00000000000E+00  0.10506899397E+04  0.10506899397E+04  0.00000000000E+00 0. -1.
         21   -1    0    0  502  503 -0.00000000000E+00 -0.00000000000E+00 -0.49259631992E+02  0.49259631992E+02  0.00000000000E+00 0.  1.
         -6    2    1    2    0  503 -0.75898902925E+02  0.12105690024E+03  0.60389663896E+03  0.64381415626E+03  0.17143541260E+03 0.  0.
        -24    2    3    3    0    0 -0.99504466398E+02  0.13932303751E+03  0.54327103728E+03  0.57607622024E+03  0.86071737326E+02 0.  0.
          6    2    1    2  501    0  0.75898902925E+02 -0.12105690024E+03  0.39753366879E+03  0.45613541547E+03  0.17207871125E+03 0.  0.
         24    2    5    5    0    0  0.85176930463E+02 -0.14469819289E+03  0.36921533618E+03  0.41780774303E+03  0.10025302566E+03 0.  0.
          5    1    5    5  501    0 -0.92780275385E+01  0.23641292649E+02  0.28318332612E+02  0.38327672445E+02  0.47000000000E+01 0. -1.
        -11    1    6    6    0    0  0.66915861580E+02 -0.14229922208E+03  0.23767709963E+03  0.28498632392E+03  0.00000000000E+00 0.  1.
         12    1    6    6    0    0  0.18261068884E+02 -0.23989708094E+01  0.13153823655E+03  0.13282141911E+03  0.00000000000E+00 0. -1.
         -5    1    3    3    0  503  0.23605563473E+02 -0.18266137263E+02  0.60625601675E+02  0.67737936017E+02  0.47000000000E+01 0.  1.
         11    1    4    4    0    0 -0.10935485731E+02 -0.12022716038E+02  0.48243535584E+02  0.50907457948E+02  0.00000000000E+00 0. -1.
        -12    1    4    4    0    0 -0.88568980667E+02  0.15134575354E+03  0.49502750170E+03  0.52516876230E+03  0.00000000000E+00 0.  1.
</event>
<event>
12    1  0.8494789E-002  0.2025866E+03  0.7818608E-02  0.1147975E+00
         21   -1    0    0  501  502  0.00000000000E+00  0.00000000000E+00  0.32414802313E+03  0.32414802313E+03  0.00000000000E+00 0. -1.
         21   -1    0    0  502  503 -0.00000000000E+00 -0.00000000000E+00 -0.12564254301E+03  0.12564254301E+03  0.00000000000E+00 0. -1.
         -6    2    1    2    0  503  0.18296296229E+02 -0.98618380235E+02  0.89265868897E+02  0.21962836540E+03  0.17380415462E+03 0.  0.
        -24    2    3    3    0    0 -0.22104035838E+02  0.11672600071E+02  0.55892063271E+02  0.97431032900E+02  0.75789481081E+02 0.  0.
          6    2    1    2  501    0 -0.18296296229E+02  0.98618380235E+02  0.10923961123E+03  0.23016220074E+03  0.17601422276E+03 0.  0.
         24    2    5    5    0    0  0.45554275619E+02  0.94847001299E+02  0.45011983537E+02  0.13939658510E+03  0.79587584409E+02 0.  0.
          5    1    5    5  501    0 -0.63850571848E+02  0.37713789356E+01  0.64227627689E+02  0.90765615643E+02  0.47000000000E+01 0. -1.
        -11    1    6    6    0    0  0.18674722639E+02  0.61489825806E+02  0.65630398942E+02  0.91853651036E+02  0.00000000000E+00 0.  1.
         12    1    6    6    0    0  0.26879552980E+02  0.33357175493E+02 -0.20618415405E+02  0.47542934061E+02  0.00000000000E+00 0. -1.
         -5    1    3    3    0  503  0.40400332067E+02 -0.11029098031E+03  0.33373805626E+02  0.12219733250E+03  0.47000000000E+01 0.  1.
         11    1    4    4    0    0  0.14660800085E+02  0.16884720061E+02 -0.78188056092E+01  0.23688954216E+02  0.00000000000E+00 0. -1.
        -12    1    4    4    0    0 -0.36764835923E+02 -0.52121199897E+01  0.63710868881E+02  0.73742078685E+02  0.00000000000E+00 0.  1.
</event>
<event>
12    1  0.8494789E-002  0.3253831E+03  0.7818608E-02  0.1073270E+00
         21   -1    0    0  503  502  0.00000000000E+00  0.00000000000E+00  0.10478053440E+04  0.10478053440E+04  0.00000000000E+00 0.  1.
         21   -1    0    0  501  503 -0.00000000000E+00 -0.00000000000E+00 -0.16861123988E+03  0.16861123988E+03  0.00000000000E+00 0. -1.
          6    2    1    2  501    0 -0.27286802202E+03  0.41738580364E+02  0.54278154958E+02  0.32987919999E+03  0.17226462768E+03 0.  0.
         24    2    3    3    0    0 -0.17804122740E+03  0.19693039314E+02 -0.33749064179E+02  0.19854372053E+03  0.78702701194E+02 0.  0.
         -6    2    1    2    0  502  0.27286802202E+03 -0.41738580364E+02  0.82491594919E+03  0.88653738391E+03  0.17106473427E+03 0.  0.
        -24    2    5    5    0    0  0.20548035876E+03 -0.85818337911E+02  0.69453391571E+03  0.73322173944E+03  0.75165112649E+02 0.  0.
          5    1    3    3  501    0 -0.94826794615E+02  0.22045541050E+02  0.88027219138E+02  0.13133547946E+03  0.47000000000E+01 0. -1.
        -11    1    4    4    0    0 -0.23625422597E+02 -0.13923899269E+02 -0.29749077935E+02  0.40460390529E+02  0.00000000000E+00 0.  1.
         12    1    4    4    0    0 -0.15441580480E+03  0.33616938583E+02 -0.39999862442E+01  0.15808333000E+03  0.00000000000E+00 0. -1.
         -5    1    5    5    0  502  0.67387663252E+02  0.44079757547E+02  0.13038203348E+03  0.15331564447E+03  0.47000000000E+01 0.  1.
         11    1    6    6    0    0  0.10809176038E+02 -0.19200074852E+02  0.27864462165E+02  0.35523364321E+02  0.00000000000E+00 0. -1.
        -12    1    6    6    0    0  0.19467118273E+03 -0.66618263059E+02  0.66666945355E+03  0.69769837512E+03  0.00000000000E+00 0.  1.
</event>
<event>
12    1  0.8494789E-002  0.2764413E+03  0.7818608E-02  0.1097746E+00
         21   -1    0    0  501  502  0.00000000000E+00  0.00000000000E+00  0.10040860026E+04  0.10040860026E+04  0.00000000000E+00 0.  1.
         21   -1    0    0  502  503 -0.00000000000E+00 -0.00000000000E+00 -0.75962772497E+02  0.75962772497E+02  0.00000000000E+00 0. -1.
         -6    2    1    2    0  503 -0.22086681045E+02  0.21499532742E+03  0.45015815134E+03  0.52789808431E+03  0.17124022279E+03 0.  0.
        -24    2    3    3    0    0  0.49104974722E+02  0.97365067313E+02  0.18031093946E+03  0.22500414626E+03  0.78889644888E+02 0.  0.
          6    2    1    2  501    0  0.22086681045E+02 -0.21499532742E+03  0.47796507874E+03  0.55215069077E+03  0.17236286296E+03 0.  0.
         24    2    5    5    0    0  0.13460534658E+02 -0.58347439768E+02  0.91633806913E+02  0.13515319353E+03  0.79271819914E+02 0.  0.
          5    1    5    5  501    0  0.86261463866E+01 -0.15664788766E+03  0.38633127183E+03  0.41699749724E+03  0.47000000000E+01 0. -1.
        -11    1    6    6    0    0  0.21151299854E+02 -0.16178540203E+02  0.88221738881E+02  0.92153121812E+02  0.00000000000E+00 0.  1.
         12    1    6    6    0    0 -0.76907651963E+01 -0.42168899565E+02  0.34120680320E+01  0.43000071722E+02  0.00000000000E+00 0. -1.
         -5    1    3    3    0  503 -0.71191655767E+02  0.11763026011E+03  0.26984721188E+03  0.30289393805E+03  0.47000000000E+01 0.  1.
         13    1    4    4    0    0 -0.62953986351E+01 -0.28480869078E+01 -0.40261843051E+01  0.79971121705E+01  0.00000000000E+00 0. -1.
        -14    1    4    4    0    0  0.55400373357E+02  0.10021315422E+03  0.18433712376E+03  0.21700703409E+03  0.00000000000E+00 0.  1.
</event>
<event>
12    1  0.8494789E-002  0.2395547E+03  0.7818608E-02  0.1120597E+00
         21   -1    0    0  503  502  0.00000000000E+00  0.00000000000E+00  0.10216605564E+03  0.10216605564E+03  0.00000000000E+00 0. -1.
         21   -1    0    0  501  503 -0.00000000000E+00 -0.00000000000E+00 -0.70010690532E+03  0.70010690532E+03  0.00000000000E+00 0.  1.
          6    2    1    2  501    0  0.18255684882E+01 -0.16760314455E+03 -0.48331273328E+03  0.53942343252E+03  0.17114991862E+03 0.  0.
         24    2    3    3    0    0  0.62235732541E+02 -0.11426276469E+03 -0.37280110948E+03  0.40256769447E+03  0.78427135608E+02 0.  0.
         -6    2    1    2    0  502 -0.18255684882E+01  0.16760314455E+03 -0.11462811641E+03  0.26284952844E+03  0.16690153615E+03 0.  0.
        -24    2    5    5    0    0 -0.65155695243E+02  0.12458610953E+03 -0.69457955012E+02  0.17383490191E+03  0.75014680543E+02 0.  0.
          5    1    3    3  501    0 -0.60410164053E+02 -0.53340379858E+02 -0.11051162379E+03  0.13685573805E+03  0.47000000000E+01 0. -1.
        -13    1    4    4    0    0  0.16048985761E+01 -0.30196841714E+02 -0.19029631872E+03  0.19268397408E+03  0.00000000000E+00 0.  1.
         14    1    4    4    0    0  0.60630833965E+02 -0.84065922977E+02 -0.18250479076E+03  0.20988372039E+03  0.00000000000E+00 0. -1.
         -5    1    5    5    0  502  0.63330126754E+02  0.43017035018E+02 -0.45170161394E+02  0.89014626533E+02  0.47000000000E+01 0.  1.
         13    1    6    6    0    0 -0.29310170432E+02  0.11570396577E+03 -0.37823015009E+02  0.12520812373E+03  0.00000000000E+00 0. -1.
        -14    1    6    6    0    0 -0.35845524810E+02  0.88821437656E+01 -0.31634940003E+02  0.48626778176E+02  0.00000000000E+00 0.  1.
</event>
<event>
12    1  0.8494789E-002  0.1744428E+03  0.7818608E-02  0.1173862E+00
         21   -1    0    0  501  502  0.00000000000E+00  0.00000000000E+00  0.66560380597E+02  0.66560380597E+02  0.00000000000E+00 0. -1.
         21   -1    0    0  502  503 -0.00000000000E+00 -0.00000000000E+00 -0.11363054574E+04  0.11363054574E+04  0.00000000000E+00 0. -1.
         -6    2    1    2    0  503  0.19697268061E+02  0.21384614939E+02 -0.10004540174E+04  0.10151651509E+04  0.16972553878E+03 0.  0.
        -24    2    3    3    0    0  0.59096668371E+02 -0.20509361515E+02 -0.80635923914E+03  0.81267492654E+03  0.79449754905E+02 0.  0.
          6    2    1    2  501    0 -0.19697268061E+02 -0.21384614939E+02 -0.69291059485E+02  0.18770068719E+03  0.17200294452E+03 0.  0.
         24    2    5    5    0    0  0.14217462965E+02  0.39723608672E+02 -0.79576924637E+02  0.11690299658E+03  0.74523300628E+02 0.  0.
          5    1    5    5  501    0 -0.33914731026E+02 -0.61108223611E+02  0.10285865153E+02  0.70797690608E+02  0.47000000000E+01 0. -1.
        -11    1    6    6    0    0  0.27381319170E+02 -0.88537620223E+01 -0.52206902320E+02  0.59612803921E+02  0.00000000000E+00 0.  1.
         12    1    6    6    0    0 -0.13163856205E+02  0.48577370694E+02 -0.27370022317E+02  0.57290192663E+02  0.00000000000E+00 0. -1.
         -5    1    3    3    0  503 -0.39399400310E+02  0.41893976454E+02 -0.19409477822E+03  0.20249022431E+03  0.47000000000E+01 0.  1.
         13    1    4    4    0    0  0.76944769590E+02 -0.27707373392E+02 -0.63852363046E+03  0.64373956128E+03  0.00000000000E+00 0. -1.
        -14    1    4    4    0    0 -0.17848101219E+02  0.71980118770E+01 -0.16783560868E+03  0.16893536526E+03  0.00000000000E+00 0.  1.
</event>
<event>
12    1  0.8494789E-002  0.2621392E+03  0.7818608E-02  0.1106140E+00
         21   -1    0    0  503  502  0.00000000000E+00  0.00000000000E+00  0.42977157587E+03  0.42977157587E+03  0.00000000000E+00 0.  1.
         21   -1    0    0  501  503 -0.00000000000E+00 -0.00000000000E+00 -0.42159625776E+03  0.42159625776E+03  0.00000000000E+00 0. -1.
          6    2    1    2  501    0 -0.88167134204E+02  0.17310078271E+03 -0.33201134439E+03  0.42302306873E+03  0.17601039557E+03 0.  0.
         24    2    3    3    0    0 -0.10737378537E+03  0.65963488314E+02 -0.14890821145E+03  0.20995936326E+03  0.77646424306E+02 0.  0.
         -6    2    1    2    0  502  0.88167134204E+02 -0.17310078271E+03  0.34018666250E+03  0.42834476489E+03  0.17324822579E+03 0.  0.
        -24    2    5    5    0    0 -0.18768097840E+02 -0.54621427078E+02  0.10203605631E+03  0.14162137416E+03  0.79432455837E+02 0.  0.
          5    1    3    3  501    0  0.19206651162E+02  0.10713729439E+03 -0.18310313294E+03  0.21306370547E+03  0.47000000000E+01 0. -1.
        -11    1    4    4    0    0 -0.49769217797E+02  0.48598978386E+02 -0.28147041255E+02  0.75040600155E+02  0.00000000000E+00 0.  1.
         12    1    4    4    0    0 -0.57604567570E+02  0.17364509928E+02 -0.12076117020E+03  0.13491876310E+03  0.00000000000E+00 0. -1.
         -5    1    5    5    0  502  0.10693523204E+03 -0.11847935563E+03  0.23815060619E+03  0.28672339073E+03  0.47000000000E+01 0.  1.
         13    1    6    6    0    0  0.84457147912E+01 -0.22035083390E+02 -0.69974668190E+01  0.24613807918E+02  0.00000000000E+00 0. -1.
        -14    1    6    6    0    0 -0.27213812631E+02 -0.32586343688E+02  0.10903352313E+03  0.11700756625E+03  0.00000000000E+00 0.  1.
</event>
<event>
12    1  0.8494789E-002  0.1735255E+03  0.7818608E-02  0.1174292E+00
         21   -1    0    0  503  502  0.00000000000E+00  0.00000000000E+00  0.13981399712E+03  0.13981399712E+03  0.00000000000E+00 0. -1.
         21   -1    0    0  501  503 -0.00000000000E+00 -0.00000000000E+00 -0.24712561380E+03  0.24712561380E+03  0.00000000000E+00 0.  1.
          6    2    1    2  501    0 -0.26071361796E+02  0.50429438841E+01 -0.12343179545E+03  0.21294720686E+03  0.17148165380E+03 0.  0.
         24    2    3    3    0    0  0.21050545883E+02 -0.30254406430E+02 -0.15403554282E+02  0.89827070350E+02  0.80456065606E+02 0.  0.
         -6    2    1    2    0  502  0.26071361796E+02 -0.50429438841E+01  0.16120178774E+02  0.17399240407E+03  0.17119681458E+03 0.  0.
        -24    2    5    5    0    0  0.78977469518E+02 -0.10021541175E+02 -0.11765357794E+02  0.11379659180E+03  0.80457247540E+02 0.  0.
          5    1    3    3  501    0 -0.47121907678E+02  0.35297350314E+02 -0.10802824117E+03  0.12312013651E+03  0.47000000000E+01 0. -1.
        -13    1    4    4    0    0  0.43884938372E+02 -0.51415707624E+01 -0.29442734260E+02  0.53096121954E+02  0.00000000000E+00 0.  1.
         14    1    4    4    0    0 -0.22834392489E+02 -0.25112835668E+02  0.14039179978E+02  0.36730948396E+02  0.00000000000E+00 0. -1.
         -5    1    5    5    0  502 -0.52906107723E+02  0.49785972909E+01  0.27885536568E+02  0.60195812272E+02  0.47000000000E+01 0.  1.
         11    1    6    6    0    0  0.15211735429E+02 -0.37619784933E+02 -0.17261503423E+02  0.44097671295E+02  0.00000000000E+00 0. -1.
        -12    1    6    6    0    0  0.63765734089E+02  0.27598243758E+02  0.54961456291E+01  0.69698920503E+02  0.00000000000E+00 0.  1.
</event>
<event>
12    1  0.8494789E-002  0.1787117E+03  0.7818608E-02  0.1169318E+00
         21   -1    0    0  501  502  0.00000000000E+00  0.00000000000E+00  0.83574300026E+03  0.83574300026E+03  0.00000000000E+00 0. -1.
         21   -1    0    0  502  503 -0.00000000000E+00 -0.00000000000E+00 -0.82017928315E+02  0.82017928315E+02  0.00000000000E+00 0.  1.
         -6    2    1    2    0  503  0.20430820521E+02 -0.45494013243E+02  0.41165164446E+02  0.18339150649E+03  0.17161220883E+03 0.  0.
        -24    2    3    3    0    0 -0.22751168096E+02 -0.16933375386E+02 -0.33634358705E+02  0.92301151133E+02  0.81141096635E+02 0.  0.
          6    2    1    2  501    0 -0.20430820521E+02  0.45494013243E+02  0.71255990750E+03  0.73436942209E+03  0.17049839486E+03 0.  0.
         24    2    5    5    0    0 -0.76455658142E+02  0.21445756361E+02  0.35984499138E+03  0.37639316150E+03  0.76668155542E+02 0.  0.
          5    1    5    5  501    0  0.56024837622E+02  0.24048256882E+02  0.35271491612E+03  0.35797626059E+03  0.47000000000E+01 0. -1.
        -13    1    6    6    0    0 -0.40008735646E+02  0.11514965802E+02  0.53809015220E+02  0.68034575653E+02  0.00000000000E+00 0.  1.
         14    1    6    6    0    0 -0.36446922497E+02  0.99307905593E+01  0.30603597616E+03  0.30835858585E+03  0.00000000000E+00 0. -1.
         -5    1    3    3    0  503  0.43181988617E+02 -0.28560637858E+02  0.74799523151E+02  0.91090355359E+02  0.47000000000E+01 0.  1.
         11    1    4    4    0    0  0.78903385471E+01  0.95344981700E+00  0.23632975213E+02  0.24933592328E+02  0.00000000000E+00 0. -1.
        -12    1    4    4    0    0 -0.30641506643E+02 -0.17886825203E+02 -0.57267333918E+02  0.67367558805E+02  0.00000000000E+00 0.  1.
</event>
<event>
12    1  0.8494789E-002  0.1905946E+03  0.7818608E-02  0.1158407E+00
         21   -1    0    0  501  502  0.00000000000E+00  0.00000000000E+00  0.99540664740E+02  0.99540664740E+02  0.00000000000E+00 0.  1.
         21   -1    0    0  502  503 -0.00000000000E+00 -0.00000000000E+00 -0.38618844410E+03  0.38618844410E+03  0.00000000000E+00 0. -1.
         -6    2    1    2    0  503 -0.30593543309E+02 -0.72366504665E+02 -0.20625864810E+03  0.28083612869E+03  0.17364741683E+03 0.  0.
        -24    2    3    3    0    0 -0.40944124839E+02  0.16649507032E+02 -0.14845367010E+03  0.17409115055E+03  0.79470806522E+02 0.  0.
          6    2    1    2  501    0  0.30593543309E+02  0.72366504665E+02 -0.80389131257E+02  0.20489298015E+03  0.17130629002E+03 0.  0.
         24    2    5    5    0    0 -0.44757294705E+02  0.60656224047E+02 -0.59752199128E+02  0.12575479449E+03  0.81003395560E+02 0.  0.
          5    1    5    5  501    0  0.75350838014E+02  0.11710280618E+02 -0.20636932128E+02  0.79138185658E+02  0.47000000000E+01 0. -1.
        -11    1    6    6    0    0 -0.52613720895E+02  0.50409465192E+02 -0.90389040582E+01  0.73423562935E+02  0.00000000000E+00 0.  1.
         12    1    6    6    0    0  0.78564261906E+01  0.10246758855E+02 -0.50713295070E+02  0.52331231558E+02  0.00000000000E+00 0. -1.
         -5    1    3    3    0  503  0.10350581530E+02 -0.89016011698E+02 -0.57804978001E+02  0.10674497814E+03  0.47000000000E+01 0.  1.
         11    1    4    4    0    0  0.10241313836E+02  0.27446256741E+01 -0.10497115039E+03  0.10550526003E+03  0.00000000000E+00 0. -1.
        -12    1    4    4    0    0 -0.51185438675E+02  0.13904881358E+02 -0.43482519709E+02  0.68585890518E+02  0.00000000000E+00 0.  1.
</event>
<event>
12    1  0.8494789E-002  0.2735683E+03  0.7818608E-02  0.1099589E+00
         21   -1    0    0  501  502  0.00000000000E+00  0.00000000000E+00  0.53944253989E+03  0.53944253989E+03  0.00000000000E+00 0. -1.
         21   -1    0    0  502  503 -0.00000000000E+00 -0.00000000000E+00 -0.25558729450E+03  0.25558729450E+03  0.00000000000E+00 0.  1.
         -6    2    1    2    0  503 -0.20358556938E+03 -0.51334887554E+02 -0.12856197122E+03  0.30012823202E+03  0.17165785876E+03 0.  0.
        -24    2    3    3    0    0 -0.58379266356E+02 -0.11252348052E+01 -0.10179455785E+03  0.14410110590E+03  0.83627697692E+02 0.  0.
          6    2    1    2  501    0  0.20358556938E+03  0.51334887554E+02  0.41241721661E+03  0.49490160237E+03  0.17537753772E+03 0.  0.
         24    2    5    5    0    0  0.12120839518E+03  0.83948183947E+02  0.16514387268E+03  0.23219297566E+03  0.70016473865E+02 0.  0.
          5    1    5    5  501    0  0.82377174192E+02 -0.32613296393E+02  0.24727334393E+03  0.26270862671E+03  0.47000000000E+01 0. -1.
        -13    1    6    6    0    0 -0.67023311771E+01  0.14579514447E+01  0.22766340789E+02  0.23777155813E+02  0.00000000000E+00 0.  1.
         14    1    6    6    0    0  0.12791072636E+03  0.82490232502E+02  0.14237753189E+03  0.20841581985E+03  0.00000000000E+00 0. -1.
         -5    1    3    3    0  503 -0.14520630302E+03 -0.50209652749E+02 -0.26767413371E+02  0.15602712612E+03  0.47000000000E+01 0.  1.
         11    1    4    4    0    0  0.14901234534E+02 -0.19925713689E+02 -0.36458939012E+02  0.44139948919E+02  0.00000000000E+00 0. -1.
        -12    1    4    4    0    0 -0.73280500890E+02  0.18800478884E+02 -0.65335618838E+02  0.99961156986E+02  0.00000000000E+00 0.  1.
</event>
<event>
12    1  0.8494789E-002  0.2145155E+03  0.7818608E-02  0.1138815E+00
         21   -1    0    0  503  502  0.00000000000E+00  0.00000000000E+00  0.19861557908E+04  0.19861557908E+04  0.00000000000E+00 0.  1.
         21   -1    0    0  501  503 -0.00000000000E+00 -0.00000000000E+00 -0.14811837694E+03  0.14811837694E+03  0.00000000000E+00 0.  1.
          6    2    1    2  501    0 -0.12508199004E+03 -0.23359311721E+02 -0.64105763350E+02  0.22007314290E+03  0.16772440984E+03 0.  0.
         24    2    3    3    0    0 -0.11009957287E+03 -0.59233203799E+02 -0.90299662577E+02  0.17296030692E+03  0.78299108113E+02 0.  0.
         -6    2    1    2    0  502  0.12508199004E+03  0.23359311721E+02  0.19021431772E+04  0.19142010248E+04  0.17270128890E+03 0.  0.
        -24    2    5    5    0    0 -0.71135111360E+01  0.62090523140E+01  0.86930657834E+03  0.87278693242E+03  0.77291318218E+02 0.  0.
          5    1    3    3  501    0 -0.14982417168E+02  0.35873892077E+02  0.26193899228E+02  0.47112835976E+02  0.47000000000E+01 0. -1.
        -11    1    4    4    0    0 -0.18559105375E+02  0.14815333641E+02 -0.36417835696E+02  0.43476352882E+02  0.00000000000E+00 0.  1.
         12    1    4    4    0    0 -0.91540467495E+02 -0.74048537439E+02 -0.53881826882E+02  0.12948395404E+03  0.00000000000E+00 0. -1.
         -5    1    5    5    0  502  0.13219550117E+03  0.17150259407E+02  0.10328365988E+04  0.10414140924E+04  0.47000000000E+01 0.  1.
         13    1    6    6    0    0 -0.29612336651E+02  0.30758858832E+02  0.58019954171E+03  0.58176842995E+03  0.00000000000E+00 0. -1.
        -14    1    6    6    0    0  0.22498825515E+02 -0.24549806518E+02  0.28910703663E+03  0.29101850247E+03  0.00000000000E+00 0.  1.
</event>
<event>
12    1  0.8494789E-002  0.1903302E+03  0.7818608E-02  0.1158272E+00
         21   -1    0    0  503  502  0.00000000000E+00  0.00000000000E+00  0.68763872169E+02  0.68763872169E+02  0.00000000000E+00 0. -1.
         21   -1    0    0  501  503 -0.00000000000E+00 -0.00000000000E+00 -0.12706164208E+04  0.12706164208E+04  0.00000000000E+00 0. -1.
          6    2    1    2  501    0 -0.23793809220E+02  0.76496375034E+02 -0.11134542473E+04  0.11295235404E+04  0.17211980356E+03 0.  0.
         24    2    3    3    0    0 -0.62790735469E+02  0.52799434904E+01 -0.76071501178E+03  0.76752961968E+03  0.80273492936E+02 0.  0.
         -6    2    1    2    0  502  0.23793809220E+02 -0.76496375034E+02 -0.88398301381E+02  0.20985675260E+03  0.17264922871E+03 0.  0.
        -24    2    5    5    0    0  0.28998704033E+02 -0.11076983821E+03 -0.10121809080E+03  0.17259822058E+03  0.80213228019E+02 0.  0.
          5    1    3    3  501    0  0.38996926249E+02  0.71216431544E+02 -0.35273923551E+03  0.36199392073E+03  0.47000000000E+01 0. -1.
        -11    1    4    4    0    0  0.14634907536E+02 -0.14956243493E+02 -0.11665875085E+03  0.11852060533E+03  0.00000000000E+00 0.  1.
         12    1    4    4    0    0 -0.77425643005E+02  0.20236186983E+02 -0.64405626093E+03  0.64900901435E+03  0.00000000000E+00 0. -1.
         -5    1    5    5    0  502 -0.52048948131E+01  0.34273463174E+02  0.12819789418E+02  0.37258532025E+02  0.47000000000E+01 0.  1.
         11    1    6    6    0    0 -0.22545249811E+02 -0.69927131228E+02 -0.61146483129E+02  0.95587574348E+02  0.00000000000E+00 0. -1.
        -12    1    6    6    0    0  0.51543953844E+02 -0.40842706981E+02 -0.40071607670E+02  0.77010646229E+02  0.00000000000E+00 0.  1.
</event>
<event>
12    1  0.8494789E-002  0.1742262E+03  0.7818608E-02  0.1174004E+00
         21   -1    0    0  503  502  0.00000000000E+00  0.00000000000E+00  0.74993770340E+02  0.74993770340E+02  0.00000000000E+00 0.  1.
         21   -1    0    0  501  503 -0.00000000000E+00 -0.00000000000E+00 -0.40658643084E+03  0.40658643084E+03  0.00000000000E+00 0.  1.
          6    2    1    2  501    0 -0.12310239508E+02  0.19190653373E+02 -0.19489817638E+03  0.26013011662E+03  0.17077047532E+03 0.  0.
         24    2    3    3    0    0 -0.39405290161E+02 -0.79225530471E+01 -0.20189530179E+03  0.22088323781E+03  0.80075889752E+02 0.  0.
         -6    2    1    2    0  502  0.12310239508E+02 -0.19190653373E+02 -0.13669448412E+03  0.22145008456E+03  0.17272792128E+03 0.  0.
        -24    2    5    5    0    0  0.89027676340E+01  0.44820575771E+02 -0.12104546205E+03  0.15529851457E+03  0.85892266590E+02 0.  0.
          5    1    3    3  501    0  0.27095050653E+02  0.27113206420E+02  0.69971254092E+01  0.39246878810E+02  0.47000000000E+01 0. -1.
        -13    1    4    4    0    0 -0.31711858839E+02 -0.56657526981E+01 -0.18173822068E+02  0.36986897047E+02  0.00000000000E+00 0.  1.
         14    1    4    4    0    0 -0.76934313229E+01 -0.22568003489E+01 -0.18372147972E+03  0.18389634076E+03  0.00000000000E+00 0. -1.
         -5    1    5    5    0  502  0.34074718739E+01 -0.64011229144E+02 -0.15649022069E+02  0.66151569995E+02  0.47000000000E+01 0.  1.
         11    1    6    6    0    0 -0.24016638873E+02  0.57023369100E+01 -0.87000441240E+00  0.24699645679E+02  0.00000000000E+00 0. -1.
        -12    1    6    6    0    0  0.32919406507E+02  0.39118238861E+02 -0.12017545764E+03  0.13059886889E+03  0.00000000000E+00 0.  1.
</event>
<event>
12    1  0.8494789E-002  0.4283736E+03  0.7818608E-02  0.1034419E+00
         21   -1    0    0  501  502  0.00000000000E+00  0.00000000000E+00  0.17801060779E+04  0.17801060779E+04  0.00000000000E+00 0. -1.
         21   -1    0    0  502  503 -0.00000000000E+00 -0.00000000000E+00 -0.10333324207E+03  0.10333324207E+03  0.00000000000E+00 0. -1.
         -6    2    1    2    0  503  0.39080698816E+03  0.27713681789E+02  0.89507489720E+03  0.99206081495E+03  0.17183549924E+03 0.  0.
        -24    2    3    3    0    0  0.38582517558E+03  0.50803804621E+02  0.87420818616E+03  0.96019418885E+03  0.79314783468E+02 0.  0.
          6    2    1    2  501    0 -0.39080698816E+03 -0.27713681789E+02  0.78169793865E+03  0.89137850504E+03  0.17322188601E+03 0.  0.
         24    2    5    5    0    0 -0.80393316553E+02 -0.52854573775E+00  0.16913054059E+03  0.20409647682E+03  0.81159518125E+02 0.  0.
          5    1    5    5  501    0 -0.31041367161E+03 -0.27185136051E+02  0.61256739806E+03  0.68728202822E+03  0.47000000000E+01 0. -1.
        -13    1    6    6    0    0 -0.25613302533E+02 -0.11340889473E+02  0.22264438637E+01  0.28100072829E+02  0.00000000000E+00 0.  1.
         14    1    6    6    0    0 -0.54780014020E+02  0.10812343736E+02  0.16690409673E+03  0.17599640399E+03  0.00000000000E+00 0. -1.
         -5    1    3    3    0  503  0.49818125824E+01 -0.23090122833E+02  0.20866711035E+02  0.31866626092E+02  0.47000000000E+01 0.  1.
         11    1    4    4    0    0  0.10383573931E+03  0.43614208269E+02  0.29992158078E+03  0.32037012117E+03  0.00000000000E+00 0. -1.
        -12    1    4    4    0    0  0.28198943627E+03  0.71895963524E+01  0.57428660539E+03  0.63982406769E+03  0.00000000000E+00 0.  1.
</event>
<event>
12    1  0.8494789E-002  0.2017275E+03  0.7818608E-02  0.1148767E+00
         21   -1    0    0  501  502  0.00000000000E+00  0.00000000000E+00  0.39985229066E+03  0.39985229066E+03  0.00000000000E+00 0.  1.
         21   -1    0    0  502  503 -0.00000000000E+00 -0.00000000000E+00 -0.46342768044E+03  0.46342768044E+03  0.00000000000E+00 0. -1.
         -6    2    1    2    0  503 -0.84786720409E+02 -0.60712680057E+02 -0.41365956470E+03  0.45923429871E+03  0.17002084626E+03 0.  0.
        -24    2    3    3    0    0  0.17407098437E+02  0.14454775877E+02 -0.17729385756E+03  0.19093491266E+03  0.67164583835E+02 0.  0.
          6    2    1    2  501    0  0.84786720409E+02  0.60712680057E+02  0.35008417492E+03  0.40404567239E+03  0.17268224682E+03 0.  0.
         24    2    5    5    0    0  0.61872169210E+02 -0.33065304877E+02  0.18058739450E+03  0.20892869289E+03  0.78217082222E+02 0.  0.
          5    1    5    5  501    0  0.22914551198E+02  0.93777984935E+02  0.16949678042E+03  0.19511697950E+03  0.47000000000E+01 0. -1.
        -11    1    6    6    0    0  0.28546907027E+01 -0.44477260861E+02  0.85869267097E+02  0.96746612470E+02  0.00000000000E+00 0.  1.
         12    1    6    6    0    0  0.59017478507E+02  0.11411955984E+02  0.94718127403E+02  0.11218208042E+03  0.00000000000E+00 0. -1.
         -5    1    3    3    0  503 -0.10219381885E+03 -0.75167455934E+02 -0.23636570714E+03  0.26829938605E+03  0.47000000000E+01 0.  1.
         13    1    4    4    0    0  0.33278372344E+02 -0.17641100079E+01 -0.15698017262E+03  0.16047846193E+03  0.00000000000E+00 0. -1.
        -14    1    4    4    0    0 -0.15871273907E+02  0.16218885885E+02 -0.20313684945E+02  0.30456450726E+02  0.00000000000E+00 0.  1.
</event>
<event>
12    1  0.8494789E-002  0.1814100E+03  0.7818608E-02  0.1167477E+00
         21   -1    0    0  503  502  0.00000000000E+00  0.00000000000E+00  0.33417158221E+03  0.33417158221E+03  0.00000000000E+00 0.  1.
         21   -1    0    0  501  503 -0.00000000000E+00 -0.00000000000E+00 -0.58171067540E+03  0.58171067540E+03  0.00000000000E+00 0.  1.
          6    2    1    2  501    0 -0.26020996259E+01 -0.55094488300E+02 -0.54189320798E+03  0.57011651911E+03  0.16835208030E+03 0.  0.
         24    2    3    3    0    0  0.37849940966E+02 -0.70389693045E+02 -0.25228522318E+03  0.27725958179E+03  0.82690476725E+02 0.  0.
         -6    2    1    2    0  502  0.26020996259E+01  0.55094488300E+02  0.29435411479E+03  0.34576573850E+03  0.17282195308E+03 0.  0.
        -24    2    5    5    0    0 -0.41096578959E+02  0.30115775888E+02  0.51573744651E+02  0.97778019636E+02  0.65610984043E+02 0.  0.
          5    1    3    3  501    0 -0.40452040592E+02  0.15295204745E+02 -0.28960798480E+03  0.29285693732E+03  0.47000000000E+01 0. -1.
        -13    1    4    4    0    0  0.17963514323E+01 -0.23213348175E+02 -0.18919905466E+03  0.19062625395E+03  0.00000000000E+00 0.  1.
         14    1    4    4    0    0  0.36053589534E+02 -0.47176344870E+02 -0.63086168522E+02  0.86633327838E+02  0.00000000000E+00 0. -1.
         -5    1    5    5    0  502  0.43698678585E+02  0.24978712412E+02  0.24278037014E+03  0.24798771887E+03  0.47000000000E+01 0.  1.
         11    1    6    6    0    0 -0.54364354915E+01  0.41019626295E+02  0.42673471275E+02  0.59440640331E+02  0.00000000000E+00 0. -1.
        -12    1    6    6    0    0 -0.35660143467E+02 -0.10903850407E+02  0.89002733761E+01  0.38337379305E+02  0.00000000000E+00 0.  1.
</event>
<event>
12    1  0.8494789E-002  0.2102301E+03  0.7818608E-02  0.1141392E+00
         21   -1    0    0  501  502  0.00000000000E+00  0.00000000000E+00  0.97997110850E+02  0.97997110850E+02  0.00000000000E+00 0.  1.
         21   -1    0    0  502  503 -0.00000000000E+00 -0.00000000000E+00 -0.10887676199E+04  0.10887676199E+04  0.00000000000E+00 0. -1.
         -6    2    1    2    0  503 -0.86257375608E+02  0.85006437892E+02 -0.94954599774E+03  0.97253085459E+03  0.17179124532E+03 0.  0.
        -24    2    3    3    0    0 -0.77328907638E+02  0.25185458925E+02 -0.32070094468E+03  0.34076629573E+03  0.81599663548E+02 0.  0.
          6    2    1    2  501    0  0.86257375608E+02 -0.85006437892E+02 -0.41224511284E+02  0.21423387614E+03  0.17184371977E+03 0.  0.
         24    2    5    5    0    0  0.16671219749E+02 -0.85796753616E+02  0.22563730451E+02  0.11971463222E+03  0.78634971467E+02 0.  0.
          5    1    5    5  501    0  0.69586155859E+02  0.79031572412E+00 -0.63788241735E+02  0.94519243913E+02  0.47000000000E+01 0. -1.
        -11    1    6    6    0    0  0.33493557327E+02 -0.80769259314E+02 -0.43879163950E+01  0.87548531928E+02  0.00000000000E+00 0.  1.
         12    1    6    6    0    0 -0.16822337577E+02 -0.50274943027E+01  0.26951646846E+02  0.32166100296E+02  0.00000000000E+00 0. -1.
         -5    1    3    3    0  503 -0.89284679703E+01  0.59820978967E+02 -0.62884505306E+03  0.63176455886E+03  0.47000000000E+01 0.  1.
         11    1    4    4    0    0 -0.30640412675E+02 -0.29911715722E+02 -0.12839098314E+03  0.13534323100E+03  0.00000000000E+00 0. -1.
        -12    1    4    4    0    0 -0.46688494963E+02  0.55097174648E+02 -0.19230996154E+03  0.20542306473E+03  0.00000000000E+00 0.  1.
</event>
<event>
12    1  0.8494789E-002  0.1885671E+03  0.7818608E-02  0.1159934E+00
         21   -1    0    0  501  502  0.00000000000E+00  0.00000000000E+00  0.65230820741E+03  0.65230820741E+03  0.00000000000E+00 0.  1.
         21   -1    0    0  502  503 -0.00000000000E+00 -0.00000000000E+00 -0.56422902284E+02  0.56422902284E+02  0.00000000000E+00 0. -1.
         -6    2    1    2    0  503 -0.49176128614E+02 -0.59224079722E+02  0.22846625104E+03  0.29574887401E+03  0.17130319720E+03 0.  0.
        -24    2    3    3    0    0  0.89976184492E+01 -0.37085164658E+02  0.20927159490E+03  0.23044312211E+03  0.88618087985E+02 0.  0.
          6    2    1    2  501    0  0.49176128614E+02  0.59224079722E+02  0.36741905408E+03  0.41298223568E+03  0.17213884640E+03 0.  0.
         24    2    5    5    0    0  0.10455604795E+02  0.89735773021E+02  0.32679602790E+03  0.34893098550E+03  0.82433974567E+02 0.  0.
          5    1    5    5  501    0  0.38720523818E+02 -0.30511693299E+02  0.40623026182E+02  0.64051250175E+02  0.47000000000E+01 0. -1.
        -13    1    6    6    0    0  0.36177043707E+02  0.88147619440E+02  0.23488068080E+03  0.25347133076E+03  0.00000000000E+00 0.  1.
         14    1    6    6    0    0 -0.25721438912E+02  0.15881535812E+01  0.91915347093E+02  0.95459654738E+02  0.00000000000E+00 0. -1.
         -5    1    3    3    0  503 -0.58173747063E+02 -0.22138915064E+02  0.19194656140E+02  0.65305751905E+02  0.47000000000E+01 0.  1.
         11    1    4    4    0    0  0.76966097882E+01  0.29106548418E+02  0.71972866873E+02  0.78016168382E+02  0.00000000000E+00 0. -1.
        -12    1    4    4    0    0  0.13010086610E+01 -0.66191713076E+02  0.13729872803E+03  0.15242695373E+03  0.00000000000E+00 0.  1.
</event>
<event>
12    1  0.8494789E-002  0.2771294E+03  0.7818608E-02  0.1097581E+00
         21   -1    0    0  501  502  0.00000000000E+00  0.00000000000E+00  0.32266109067E+03  0.32266109067E+03  0.00000000000E+00 0.  1.
         21   -1    0    0  502  503 -0.00000000000E+00 -0.00000000000E+00 -0.39410766038E+03  0.39410766038E+03  0.00000000000E+00 0. -1.
         -6    2    1    2    0  503  0.20884045825E+03  0.40044656693E+02 -0.26256848069E+03  0.38012611146E+03  0.17417158790E+03 0.  0.
        -24    2    3    3    0    0  0.99320464932E+02 -0.42340097321E+02 -0.90994209397E+02  0.16048618522E+03  0.76279950888E+02 0.  0.
          6    2    1    2  501    0 -0.20884045825E+03 -0.40044656693E+02  0.19112191098E+03  0.33664263958E+03  0.17771541969E+03 0.  0.
         24    2    5    5    0    0 -0.20732347482E+03  0.88615485167E+01  0.12979340047E+03  0.25804623796E+03  0.81731168269E+02 0.  0.
          5    1    5    5  501    0 -0.15169834337E+01 -0.48906205210E+02  0.61328510508E+02  0.78596401622E+02  0.47000000000E+01 0. -1.
        -13    1    6    6    0    0 -0.15223255962E+03 -0.30265618141E+02  0.95922527220E+02  0.18246065625E+03  0.00000000000E+00 0.  1.
         14    1    6    6    0    0 -0.55090915199E+02  0.39127166658E+02  0.33870873252E+02  0.75585581714E+02  0.00000000000E+00 0. -1.
         -5    1    3    3    0  503  0.10951999332E+03  0.82384754014E+02 -0.17157427129E+03  0.21963992624E+03  0.47000000000E+01 0.  1.
         13    1    4    4    0    0  0.10497797554E+03 -0.28855739838E+02 -0.55721769419E+02  0.12230267641E+03  0.00000000000E+00 0. -1.
        -14    1    4    4    0    0 -0.56575106086E+01 -0.13484357483E+02 -0.35272439977E+02  0.38183508809E+02  0.00000000000E+00 0.  1.
</event>
<event>
12    1  0.8494789E-002  0.2029193E+03  0.7818608E-02  0.1147466E+00
         21   -1    0    0  503  502  0.00000000000E+00  0.00000000000E+00  0.27246936895E+03  0.27246936895E+03  0.00000000000E+00 0.  1.
         21   -1    0    0  501  503 -0.00000000000E+00 -0.00000000000E+00 -0.41076355862E+03  0.41076355862E+03  0.00000000000E+00 0.  1.
          6    2    1    2  501    0 -0.53388496744E+02  0.93061021063E+02 -0.34100988276E+03  0.39640565761E+03  0.17128636845E+03 0.  0.
         24    2    3    3    0    0  0.28658092885E+02  0.15276035051E+02 -0.17466815288E+03  0.19522462466E+03  0.80926181845E+02 0.  0.
         -6    2    1    2    0  502  0.53388496744E+02 -0.93061021063E+02  0.20271569309E+03  0.28682726996E+03  0.17223688729E+03 0.  0.
        -24    2    5    5    0    0  0.93859470487E+02 -0.87991018494E+02  0.11538987615E+03  0.19033119260E+03  0.79744089588E+02 0.  0.
          5    1    3    3  501    0 -0.82046589629E+02  0.77784986013E+02 -0.16634172988E+03  0.20118103295E+03  0.47000000000E+01 0. -1.
        -11    1    4    4    0    0 -0.13941369506E+02  0.36851635498E+02 -0.82161465514E+02  0.91120311885E+02  0.00000000000E+00 0.  1.
         12    1    4    4    0    0  0.42599462392E+02 -0.21575600448E+02 -0.92506687368E+02  0.10410431278E+03  0.00000000000E+00 0. -1.
         -5    1    5    5    0  502 -0.40470973743E+02 -0.50700025698E+01  0.87325816935E+02  0.96496077357E+02  0.47000000000E+01 0.  1.
         11    1    6    6    0    0  0.52856033206E+02 -0.15026263678E+02  0.10171281074E+02  0.55883842075E+02  0.00000000000E+00 0. -1.
        -12    1    6    6    0    0  0.41003437282E+02 -0.72964754816E+02  0.10521859508E+03  0.13444735053E+03  0.00000000000E+00 0.  1.
</event>
<event>
12    1  0.8494789E-002  0.2658538E+03  0.7818608E-02  0.1103703E+00
         21   -1    0    0  501  502  0.00000000000E+00  0.00000000000E+00  0.58064266813E+02  0.58064266813E+02  0.00000000000E+00 0.  1.
         21   -1    0    0  502  503 -0.00000000000E+00 -0.00000000000E+00 -0.13635539180E+04  0.13635539180E+04  0.00000000000E+00 0. -1.
         -6    2    1    2    0  503 -0.20246619192E+03  0.17805488575E+02 -0.41903684700E+03  0.49615785611E+03  0.17108811981E+03 0.  0.
        -24    2    3    3    0    0 -0.33814399375E+02 -0.68771011689E+01 -0.85455328009E+02  0.12152286418E+03  0.79211648811E+02 0.  0.
          6    2    1    2  501    0  0.20246619192E+03 -0.17805488575E+02 -0.88645280416E+03  0.92546032867E+03  0.17137284399E+03 0.  0.
         24    2    5    5    0    0  0.78092246304E+02  0.91673032460E+01 -0.21151013764E+03  0.23860801345E+03  0.77555189221E+02 0.  0.
          5    1    5    5  501    0  0.12437394562E+03 -0.26972791821E+02 -0.67494266652E+03  0.68685231523E+03  0.47000000000E+01 0. -1.
        -11    1    6    6    0    0  0.39390368046E+02 -0.23540794842E+02 -0.15960056867E+03  0.16606658796E+03  0.00000000000E+00 0.  1.
         12    1    6    6    0    0  0.38701878258E+02  0.32708098088E+02 -0.51909568971E+02  0.72541425489E+02  0.00000000000E+00 0. -1.
         -5    1    3    3    0  503 -0.16865179255E+03  0.24682589744E+02 -0.33358151900E+03  0.37463499193E+03  0.47000000000E+01 0.  1.
         11    1    4    4    0    0 -0.19630799732E+02 -0.43065472176E+02 -0.42748399484E+02  0.63776397282E+02  0.00000000000E+00 0. -1.
        -12    1    4    4    0    0 -0.14183599643E+02  0.36188371007E+02 -0.42706928525E+02  0.57746466896E+02  0.00000000000E+00 0.  1.
</event>
<event>
12    1  0.8494789E-002  0.1758042E+03  0.7818608E-02  0.1171975E+00
         21   -1    0    0  503  502  0.00000000000E+00  0.00000000000E+00  0.10504046656E+03  0.10504046656E+03  0.00000000000E+00 0.  1.
         21   -1    0    0  501  503 -0.00000000000E+00 -0.00000000000E+00 -0.29505056853E+03  0.29505056853E+03  0.00000000000E+00 0.  1.
          6    2    1    2  501    0 -0.23931938204E+02 -0.26630360515E+02 -0.10734431823E+03  0.20582125274E+03  0.17192344708E+03 0.  0.
         24    2    3    3    0    0 -0.48381277275E+02 -0.36249651509E+02 -0.13458272278E+03  0.16768568374E+03  0.79694378937E+02 0.  0.
         -6    2    1    2    0  502  0.23931938204E+02  0.26630360515E+02 -0.82665783742E+02  0.19426978234E+03  0.17211973380E+03 0.  0.
        -24    2    5    5    0    0 -0.10986357540E+01 -0.28698945118E+02 -0.98964949540E+02  0.13121730816E+03  0.81234747940E+02 0.  0.
          5    1    3    3  501    0  0.24449339070E+02  0.96192909933E+01  0.27238404555E+02  0.38135568999E+02  0.47000000000E+01 0. -1.
        -11    1    4    4    0    0 -0.67944435555E+02 -0.34048496543E+02 -0.83326217829E+02  0.11277856630E+03  0.00000000000E+00 0.  1.
         12    1    4    4    0    0  0.19563158280E+02 -0.22011549652E+01 -0.51256504953E+02  0.54907117435E+02  0.00000000000E+00 0. -1.
         -5    1    5    5    0  502  0.25030573958E+02  0.55329305633E+02  0.16299165798E+02  0.63052474181E+02  0.47000000000E+01 0.  1.
         13    1    6    6    0    0 -0.33769165096E+02  0.27212417998E+01 -0.17841711328E+02  0.38289532922E+02  0.00000000000E+00 0. -1.
        -14    1    6    6    0    0  0.32670529342E+02 -0.31420186918E+02 -0.81123238212E+02  0.92927775242E+02  0.00000000000E+00 0.  1.
</event>
<event>
12    1  0.8494789E-002  0.2477486E+03  0.7818608E-02  0.1114816E+00
         21   -1    0    0  501  502  0.00000000000E+00  0.00000000000E+00  0.35460841871E+03  0.35460841871E+03  0.00000000000E+00 0.  1.
         21   -1    0    0  502  503 -0.00000000000E+00 -0.00000000000E+00 -0.20980782786E+03  0.20980782786E+03  0.00000000000E+00 0. -1.
         -6    2    1    2    0  503 -0.17836548740E+02  0.17712477358E+03 -0.46279968568E+02  0.25154067192E+03  0.17157956246E+03 0.  0.
        -24    2    3    3    0    0 -0.11065477568E+02  0.17839988220E+03 -0.84712696543E+02  0.21221335462E+03  0.76871998529E+02 0.  0.
          6    2    1    2  501    0  0.17836548740E+02 -0.17712477358E+03  0.19108055942E+03  0.31287557465E+03  0.17230211007E+03 0.  0.
         24    2    5    5    0    0  0.59214852523E+02 -0.44559472629E+02  0.74635203798E+02  0.13158207259E+03  0.79066319138E+02 0.  0.
          5    1    5    5  501    0 -0.41378303783E+02 -0.13256530095E+03  0.11644535562E+03  0.18129350205E+03  0.47000000000E+01 0. -1.
        -11    1    6    6    0    0  0.22256685622E+01  0.20814287209E+02  0.20773025698E+02  0.29490790922E+02  0.00000000000E+00 0.  1.
         12    1    6    6    0    0  0.56989183961E+02 -0.65373759837E+02  0.53862178100E+02  0.10209128167E+03  0.00000000000E+00 0. -1.
         -5    1    3    3    0  503 -0.67710711721E+01 -0.12751086237E+01  0.38432727975E+02  0.39327317305E+02  0.47000000000E+01 0.  1.
         11    1    4    4    0    0  0.35746053695E+01  0.10014802407E+01 -0.23785408333E+02  0.24073354893E+02  0.00000000000E+00 0. -1.
        -12    1    4    4    0    0 -0.14640082938E+02  0.17739840196E+03 -0.60927288210E+02  0.18813999972E+03  0.00000000000E+00 0.  1.
</event>
<event>
12    1  0.8494789E-002  0.1989088E+03  0.7818608E-02  0.1151015E+00
         21   -1    0    0  503  502  0.00000000000E+00  0.00000000000E+00  0.39123243084E+03  0.39123243084E+03  0.00000000000E+00 0. -1.
         21   -1    0    0  501  503 -0.00000000000E+00 -0.00000000000E+00 -0.37324678869E+03  0.37324678869E+03  0.00000000000E+00 0.  1.
          6    2    1    2  501    0 -0.94866692028E+02 -0.30150234531E+02 -0.31787314526E+03  0.37497737915E+03  0.17220909527E+03 0.  0.
         24    2    3    3    0    0 -0.54443018173E+02  0.25926522729E+02 -0.27765081213E+03  0.29486119979E+03  0.78847491103E+02 0.  0.
         -6    2    1    2    0  502  0.94866692028E+02  0.30150234531E+02  0.33585878741E+03  0.38950184039E+03  0.17029924452E+03 0.  0.
        -24    2    5    5    0    0  0.61237374159E+02 -0.45916210298E+02  0.22740259779E+03  0.25274705942E+03  0.79440670965E+02 0.  0.
          5    1    3    3  501    0 -0.40423673855E+02 -0.56076757260E+02 -0.40222333131E+02  0.80116179360E+02  0.47000000000E+01 0. -1.
        -13    1    4    4    0    0 -0.99504561901E+01 -0.36365858183E+00 -0.20745319808E+03  0.20769201531E+03  0.00000000000E+00 0.  1.
         14    1    4    4    0    0 -0.44492561983E+02  0.26290181311E+02 -0.70197614047E+02  0.87169184481E+02  0.00000000000E+00 0. -1.
         -5    1    5    5    0  502  0.33629317869E+02  0.76066444829E+02  0.10845618962E+03  0.13675478096E+03  0.47000000000E+01 0.  1.
         11    1    6    6    0    0  0.52559998157E+02 -0.67395502746E+02  0.15880445183E+03  0.18034289871E+03  0.00000000000E+00 0. -1.
        -12    1    6    6    0    0  0.86773760018E+01  0.21479292448E+02  0.68598145963E+02  0.72404160709E+02  0.00000000000E+00 0.  1.
</event>
<event>
12    1  0.8494789E-002  0.1926408E+03  0.7818608E-02  0.1156166E+00
         21   -1    0    0  503  502  0.00000000000E+00  0.00000000000E+00  0.68769450874E+02  0.68769450874E+02  0.00000000000E+00 0. -1.
         21   -1    0    0  501  503 -0.00000000000E+00 -0.00000000000E+00 -0.65818720471E+03  0.65818720471E+03  0.00000000000E+00 0. -1.
          6    2    1    2  501    0 -0.45559946951E+02  0.73695909657E+02 -0.44969280024E+03  0.48921784932E+03  0.17205723942E+03 0.  0.
         24    2    3    3    0    0 -0.78131697889E+02  0.85834236064E+02 -0.25407996238E+03  0.29048503808E+03  0.79704778835E+02 0.  0.
         -6    2    1    2    0  502  0.45559946951E+02 -0.73695909657E+02 -0.13972495359E+03  0.23773880626E+03  0.17172618170E+03 0.  0.
        -24    2    5    5    0    0  0.70654289532E+02  0.72655561233E+01 -0.66338951235E+02  0.12552436730E+03  0.79439872853E+02 0.  0.
          5    1    3    3  501    0  0.32571750939E+02 -0.12138326407E+02 -0.19561283786E+03  0.19873281124E+03  0.47000000000E+01 0. -1.
        -13    1    4    4    0    0  0.12448972222E+02  0.38526633709E+01 -0.68640281905E+01  0.14728706917E+02  0.00000000000E+00 0.  1.
         14    1    4    4    0    0 -0.90580670112E+02  0.81981572693E+02 -0.24721593419E+03  0.27575633116E+03  0.00000000000E+00 0. -1.
         -5    1    5    5    0  502 -0.25094342581E+02 -0.80961465780E+02 -0.73386002359E+02  0.11221443897E+03  0.47000000000E+01 0.  1.
         13    1    6    6    0    0  0.42686477268E+02 -0.24251163584E+02 -0.26596978962E+01  0.49166332684E+02  0.00000000000E+00 0. -1.
        -14    1    6    6    0    0  0.27967812264E+02  0.31516719707E+02 -0.63679253339E+02  0.76358034611E+02  0.00000000000E+00 0.  1.
</event>
<event>
12    1  0.8494789E-002  0.1956724E+03  0.7818608E-02  0.1153593E+00
         21   -1    0    0  503  502  0.00000000000E+00  0.00000000000E+00  0.26840681963E+03  0.26840681963E+03  0.00000000000E+00 0.  1.
         21   -1    0    0  501  503 -0.00000000000E+00 -0.00000000000E+00 -0.35601987002E+03  0.35601987002E+03  0.00000000000E+00 0. -1.
          6    2    1    2  501    0 -0.82449909202E+02 -0.43324512458E+02  0.19821409874E+03  0.27803841221E+03  0.17129369171E+03 0.  0.
         24    2    3    3    0    0 -0.73611865164E+02  0.26828199773E+02  0.16912818253E+03  0.20143818651E+03  0.76384172863E+02 0.  0.
         -6    2    1    2    0  502  0.82449909202E+02  0.43324512458E+02 -0.28582714913E+03  0.34638827743E+03  0.17208334799E+03 0.  0.
        -24    2    5    5    0    0  0.38239291816E+02  0.65450435604E+02 -0.27404143748E+03  0.29534782128E+03  0.79910093987E+02 0.  0.
          5    1    3    3  501    0 -0.88380440375E+01 -0.70152712231E+02  0.29085916212E+02  0.76600225703E+02  0.47000000000E+01 0. -1.
        -13    1    4    4    0    0 -0.56263518396E+02 -0.17638075140E+02  0.70800474561E+02  0.92137898798E+02  0.00000000000E+00 0.  1.
         14    1    4    4    0    0 -0.17348346769E+02  0.44466274913E+02  0.98327707965E+02  0.10930028771E+03  0.00000000000E+00 0. -1.
         -5    1    5    5    0  502  0.44210617386E+02 -0.22125923146E+02 -0.11785711651E+02  0.51040456148E+02  0.47000000000E+01 0.  1.
         13    1    6    6    0    0  0.54867072783E+02  0.15437229580E+02 -0.12914209116E+03  0.14116084245E+03  0.00000000000E+00 0. -1.
        -14    1    6    6    0    0 -0.16627780967E+02  0.50013206023E+02 -0.14489934632E+03  0.15418697883E+03  0.00000000000E+00 0.  1.
</event>
<event>
12    1  0.8494789E-002  0.2427467E+03  0.7818608E-02  0.1118557E+00
         21   -1    0    0  501  502  0.00000000000E+00  0.00000000000E+00  0.37011245480E+03  0.37011245480E+03  0.00000000000E+00 0. -1.
         21   -1    0    0  502  503 -0.00000000000E+00 -0.00000000000E+00 -0.16194767906E+03  0.16194767906E+03  0.00000000000E+00 0. -1.
         -6    2    1    2    0  503 -0.13758667364E+03  0.10061825808E+03  0.57935555973E+02  0.24956462585E+03  0.17283473958E+03 0.  0.
        -24    2    3    3    0    0 -0.42454899670E+02  0.10562229146E+03  0.68554462927E+02  0.15359616252E+03  0.77029733179E+02 0.  0.
          6    2    1    2  501    0  0.13758667364E+03 -0.10061825808E+03  0.15022921977E+03  0.28249550801E+03  0.16787128090E+03 0.  0.
         24    2    5    5    0    0  0.16040614571E+02 -0.80352754843E+01  0.19983808621E+02  0.81669687293E+02  0.77127934289E+02 0.  0.
          5    1    5    5  501    0  0.12154605907E+03 -0.92582982597E+02  0.13024541115E+03  0.20082582072E+03  0.47000000000E+01 0. -1.
        -11    1    6    6    0    0 -0.14585687759E+02 -0.27007972847E+02 -0.12517321162E+02  0.33149000192E+02  0.00000000000E+00 0.  1.
         12    1    6    6    0    0  0.30626302330E+02  0.18972697362E+02  0.32501129783E+02  0.48520687101E+02  0.00000000000E+00 0. -1.
         -5    1    3    3    0  503 -0.95131773973E+02 -0.50040333758E+01 -0.10618906954E+02  0.95968463331E+02  0.47000000000E+01 0.  1.
         11    1    4    4    0    0 -0.57342267417E+02  0.67839834904E+02  0.21407702244E+02  0.91371048739E+02  0.00000000000E+00 0. -1.
        -12    1    4    4    0    0  0.14887367747E+02  0.37782456553E+02  0.47146760683E+02  0.62225113776E+02  0.00000000000E+00 0.  1.
</event>
<event>
12    1  0.8494789E-002  0.2237188E+03  0.7818608E-02  0.1131170E+00
         21   -1    0    0  501  502  0.00000000000E+00  0.00000000000E+00  0.74040823327E+02  0.74040823327E+02  0.00000000000E+00 0. -1.
         21   -1    0    0  502  503 -0.00000000000E+00 -0.00000000000E+00 -0.13217562943E+04  0.13217562943E+04  0.00000000000E+00 0. -1.
         -6    2    1    2    0  503 -0.14185710922E+03  0.14751353080E+02 -0.11119776675E+04  0.11342594248E+04  0.17236318626E+03 0.  0.
        -24    2    3    3    0    0 -0.13813146822E+02 -0.23410279338E+02 -0.29426406008E+03  0.30568884834E+03  0.78201603177E+02 0.  0.
          6    2    1    2  501    0  0.14185710922E+03 -0.14751353080E+02 -0.13573780351E+03  0.26153769282E+03  0.17215159486E+03 0.  0.
         24    2    5    5    0    0  0.12982098916E+03  0.22594310092E+02 -0.15359033199E+03  0.21817446512E+03  0.81523708664E+02 0.  0.
          5    1    5    5  501    0  0.12036120053E+02 -0.37345663172E+02  0.17852528476E+02  0.43363227701E+02  0.47000000000E+01 0. -1.
        -11    1    6    6    0    0  0.23777196821E+02  0.20986063627E+02 -0.87842516313E+02  0.93392064049E+02  0.00000000000E+00 0.  1.
         12    1    6    6    0    0  0.10604379234E+03  0.16082464651E+01 -0.65747815677E+02  0.12478240107E+03  0.00000000000E+00 0. -1.
         -5    1    3    3    0  503 -0.12804396239E+03  0.38161632419E+02 -0.81771360738E+03  0.82857057647E+03  0.47000000000E+01 0.  1.
         11    1    4    4    0    0 -0.79677509514E+00 -0.23108862401E+02 -0.29145325234E+03  0.29236903508E+03  0.00000000000E+00 0. -1.
        -12    1    4    4    0    0 -0.13016371727E+02 -0.30141693728E+00 -0.28108077369E+01  0.13319813258E+02  0.00000000000E+00 0.  1.
</event>
<event>
12    1  0.8494789E-002  0.1862079E+03  0.7818608E-02  0.1162055E+00
         21   -1    0    0  503  502  0.00000000000E+00  0.00000000000E+00  0.10387262499E+03  0.10387262499E+03  0.00000000000E+00 0. -1.
         21   -1    0    0  501  503 -0.00000000000E+00 -0.00000000000E+00 -0.44010890331E+03  0.44010890331E+03  0.00000000000E+00 0. -1.
          6    2    1    2  501    0  0.29357873550E+01 -0.70136791607E+02 -0.30222339071E+03  0.35469266154E+03  0.17187238835E+03 0.  0.
         24    2    3    3    0    0  0.30841985114E+02 -0.10773250790E+03 -0.24385639291E+03  0.27971939838E+03  0.78863680892E+02 0.  0.
         -6    2    1    2    0  502 -0.29357873550E+01  0.70136791607E+02 -0.34012887617E+02  0.18928886675E+03  0.17246915715E+03 0.  0.
        -24    2    5    5    0    0 -0.43873044743E+02  0.59038286444E+02 -0.71520965379E+02  0.13247353646E+03  0.83807076384E+02 0.  0.
          5    1    3    3  501    0 -0.27906197759E+02  0.37595716291E+02 -0.58366997794E+02  0.74973263156E+02  0.47000000000E+01 0. -1.
        -13    1    4    4    0    0 -0.23285582881E+02 -0.11472961998E+02 -0.57713076837E+02  0.63282276074E+02  0.00000000000E+00 0.  1.
         14    1    4    4    0    0  0.54127567995E+02 -0.96259545900E+02 -0.18614331608E+03  0.21643712231E+03  0.00000000000E+00 0. -1.
         -5    1    5    5    0  502  0.40937257388E+02  0.11098505163E+02  0.37508077761E+02  0.56815330296E+02  0.47000000000E+01 0.  1.
         11    1    6    6    0    0 -0.50504833938E+02  0.41957210284E+02 -0.77414245273E+01  0.66114108931E+02  0.00000000000E+00 0. -1.
        -12    1    6    6    0    0  0.66317891958E+01  0.17081076160E+02 -0.63779540851E+02  0.66359427529E+02  0.00000000000E+00 0.  1.
</event>
<event>
12    1  0.8494789E-002  0.2002223E+03  0.7818608E-02  0.1149991E+00
         21   -1    0    0  501  502  0.00000000000E+00  0.00000000000E+00  0.78894612284E+02  0.78894612284E+02  0.00000000000E+00 0.  1.
         21   -1    0    0  502  503 -0.00000000000E+00 -0.00000000000E+00 -0.68018650133E+03  0.68018650133E+03  0.00000000000E+00 0. -1.
         -6    2    1    2    0  503  0.77835850398E+02  0.66868402802E+02 -0.49557780616E+03  0.53449632671E+03  0.17192777090E+03 0.  0.
        -24    2    3    3    0    0  0.35800536591E+02  0.10963963167E+03 -0.36441918247E+03  0.39020141968E+03  0.78442846180E+02 0.  0.
          6    2    1    2  501    0 -0.77835850398E+02 -0.66868402802E+02 -0.10571408289E+03  0.22458478691E+03  0.16950827793E+03 0.  0.
         24    2    5    5    0    0 -0.33687264625E+02 -0.11988011575E+01  0.71507340998E+01  0.86663972236E+02  0.79518816411E+02 0.  0.
          5    1    5    5  501    0 -0.44148585772E+02 -0.65669601645E+02 -0.11286481699E+03  0.13792081467E+03  0.47000000000E+01 0. -1.
        -13    1    6    6    0    0 -0.41171642814E+02  0.32099462125E+02  0.31466958818E+01  0.52300873183E+02  0.00000000000E+00 0.  1.
         14    1    6    6    0    0  0.74843781891E+01 -0.33298263282E+02  0.40040382180E+01  0.34363099053E+02  0.00000000000E+00 0. -1.
         -5    1    3    3    0  503  0.42035313807E+02 -0.42771228867E+02 -0.13115862369E+03  0.14429490702E+03  0.47000000000E+01 0.  1.
         11    1    4    4    0    0  0.30004500346E+02  0.45593700767E+02 -0.27316510594E+03  0.27856458981E+03  0.00000000000E+00 0. -1.
        -12    1    4    4    0    0  0.57960362451E+01  0.64045930902E+02 -0.91254076528E+02  0.11163682987E+03  0.00000000000E+00 0.  1.
</event>
<event>
12    1  0.8494789E-002  0.1820316E+03  0.7818608E-02  0.1168419E+00
         21   -1    0    0  501  502  0.00000000000E+00  0.00000000000E+00  0.30153399271E+03  0.30153399271E+03  0.00000000000E+00 0.  1.
         21   -1    0    0  502  503 -0.00000000000E+00 -0.00000000000E+00 -0.12671900531E+03  0.12671900531E+03  0.00000000000E+00 0.  1.
         -6    2    1    2    0  503  0.40993294377E+01  0.57032183741E+00 -0.59718840232E+01  0.17170010970E+03  0.17154630425E+03 0.  0.
        -24    2    3    3    0    0  0.56450884598E+02 -0.42828249061E+02 -0.96315850979E+01  0.10343881249E+03  0.74738605880E+02 0.  0.
          6    2    1    2  501    0 -0.40993294377E+01 -0.57032183741E+00  0.18078687142E+03  0.25655288832E+03  0.18198450994E+03 0.  0.
         24    2    5    5    0    0 -0.59154714202E+02 -0.38070102712E+02  0.14672814913E+03  0.18159012742E+03  0.80605283304E+02 0.  0.
          5    1    5    5  501    0  0.55055384764E+02  0.37499780874E+02  0.34058722286E+02  0.74962760894E+02  0.47000000000E+01 0. -1.
        -11    1    6    6    0    0 -0.11961361500E+02 -0.54756485682E+02  0.89048478715E+02  0.10521871723E+03  0.00000000000E+00 0.  1.
         12    1    6    6    0    0 -0.47193352702E+02  0.16686382971E+02  0.57679670420E+02  0.76371410198E+02  0.00000000000E+00 0. -1.
         -5    1    3    3    0  503 -0.52351555160E+02  0.43398570899E+02  0.36597010747E+01  0.68261297202E+02  0.47000000000E+01 0.  1.
         13    1    4    4    0    0  0.11803130679E+02 -0.54986479734E+02 -0.10227325262E+02  0.57161394572E+02  0.00000000000E+00 0. -1.
        -14    1    4    4    0    0  0.44647753919E+02  0.12158230673E+02  0.59574016415E+00  0.46277417921E+02  0.00000000000E+00 0.  1.
</event>
<event>
12    1  0.8494789E-002  0.1863609E+03  0.7818608E-02  0.1161924E+00
         21   -1    0    0  503  502  0.00000000000E+00  0.00000000000E+00  0.25228063661E+03  0.25228063661E+03  0.00000000000E+00 0. -1.
         21   -1    0    0  501  503 -0.00000000000E+00 -0.00000000000E+00 -0.13944085423E+03  0.13944085423E+03  0.00000000000E+00 0.  1.
          6    2    1    2  501    0  0.68468996332E+02  0.16367218755E+02  0.81038863090E+02  0.20266675758E+03  0.17190296096E+03 0.  0.
         24    2    3    3    0    0  0.24048342834E+01  0.64562852410E+02  0.60858818159E+02  0.11830671476E+03  0.78221083288E+02 0.  0.
         -6    2    1    2    0  502 -0.68468996332E+02 -0.16367218755E+02  0.31800919292E+02  0.18905473326E+03  0.17255290317E+03 0.  0.
        -24    2    5    5    0    0 -0.38502963903E+02  0.20209601854E+02  0.79166089870E+02  0.12196243647E+03  0.81955230992E+02 0.  0.
          5    1    3    3  501    0  0.66064162049E+02 -0.48195633655E+02  0.20180044931E+02  0.84360042816E+02  0.47000000000E+01 0. -1.
        -13    1    4    4    0    0 -0.86599837348E+01 -0.14206707255E+02  0.27308289168E+02  0.31977625093E+02  0.00000000000E+00 0.  1.
         14    1    4    4    0    0  0.11064818018E+02  0.78769559664E+02  0.33550528991E+02  0.86329089669E+02  0.00000000000E+00 0. -1.
         -5    1    5    5    0  502 -0.29966032430E+02 -0.36576820609E+02 -0.47365170577E+02  0.67092296795E+02  0.47000000000E+01 0.  1.
         11    1    6    6    0    0 -0.50226569410E+02 -0.11743934765E+02  0.23424711670E+02  0.56651084679E+02  0.00000000000E+00 0. -1.
        -12    1    6    6    0    0  0.11723605507E+02  0.31953536620E+02  0.55741378200E+02  0.65311351787E+02  0.00000000000E+00 0.  1.
</event>
<event>
12    1  0.8494789E-002  0.2224563E+03  0.7818608E-02  0.1132314E+00
         21   -1    0    0  501  502  0.00000000000E+00  0.00000000000E+00  0.22490612081E+03  0.22490612081E+03  0.00000000000E+00 0. -1.
         21   -1    0    0  502  503 -0.00000000000E+00 -0.00000000000E+00 -0.34202444615E+03  0.34202444615E+03  0.00000000000E+00 0. -1.
         -6    2    1    2    0  503 -0.25168957336E+02  0.13745012667E+03 -0.22866102538E+03  0.31807603523E+03  0.17134901787E+03 0.  0.
        -24    2    3    3    0    0 -0.44464252409E+02  0.93790416404E+02 -0.23797546401E+03  0.26921574993E+03  0.71211562184E+02 0.  0.
          6    2    1    2  501    0  0.25168957336E+02 -0.13745012667E+03  0.11154270004E+03  0.24885453173E+03  0.17309185509E+03 0.  0.
         24    2    5    5    0    0 -0.36748291218E+02 -0.27990247429E+02  0.21002326030E+02  0.93822728037E+02  0.78915877611E+02 0.  0.
          5    1    5    5  501    0  0.61917248554E+02 -0.10945987924E+03  0.90540374008E+02  0.15503180369E+03  0.47000000000E+01 0. -1.
        -11    1    6    6    0    0 -0.26502089647E+02  0.32400414238E+00 -0.26565246944E+02  0.37525698921E+02  0.00000000000E+00 0.  1.
         12    1    6    6    0    0 -0.10246201571E+02 -0.28314251571E+02  0.47567572974E+02  0.56297029116E+02  0.00000000000E+00 0. -1.
         -5    1    3    3    0  503  0.19295295072E+02  0.43659710264E+02  0.93144386328E+01  0.48860285297E+02  0.47000000000E+01 0.  1.
         13    1    4    4    0    0  0.13111108000E+02  0.34101975434E+02 -0.11678276858E+03  0.12236445938E+03  0.00000000000E+00 0. -1.
        -14    1    4    4    0    0 -0.57575360408E+02  0.59688440970E+02 -0.12119269543E+03  0.14685129055E+03  0.00000000000E+00 0.  1.
</event>
<event>
12    1  0.8494789E-002  0.2008382E+03  0.7818608E-02  0.1149472E+00
         21   -1    0    0  503  502  0.00000000000E+00  0.00000000000E+00  0.11943968104E+04  0.11943968104E+04  0.00000000000E+00 0. -1.
         21   -1    0    0  501  503 -0.00000000000E+00 -0.00000000000E+00 -0.39158709378E+02  0.39158709378E+02  0.00000000000E+00 0. -1.
          6    2    1    2  501    0 -0.63422401789E+02 -0.83453153598E+02  0.81111279461E+03  0.83511077565E+03  0.16887632201E+03 0.  0.
         24    2    3    3    0    0  0.25025266118E+02 -0.66259420251E+02  0.50643660685E+03  0.51735570675E+03  0.78500419318E+02 0.  0.
         -6    2    1    2    0  502  0.63422401789E+02  0.83453153598E+02  0.34412530640E+03  0.39844474411E+03  0.17131595872E+03 0.  0.
        -24    2    5    5    0    0  0.25261783819E+02 -0.14404054864E+02  0.88638572776E+02  0.12216983199E+03  0.78886226595E+02 0.  0.
          5    1    3    3  501    0 -0.88447667907E+02 -0.17193733347E+02  0.30467618776E+03  0.31775506890E+03  0.47000000000E+01 0. -1.
        -11    1    4    4    0    0  0.37865214726E+02 -0.64799303768E+00  0.21865229155E+03  0.22190768122E+03  0.00000000000E+00 0.  1.
         12    1    4    4    0    0 -0.12839948608E+02 -0.65611427213E+02  0.28778431530E+03  0.29544802554E+03  0.00000000000E+00 0. -1.
         -5    1    5    5    0  502  0.38160617970E+02  0.97857208461E+02  0.25548673362E+03  0.27627491212E+03  0.47000000000E+01 0.  1.
         11    1    6    6    0    0  0.38219454333E+02  0.22877393536E+02  0.49353206069E+02  0.66481883049E+02  0.00000000000E+00 0. -1.
        -12    1    6    6    0    0 -0.12957670514E+02 -0.37281448399E+02  0.39285366708E+02  0.55687948941E+02  0.00000000000E+00 0.  1.
</event>
<event>
12    1  0.8494789E-002  0.1919351E+03  0.7818608E-02  0.1156844E+00
         21   -1    0    0  501  502  0.00000000000E+00  0.00000000000E+00  0.29069137948E+03  0.29069137948E+03  0.00000000000E+00 0. -1.
         21   -1    0    0  502  503 -0.00000000000E+00 -0.00000000000E+00 -0.40976470425E+03  0.40976470425E+03  0.00000000000E+00 0. -1.
         -6    2    1    2    0  503  0.82020944671E+02 -0.15324374732E+02 -0.35076295294E+03  0.39959207365E+03  0.17226985907E+03 0.  0.
        -24    2    3    3    0    0  0.39592240537E+01 -0.60555403231E+02 -0.18876025238E+03  0.21410233498E+03  0.80788270485E+02 0.  0.
          6    2    1    2  501    0 -0.82020944671E+02  0.15324374732E+02  0.23168962817E+03  0.30086401009E+03  0.17284905826E+03 0.  0.
         24    2    5    5    0    0 -0.14819318782E+02 -0.46109769427E+02  0.15659582926E+03  0.18274804493E+03  0.80801430300E+02 0.  0.
          5    1    5    5  501    0 -0.67201625889E+02  0.61434144159E+02  0.75093798905E+02  0.11811596516E+03  0.47000000000E+01 0. -1.
        -11    1    6    6    0    0 -0.40670806195E+02 -0.53494363206E+02  0.10759264951E+03  0.12685400901E+03  0.00000000000E+00 0.  1.
         12    1    6    6    0    0  0.25851487413E+02  0.73845937790E+01  0.49003179747E+02  0.55894035926E+02  0.00000000000E+00 0. -1.
         -5    1    3    3    0  503  0.78061720618E+02  0.45231028499E+02 -0.16200270056E+03  0.18548973867E+03  0.47000000000E+01 0.  1.
         13    1    4    4    0    0 -0.21877432640E+02  0.11070044049E+02 -0.54312725253E+02  0.59590603777E+02  0.00000000000E+00 0. -1.
        -14    1    4    4    0    0  0.25836656694E+02 -0.71625447280E+02 -0.13444752713E+03  0.15451173120E+03  0.00000000000E+00 0.  1.
</event>
<event>
12    1  0.8494789E-002  0.3201615E+03  0.7818608E-02  0.1075786E+00
         21   -1    0    0  503  502  0.00000000000E+00  0.00000000000E+00  0.65583267563E+02  0.65583267563E+02  0.00000000000E+00 0.  1.
         21   -1    0    0  501  503 -0.00000000000E+00 -0.00000000000E+00 -0.21246669836E+04  0.21246669836E+04  0.00000000000E+00 0. -1.
          6    2    1    2  501    0  0.78105895933E+02 -0.25600216915E+03 -0.15992241102E+04  0.16309571186E+04  0.17568644316E+03 0.  0.
         24    2    3    3    0    0  0.67026769756E+02 -0.63472455530E+02 -0.52313391624E+03  0.53771303181E+03  0.83335885290E+02 0.  0.
         -6    2    1    2    0  502 -0.78105895933E+02  0.25600216915E+03 -0.45985960578E+03  0.55929313256E+03  0.17233777737E+03 0.  0.
        -24    2    5    5    0    0 -0.10705196767E+03  0.18604014466E+03 -0.40604950471E+03  0.46628680526E+03  0.80474376540E+02 0.  0.
          5    1    3    3  501    0  0.11079126178E+02 -0.19252971362E+03 -0.10760901940E+04  0.10932440868E+04  0.47000000000E+01 0. -1.
        -13    1    4    4    0    0  0.48441576535E+02 -0.43045320368E+02 -0.14802194854E+03  0.16158583847E+03  0.00000000000E+00 0.  1.
         14    1    4    4    0    0  0.18585193220E+02 -0.20427135162E+02 -0.37511196770E+03  0.37612719334E+03  0.00000000000E+00 0. -1.
         -5    1    5    5    0  502  0.28946071737E+02  0.69962024488E+02 -0.53810101072E+02  0.93006327294E+02  0.47000000000E+01 0.  1.
         13    1    6    6    0    0 -0.14005697029E+02  0.10399331861E+03 -0.17534849431E+03  0.20434741085E+03  0.00000000000E+00 0. -1.
        -14    1    6    6    0    0 -0.93046270642E+02  0.82046826055E+02 -0.23070101040E+03  0.26193939441E+03  0.00000000000E+00 0.  1.
</event>
<event>
12    1  0.8494789E-002  0.1811250E+03  0.7818608E-02  0.1167183E+00
         21   -1    0    0  501  502  0.00000000000E+00  0.00000000000E+00  0.21304350411E+04  0.21304350411E+04  0.00000000000E+00 0.  1.
         21   -1    0    0  502  503 -0.00000000000E+00 -0.00000000000E+00 -0.18502529643E+02  0.18502529643E+02  0.00000000000E+00 0.  1.
         -6    2    1    2    0  503  0.49120642036E+02 -0.27015558967E+02  0.60913664934E+03  0.63549485212E+03  0.17223115746E+03 0.  0.
        -24    2    3    3    0    0  0.19349390142E+02  0.38534055267E+02  0.47555312223E+03  0.48367348313E+03  0.77006453686E+02 0.  0.
          6    2    1    2  501    0 -0.49120642036E+02  0.27015558967E+02  0.15027958622E+04  0.15134427187E+04  0.17020805344E+03 0.  0.
         24    2    5    5    0    0 -0.45546929568E+02  0.29390027803E+02  0.15047720444E+04  0.15067790245E+04  0.55729944483E+02 0.  0.
          5    1    5    5  501    0 -0.35737124677E+01 -0.23744688359E+01 -0.19761822323E+01  0.66636941158E+01  0.47000000000E+01 0. -1.
        -11    1    6    6    0    0  0.15168501315E+01  0.29616075486E+02  0.46729964996E+03  0.46823965618E+03  0.00000000000E+00 0.  1.
         12    1    6    6    0    0 -0.47063779700E+02 -0.22604768272E+00  0.10374723944E+04  0.10385393684E+04  0.00000000000E+00 0. -1.
         -5    1    3    3    0  503  0.29771251894E+02 -0.65549614234E+02  0.13358352711E+03  0.15182136899E+03  0.47000000000E+01 0.  1.
         11    1    4    4    0    0 -0.11753843847E+02 -0.87155410851E+00  0.10102202868E+02  0.15523110337E+02  0.00000000000E+00 0. -1.
        -12    1    4    4    0    0  0.31103233988E+02  0.39405609376E+02  0.46545091936E+03  0.46815037279E+03  0.00000000000E+00 0.  1.
</event>
<event>
12    1  0.8494789E-002  0.2065881E+03  0.7818608E-02  0.1144413E+00
         21   -1    0    0  501  502  0.00000000000E+00  0.00000000000E+00  0.26363176578E+03  0.26363176578E+03  0.00000000000E+00 0. -1.
         21   -1    0    0  502  503 -0.00000000000E+00 -0.00000000000E+00 -0.16919964648E+03  0.16919964648E+03  0.00000000000E+00 0.  1.
         -6    2    1    2    0  503 -0.21561836168E+02 -0.10950220862E+03  0.92277781653E+00  0.20659014677E+03  0.17384760784E+03 0.  0.
        -24    2    3    3    0    0  0.44733914469E+02 -0.41036552843E+02 -0.31314590725E+02  0.10587266813E+03  0.80890645260E+02 0.  0.
          6    2    1    2  501    0  0.21561836168E+02  0.10950220862E+03  0.93509341485E+02  0.22624126549E+03  0.17316312193E+03 0.  0.
         24    2    5    5    0    0  0.16600342673E+02  0.11270779419E+03  0.12899615704E+03  0.18996046789E+03  0.80413634307E+02 0.  0.
          5    1    5    5  501    0  0.49614934957E+01 -0.32055855715E+01 -0.35486815553E+02  0.36280797602E+02  0.47000000000E+01 0. -1.
        -11    1    6    6    0    0  0.20012443322E+02  0.10261379358E+03  0.60808388205E+02  0.12094522974E+03  0.00000000000E+00 0.  1.
         12    1    6    6    0    0 -0.34121006490E+01  0.10094000615E+02  0.68187768832E+02  0.69015238155E+02  0.00000000000E+00 0. -1.
         -5    1    3    3    0  503 -0.66295750638E+02 -0.68465655775E+02  0.32237368542E+02  0.10071747864E+03  0.47000000000E+01 0.  1.
         13    1    4    4    0    0  0.63624007854E+02 -0.36623670258E+02 -0.55495458883E+01  0.73621362784E+02  0.00000000000E+00 0. -1.
        -14    1    4    4    0    0 -0.18890093384E+02 -0.44128825853E+01 -0.25765044837E+02  0.32251305341E+02  0.00000000000E+00 0.  1.
</event>
<event>
12    1  0.8494789E-002  0.1886438E+03  0.7818608E-02  0.1160062E+00
         21   -1    0    0  501  502  0.00000000000E+00  0.00000000000E+00  0.19168090867E+03  0.19168090867E+03  0.00000000000E+00 0. -1.
         21   -1    0    0  502  503 -0.00000000000E+00 -0.00000000000E+00 -0.30653476125E+03  0.30653476125E+03  0.00000000000E+00 0. -1.
         -6    2    1    2    0  503 -0.73416633056E+02 -0.25930468915E+02 -0.21473923467E+03  0.28475943011E+03  0.17003706333E+03 0.  0.
        -24    2    3    3    0    0 -0.87041008798E+02  0.87036449416E+01 -0.52970445177E+02  0.11869806582E+03  0.60261696953E+02 0.  0.
          6    2    1    2  501    0  0.73416633056E+02  0.25930468915E+02  0.99885382089E+02  0.21345623980E+03  0.17182574175E+03 0.  0.
         24    2    5    5    0    0  0.63179558933E+01 -0.42214333186E+02  0.84350148129E+02  0.11645428093E+03  0.68005040737E+02 0.  0.
          5    1    5    5  501    0  0.67098677163E+02  0.68144802101E+02  0.15535233961E+02  0.97001958870E+02  0.47000000000E+01 0. -1.
        -11    1    6    6    0    0 -0.21471163537E+02 -0.41252427021E+02  0.29822721052E+02  0.55246432371E+02  0.00000000000E+00 0.  1.
         12    1    6    6    0    0  0.27789119431E+02 -0.96190616479E+00  0.54527427076E+02  0.61207848563E+02  0.00000000000E+00 0. -1.
         -5    1    3    3    0  503  0.13624375742E+02 -0.34634113857E+02 -0.16176878949E+03  0.16606136429E+03  0.47000000000E+01 0.  1.
         11    1    4    4    0    0 -0.94057237343E+01 -0.21042930008E+02 -0.12760395647E+02  0.26345782193E+02  0.00000000000E+00 0. -1.
        -12    1    4    4    0    0 -0.77635285064E+02  0.29746574950E+02 -0.40210049530E+02  0.92352283628E+02  0.00000000000E+00 0.  1.
</event>
<event>
12    1  0.8494789E-002  0.1805977E+03  0.7818608E-02  0.1167637E+00
         21   -1    0    0  501  502  0.00000000000E+00  0.00000000000E+00  0.25192842362E+03  0.25192842362E+03  0.00000000000E+00 0.  1.
         21   -1    0    0  502  503 -0.00000000000E+00 -0.00000000000E+00 -0.17312356044E+03  0.17312356044E+03  0.00000000000E+00 0.  1.
         -6    2    1    2    0  503  0.51528353137E+02 -0.93395560826E+01  0.14746610402E+03  0.23184253227E+03  0.17106229698E+03 0.  0.
        -24    2    3    3    0    0  0.81000560316E+00 -0.61638038982E+02  0.98744442778E+02  0.14407367467E+03  0.84893196397E+02 0.  0.
          6    2    1    2  501    0 -0.51528353137E+02  0.93395560826E+01 -0.68661240838E+02  0.19320945180E+03  0.17283844418E+03 0.  0.
         24    2    5    5    0    0  0.31965406594E+02  0.84351560003E+01  0.28940571300E-01  0.84985346923E+02  0.78291565821E+02 0.  0.
          5    1    5    5  501    0 -0.83493759730E+02  0.90440008232E+00 -0.68690181409E+02  0.10822410487E+03  0.47000000000E+01 0. -1.
        -11    1    6    6    0    0  0.16449025756E+02 -0.34405877416E+02  0.73470901261E+01  0.38837025921E+02  0.00000000000E+00 0.  1.
         12    1    6    6    0    0  0.15516380838E+02  0.42841033416E+02 -0.73181495548E+01  0.46148321003E+02  0.00000000000E+00 0. -1.
         -5    1    3    3    0  503  0.50718347534E+02  0.52298482900E+02  0.48721661239E+02  0.87768857598E+02  0.47000000000E+01 0.  1.
         13    1    4    4    0    0  0.23853575942E+02 -0.70837050818E+02  0.91655040405E+02  0.11826887708E+03  0.00000000000E+00 0. -1.
        -14    1    4    4    0    0 -0.23043570339E+02  0.91990118358E+01  0.70894023736E+01  0.25804797591E+02  0.00000000000E+00 0.  1.
</event>
<event>
12    1  0.8494789E-002  0.2148263E+03  0.7818608E-02  0.1137889E+00
         21   -1    0    0  501  502  0.00000000000E+00  0.00000000000E+00  0.11946806559E+04  0.11946806559E+04  0.00000000000E+00 0.  1.
         21   -1    0    0  502  503 -0.00000000000E+00 -0.00000000000E+00 -0.10307185503E+03  0.10307185503E+03  0.00000000000E+00 0. -1.
         -6    2    1    2    0  503  0.79367712105E+02 -0.10031607848E+03  0.32182863723E+02  0.21676516586E+03  0.17201410141E+03 0.  0.
        -24    2    3    3    0    0  0.11145626144E+03 -0.12090200673E+03  0.30561499122E+02  0.17831813393E+03  0.61834927140E+02 0.  0.
          6    2    1    2  501    0 -0.79367712105E+02  0.10031607848E+03  0.10594259372E+04  0.10809873451E+04  0.17259135140E+03 0.  0.
         24    2    5    5    0    0 -0.89933792140E+02  0.12179417508E+03  0.10217344712E+04  0.10360909389E+04  0.81370731926E+02 0.  0.
          5    1    5    5  501    0  0.10566080035E+02 -0.21478096601E+02  0.37691465985E+02  0.44896406193E+02  0.47000000000E+01 0. -1.
        -13    1    6    6    0    0  0.61685084625E+01  0.25994027760E+02  0.33593482006E+03  0.33699546482E+03  0.00000000000E+00 0.  1.
         14    1    6    6    0    0 -0.96102300602E+02  0.95800147321E+02  0.68579965111E+03  0.69909547408E+03  0.00000000000E+00 0. -1.
         -5    1    3    3    0  503 -0.32088549337E+02  0.20585928253E+02  0.16213646013E+01  0.38447031924E+02  0.47000000000E+01 0.  1.
         11    1    4    4    0    0  0.86293864470E+02 -0.74847118213E+02  0.46705932304E+02  0.12341055977E+03  0.00000000000E+00 0. -1.
        -12    1    4    4    0    0  0.25162396972E+02 -0.46054888519E+02 -0.16144433183E+02  0.54907574165E+02  0.00000000000E+00 0.  1.
</event>
<event>
12    1  0.8494789E-002  0.2021151E+03  0.7818608E-02  0.1148019E+00
         21   -1    0    0  501  502  0.00000000000E+00  0.00000000000E+00  0.41497616088E+03  0.41497616088E+03  0.00000000000E+00 0. -1.
         21   -1    0    0  502  503 -0.00000000000E+00 -0.00000000000E+00 -0.11047013870E+03  0.11047013870E+03  0.00000000000E+00 0. -1.
         -6    2    1    2    0  503 -0.35587045104E+02 -0.99850508500E+02  0.23946831440E+03  0.31336174340E+03  0.17208703261E+03 0.  0.
        -24    2    3    3    0    0 -0.54844524103E+02 -0.13127766421E+03  0.20766354670E+03  0.26445213430E+03  0.81049588301E+02 0.  0.
          6    2    1    2  501    0  0.35587045104E+02  0.99850508500E+02  0.65037707773E+02  0.21208455618E+03  0.17179462655E+03 0.  0.
         24    2    5    5    0    0 -0.11214653947E+01  0.30589429358E+01  0.73022120111E+02  0.10815206488E+03  0.79712133928E+02 0.  0.
          5    1    5    5  501    0  0.36708510499E+02  0.96791565564E+02 -0.79844123384E+01  0.10393249130E+03  0.47000000000E+01 0. -1.
        -13    1    6    6    0    0 -0.32823553924E+02 -0.12946488294E+02  0.61344179261E+02  0.70767970018E+02  0.00000000000E+00 0.  1.
         14    1    6    6    0    0  0.31702088530E+02  0.16005431230E+02  0.11677940850E+02  0.37384094860E+02  0.00000000000E+00 0. -1.
         -5    1    3    3    0  503  0.19257478999E+02  0.31427155707E+02  0.31804767706E+02  0.48909609098E+02  0.47000000000E+01 0.  1.
         13    1    4    4    0    0 -0.28291871852E+02 -0.11550511644E+03  0.10989680094E+03  0.16192334234E+03  0.00000000000E+00 0. -1.
        -14    1    4    4    0    0 -0.26552652251E+02 -0.15772547764E+02  0.97766745756E+02  0.10252879196E+03  0.00000000000E+00 0.  1.
</event>
<event>
12    1  0.8494789E-002  0.2078764E+03  0.7818608E-02  0.1143317E+00
         21   -1    0    0  503  502  0.00000000000E+00  0.00000000000E+00  0.14862256359E+03  0.14862256359E+03  0.00000000000E+00 0.  1.
         21   -1    0    0  501  503 -0.00000000000E+00 -0.00000000000E+00 -0.29729754847E+03  0.29729754847E+03  0.00000000000E+00 0.  1.
          6    2    1    2  501    0  0.51386040619E+02  0.10409224588E+03 -0.40297209120E+02  0.21174618018E+03  0.17244378486E+03 0.  0.
         24    2    3    3    0    0 -0.22248313352E+02  0.12873656403E+02 -0.66096508698E+01  0.89681481224E+02  0.85664240577E+02 0.  0.
         -6    2    1    2    0  502 -0.51386040619E+02 -0.10409224588E+03 -0.10837777576E+03  0.23417393187E+03  0.17209290301E+03 0.  0.
        -24    2    5    5    0    0 -0.45352083671E+02  0.10267132610E+02 -0.58743508349E+02  0.10927346515E+03  0.79546620969E+02 0.  0.
          5    1    3    3  501    0  0.73634353971E+02  0.91218589480E+02 -0.33687558250E+02  0.12206469896E+03  0.47000000000E+01 0. -1.
        -11    1    4    4    0    0 -0.41568036530E+02  0.38950869336E+02 -0.50727001533E+01  0.57190944824E+02  0.00000000000E+00 0.  1.
         12    1    4    4    0    0  0.19319723178E+02 -0.26077212933E+02 -0.15369507164E+01  0.32490536400E+02  0.00000000000E+00 0. -1.
         -5    1    5    5    0  502 -0.60339569486E+01 -0.11435937849E+03 -0.49634267416E+02  0.12490046672E+03  0.47000000000E+01 0.  1.
         11    1    6    6    0    0 -0.61072360730E+02 -0.10552893845E+01 -0.17234987958E+02  0.63466461148E+02  0.00000000000E+00 0. -1.
        -12    1    6    6    0    0  0.15720277059E+02  0.11322421994E+02 -0.41508520391E+02  0.45807004002E+02  0.00000000000E+00 0.  1.
</event>
<event>
12    1  0.8494789E-002  0.1799787E+03  0.7818608E-02  0.1168370E+00
         21   -1    0    0  503  502  0.00000000000E+00  0.00000000000E+00  0.35222966948E+03  0.35222966948E+03  0.00000000000E+00 0.  1.
         21   -1    0    0  501  503 -0.00000000000E+00 -0.00000000000E+00 -0.12459249952E+03  0.12459249952E+03  0.00000000000E+00 0.  1.
          6    2    1    2  501    0 -0.12418657614E+02 -0.51888418697E+02 -0.10824296401E+02  0.17806441566E+03  0.16953801840E+03 0.  0.
         24    2    3    3    0    0  0.43192486499E+02  0.13141289000E+02 -0.13710943544E+02  0.92321282035E+02  0.79353290904E+02 0.  0.
         -6    2    1    2    0  502  0.12418657614E+02  0.51888418697E+02  0.23846146636E+03  0.29875775334E+03  0.17188860693E+03 0.  0.
        -24    2    5    5    0    0 -0.33546123220E+02  0.67295940385E+02  0.22072973243E+03  0.24692477938E+03  0.81216660334E+02 0.  0.
          5    1    3    3  501    0 -0.55611144112E+02 -0.65029707698E+02  0.28866471436E+01  0.85743133629E+02  0.47000000000E+01 0. -1.
        -11    1    4    4    0    0 -0.18984213811E+02  0.21261460814E+02 -0.61820138783E+01  0.29166202797E+02  0.00000000000E+00 0.  1.
         12    1    4    4    0    0  0.62176700310E+02 -0.81201718138E+01 -0.75289296658E+01  0.63155079239E+02  0.00000000000E+00 0. -1.
         -5    1    5    5    0  502  0.45964780834E+02 -0.15407521688E+02  0.17731733927E+02  0.51832973962E+02  0.47000000000E+01 0.  1.
         13    1    6    6    0    0 -0.20414042635E+02  0.78342322058E+01  0.45524580006E+01  0.22334574202E+02  0.00000000000E+00 0. -1.
        -14    1    6    6    0    0 -0.13132080585E+02  0.59461708179E+02  0.21617727443E+03  0.22459020518E+03  0.00000000000E+00 0.  1.
</event>
<event>
12    1  0.8494789E-002  0.1937397E+03  0.7818608E-02  0.1155304E+00
         21   -1    0    0  503  502  0.00000000000E+00  0.00000000000E+00  0.20954269981E+03  0.20954269981E+03  0.00000000000E+00 0. -1.
         21   -1    0    0  501  503 -0.00000000000E+00 -0.00000000000E+00 -0.44662727766E+03  0.44662727766E+03  0.00000000000E+00 0. -1.
          6    2    1    2  501    0  0.79218245537E+02  0.45227546360E+02 -0.37288821414E+03  0.42021503189E+03  0.17092100926E+03 0.  0.
         24    2    3    3    0    0  0.11442393827E+03  0.60566128849E+02 -0.26725924237E+03  0.30772377627E+03  0.80655602643E+02 0.  0.
         -6    2    1    2    0  502 -0.79218245537E+02 -0.45227546360E+02  0.13580363630E+03  0.23595494558E+03  0.17003248906E+03 0.  0.
        -24    2    5    5    0    0 -0.10189293688E+03 -0.67374816813E+02  0.14144434570E+03  0.20341956762E+03  0.80321112005E+02 0.  0.
          5    1    3    3  501    0 -0.35205692735E+02 -0.15338582489E+02 -0.10562897177E+03  0.11249125562E+03  0.47000000000E+01 0. -1.
        -13    1    4    4    0    0  0.85575263428E+02  0.60114597650E+02 -0.12694896232E+03  0.16447774802E+03  0.00000000000E+00 0.  1.
         14    1    4    4    0    0  0.28848674844E+02  0.45153119825E+00 -0.14031028005E+03  0.14324602825E+03  0.00000000000E+00 0. -1.
         -5    1    5    5    0  502  0.22674691347E+02  0.22147270453E+02 -0.56407094031E+01  0.32535377957E+02  0.47000000000E+01 0.  1.
         13    1    6    6    0    0 -0.34120220087E+02  0.89747942762E+01  0.71308412070E+02  0.79558946594E+02  0.00000000000E+00 0. -1.
        -14    1    6    6    0    0 -0.67772716797E+02 -0.76349611089E+02  0.70135933629E+02  0.12386062103E+03  0.00000000000E+00 0.  1.
</event>
<event>
12    1  0.8494789E-002  0.1997415E+03  0.7818608E-02  0.1149985E+00
         21   -1    0    0  503  502  0.00000000000E+00  0.00000000000E+00  0.69056208839E+02  0.69056208839E+02  0.00000000000E+00 0. -1.
         21   -1    0    0  501  503 -0.00000000000E+00 -0.00000000000E+00 -0.57983048757E+03  0.57983048757E+03  0.00000000000E+00 0. -1.
          6    2    1    2  501    0 -0.90542257680E+02  0.43993249992E+02 -0.23430218717E+03  0.30788666347E+03  0.17252065429E+03 0.  0.
         24    2    3    3    0    0 -0.24211726743E+02 -0.24787150827E+02 -0.17479720232E+03  0.19522160192E+03  0.79729551357E+02 0.  0.
         -6    2    1    2    0  502  0.90542257680E+02 -0.43993249992E+02 -0.27647209156E+03  0.34100003294E+03  0.17236849649E+03 0.  0.
        -24    2    5    5    0    0  0.29639456012E+01 -0.64223378271E+02 -0.10251201420E+03  0.14513421829E+03  0.80136140232E+02 0.  0.
          5    1    3    3  501    0 -0.66330530938E+02  0.68780400819E+02 -0.59504984853E+02  0.11266506155E+03  0.47000000000E+01 0. -1.
        -13    1    4    4    0    0 -0.41519812990E+02 -0.18665979269E+02 -0.17035599896E+03  0.17633343425E+03  0.00000000000E+00 0.  1.
         14    1    4    4    0    0  0.17308086247E+02 -0.61211715583E+01 -0.44412033647E+01  0.18888167675E+02  0.00000000000E+00 0. -1.
         -5    1    5    5    0  502  0.87578312079E+02  0.20230128279E+02 -0.17396007736E+03  0.19586581466E+03  0.47000000000E+01 0.  1.
         11    1    6    6    0    0  0.34882199975E+02 -0.40114345510E+02 -0.26863954364E+02  0.59561738011E+02  0.00000000000E+00 0. -1.
        -12    1    6    6    0    0 -0.31918254374E+02 -0.24109032760E+02 -0.75648059840E+02  0.85572480275E+02  0.00000000000E+00 0.  1.
</event>
<event>
12    1  0.8494789E-002  0.1904570E+03  0.7818608E-02  0.1158193E+00
         21   -1    0    0  503  502  0.00000000000E+00  0.00000000000E+00  0.35058687435E+03  0.35058687435E+03  0.00000000000E+00 0. -1.
         21   -1    0    0  501  503 -0.00000000000E+00 -0.00000000000E+00 -0.76529041616E+03  0.76529041616E+03  0.00000000000E+00 0. -1.
          6    2    1    2  501    0  0.31335857570E+02 -0.74456105017E+02 -0.72638706941E+03  0.75094077682E+03  0.17247674665E+03 0.  0.
         24    2    3    3    0    0  0.68643467100E+02 -0.38780309003E+02 -0.64365530956E+03  0.65331263416E+03  0.79431747360E+02 0.  0.
         -6    2    1    2    0  502 -0.31335857570E+02  0.74456105017E+02  0.31168352760E+03  0.36493651370E+03  0.17177424168E+03 0.  0.
        -24    2    5    5    0    0 -0.21540813427E+01  0.11140432828E+03  0.26143767189E+03  0.29591852124E+03  0.82477575790E+02 0.  0.
          5    1    3    3  501    0 -0.37307609530E+02 -0.35675796015E+02 -0.82731759848E+02  0.97628142652E+02  0.47000000000E+01 0. -1.
        -11    1    4    4    0    0 -0.10156098337E+02 -0.30913211924E+02 -0.20501336978E+03  0.20757951439E+03  0.00000000000E+00 0.  1.
         12    1    4    4    0    0  0.78799565437E+02 -0.78670970793E+01 -0.43864193978E+03  0.44573311978E+03  0.00000000000E+00 0. -1.
         -5    1    5    5    0  502 -0.29181776227E+02 -0.36948223259E+02  0.50245855717E+02  0.69017992455E+02  0.47000000000E+01 0.  1.
         13    1    6    6    0    0 -0.32061534067E+02  0.70676245570E+02  0.20969637865E+03  0.22359705918E+03  0.00000000000E+00 0. -1.
        -14    1    6    6    0    0  0.29907452724E+02  0.40728082706E+02  0.51741293238E+02  0.72321462065E+02  0.00000000000E+00 0.  1.
</event>
<event>
12    1  0.8494789E-002  0.1737938E+03  0.7818608E-02  0.1174165E+00
         21   -1    0    0  503  502  0.00000000000E+00  0.00000000000E+00  0.39397461519E+03  0.39397461519E+03  0.00000000000E+00 0. -1.
         21   -1    0    0  501  503 -0.00000000000E+00 -0.00000000000E+00 -0.30749063372E+03  0.30749063372E+03  0.00000000000E+00 0. -1.
          6    2    1    2  501    0  0.18999907434E+02  0.48491289771E+01 -0.26085797677E+03  0.31345040766E+03  0.17268399892E+03 0.  0.
         24    2    3    3    0    0 -0.19713635501E+02  0.69872070191E+02 -0.14171060524E+03  0.17222396738E+03  0.65638903753E+02 0.  0.
         -6    2    1    2    0  502 -0.18999907434E+02 -0.48491289771E+01  0.34734195824E+03  0.38801484126E+03  0.17182715311E+03 0.  0.
        -24    2    5    5    0    0  0.52953673987E+02  0.13770160977E+02  0.22542143969E+03  0.24514882472E+03  0.79305812318E+02 0.  0.
          5    1    3    3  501    0  0.38713542935E+02 -0.65022941214E+02 -0.11914737153E+03  0.14122644027E+03  0.47000000000E+01 0. -1.
        -13    1    4    4    0    0  0.25726983900E+01  0.55306589514E+02 -0.43334147412E+02  0.70308505550E+02  0.00000000000E+00 0.  1.
         14    1    4    4    0    0 -0.22286333891E+02  0.14565480676E+02 -0.98376457829E+02  0.10191546183E+03  0.00000000000E+00 0. -1.
         -5    1    5    5    0  502 -0.71953581421E+02 -0.18619289954E+02  0.12192051854E+03  0.14286601653E+03  0.47000000000E+01 0.  1.
         11    1    6    6    0    0  0.64245649169E+02  0.10664810495E+02  0.22409087086E+03  0.23336229349E+03  0.00000000000E+00 0. -1.
        -12    1    6    6    0    0 -0.11291975183E+02  0.31053504816E+01  0.13305688367E+01  0.11786531236E+02  0.00000000000E+00 0.  1.
</event>
<event>
12    1  0.8494789E-002  0.1826892E+03  0.7818608E-02  0.1166034E+00
         21   -1    0    0  501  502  0.00000000000E+00  0.00000000000E+00  0.23493397835E+03  0.23493397835E+03  0.00000000000E+00 0. -1.
         21   -1    0    0  502  503 -0.00000000000E+00 -0.00000000000E+00 -0.15924648023E+03  0.15924648023E+03  0.00000000000E+00 0. -1.
         -6    2    1    2    0  503 -0.35533188739E+02 -0.49251099231E+02  0.10763776930E+03  0.21204065639E+03  0.17229936827E+03 0.  0.
        -24    2    3    3    0    0  0.25418049647E+02  0.90855521317E+01  0.93091977037E+02  0.12629750258E+03  0.80971096478E+02 0.  0.
          6    2    1    2  501    0  0.35533188739E+02  0.49251099231E+02 -0.31950271179E+02  0.18213980218E+03  0.16871813605E+03 0.  0.
         24    2    5    5    0    0  0.25102368221E+02  0.82722937742E+02 -0.64927935545E+02  0.13377884337E+03  0.78790410590E+02 0.  0.
          5    1    5    5  501    0  0.10430820518E+02 -0.33471838511E+02  0.32977664366E+02  0.48360958810E+02  0.47000000000E+01 0. -1.
        -11    1    6    6    0    0  0.30593194270E+02  0.59586663671E+02 -0.25586139109E+01  0.67030295600E+02  0.00000000000E+00 0.  1.
         12    1    6    6    0    0 -0.54908260482E+01  0.23136274070E+02 -0.62369321634E+02  0.66748547772E+02  0.00000000000E+00 0. -1.
         -5    1    3    3    0  503 -0.60951238386E+02 -0.58336651362E+02  0.14545792262E+02  0.85743153811E+02  0.47000000000E+01 0.  1.
         13    1    4    4    0    0  0.31241113485E+02 -0.31114384419E+02  0.56139710371E+02  0.71384726448E+02  0.00000000000E+00 0. -1.
        -14    1    4    4    0    0 -0.58230638383E+01  0.40199936551E+02  0.36952266666E+02  0.54912776135E+02  0.00000000000E+00 0.  1.
</event>
<event>
12    1  0.8494789E-002  0.2019134E+03  0.7818608E-02  0.1148211E+00
         21   -1    0    0  501  502  0.00000000000E+00  0.00000000000E+00  0.33228424733E+03  0.33228424733E+03  0.00000000000E+00 0.  1.
         21   -1    0    0  502  503 -0.00000000000E+00 -0.00000000000E+00 -0.14004775222E+03  0.14004775222E+03  0.00000000000E+00 0.  1.
         -6    2    1    2    0  503 -0.10516755118E+03 -0.14936189678E+02  0.12528637213E+02  0.20230172388E+03  0.17171405636E+03 0.  0.
        -24    2    3    3    0    0 -0.34635295009E+02 -0.12652402116E+02 -0.55821684355E+02  0.10394588367E+03  0.79555008310E+02 0.  0.
          6    2    1    2  501    0  0.10516755118E+03  0.14936189678E+02  0.17970785789E+03  0.27003027567E+03  0.17128377625E+03 0.  0.
         24    2    5    5    0    0  0.10355882665E+03  0.66563738506E+02  0.15080925078E+03  0.21065678591E+03  0.80484094512E+02 0.  0.
          5    1    5    5  501    0  0.16087245314E+01 -0.51627548828E+02  0.28898607113E+02  0.59373489755E+02  0.47000000000E+01 0. -1.
        -13    1    6    6    0    0  0.88767643188E+01  0.38273384738E+02  0.79875351401E+02  0.89015283438E+02  0.00000000000E+00 0.  1.
         14    1    6    6    0    0  0.94682062328E+02  0.28290353768E+02  0.70933899378E+02  0.12164150247E+03  0.00000000000E+00 0. -1.
         -5    1    3    3    0  503 -0.70532256169E+02 -0.22837875620E+01  0.68350321569E+02  0.98355840215E+02  0.47000000000E+01 0.  1.
         11    1    4    4    0    0  0.13202559041E+02  0.12248240654E+02 -0.45637363872E+02  0.49062164093E+02  0.00000000000E+00 0. -1.
        -12    1    4    4    0    0 -0.47837854050E+02 -0.24900642770E+02 -0.10184320483E+02  0.54883719573E+02  0.00000000000E+00 0.  1.
</event>
<event>
12    1  0.8494789E-002  0.1742575E+03  0.7818608E-02  0.1173568E+00
         21   -1    0    0  503  502  0.00000000000E+00  0.00000000000E+00  0.20755541728E+03  0.20755541728E+03  0.00000000000E+00 0.  1.
         21   -1    0    0  501  503 -0.00000000000E+00 -0.00000000000E+00 -0.40172647926E+03  0.40172647926E+03  0.00000000000E+00 0.  1.
          6    2    1    2  501    0 -0.14431047491E+02  0.22392805365E+02 -0.34017605275E+03  0.38221123470E+03  0.17220914088E+03 0.  0.
         24    2    3    3    0    0 -0.32000648090E+02  0.75789677712E+02 -0.18927574725E+03  0.22111216877E+03  0.79354684535E+02 0.  0.
         -6    2    1    2    0  502  0.14431047491E+02 -0.22392805365E+02  0.14600499077E+03  0.22707066185E+03  0.17185440139E+03 0.  0.
        -24    2    5    5    0    0 -0.14618956155E+02 -0.27732259971E+01  0.16800912928E+03  0.18541609766E+03  0.77010759551E+02 0.  0.
          5    1    3    3  501    0  0.17569600599E+02 -0.53396872347E+02 -0.15090030550E+03  0.16109906592E+03  0.47000000000E+01 0. -1.
        -11    1    4    4    0    0  0.85895890522E+01 -0.13233143864E+02 -0.35527759008E+02  0.38873111487E+02  0.00000000000E+00 0.  1.
         12    1    4    4    0    0 -0.40590237143E+02  0.89022821576E+02 -0.15374798824E+03  0.18223905729E+03  0.00000000000E+00 0. -1.
         -5    1    5    5    0  502  0.29050003646E+02 -0.19619579368E+02 -0.22004138511E+02  0.41654564192E+02  0.47000000000E+01 0.  1.
         13    1    6    6    0    0  0.16291318637E+02  0.26663974835E+02  0.41827762855E+02  0.52210500500E+02  0.00000000000E+00 0. -1.
        -14    1    6    6    0    0 -0.30910274792E+02 -0.29437200832E+02  0.12618136643E+03  0.13320559716E+03  0.00000000000E+00 0.  1.
</event>
<event>
12    1  0.8494789E-002  0.2109612E+03  0.7818608E-02  0.1141379E+00
         21   -1    0    0  501  502  0.00000000000E+00  0.00000000000E+00  0.48369549381E+02  0.48369549381E+02  0.00000000000E+00 0.  1.
         21   -1    0    0  502  503 -0.00000000000E+00 -0.00000000000E+00 -0.96657318343E+03  0.96657318343E+03  0.00000000000E+00 0.  1.
         -6    2    1    2    0  503  0.11770990354E+03  0.95490112730E+01 -0.58152376655E+03  0.61762928828E+03  0.17131620375E+03 0.  0.
        -24    2    3    3    0    0  0.99069216909E+02 -0.56847746144E+02 -0.39657742367E+03  0.42018753905E+03  0.78978092065E+02 0.  0.
          6    2    1    2  501    0 -0.11770990354E+03 -0.95490112730E+01 -0.33667986750E+03  0.39731344453E+03  0.17480799472E+03 0.  0.
         24    2    5    5    0    0 -0.10950747376E+03 -0.29308901300E+02 -0.13180213880E+03  0.19126804462E+03  0.79754389200E+02 0.  0.
          5    1    5    5  501    0 -0.82024297834E+01  0.19759890027E+02 -0.20487772870E+03  0.20604539991E+03  0.47000000000E+01 0. -1.
        -11    1    6    6    0    0 -0.91793290227E+02 -0.54304970705E+02 -0.90708156701E+02  0.14001074125E+03  0.00000000000E+00 0.  1.
         12    1    6    6    0    0 -0.17714183532E+02  0.24996069405E+02 -0.41093982103E+02  0.51257303372E+02  0.00000000000E+00 0. -1.
         -5    1    3    3    0  503  0.18640686634E+02  0.66396757417E+02 -0.18494634288E+03  0.19744174923E+03  0.47000000000E+01 0.  1.
         11    1    4    4    0    0  0.10550625810E+02 -0.83006347465E+01 -0.28512272342E+01  0.13723911211E+02  0.00000000000E+00 0. -1.
        -12    1    4    4    0    0  0.88518591099E+02 -0.48547111397E+02 -0.39372619644E+03  0.40646362784E+03  0.00000000000E+00 0.  1.
</event>
<event>
12    1  0.8494789E-002  0.1811485E+03  0.7818608E-02  0.1166925E+00
         21   -1    0    0  501  502  0.00000000000E+00  0.00000000000E+00  0.42608941736E+03  0.42608941736E+03  0.00000000000E+00 0.  1.
         21   -1    0    0  502  503 -0.00000000000E+00 -0.00000000000E+00 -0.80012984548E+02  0.80012984548E+02  0.00000000000E+00 0.  1.
         -6    2    1    2    0  503  0.11950422819E+02  0.54355411734E+02  0.12042247443E+03  0.21673330329E+03  0.17138969927E+03 0.  0.
        -24    2    3    3    0    0  0.34083338620E+02  0.14718918107E+02  0.14165898889E+03  0.16639447995E+03  0.79003375255E+02 0.  0.
          6    2    1    2  501    0 -0.11950422819E+02 -0.54355411734E+02  0.22565395839E+03  0.28936909862E+03  0.17238747898E+03 0.  0.
         24    2    5    5    0    0  0.16784113008E+02 -0.97453216171E+02  0.15065147345E+03  0.19809721334E+03  0.82266662067E+02 0.  0.
          5    1    5    5  501    0 -0.28734535827E+02  0.43097804437E+02  0.75002484937E+02  0.91271885283E+02  0.47000000000E+01 0. -1.
        -13    1    6    6    0    0 -0.29390647670E+02 -0.67269644541E+02  0.88974544387E+02  0.11534940310E+03  0.00000000000E+00 0.  1.
         14    1    6    6    0    0  0.46174760678E+02 -0.30183571630E+02  0.61676929067E+02  0.82747810238E+02  0.00000000000E+00 0. -1.
         -5    1    3    3    0  503 -0.22132915800E+02  0.39636493627E+02 -0.21236514465E+02  0.50338823342E+02  0.47000000000E+01 0.  1.
         13    1    4    4    0    0 -0.10521127930E+02  0.21889798982E+02  0.10626083283E+03  0.10900101846E+03  0.00000000000E+00 0. -1.
        -14    1    4    4    0    0  0.44604466549E+02 -0.71708808747E+01  0.35398156064E+02  0.57393461486E+02  0.00000000000E+00 0.  1.
</event>
<event>
12    1  0.8494789E-002  0.1878552E+03  0.7818608E-02  0.1160923E+00
         21   -1    0    0  503  502  0.00000000000E+00  0.00000000000E+00  0.57793033043E+03  0.57793033043E+03  0.00000000000E+00 0.  1.
         21   -1    0    0  501  503 -0.00000000000E+00 -0.00000000000E+00 -0.60548747724E+02  0.60548747724E+02  0.00000000000E+00 0.  1.
          6    2    1    2  501    0  0.66252841608E+02 -0.25098562998E+02  0.23841897549E+03  0.30216120554E+03  0.17157624944E+03 0.  0.
         24    2    3    3    0    0  0.94949610450E+02 -0.49513203547E+02  0.14500762487E+03  0.20132792909E+03  0.89659009089E+02 0.  0.
         -6    2    1    2    0  502 -0.66252841608E+02  0.25098562998E+02  0.27896260721E+03  0.33631787261E+03  0.17398332773E+03 0.  0.
        -24    2    5    5    0    0  0.32965225781E+02  0.36725893021E+02  0.14880449850E+03  0.17217573005E+03  0.71177285115E+02 0.  0.
          5    1    3    3  501    0 -0.28696768842E+02  0.24414640550E+02  0.93411350616E+02  0.10083327645E+03  0.47000000000E+01 0. -1.
        -13    1    4    4    0    0  0.38993642660E+02 -0.47880699241E+02  0.12913798662E+03  0.14314218496E+03  0.00000000000E+00 0.  1.
         14    1    4    4    0    0  0.55955967790E+02 -0.16325043063E+01  0.15869638256E+02  0.58185744131E+02  0.00000000000E+00 0. -1.
         -5    1    5    5    0  502 -0.99218067389E+02 -0.11627330023E+02  0.13015810871E+03  0.16414214256E+03  0.47000000000E+01 0.  1.
         13    1    6    6    0    0 -0.33100737028E+01  0.85494194408E+01 -0.58293022118E+01  0.10864157812E+02  0.00000000000E+00 0. -1.
        -14    1    6    6    0    0  0.36275299484E+02  0.28176473580E+02  0.15463380071E+03  0.16131157224E+03  0.00000000000E+00 0.  1.
</event>
<event>
12    1  0.8494789E-002  0.3550335E+03  0.7818608E-02  0.1060600E+00
         21   -1    0    0  501  502  0.00000000000E+00  0.00000000000E+00  0.12325622409E+04  0.12325622409E+04  0.00000000000E+00 0. -1.
         21   -1    0    0  502  503 -0.00000000000E+00 -0.00000000000E+00 -0.17485584785E+03  0.17485584785E+03  0.00000000000E+00 0. -1.
         -6    2    1    2    0  503 -0.75427011465E+01 -0.31041404163E+03  0.75295421966E+02  0.36293004242E+03  0.17214832424E+03 0.  0.
        -24    2    3    3    0    0  0.30342983815E+02 -0.18925685168E+03 -0.74287494488E+01  0.21133925002E+03  0.88714371484E+02 0.  0.
          6    2    1    2  501    0  0.75427011465E+01  0.31041404163E+03  0.98241097107E+03  0.10444880463E+04  0.17149400347E+03 0.  0.
         24    2    5    5    0    0 -0.11277385212E+02  0.58416699034E+02  0.22615599044E+03  0.24711702724E+03  0.79878676735E+02 0.  0.
          5    1    5    5  501    0  0.18820086358E+02  0.25199734260E+03  0.75625498062E+03  0.79737101906E+03  0.47000000000E+01 0. -1.
        -13    1    6    6    0    0 -0.83685764943E+01 -0.12247004452E+02  0.11093295810E+03  0.11192025457E+03  0.00000000000E+00 0.  1.
         14    1    6    6    0    0 -0.29088087177E+01  0.70663703487E+02  0.11522303235E+03  0.13519677268E+03  0.00000000000E+00 0. -1.
         -5    1    3    3    0  503 -0.37885684961E+02 -0.12115718995E+03  0.82724171415E+02  0.15159079239E+03  0.47000000000E+01 0.  1.
         13    1    4    4    0    0  0.21287154916E+02 -0.12119838492E+03  0.38264883318E+02  0.12886579363E+03  0.00000000000E+00 0. -1.
        -14    1    4    4    0    0  0.90558288994E+01 -0.68058466757E+02 -0.45693632767E+02  0.82473456396E+02  0.00000000000E+00 0.  1.
</event>
<event>
12    1  0.8494789E-002  0.2635389E+03  0.7818608E-02  0.1105143E+00
         21   -1    0    0  501  502  0.00000000000E+00  0.00000000000E+00  0.16883340384E+04  0.16883340384E+04  0.00000000000E+00 0.  1.
         21   -1    0    0  502  503 -0.00000000000E+00 -0.00000000000E+00 -0.86057085438E+02  0.86057085438E+02  0.00000000000E+00 0.  1.
         -6    2    1    2    0  503 -0.19850374607E+03 -0.11485940052E+02  0.15882043191E+03  0.30707401862E+03  0.17185708975E+03 0.  0.
        -24    2    3    3    0    0 -0.23077623424E+02 -0.60232638635E+01  0.74474842233E+02  0.11229097563E+03  0.80584766999E+02 0.  0.
          6    2    1    2  501    0  0.19850374607E+03  0.11485940052E+02  0.14434565210E+04  0.14673171052E+04  0.17296558924E+03 0.  0.
         24    2    5    5    0    0  0.11681187550E+03  0.67558134658E+02  0.71877944946E+03  0.73588248694E+03  0.81670201392E+02 0.  0.
          5    1    5    5  501    0  0.81691870573E+02 -0.56072194607E+02  0.72467707155E+03  0.73143461823E+03  0.47000000000E+01 0. -1.
        -13    1    6    6    0    0  0.12739469119E+03  0.59933299314E+02  0.59556853046E+03  0.61198307345E+03  0.00000000000E+00 0.  1.
         14    1    6    6    0    0 -0.10582815693E+02  0.76248353439E+01  0.12321091900E+03  0.12389941348E+03  0.00000000000E+00 0. -1.
         -5    1    3    3    0  503 -0.17542612265E+03 -0.54626761882E+01  0.84345589675E+02  0.19478304299E+03  0.47000000000E+01 0.  1.
         13    1    4    4    0    0 -0.40751567271E+02 -0.26698321349E+02  0.22573108460E+02  0.53693908625E+02  0.00000000000E+00 0. -1.
        -14    1    4    4    0    0  0.17673943848E+02  0.20675057485E+02  0.51901733773E+02  0.58597067007E+02  0.00000000000E+00 0.  1.
</event>
<event>
12    1  0.8494789E-002  0.1988720E+03  0.7818608E-02  0.1152953E+00
         21   -1    0    0  503  502  0.00000000000E+00  0.00000000000E+00  0.36341904808E+03  0.36341904808E+03  0.00000000000E+00 0.  1.
         21   -1    0    0  501  503 -0.00000000000E+00 -0.00000000000E+00 -0.24314410646E+03  0.24314410646E+03  0.00000000000E+00 0. -1.
          6    2    1    2  501    0  0.66894868858E+02 -0.40693994513E+02 -0.16919391658E+03  0.26110660376E+03  0.18280906010E+03 0.  0.
         24    2    3    3    0    0  0.80563395108E+02 -0.59671255594E+02 -0.49670196037E+02  0.13922561747E+03  0.82858462518E+02 0.  0.
         -6    2    1    2    0  502 -0.66894868858E+02  0.40693994513E+02  0.28946885819E+03  0.34545655077E+03  0.17151409255E+03 0.  0.
        -24    2    5    5    0    0 -0.82756928717E+02 -0.13659570165E+02  0.25083170198E+03  0.27674821958E+03  0.81472334023E+02 0.  0.
          5    1    3    3  501    0 -0.13668526250E+02  0.18977261081E+02 -0.11952372054E+03  0.12188098629E+03  0.47000000000E+01 0. -1.
        -13    1    4    4    0    0  0.55491955865E+02 -0.56133298572E+02 -0.70963813277E+02  0.10614220258E+03  0.00000000000E+00 0.  1.
         14    1    4    4    0    0  0.25071439243E+02 -0.35379570219E+01  0.21293617240E+02  0.33083414890E+02  0.00000000000E+00 0. -1.
         -5    1    5    5    0  502  0.15862059859E+02  0.54353564678E+02  0.38637156204E+02  0.68708331196E+02  0.47000000000E+01 0.  1.
         11    1    6    6    0    0 -0.46941741960E+02 -0.62913573932E+01  0.37787233463E+02  0.60588640263E+02  0.00000000000E+00 0. -1.
        -12    1    6    6    0    0 -0.35815186757E+02 -0.73682127721E+01  0.21304446852E+03  0.21615957932E+03  0.00000000000E+00 0.  1.
</event>
<event>
12    1  0.8494789E-002  0.2457014E+03  0.7818608E-02  0.1116831E+00
         21   -1    0    0  501  502  0.00000000000E+00  0.00000000000E+00  0.51333141955E+03  0.51333141955E+03  0.00000000000E+00 0.  1.
         21   -1    0    0  502  503 -0.00000000000E+00 -0.00000000000E+00 -0.13884812172E+03  0.13884812172E+03  0.00000000000E+00 0. -1.
         -6    2    1    2    0  503  0.59469673083E+02 -0.16354660554E+03  0.51519888643E+02  0.24637844775E+03  0.16662504731E+03 0.  0.
        -24    2    3    3    0    0  0.60418006302E+01 -0.39675771532E+02 -0.22287433456E+02  0.92533942268E+02  0.80343827267E+02 0.  0.
          6    2    1    2  501    0 -0.59469673083E+02  0.16354660554E+03  0.32296340919E+03  0.40580109351E+03  0.17345036644E+03 0.  0.
         24    2    5    5    0    0 -0.92586604569E+02  0.10282916838E+03  0.28484906415E+03  0.32669273981E+03  0.80268547300E+02 0.  0.
          5    1    5    5  501    0  0.33116931487E+02  0.60717437163E+02  0.38114345042E+02  0.79108353698E+02  0.47000000000E+01 0. -1.
        -11    1    6    6    0    0 -0.23725825016E+02  0.13799748900E+02  0.14302310440E+03  0.14563295038E+03  0.00000000000E+00 0.  1.
         12    1    6    6    0    0 -0.68860779554E+02  0.89029419476E+02  0.14182595974E+03  0.18105978944E+03  0.00000000000E+00 0. -1.
         -5    1    3    3    0  503  0.53427872452E+02 -0.12387083401E+03  0.73807322099E+02  0.15384450549E+03  0.47000000000E+01 0.  1.
         11    1    4    4    0    0 -0.30158826135E+01 -0.37909145233E+02 -0.50290055038E+02  0.63049888786E+02  0.00000000000E+00 0. -1.
        -12    1    4    4    0    0  0.90576832437E+01 -0.17666262994E+01  0.28002621582E+02  0.29484053481E+02  0.00000000000E+00 0.  1.
</event>
<event>
12    1  0.8494789E-002  0.2541058E+03  0.7818608E-02  0.1110873E+00
         21   -1    0    0  501  502  0.00000000000E+00  0.00000000000E+00  0.11423800444E+03  0.11423800444E+03  0.00000000000E+00 0.  1.
         21   -1    0    0  502  503 -0.00000000000E+00 -0.00000000000E+00 -0.69356590355E+03  0.69356590355E+03  0.00000000000E+00 0.  1.
         -6    2    1    2    0  503 -0.74232107589E+01 -0.18558190818E+03 -0.46431814246E+03  0.52888276323E+03  0.17213335273E+03 0.  0.
        -24    2    3    3    0    0 -0.76334079245E+00 -0.20963602408E+03 -0.43826010858E+03  0.49249505254E+03  0.80818368713E+02 0.  0.
          6    2    1    2  501    0  0.74232107589E+01  0.18558190818E+03 -0.11500975665E+03  0.27892114476E+03  0.17341860387E+03 0.  0.
         24    2    5    5    0    0  0.60917582195E+02  0.68765679027E+02 -0.35995486330E+02  0.12801380868E+03  0.81560957226E+02 0.  0.
          5    1    5    5  501    0 -0.53494371436E+02  0.11681622915E+03 -0.79014270321E+02  0.15090733608E+03  0.47000000000E+01 0. -1.
        -11    1    6    6    0    0  0.63686174773E+02  0.84745934975E+02 -0.35476379053E+02  0.11178718989E+03  0.00000000000E+00 0.  1.
         12    1    6    6    0    0 -0.27685925783E+01 -0.15980255948E+02 -0.51910727626E+00  0.16226618791E+02  0.00000000000E+00 0. -1.
         -5    1    3    3    0  503 -0.66598699664E+01  0.24054115901E+02 -0.26058033884E+02  0.36387710695E+02  0.47000000000E+01 0.  1.
         11    1    4    4    0    0 -0.18251473096E+02 -0.50654493147E+02 -0.53899258978E+02  0.76184802058E+02  0.00000000000E+00 0. -1.
        -12    1    4    4    0    0  0.17488132304E+02 -0.15898153093E+03 -0.38436084960E+03  0.41631025048E+03  0.00000000000E+00 0.  1.
</event>
<event>
12    1  0.8494789E-002  0.1797280E+03  0.7818608E-02  0.1168545E+00
         21   -1    0    0  503  502  0.00000000000E+00  0.00000000000E+00  0.59660264788E+02  0.59660264788E+02  0.00000000000E+00 0. -1.
         21   -1    0    0  501  503 -0.00000000000E+00 -0.00000000000E+00 -0.55162488871E+03  0.55162488871E+03  0.00000000000E+00 0. -1.
          6    2    1    2  501    0 -0.22313541815E+02 -0.50116628691E+02 -0.19509699244E+03  0.26526397269E+03  0.17115071757E+03 0.  0.
         24    2    3    3    0    0  0.17398989039E+02 -0.64253502346E+02 -0.19733644559E+03  0.22278996353E+03  0.79135691749E+02 0.  0.
         -6    2    1    2    0  502  0.22313541815E+02  0.50116628691E+02 -0.29686763147E+03  0.34602118081E+03  0.16908783615E+03 0.  0.
        -24    2    5    5    0    0 -0.41846976299E+02  0.64628144331E+02 -0.19544341513E+03  0.22504135674E+03  0.80731141829E+02 0.  0.
          5    1    3    3  501    0 -0.39712530854E+02  0.14136873655E+02  0.22394531417E+01  0.42474009158E+02  0.47000000000E+01 0. -1.
        -13    1    4    4    0    0  0.51606856450E+01 -0.21471853243E+02 -0.16909361181E+01  0.22147966565E+02  0.00000000000E+00 0.  1.
         14    1    4    4    0    0  0.12238303394E+02 -0.42781649103E+02 -0.19564550947E+03  0.20064199696E+03  0.00000000000E+00 0. -1.
         -5    1    5    5    0  502  0.64160518113E+02 -0.14511515640E+02 -0.10142421634E+03  0.12097982407E+03  0.47000000000E+01 0.  1.
         11    1    6    6    0    0 -0.51526904661E+02  0.11263116553E+02 -0.64561430141E+02  0.83367007624E+02  0.00000000000E+00 0. -1.
        -12    1    6    6    0    0  0.96799283621E+01  0.53365027777E+02 -0.13088198499E+03  0.14167434912E+03  0.00000000000E+00 0.  1.
</event>
<event>
12    1  0.8494789E-002  0.2230573E+03  0.7818608E-02  0.1131756E+00
         21   -1    0    0  503  502  0.00000000000E+00  0.00000000000E+00  0.21382594440E+04  0.21382594440E+04  0.00000000000E+00 0.  1.
         21   -1    0    0  501  503 -0.00000000000E+00 -0.00000000000E+00 -0.57888874664E+02  0.57888874664E+02  0.00000000000E+00 0. -1.
          6    2    1    2  501    0 -0.64057844993E+02  0.12639821654E+03  0.19076117908E+03  0.29350361318E+03  0.17226324872E+03 0.  0.
         24    2    3    3    0    0 -0.97565764738E+02  0.81106012893E+02  0.18368899407E+03  0.23652756385E+03  0.78143317974E+02 0.  0.
         -6    2    1    2    0  502  0.64057844993E+02 -0.12639821654E+03  0.18896093903E+04  0.19026447055E+04  0.17132807975E+03 0.  0.
        -24    2    5    5    0    0  0.17019952074E+02  0.18987790254E+00  0.70750193673E+03  0.71283916226E+03  0.85387153249E+02 0.  0.
          5    1    3    3  501    0  0.33507919745E+02  0.45292203642E+02  0.70721850134E+01  0.56976049330E+02  0.47000000000E+01 0. -1.
        -13    1    4    4    0    0 -0.40426595013E+01  0.29186730338E+02  0.88718526715E+02  0.93483609826E+02  0.00000000000E+00 0.  1.
         14    1    4    4    0    0 -0.93523105237E+02  0.51919282554E+02  0.94970467351E+02  0.14304395402E+03  0.00000000000E+00 0. -1.
         -5    1    5    5    0  502  0.47037892919E+02 -0.12658809444E+03  0.11821074536E+04  0.11898055433E+04  0.47000000000E+01 0.  1.
         13    1    6    6    0    0 -0.39658350283E+01 -0.35213735266E+02  0.16418195904E+03  0.16796264666E+03  0.00000000000E+00 0. -1.
        -14    1    6    6    0    0  0.20985787102E+02  0.35403613168E+02  0.54331997769E+03  0.54487651559E+03  0.00000000000E+00 0.  1.
</event>
<event>
12    1  0.8494789E-002  0.2645723E+03  0.7818608E-02  0.1104687E+00
         21   -1    0    0  503  502  0.00000000000E+00  0.00000000000E+00  0.29961718858E+03  0.29961718858E+03  0.00000000000E+00 0.  1.
         21   -1    0    0  501  503 -0.00000000000E+00 -0.00000000000E+00 -0.60390346770E+03  0.60390346770E+03  0.00000000000E+00 0. -1.
          6    2    1    2  501    0  0.16612832679E+03  0.10960552727E+03 -0.50682429081E+03  0.57172488944E+03  0.17431722483E+03 0.  0.
         24    2    3    3    0    0  0.69084194783E+02 -0.48036978230E+01 -0.13546844699E+03  0.17118239845E+03  0.78460256998E+02 0.  0.
         -6    2    1    2    0  502 -0.16612832679E+03 -0.10960552727E+03  0.20253801169E+03  0.33179576684E+03  0.17162398475E+03 0.  0.
        -24    2    5    5    0    0 -0.43328482203E+02 -0.96452774846E+02  0.64152986172E+02  0.14625519980E+03  0.78067167804E+02 0.  0.
          5    1    3    3  501    0  0.97044132010E+02  0.11440922509E+03 -0.37135584382E+03  0.40054249099E+03  0.47000000000E+01 0. -1.
        -11    1    4    4    0    0 -0.90773547151E+01  0.14040158704E+02 -0.54780994461E+02  0.57275490213E+02  0.00000000000E+00 0.  1.
         12    1    4    4    0    0  0.78161549498E+02 -0.18843856527E+02 -0.80687452528E+02  0.11390690824E+03  0.00000000000E+00 0. -1.
         -5    1    5    5    0  502 -0.12279984459E+03 -0.13152752422E+02  0.13838502552E+03  0.18554056703E+03  0.47000000000E+01 0.  1.
         13    1    6    6    0    0 -0.57855219235E+00  0.11953816433E+01  0.35972564595E+02  0.35997070207E+02  0.00000000000E+00 0. -1.
        -14    1    6    6    0    0 -0.42749930010E+02 -0.97648156490E+02  0.28180421577E+02  0.11025812960E+03  0.00000000000E+00 0.  1.
</event>
<event>
12    1  0.8494789E-002  0.2256151E+03  0.7818608E-02  0.1129765E+00
         21   -1    0    0  503  502  0.00000000000E+00  0.00000000000E+00  0.35387229108E+02  0.35387229108E+02  0.00000000000E+00 0.  1.
         21   -1    0    0  501  503 -0.00000000000E+00 -0.00000000000E+00 -0.15669969126E+04  0.15669969126E+04  0.00000000000E+00 0. -1.
          6    2    1    2  501    0 -0.10057193278E+03 -0.10484938954E+03 -0.53631041633E+03  0.58183420860E+03  0.17260960423E+03 0.  0.
         24    2    3    3    0    0 -0.20280005655E+02 -0.10294544157E+03 -0.42178530875E+03  0.44187525444E+03  0.79635741009E+02 0.  0.
         -6    2    1    2    0  502  0.10057193278E+03  0.10484938954E+03 -0.99529926716E+03  0.10205499331E+04  0.17260772469E+03 0.  0.
        -24    2    5    5    0    0  0.76826781117E+01  0.31541218468E+02 -0.64712256935E+03  0.65278424076E+03  0.79408898823E+02 0.  0.
          5    1    3    3  501    0 -0.80291927123E+02 -0.19039479638E+01 -0.11452510759E+03  0.13995895415E+03  0.47000000000E+01 0. -1.
        -13    1    4    4    0    0 -0.20139490881E+02 -0.34924110279E+02 -0.51545513006E+02  0.65438768958E+02  0.00000000000E+00 0.  1.
         14    1    4    4    0    0 -0.14051477397E+00 -0.68021331295E+02 -0.37023979574E+03  0.37643648549E+03  0.00000000000E+00 0. -1.
         -5    1    5    5    0  502  0.92889254666E+02  0.73308171071E+02 -0.34817669780E+03  0.36776569235E+03  0.47000000000E+01 0.  1.
         13    1    6    6    0    0  0.42022156963E+02  0.76080717128E+01 -0.38170068480E+03  0.38408222714E+03  0.00000000000E+00 0. -1.
        -14    1    6    6    0    0 -0.34339478851E+02  0.23933146755E+02 -0.26542188456E+03  0.26870201362E+03  0.00000000000E+00 0.  1.
</event>
<event>
12    1  0.8494789E-002  0.2387533E+03  0.7818608E-02  0.1120866E+00
         21   -1    0    0  503  502  0.00000000000E+00  0.00000000000E+00  0.69047906532E+03  0.69047906532E+03  0.00000000000E+00 0.  1.
         21   -1    0    0  501  503 -0.00000000000E+00 -0.00000000000E+00 -0.95211094625E+02  0.95211094625E+02  0.00000000000E+00 0.  1.
          6    2    1    2  501    0 -0.32637235664E+02 -0.16088483201E+03  0.15242185926E+03  0.28325880179E+03  0.17336091628E+03 0.  0.
         24    2    3    3    0    0 -0.61149760985E+01 -0.18583196030E+03  0.13514134155E+03  0.24268176697E+03  0.77848233247E+02 0.  0.
         -6    2    1    2    0  502  0.32637235664E+02  0.16088483201E+03  0.44284611143E+03  0.50243135815E+03  0.17139274466E+03 0.  0.
        -24    2    5    5    0    0  0.66853978599E+02  0.10291593275E+03  0.39037816848E+03  0.41695531580E+03  0.79971728009E+02 0.  0.
          5    1    3    3  501    0 -0.26522259565E+02  0.24947128299E+02  0.17280517706E+02  0.40577034823E+02  0.47000000000E+01 0. -1.
        -13    1    4    4    0    0 -0.23748310424E+02 -0.32695549302E+02  0.56966062122E+02  0.69843492366E+02  0.00000000000E+00 0.  1.
         14    1    4    4    0    0  0.17633334326E+02 -0.15313641100E+03  0.78175279432E+02  0.17283827460E+03  0.00000000000E+00 0. -1.
         -5    1    5    5    0  502 -0.34216742935E+02  0.57968899254E+02  0.52467942949E+02  0.85476042346E+02  0.47000000000E+01 0.  1.
         11    1    6    6    0    0  0.60985561134E+02  0.43697920248E+02  0.13217522709E+03  0.15198367530E+03  0.00000000000E+00 0. -1.
        -12    1    6    6    0    0  0.58684174650E+01  0.59218012503E+02  0.25820294140E+03  0.26497164051E+03  0.00000000000E+00 0.  1.
</event>
<event>
12    1  0.8494789E-002  0.1811605E+03  0.7818608E-02  0.1166759E+00
         21   -1    0    0  503  502  0.00000000000E+00  0.00000000000E+00  0.75430189341E+03  0.75430189341E+03  0.00000000000E+00 0.  1.
         21   -1    0    0  501  503 -0.00000000000E+00 -0.00000000000E+00 -0.69641052792E+02  0.69641052792E+02  0.00000000000E+00 0.  1.
          6    2    1    2  501    0  0.62298993043E+02  0.10166258432E+02  0.89427651569E+02  0.20175193142E+03  0.16947571986E+03 0.  0.
         24    2    3    3    0    0  0.10692834927E+03  0.12566944807E+02  0.52145710200E+02  0.14336035768E+03  0.79002639719E+02 0.  0.
         -6    2    1    2    0  502 -0.62298993043E+02 -0.10166258432E+02  0.59523318905E+03  0.62219101478E+03  0.16980751509E+03 0.  0.
        -24    2    5    5    0    0 -0.16646024059E+02 -0.23725320537E+02  0.12749872948E+03  0.15201481758E+03  0.77540942696E+02 0.  0.
          5    1    3    3  501    0 -0.44629356223E+02 -0.24006863756E+01  0.37281941369E+02  0.58391573743E+02  0.47000000000E+01 0. -1.
        -13    1    4    4    0    0  0.73652379063E+02 -0.23944227922E+02  0.93649269568E+01  0.78010902118E+02  0.00000000000E+00 0.  1.
         14    1    4    4    0    0  0.33275970204E+02  0.36511172729E+02  0.42780783243E+02  0.65349455560E+02  0.00000000000E+00 0. -1.
         -5    1    5    5    0  502 -0.45652968985E+02  0.13559062105E+02  0.46773445957E+03  0.47017619720E+03  0.47000000000E+01 0.  1.
         11    1    6    6    0    0  0.19093443610E+02 -0.27905970815E+02  0.10319403093E+03  0.10859240681E+03  0.00000000000E+00 0. -1.
        -12    1    6    6    0    0 -0.35739467669E+02  0.41806502780E+01  0.24304698544E+02  0.43422410773E+02  0.00000000000E+00 0.  1.
</event>
<event>
12    1  0.8494789E-002  0.1898424E+03  0.7818608E-02  0.1158654E+00
         21   -1    0    0  501  502  0.00000000000E+00  0.00000000000E+00  0.97641961958E+02  0.97641961958E+02  0.00000000000E+00 0.  1.
         21   -1    0    0  502  503 -0.00000000000E+00 -0.00000000000E+00 -0.55410239846E+03  0.55410239846E+03  0.00000000000E+00 0.  1.
         -6    2    1    2    0  503 -0.54225876263E+01  0.79908897677E+02 -0.41665538463E+03  0.45777381523E+03  0.17187297630E+03 0.  0.
        -24    2    3    3    0    0  0.58175135854E+01 -0.16154160342E+02 -0.12016536939E+03  0.14587179515E+03  0.80895390837E+02 0.  0.
          6    2    1    2  501    0  0.54225876263E+01 -0.79908897677E+02 -0.39805051876E+02  0.19397054520E+03  0.17211999844E+03 0.  0.
         24    2    5    5    0    0  0.42526041206E+02  0.69804234296E+01 -0.13563480207E+01  0.91858776932E+02  0.81111064150E+02 0.  0.
          5    1    5    5  501    0 -0.37103453580E+02 -0.86889321107E+02 -0.38448703856E+02  0.10211176826E+03  0.47000000000E+01 0. -1.
        -13    1    6    6    0    0  0.28125363450E+02 -0.28669073053E+02  0.23061796546E+02  0.46311966907E+02  0.00000000000E+00 0.  1.
         14    1    6    6    0    0  0.14400677756E+02  0.35649496483E+02 -0.24418144567E+02  0.45546810024E+02  0.00000000000E+00 0. -1.
         -5    1    3    3    0  503 -0.11240101212E+02  0.96063058020E+02 -0.29649001524E+03  0.31190202008E+03  0.47000000000E+01 0.  1.
         11    1    4    4    0    0 -0.71223249234E+01  0.29593736120E+02 -0.24611529570E+02  0.39143889915E+02  0.00000000000E+00 0. -1.
        -12    1    4    4    0    0  0.12939838509E+02 -0.45747896463E+02 -0.95553839819E+02  0.10672790523E+03  0.00000000000E+00 0.  1.
</event>
<event>
12    1  0.8494789E-002  0.1950304E+03  0.7818608E-02  0.1155281E+00
         21   -1    0    0  503  502  0.00000000000E+00  0.00000000000E+00  0.25272289143E+03  0.25272289143E+03  0.00000000000E+00 0.  1.
         21   -1    0    0  501  503 -0.00000000000E+00 -0.00000000000E+00 -0.15770515359E+03  0.15770515359E+03  0.00000000000E+00 0.  1.
          6    2    1    2  501    0 -0.81068123355E+01 -0.89371734708E+02 -0.88621898173E+01  0.18945769237E+03  0.16662128142E+03 0.  0.
         24    2    3    3    0    0 -0.57970045588E+02 -0.78409158543E+02  0.24439183998E+02  0.12832184688E+03  0.79753998915E+02 0.  0.
         -6    2    1    2    0  502  0.81068123355E+01  0.89371734708E+02  0.10387992766E+03  0.22097035265E+03  0.17315839572E+03 0.  0.
        -24    2    5    5    0    0 -0.24887742578E+02  0.10782886609E+03  0.31784473861E+02  0.13942802737E+03  0.78634966426E+02 0.  0.
          5    1    3    3  501    0  0.49863233252E+02 -0.10962576165E+02 -0.33301373815E+02  0.61135845496E+02  0.47000000000E+01 0. -1.
        -13    1    4    4    0    0 -0.15012580378E+02 -0.79317886261E+02  0.27408845473E+02  0.85252269534E+02  0.00000000000E+00 0.  1.
         14    1    4    4    0    0 -0.42957465210E+02  0.90872771811E+00 -0.29696614750E+01  0.43069577344E+02  0.00000000000E+00 0. -1.
         -5    1    5    5    0  502  0.32994554914E+02 -0.18457131385E+02  0.72095453801E+02  0.81542325278E+02  0.47000000000E+01 0.  1.
         11    1    6    6    0    0  0.22443384231E+02  0.56436185550E+01  0.53504916871E+01  0.23752551177E+02  0.00000000000E+00 0. -1.
        -12    1    6    6    0    0 -0.47331126809E+02  0.10218524754E+03  0.26433982174E+02  0.11567547619E+03  0.00000000000E+00 0.  1.
</event>
<event>
12    1  0.8494789E-002  0.1778044E+03  0.7818608E-02  0.1170083E+00
         21   -1    0    0  503  502  0.00000000000E+00  0.00000000000E+00  0.47629835297E+02  0.47629835297E+02  0.00000000000E+00 0.  1.
         21   -1    0    0  501  503 -0.00000000000E+00 -0.00000000000E+00 -0.11380691727E+04  0.11380691727E+04  0.00000000000E+00 0.  1.
          6    2    1    2  501    0  0.24477263624E+02  0.35674046105E+02 -0.92928969516E+03  0.94614678482E+03  0.17246050821E+03 0.  0.
         24    2    3    3    0    0 -0.39782962574E+02  0.16552194937E+02 -0.30594632940E+03  0.31919059536E+03  0.80142500741E+02 0.  0.
         -6    2    1    2    0  502 -0.24477263624E+02 -0.35674046105E+02 -0.16114964221E+03  0.23955222314E+03  0.17188451480E+03 0.  0.
        -24    2    5    5    0    0 -0.18059174703E+02 -0.60829729528E+02 -0.18058857210E+03  0.20678085959E+03  0.78228522522E+02 0.  0.
          5    1    3    3  501    0  0.64260226198E+02  0.19121851168E+02 -0.62334336576E+03  0.62695618946E+03  0.47000000000E+01 0. -1.
        -11    1    4    4    0    0 -0.22512829521E+02  0.84671823406E+01 -0.29726845539E+03  0.29823992899E+03  0.00000000000E+00 0.  1.
         12    1    4    4    0    0 -0.17270133053E+02  0.80850125966E+01 -0.86778740107E+01  0.20950666378E+02  0.00000000000E+00 0. -1.
         -5    1    5    5    0  502 -0.64180889213E+01  0.25155683423E+02  0.19438929888E+02  0.32771363552E+02  0.47000000000E+01 0.  1.
         13    1    6    6    0    0  0.30927333188E+02 -0.27642643072E+02 -0.78447577039E+02  0.88739157070E+02  0.00000000000E+00 0. -1.
        -14    1    6    6    0    0 -0.48986507891E+02 -0.33187086456E+02 -0.10214099506E+03  0.11804170252E+03  0.00000000000E+00 0.  1.
</event>
<event>
12    1  0.8494789E-002  0.1782315E+03  0.7818608E-02  0.1170138E+00
         21   -1    0    0  503  502  0.00000000000E+00  0.00000000000E+00  0.28897691738E+03  0.28897691738E+03  0.00000000000E+00 0. -1.
         21   -1    0    0  501  503 -0.00000000000E+00 -0.00000000000E+00 -0.12019562249E+03  0.12019562249E+03  0.00000000000E+00 0. -1.
          6    2    1    2  501    0  0.30789897254E+02  0.66371310119E+01  0.19780754568E+02  0.17686322763E+03  0.17290822351E+03 0.  0.
         24    2    3    3    0    0 -0.30031540387E+02  0.44458263246E+02  0.44490894073E+02  0.10095297592E+03  0.73031726691E+02 0.  0.
         -6    2    1    2    0  502 -0.30789897254E+02 -0.66371310119E+01  0.14900054032E+03  0.23230931223E+03  0.17542629863E+03 0.  0.
        -24    2    5    5    0    0  0.27512848315E+02 -0.55059514586E+02  0.10155264078E+03  0.14276976486E+03  0.79257554472E+02 0.  0.
          5    1    3    3  501    0  0.60821437640E+02 -0.37821132235E+02 -0.24710139505E+02  0.75910251709E+02  0.47000000000E+01 0. -1.
        -13    1    4    4    0    0 -0.31271505496E+01  0.29089277341E+02 -0.15738100318E+02  0.33221272227E+02  0.00000000000E+00 0.  1.
         14    1    4    4    0    0 -0.26904389837E+02  0.15368985906E+02  0.60228994391E+02  0.67731703697E+02  0.00000000000E+00 0. -1.
         -5    1    5    5    0  502 -0.58302745569E+02  0.48422383574E+02  0.47447899539E+02  0.89539547366E+02  0.47000000000E+01 0.  1.
         13    1    6    6    0    0  0.17478108541E+02  0.16446912898E+02  0.45197083839E+02  0.51173837159E+02  0.00000000000E+00 0. -1.
        -14    1    6    6    0    0  0.10034739774E+02 -0.71506427484E+02  0.56355556942E+02  0.91595927705E+02  0.00000000000E+00 0.  1.
</event>
<event>
12    1  0.8494789E-002  0.2285505E+03  0.7818608E-02  0.1127694E+00
         21   -1    0    0  503  502  0.00000000000E+00  0.00000000000E+00  0.38763303752E+03  0.38763303752E+03  0.00000000000E+00 0.  1.
         21   -1    0    0  501  503 -0.00000000000E+00 -0.00000000000E+00 -0.15701864760E+03  0.15701864760E+03  0.00000000000E+00 0.  1.
          6    2    1    2  501    0 -0.13529950604E+02 -0.14858128351E+03  0.21804561085E+03  0.31575588842E+03  0.17291164012E+03 0.  0.
         24    2    3    3    0    0  0.25028969391E+02 -0.68577245057E+02  0.38806144349E+02  0.11566512694E+03  0.80890153305E+02 0.  0.
         -6    2    1    2    0  502  0.13529950604E+02  0.14858128351E+03  0.12568779068E+02  0.22889579670E+03  0.17313536372E+03 0.  0.
        -24    2    5    5    0    0  0.33806380212E+02  0.88547507787E+02  0.69067760464E+02  0.14386984347E+03  0.83334529731E+02 0.  0.
          5    1    3    3  501    0 -0.38558919995E+02 -0.80004038451E+02  0.17923946650E+03  0.20009076148E+03  0.47000000000E+01 0. -1.
        -11    1    4    4    0    0 -0.10493942338E+02 -0.23861591887E+02 -0.20627238321E+02  0.33241259812E+02  0.00000000000E+00 0.  1.
         12    1    4    4    0    0  0.35522911729E+02 -0.44715653170E+02  0.59433382670E+02  0.82423867125E+02  0.00000000000E+00 0. -1.
         -5    1    5    5    0  502 -0.20276429608E+02  0.60033775721E+02 -0.56498981396E+02  0.85025953236E+02  0.47000000000E+01 0.  1.
         11    1    6    6    0    0  0.38265331039E+01  0.37644039798E+02  0.75493910440E+02  0.84445524461E+02  0.00000000000E+00 0. -1.
        -12    1    6    6    0    0  0.29979847108E+02  0.50903467989E+02 -0.64261499759E+01  0.59424319007E+02  0.00000000000E+00 0.  1.
</event>
<event>
12    1  0.8494789E-002  0.1944320E+03  0.7818608E-02  0.1154640E+00
         21   -1    0    0  501  502  0.00000000000E+00  0.00000000000E+00  0.10086220082E+04  0.10086220082E+04  0.00000000000E+00 0.  1.
         21   -1    0    0  502  503 -0.00000000000E+00 -0.00000000000E+00 -0.61278582875E+02  0.61278582875E+02  0.00000000000E+00 0.  1.
         -6    2    1    2    0  503 -0.88151766539E+02 -0.23588548601E+02  0.80736500167E+03  0.83032228096E+03  0.17108387055E+03 0.  0.
        -24    2    3    3    0    0 -0.69634690221E+02  0.47262420934E+02  0.36849954392E+03  0.38536416831E+03  0.75039335268E+02 0.  0.
          6    2    1    2  501    0  0.88151766539E+02  0.23588548601E+02  0.13997842369E+03  0.23957831016E+03  0.17168766417E+03 0.  0.
         24    2    5    5    0    0  0.30793423031E+02  0.28414417156E+02  0.12969655619E+01  0.89352129327E+02  0.78908218147E+02 0.  0.
          5    1    5    5  501    0  0.57358343507E+02 -0.48258685557E+01  0.13868145813E+03  0.15022618083E+03  0.47000000000E+01 0. -1.
        -13    1    6    6    0    0  0.56081768860E+02  0.10370378048E+02  0.79439352406E+01  0.57583119458E+02  0.00000000000E+00 0.  1.
         14    1    6    6    0    0 -0.25288345829E+02  0.18044039109E+02 -0.66469696787E+01  0.31769009869E+02  0.00000000000E+00 0. -1.
         -5    1    3    3    0  503 -0.18517076317E+02 -0.70850969535E+02  0.43886545776E+03  0.44495811265E+03  0.47000000000E+01 0.  1.
         11    1    4    4    0    0 -0.84571124093E+02  0.43091396911E+02  0.28366048702E+03  0.29911939993E+03  0.00000000000E+00 0. -1.
        -12    1    4    4    0    0  0.14936433871E+02  0.41710240227E+01  0.84839056899E+02  0.86244768384E+02  0.00000000000E+00 0.  1.
</event>
<event>
12    1  0.8494789E-002  0.2208009E+03  0.7818608E-02  0.1133659E+00
         21   -1    0    0  501  502  0.00000000000E+00  0.00000000000E+00  0.30177213922E+03  0.30177213922E+03  0.00000000000E+00 0. -1.
         21   -1    0    0  502  503 -0.00000000000E+00 -0.00000000000E+00 -0.20393495764E+03  0.20393495764E+03  0.00000000000E+00 0.  1.
         -6    2    1    2    0  503 -0.13369700382E+03 -0.14787799077E+02 -0.68135320812E+02  0.23107460361E+03  0.17509849417E+03 0.  0.
        -24    2    3    3    0    0  0.97439305565E+01 -0.12753374612E+02 -0.26386605905E+02  0.81593883341E+02  0.75522950689E+02 0.  0.
          6    2    1    2  501    0  0.13369700382E+03  0.14787799077E+02  0.16597250240E+03  0.27463249325E+03  0.17257626420E+03 0.  0.
         24    2    5    5    0    0  0.41998574373E+02 -0.52044018274E+02  0.92778935626E+02  0.13952334482E+03  0.79914784403E+02 0.  0.
          5    1    5    5  501    0  0.91698429445E+02  0.66831817351E+02  0.73193566770E+02  0.13510914843E+03  0.47000000000E+01 0. -1.
        -13    1    6    6    0    0 -0.58645791716E+01 -0.19335568549E+02 -0.92133966872E+01  0.22206849810E+02  0.00000000000E+00 0.  1.
         14    1    6    6    0    0  0.47863153545E+02 -0.32708449725E+02  0.10199233231E+03  0.11731649501E+03  0.00000000000E+00 0. -1.
         -5    1    3    3    0  503 -0.14344093437E+03 -0.20344244648E+01 -0.41748714907E+02  0.14948072027E+03  0.47000000000E+01 0.  1.
         11    1    4    4    0    0  0.55654443002E+00  0.30874547854E+02 -0.24163551263E+01  0.30973960337E+02  0.00000000000E+00 0. -1.
        -12    1    4    4    0    0  0.91873861265E+01 -0.43627922466E+02 -0.23970250779E+02  0.50619923004E+02  0.00000000000E+00 0.  1.
</event>
<event>
12    1  0.8494789E-002  0.1761969E+03  0.7818608E-02  0.1171616E+00
         21   -1    0    0  503  502  0.00000000000E+00  0.00000000000E+00  0.12445544659E+03  0.12445544659E+03  0.00000000000E+00 0.  1.
         21   -1    0    0  501  503 -0.00000000000E+00 -0.00000000000E+00 -0.38632757319E+03  0.38632757319E+03  0.00000000000E+00 0.  1.
          6    2    1    2  501    0 -0.90718042136E+01 -0.37199090753E+02 -0.28328567593E+03  0.33361072289E+03  0.17198625021E+03 0.  0.
         24    2    3    3    0    0  0.15143614664E+01 -0.90451806668E+02 -0.20282290534E+03  0.23642910886E+03  0.81103452239E+02 0.  0.
         -6    2    1    2    0  502  0.90718042136E+01  0.37199090753E+02  0.21413549325E+02  0.17717229688E+03  0.17165492333E+03 0.  0.
        -24    2    5    5    0    0  0.10590516454E+02 -0.10756986073E+02 -0.47156362662E+02  0.93350971305E+02  0.79137914528E+02 0.  0.
          5    1    3    3  501    0 -0.10586165680E+02  0.53252715915E+02 -0.80462770590E+02  0.97181614039E+02  0.47000000000E+01 0. -1.
        -11    1    4    4    0    0 -0.21002111309E+02 -0.72173490411E+02 -0.19072991247E+03  0.20500731916E+03  0.00000000000E+00 0.  1.
         12    1    4    4    0    0  0.22516472775E+02 -0.18278316257E+02 -0.12092992869E+02  0.31421789700E+02  0.00000000000E+00 0. -1.
         -5    1    5    5    0  502 -0.15187122400E+01  0.47956076826E+02  0.68569911987E+02  0.83821325576E+02  0.47000000000E+01 0.  1.
         13    1    6    6    0    0  0.30156093762E+02  0.25384121286E+02 -0.24728542176E+02  0.46532186738E+02  0.00000000000E+00 0. -1.
        -14    1    6    6    0    0 -0.19565577309E+02 -0.36141107359E+02 -0.22427820486E+02  0.46818784567E+02  0.00000000000E+00 0.  1.
</event>
<event>
12    1  0.8494789E-002  0.1792980E+03  0.7818608E-02  0.1168506E+00
         21   -1    0    0  501  502  0.00000000000E+00  0.00000000000E+00  0.30566833680E+03  0.30566833680E+03  0.00000000000E+00 0. -1.
         21   -1    0    0  502  503 -0.00000000000E+00 -0.00000000000E+00 -0.13555908204E+03  0.13555908204E+03  0.00000000000E+00 0. -1.
         -6    2    1    2    0  503 -0.47898035685E+02 -0.11063794782E+02 -0.19471671703E+02  0.18035221116E+03  0.17242721564E+03 0.  0.
        -24    2    3    3    0    0  0.12302519718E+02 -0.58034342387E+02 -0.26201647478E+02  0.10355558501E+03  0.80733487287E+02 0.  0.
          6    2    1    2  501    0  0.47898035685E+02  0.11063794782E+02  0.18958092646E+03  0.26087520768E+03  0.17233199623E+03 0.  0.
         24    2    5    5    0    0 -0.25203317987E+02  0.22490334988E+02  0.26095094872E+02  0.81364537076E+02  0.69269123799E+02 0.  0.
          5    1    5    5  501    0  0.73101353672E+02 -0.11426540207E+02  0.16348583159E+03  0.17951067060E+03  0.47000000000E+01 0. -1.
        -11    1    6    6    0    0  0.14971269094E+02 -0.86728524315E+01  0.25131067740E+02  0.30511109998E+02  0.00000000000E+00 0.  1.
         12    1    6    6    0    0 -0.40174587081E+02  0.31163187420E+02  0.96402713197E+00  0.50853427078E+02  0.00000000000E+00 0. -1.
         -5    1    3    3    0  503 -0.60200555403E+02  0.46970547605E+02  0.67299757749E+01  0.76796626144E+02  0.47000000000E+01 0.  1.
         11    1    4    4    0    0  0.26089824188E+02  0.15323349472E+01  0.14708874325E+02  0.29989630883E+02  0.00000000000E+00 0. -1.
        -12    1    4    4    0    0 -0.13787304470E+02 -0.59566677334E+02 -0.40910521803E+02  0.73565954132E+02  0.00000000000E+00 0.  1.
</event>
<event>
12    1  0.8494789E-002  0.1762183E+03  0.7818608E-02  0.1171986E+00
         21   -1    0    0  501  502  0.00000000000E+00  0.00000000000E+00  0.24440477925E+03  0.24440477925E+03  0.00000000000E+00 0. -1.
         21   -1    0    0  502  503 -0.00000000000E+00 -0.00000000000E+00 -0.15041669361E+03  0.15041669361E+03  0.00000000000E+00 0. -1.
         -6    2    1    2    0  503  0.29474837301E+02  0.28618847421E+02 -0.32818541609E+02  0.17924827188E+03  0.17136242832E+03 0.  0.
        -24    2    3    3    0    0  0.26857777418E+02 -0.49906104898E+02 -0.62285909505E+01  0.96169197412E+02  0.77445204318E+02 0.  0.
          6    2    1    2  501    0 -0.29474837301E+02 -0.28618847421E+02  0.12680662725E+03  0.21557320097E+03  0.16942278419E+03 0.  0.
         24    2    5    5    0    0  0.32836474673E+02 -0.60487665458E+02  0.76345779683E+02  0.12916308409E+03  0.78214017118E+02 0.  0.
          5    1    5    5  501    0 -0.62311311974E+02  0.31868818037E+02  0.50460847572E+02  0.86410116888E+02  0.47000000000E+01 0. -1.
        -11    1    6    6    0    0  0.42463521345E+02 -0.26208694739E+01  0.17289915887E+02  0.45923423143E+02  0.00000000000E+00 0.  1.
         12    1    6    6    0    0 -0.96270466721E+01 -0.57866795984E+02  0.59055863797E+02  0.83239660943E+02  0.00000000000E+00 0. -1.
         -5    1    3    3    0  503  0.26170598825E+01  0.78524952318E+02 -0.26589950659E+02  0.83079074472E+02  0.47000000000E+01 0.  1.
         13    1    4    4    0    0 -0.60407499072E+01 -0.46329404975E+02  0.22946552798E+02  0.52052365077E+02  0.00000000000E+00 0. -1.
        -14    1    4    4    0    0  0.32898527325E+02 -0.35766999224E+01 -0.29175143749E+02  0.44116832335E+02  0.00000000000E+00 0.  1.
</event>
<event>
12    1  0.8494789E-002  0.2102136E+03  0.7818608E-02  0.1141452E+00
         21   -1    0    0  501  502  0.00000000000E+00  0.00000000000E+00  0.39932093302E+03  0.39932093302E+03  0.00000000000E+00 0.  1.
         21   -1    0    0  502  503 -0.00000000000E+00 -0.00000000000E+00 -0.11390327839E+03  0.11390327839E+03  0.00000000000E+00 0.  1.
         -6    2    1    2    0  503 -0.58936998184E+02 -0.10388005108E+03  0.98364147091E+02  0.23183699553E+03  0.17265066550E+03 0.  0.
        -24    2    3    3    0    0  0.23335875839E+02 -0.32390315536E+02  0.52474360203E+02  0.11348341245E+03  0.92364661969E+02 0.  0.
          6    2    1    2  501    0  0.58936998184E+02  0.10388005108E+03  0.18705350754E+03  0.28138721587E+03  0.17298877365E+03 0.  0.
         24    2    5    5    0    0  0.51543331460E+02  0.12555924272E+03  0.19943533537E+03  0.25492869516E+03  0.82415703402E+02 0.  0.
          5    1    5    5  501    0  0.73936667244E+01 -0.21679191644E+02 -0.12381827837E+02  0.26458520717E+02  0.47000000000E+01 0. -1.
        -13    1    6    6    0    0  0.72082102355E+02  0.94228954892E+02  0.12975355960E+03  0.17581499267E+03  0.00000000000E+00 0.  1.
         14    1    6    6    0    0 -0.20538770896E+02  0.31330287833E+02  0.69681775775E+02  0.79113702484E+02  0.00000000000E+00 0. -1.
         -5    1    3    3    0  503 -0.82272874023E+02 -0.71489735545E+02  0.45889786888E+02  0.11835358308E+03  0.47000000000E+01 0.  1.
         11    1    4    4    0    0  0.70020255530E+01  0.36121685073E+01 -0.25158719883E+02  0.26363560255E+02  0.00000000000E+00 0. -1.
        -12    1    4    4    0    0  0.16333850286E+02 -0.36002484044E+02  0.77633080087E+02  0.87119852193E+02  0.00000000000E+00 0.  1.
</event>
<event>
12    1  0.8494789E-002  0.2428842E+03  0.7818608E-02  0.1118146E+00
         21   -1    0    0  503  502  0.00000000000E+00  0.00000000000E+00  0.12249189453E+03  0.12249189453E+03  0.00000000000E+00 0. -1.
         21   -1    0    0  501  503 -0.00000000000E+00 -0.00000000000E+00 -0.67435992093E+03  0.67435992093E+03  0.00000000000E+00 0.  1.
          6    2    1    2  501    0  0.10685522469E+03  0.13394765802E+03 -0.49130086792E+03  0.54805954341E+03  0.17214152947E+03 0.  0.
         24    2    3    3    0    0  0.11153855975E+03  0.87973085071E+02 -0.46847980096E+03  0.49630545098E+03  0.81643510220E+02 0.  0.
         -6    2    1    2    0  502 -0.10685522469E+03 -0.13394765802E+03 -0.60567158476E+02  0.24879227206E+03  0.16990938708E+03 0.  0.
        -24    2    5    5    0    0 -0.72821962985E+02 -0.19323240168E+02  0.11910536391E+02  0.10889185632E+03  0.77711965564E+02 0.  0.
          5    1    3    3  501    0 -0.46833350651E+01  0.45974572953E+02 -0.22821066966E+02  0.51754092428E+02  0.47000000000E+01 0. -1.
        -11    1    4    4    0    0  0.20349484472E+02  0.57032897321E+02 -0.25534331209E+03  0.26242534162E+03  0.00000000000E+00 0.  1.
         12    1    4    4    0    0  0.91189075283E+02  0.30940187749E+02 -0.21313648886E+03  0.23388010936E+03  0.00000000000E+00 0. -1.
         -5    1    5    5    0  502 -0.34033261705E+02 -0.11462441786E+03 -0.72477694868E+02  0.13990041574E+03  0.47000000000E+01 0.  1.
         11    1    6    6    0    0 -0.58049501829E+02 -0.45928846637E+02 -0.47943991550E+01  0.74176747565E+02  0.00000000000E+00 0. -1.
        -12    1    6    6    0    0 -0.14772461156E+02  0.26605606469E+02  0.16704935546E+02  0.34715108754E+02  0.00000000000E+00 0.  1.
</event>
<event>
12    1  0.8494789E-002  0.2476124E+03  0.7818608E-02  0.1114997E+00
         21   -1    0    0  501  502  0.00000000000E+00  0.00000000000E+00  0.12583710449E+04  0.12583710449E+04  0.00000000000E+00 0. -1.
         21   -1    0    0  502  503 -0.00000000000E+00 -0.00000000000E+00 -0.71674430145E+02  0.71674430145E+02  0.00000000000E+00 0. -1.
         -6    2    1    2    0  503  0.16985994412E+03  0.44968421962E+02  0.21616510540E+03  0.32869325927E+03  0.17446302274E+03 0.  0.
        -24    2    3    3    0    0  0.15486739467E+03  0.63147294465E+02  0.10362960186E+03  0.21362120574E+03  0.83207177771E+02 0.  0.
          6    2    1    2  501    0 -0.16985994412E+03 -0.44968421962E+02  0.97053150936E+03  0.10013522158E+04  0.17291700265E+03 0.  0.
         24    2    5    5    0    0 -0.31005826734E+02 -0.63421804443E+02  0.40327427386E+03  0.41703735677E+03  0.79412407166E+02 0.  0.
          5    1    5    5  501    0 -0.13885411739E+03  0.18453382481E+02  0.56725723549E+03  0.58431485901E+03  0.47000000000E+01 0. -1.
        -11    1    6    6    0    0 -0.47012030997E+02 -0.72162933568E+02  0.29804262910E+03  0.31023705259E+03  0.00000000000E+00 0.  1.
         12    1    6    6    0    0  0.16006204262E+02  0.87411291248E+01  0.10523164476E+03  0.10680030418E+03  0.00000000000E+00 0. -1.
         -5    1    3    3    0  503  0.14992549458E+02 -0.18178872502E+02  0.11253550354E+03  0.11507205352E+03  0.47000000000E+01 0.  1.
         13    1    4    4    0    0  0.55998451005E+02 -0.17345719101E+02  0.41286754816E+02  0.71702835434E+02  0.00000000000E+00 0. -1.
        -14    1    4    4    0    0  0.98868943661E+02  0.80493013565E+02  0.62342847040E+02  0.14191837031E+03  0.00000000000E+00 0.  1.
</event>
<event>
12    1  0.8494789E-002  0.1976751E+03  0.7818608E-02  0.1152238E+00
         21   -1    0    0  501  502  0.00000000000E+00  0.00000000000E+00  0.99306301700E+03  0.99306301700E+03  0.00000000000E+00 0. -1.
         21   -1    0    0  502  503 -0.00000000000E+00 -0.00000000000E+00 -0.85325444821E+02  0.85325444821E+02  0.00000000000E+00 0. -1.
         -6    2    1    2    0  503  0.52802165742E+02  0.76363179011E+02  0.54731124385E+02  0.20277699888E+03  0.17176615348E+03 0.  0.
        -24    2    3    3    0    0  0.36714870343E+02  0.52157383079E+02 -0.33420127519E+02  0.10983909035E+03  0.82941826186E+02 0.  0.
          6    2    1    2  501    0 -0.52802165742E+02 -0.76363179011E+02  0.85300644780E+03  0.87561146295E+03  0.17451656152E+03 0.  0.
         24    2    5    5    0    0 -0.42541136526E+02  0.20137859952E+02  0.30430815703E+03  0.31837754121E+03  0.80904404159E+02 0.  0.
          5    1    5    5  501    0 -0.10261029216E+02 -0.96501038964E+02  0.54869829077E+03  0.55723392173E+03  0.47000000000E+01 0. -1.
        -11    1    6    6    0    0 -0.14456612892E+02 -0.29970433145E+02  0.76207001786E+02  0.83154841353E+02  0.00000000000E+00 0.  1.
         12    1    6    6    0    0 -0.28084523634E+02  0.50108293098E+02  0.22810115525E+03  0.23522269986E+03  0.00000000000E+00 0. -1.
         -5    1    3    3    0  503  0.16087295400E+02  0.24205795932E+02  0.88151251904E+02  0.92937908532E+02  0.47000000000E+01 0.  1.
         13    1    4    4    0    0 -0.25049277242E+02  0.25077188912E+02 -0.21199846997E+02  0.41300910484E+02  0.00000000000E+00 0. -1.
        -14    1    4    4    0    0  0.61764147585E+02  0.27080194167E+02 -0.12220280522E+02  0.68538179864E+02  0.00000000000E+00 0.  1.
</event>
<event>
12    1  0.8494789E-002  0.2222003E+03  0.7818608E-02  0.1132656E+00
         21   -1    0    0  501  502  0.00000000000E+00  0.00000000000E+00  0.40046337414E+03  0.40046337414E+03  0.00000000000E+00 0.  1.
         21   -1    0    0  502  503 -0.00000000000E+00 -0.00000000000E+00 -0.15526155365E+03  0.15526155365E+03  0.00000000000E+00 0. -1.
         -6    2    1    2    0  503 -0.83847689779E+01  0.13685792065E+03 -0.63147517457E+01  0.22011567528E+03  0.17207742332E+03 0.  0.
        -24    2    3    3    0    0  0.34052485068E+02  0.11176508703E+03 -0.56276306176E+02  0.14976784126E+03  0.74915800872E+02 0.  0.
          6    2    1    2  501    0  0.83847689779E+01 -0.13685792065E+03  0.25151657223E+03  0.33560925250E+03  0.17485019148E+03 0.  0.
         24    2    5    5    0    0 -0.11496393909E+01 -0.13012394476E+02  0.37828260607E+02  0.88397999074E+02  0.78819952163E+02 0.  0.
          5    1    5    5  501    0  0.95344083688E+01 -0.12384552618E+03  0.21368831163E+03  0.24721125343E+03  0.47000000000E+01 0. -1.
        -11    1    6    6    0    0 -0.26004456171E+02  0.22771407286E+02  0.25999229765E+02  0.43251921100E+02  0.00000000000E+00 0.  1.
         12    1    6    6    0    0  0.24854816780E+02 -0.35783801762E+02  0.11829030843E+02  0.45146077973E+02  0.00000000000E+00 0. -1.
         -5    1    3    3    0  503 -0.42437254046E+02  0.25092833621E+02  0.49961554430E+02  0.70347834019E+02  0.47000000000E+01 0.  1.
         13    1    4    4    0    0  0.38607551714E+01 -0.11323558389E+02 -0.33551846435E+01  0.12425202979E+02  0.00000000000E+00 0. -1.
        -14    1    4    4    0    0  0.30191729896E+02  0.12308864542E+03 -0.52921121533E+02  0.13734263828E+03  0.00000000000E+00 0.  1.
</event>
<event>
12    1  0.8494789E-002  0.3674605E+03  0.7818608E-02  0.1055698E+00
         21   -1    0    0  501  502  0.00000000000E+00  0.00000000000E+00  0.66963676738E+03  0.66963676738E+03  0.00000000000E+00 0. -1.
         21   -1    0    0  502  503 -0.00000000000E+00 -0.00000000000E+00 -0.34042821155E+03  0.34042821155E+03  0.00000000000E+00 0.  1.
         -6    2    1    2    0  503 -0.29345553234E+03  0.13894335449E+03 -0.15809912541E+03  0.39974047089E+03  0.17139342285E+03 0.  0.
        -24    2    3    3    0    0 -0.26182638994E+03  0.15009471817E+03 -0.92899409296E+02  0.32627041889E+03  0.82101176009E+02 0.  0.
          6    2    1    2  501    0  0.29345553234E+03 -0.13894335449E+03  0.48730768124E+03  0.61032450804E+03  0.17206342930E+03 0.  0.
         24    2    5    5    0    0  0.22515730937E+03 -0.85347859853E+02  0.24000753740E+03  0.34818604187E+03  0.75165355019E+02 0.  0.
          5    1    5    5  501    0  0.68298222970E+02 -0.53595494637E+02  0.24730014384E+03  0.26213846618E+03  0.47000000000E+01 0. -1.
        -11    1    6    6    0    0  0.74327898286E+02  0.27457980698E+01  0.47533108912E+02  0.88269883389E+02  0.00000000000E+00 0.  1.
         12    1    6    6    0    0  0.15082941109E+03 -0.88093657923E+02  0.19247442849E+03  0.25991615848E+03  0.00000000000E+00 0. -1.
         -5    1    3    3    0  503 -0.31629142404E+02 -0.11151363678E+02 -0.65199716109E+02  0.73470052006E+02  0.47000000000E+01 0.  1.
         11    1    4    4    0    0 -0.23327286900E+03  0.13137659315E+03 -0.51540315743E+02  0.27263977110E+03  0.00000000000E+00 0. -1.
        -12    1    4    4    0    0 -0.28553520937E+02  0.18718125017E+02 -0.41359093553E+02  0.53630647783E+02  0.00000000000E+00 0.  1.
</event>
<event>
12    1  0.8494789E-002  0.2069638E+03  0.7818608E-02  0.1144027E+00
         21   -1    0    0  501  502  0.00000000000E+00  0.00000000000E+00  0.10739913450E+03  0.10739913450E+03  0.00000000000E+00 0. -1.
         21   -1    0    0  502  503 -0.00000000000E+00 -0.00000000000E+00 -0.39977421730E+03  0.39977421730E+03  0.00000000000E+00 0. -1.
         -6    2    1    2    0  503  0.84510680663E+02  0.81467104777E+02 -0.16050811593E+03  0.26191007455E+03  0.17045552958E+03 0.  0.
        -24    2    3    3    0    0  0.11895809196E+03  0.55865664037E+02 -0.15575156618E+03  0.21847307789E+03  0.78739668113E+02 0.  0.
          6    2    1    2  501    0 -0.84510680663E+02 -0.81467104777E+02 -0.13186696687E+03  0.24526327725E+03  0.17025344022E+03 0.  0.
         24    2    5    5    0    0 -0.22208444598E+00 -0.32428139353E+01 -0.32408851995E+02  0.93152745904E+02  0.87272763323E+02 0.  0.
          5    1    5    5  501    0 -0.84288596217E+02 -0.78224290842E+02 -0.99458114879E+02  0.15211053134E+03  0.47000000000E+01 0. -1.
        -13    1    6    6    0    0  0.10080642870E+01 -0.12481874575E+02 -0.61418730532E+02  0.62682324834E+02  0.00000000000E+00 0.  1.
         14    1    6    6    0    0 -0.12301487330E+01  0.92390606395E+01  0.29009878537E+02  0.30470421069E+02  0.00000000000E+00 0. -1.
         -5    1    3    3    0  503 -0.34447411298E+02  0.25601440740E+02 -0.47565497477E+01  0.43436996657E+02  0.47000000000E+01 0.  1.
         11    1    4    4    0    0  0.48734089341E+02  0.28585793754E+02 -0.14410712021E+02  0.58308041379E+02  0.00000000000E+00 0. -1.
        -12    1    4    4    0    0  0.70224002620E+02  0.27279870283E+02 -0.14134085416E+03  0.16016503651E+03  0.00000000000E+00 0.  1.
</event>
<event>
12    1  0.8494789E-002  0.1939070E+03  0.7818608E-02  0.1156032E+00
         21   -1    0    0  501  502  0.00000000000E+00  0.00000000000E+00  0.52592728089E+03  0.52592728089E+03  0.00000000000E+00 0. -1.
         21   -1    0    0  502  503 -0.00000000000E+00 -0.00000000000E+00 -0.23572047942E+03  0.23572047942E+03  0.00000000000E+00 0. -1.
         -6    2    1    2    0  503  0.38739423269E+02 -0.69891005945E+02 -0.17389661736E+03  0.26046102542E+03  0.17667602160E+03 0.  0.
        -24    2    3    3    0    0  0.72314505356E+01 -0.17871999953E+02 -0.53010587015E+01  0.81169972302E+02  0.78668678145E+02 0.  0.
          6    2    1    2  501    0 -0.38739423269E+02  0.69891005945E+02  0.46410341884E+03  0.50118673489E+03  0.17149537669E+03 0.  0.
         24    2    5    5    0    0  0.21760014859E+02  0.65971670202E+02  0.39581421496E+03  0.40974796536E+03  0.79992142341E+02 0.  0.
          5    1    5    5  501    0 -0.60499438128E+02  0.39193357421E+01  0.68289203872E+02  0.91438769523E+02  0.47000000000E+01 0. -1.
        -11    1    6    6    0    0  0.29792905634E+02 -0.23867966251E+01  0.60956690956E+02  0.67889853413E+02  0.00000000000E+00 0.  1.
         12    1    6    6    0    0 -0.80328907747E+01  0.68358466828E+02  0.33485752401E+03  0.34185811195E+03  0.00000000000E+00 0. -1.
         -5    1    3    3    0  503  0.31507972733E+02 -0.52019005992E+02 -0.16859555866E+03  0.17929105312E+03  0.47000000000E+01 0.  1.
         13    1    4    4    0    0 -0.18932268599E+01 -0.29683213066E+02 -0.36201816879E+02  0.46853484301E+02  0.00000000000E+00 0. -1.
        -14    1    4    4    0    0  0.91246773956E+01  0.11811213113E+02  0.30900758178E+02  0.34316488001E+02  0.00000000000E+00 0.  1.
</event>
<event>
12    1  0.8494789E-002  0.1909235E+03  0.7818608E-02  0.1157879E+00
         21   -1    0    0  501  502  0.00000000000E+00  0.00000000000E+00  0.27552859068E+03  0.27552859068E+03  0.00000000000E+00 0.  1.
         21   -1    0    0  502  503 -0.00000000000E+00 -0.00000000000E+00 -0.55227306064E+03  0.55227306064E+03  0.00000000000E+00 0.  1.
         -6    2    1    2    0  503 -0.56597681077E+02 -0.55615366274E+02 -0.49954089295E+03  0.53439065181E+03  0.17244100016E+03 0.  0.
        -24    2    3    3    0    0 -0.15524660033E+02  0.14668878143E+02 -0.38254332334E+03  0.39178143272E+03  0.81835846318E+02 0.  0.
          6    2    1    2  501    0  0.56597681077E+02  0.55615366274E+02  0.22279642298E+03  0.29341099951E+03  0.17365310844E+03 0.  0.
         24    2    5    5    0    0  0.41837308231E+02  0.10740546102E+03  0.15570717550E+03  0.20725335535E+03  0.73640582456E+02 0.  0.
          5    1    5    5  501    0  0.14760372846E+02 -0.51790094745E+02  0.67089247483E+02  0.86157644165E+02  0.47000000000E+01 0. -1.
        -11    1    6    6    0    0  0.27332768391E+02  0.52059867777E+00  0.19855716838E+02  0.33787582661E+02  0.00000000000E+00 0.  1.
         12    1    6    6    0    0  0.14504539839E+02  0.10688486234E+03  0.13585145866E+03  0.17346577269E+03  0.00000000000E+00 0. -1.
         -5    1    3    3    0  503 -0.41073021044E+02 -0.70284244417E+02 -0.11699756962E+03  0.14260921908E+03  0.47000000000E+01 0.  1.
         13    1    4    4    0    0  0.24588278094E+02  0.32059676412E+02 -0.16356518481E+03  0.16848138163E+03  0.00000000000E+00 0. -1.
        -14    1    4    4    0    0 -0.40112938127E+02 -0.17390798268E+02 -0.21897813852E+03  0.22330005110E+03  0.00000000000E+00 0.  1.
</event>
<event>
12    1  0.8494789E-002  0.1986488E+03  0.7818608E-02  0.1151690E+00
         21   -1    0    0  503  502  0.00000000000E+00  0.00000000000E+00  0.25807023054E+03  0.25807023054E+03  0.00000000000E+00 0.  1.
         21   -1    0    0  501  503 -0.00000000000E+00 -0.00000000000E+00 -0.15320391020E+03  0.15320391020E+03  0.00000000000E+00 0.  1.
          6    2    1    2  501    0  0.99818380147E+01 -0.98926234237E+02  0.23364024578E+02  0.20001805671E+03  0.17197473203E+03 0.  0.
         24    2    3    3    0    0  0.21235074879E+02 -0.12782110539E+03  0.48710874557E+02  0.15969310510E+03  0.79623960759E+02 0.  0.
         -6    2    1    2    0  502 -0.99818380147E+01  0.98926234237E+02  0.81502295760E+02  0.21125608403E+03  0.16763195375E+03 0.  0.
        -24    2    5    5    0    0 -0.25243924823E+02  0.49543501535E+02 -0.18227931389E+02  0.98829246535E+02  0.79643883652E+02 0.  0.
          5    1    3    3  501    0 -0.11253236864E+02  0.28894871154E+02 -0.25346849979E+02  0.40324951615E+02  0.47000000000E+01 0. -1.
        -11    1    4    4    0    0 -0.29348829868E+02 -0.52109435533E+02  0.95055595755E+01  0.60556607807E+02  0.00000000000E+00 0.  1.
         12    1    4    4    0    0  0.50583904747E+02 -0.75711669857E+02  0.39205314982E+02  0.99136497290E+02  0.00000000000E+00 0. -1.
         -5    1    5    5    0  502  0.15262086808E+02  0.49382732702E+02  0.99730227149E+02  0.11242683750E+03  0.47000000000E+01 0.  1.
         13    1    6    6    0    0 -0.19038980853E+02 -0.16173825994E+02  0.10167400006E+02  0.26971308127E+02  0.00000000000E+00 0. -1.
        -14    1    6    6    0    0 -0.62049439701E+01  0.65717327529E+02 -0.28395331395E+02  0.71857938408E+02  0.00000000000E+00 0.  1.
</event>
<event>
12    1  0.8494789E-002  0.1871965E+03  0.7818608E-02  0.1161299E+00
         21   -1    0    0  501  502  0.00000000000E+00  0.00000000000E+00  0.49226287569E+03  0.49226287569E+03  0.00000000000E+00 0. -1.
         21   -1    0    0  502  503 -0.00000000000E+00 -0.00000000000E+00 -0.76467785556E+02  0.76467785556E+02  0.00000000000E+00 0. -1.
         -6    2    1    2    0  503 -0.93304754689E+01 -0.71186215841E+02  0.28523711474E+03  0.34050292807E+03  0.17154444702E+03 0.  0.
        -24    2    3    3    0    0  0.10106989863E+02 -0.11257396807E+03  0.19296181055E+03  0.23741275950E+03  0.79721443240E+02 0.  0.
          6    2    1    2  501    0  0.93304754689E+01  0.71186215841E+02  0.13055797539E+03  0.22822773317E+03  0.17288139909E+03 0.  0.
         24    2    5    5    0    0 -0.22570332286E+02 -0.22607355824E+02  0.73660243993E+02  0.11388466403E+03  0.80767398867E+02 0.  0.
          5    1    5    5  501    0  0.31900807755E+02  0.93793571665E+02  0.56897731401E+02  0.11434306914E+03  0.47000000000E+01 0. -1.
        -13    1    6    6    0    0 -0.39955612000E+02  0.11708248761E+02  0.16072242063E+02  0.44630157789E+02  0.00000000000E+00 0.  1.
         14    1    6    6    0    0  0.17385279713E+02 -0.34315604586E+02  0.57588001930E+02  0.69254506244E+02  0.00000000000E+00 0. -1.
         -5    1    3    3    0  503 -0.19437465332E+02  0.41387752231E+02  0.92275304186E+02  0.10309016857E+03  0.47000000000E+01 0.  1.
         11    1    4    4    0    0  0.11793734697E+02 -0.75919696244E+02  0.54566637388E+02  0.94235929303E+02  0.00000000000E+00 0. -1.
        -12    1    4    4    0    0 -0.16867448336E+01 -0.36654271828E+02  0.13839517316E+03  0.14317683020E+03  0.00000000000E+00 0.  1.
</event>
<event>
12    1  0.8494789E-002  0.2234308E+03  0.7818608E-02  0.1131622E+00
         21   -1    0    0  501  502  0.00000000000E+00  0.00000000000E+00  0.32768773606E+03  0.32768773606E+03  0.00000000000E+00 0. -1.
         21   -1    0    0  502  503 -0.00000000000E+00 -0.00000000000E+00 -0.20461216504E+03  0.20461216504E+03  0.00000000000E+00 0. -1.
         -6    2    1    2    0  503  0.10678103992E+03 -0.93701287281E+02 -0.74118557913E+02  0.23540369397E+03  0.17245062129E+03 0.  0.
        -24    2    3    3    0    0  0.13491834071E+03 -0.70217457567E+02 -0.28464587191E+02  0.17667062836E+03  0.85257423090E+02 0.  0.
          6    2    1    2  501    0 -0.10678103992E+03  0.93701287281E+02  0.19719412893E+03  0.29689620713E+03  0.17052774436E+03 0.  0.
         24    2    5    5    0    0 -0.11457898782E+03  0.83001609929E+02  0.84608498372E+02  0.18343738070E+03  0.80455347486E+02 0.  0.
          5    1    5    5  501    0  0.77979478968E+01  0.10699677352E+02  0.11258563056E+03  0.11345882643E+03  0.47000000000E+01 0. -1.
        -11    1    6    6    0    0 -0.37646474459E+02 -0.11301341926E+02  0.32686497669E+02  0.51121272464E+02  0.00000000000E+00 0.  1.
         12    1    6    6    0    0 -0.76932513361E+02  0.94302951855E+02  0.51922000703E+02  0.13231610823E+03  0.00000000000E+00 0. -1.
         -5    1    3    3    0  503 -0.28137300791E+02 -0.23483829714E+02 -0.45653970722E+02  0.58733065615E+02  0.47000000000E+01 0.  1.
         13    1    4    4    0    0 -0.78023611974E+01 -0.21745635561E+02  0.85212426782E+00  0.23118728814E+02  0.00000000000E+00 0. -1.
        -14    1    4    4    0    0  0.14272070191E+03 -0.48471822007E+02 -0.29316711459E+02  0.15355189954E+03  0.00000000000E+00 0.  1.
</event>
<event>
12    1  0.8494789E-002  0.2442085E+03  0.7818608E-02  0.1117172E+00
         21   -1    0    0  503  502  0.00000000000E+00  0.00000000000E+00  0.48142888207E+03  0.48142888207E+03  0.00000000000E+00 0. -1.
         21   -1    0    0  501  503 -0.00000000000E+00 -0.00000000000E+00 -0.18340381541E+03  0.18340381541E+03  0.00000000000E+00 0. -1.
          6    2    1    2  501    0  0.13464823467E+03  0.10675422743E+03 -0.41306886951E+02  0.24676097828E+03  0.17221529932E+03 0.  0.
         24    2    3    3    0    0  0.12274521385E+03  0.12986655663E+03 -0.66849379498E+02  0.21001358937E+03  0.87779030108E+02 0.  0.
         -6    2    1    2    0  502 -0.13464823467E+03 -0.10675422743E+03  0.33933195361E+03  0.41807171919E+03  0.17352571992E+03 0.  0.
        -24    2    5    5    0    0 -0.10472765020E+03 -0.21548935897E+02  0.11724719373E+03  0.17828240823E+03  0.81274075153E+02 0.  0.
          5    1    3    3  501    0  0.11903020817E+02 -0.23112329208E+02  0.25542492547E+02  0.36747388908E+02  0.47000000000E+01 0. -1.
        -11    1    4    4    0    0 -0.65601624506E+01  0.74954409009E+01  0.11751105131E+02  0.15404734255E+02  0.00000000000E+00 0.  1.
         12    1    4    4    0    0  0.12930537630E+03  0.12237111573E+03 -0.78600484629E+02  0.19460885512E+03  0.00000000000E+00 0. -1.
         -5    1    5    5    0  502 -0.29920584465E+02 -0.85205291529E+02  0.22208475988E+03  0.23978931096E+03  0.47000000000E+01 0.  1.
         13    1    6    6    0    0 -0.51016940853E+02 -0.34253494183E+02  0.10513528497E+03  0.12177626313E+03  0.00000000000E+00 0. -1.
        -14    1    6    6    0    0 -0.53710709351E+02  0.12704558286E+02  0.12111908767E+02  0.56506145101E+02  0.00000000000E+00 0.  1.
</event>
<event>
12    1  0.8494789E-002  0.1807322E+03  0.7818608E-02  0.1167177E+00
         21   -1    0    0  501  502  0.00000000000E+00  0.00000000000E+00  0.12219866507E+04  0.12219866507E+04  0.00000000000E+00 0. -1.
         21   -1    0    0  502  503 -0.00000000000E+00 -0.00000000000E+00 -0.27510354559E+02  0.27510354559E+02  0.00000000000E+00 0. -1.
         -6    2    1    2    0  503  0.49584710884E+02 -0.22292243902E+02  0.48820221640E+03  0.52046531501E+03  0.17200916353E+03 0.  0.
        -24    2    3    3    0    0  0.77200604425E+02  0.21166466538E+02  0.21904450585E+03  0.24638638434E+03  0.79484603630E+02 0.  0.
          6    2    1    2  501    0 -0.49584710884E+02  0.22292243902E+02  0.70627407974E+03  0.72903169025E+03  0.17236166043E+03 0.  0.
         24    2    5    5    0    0 -0.68899448102E+02  0.74152331763E+01  0.69227996214E+03  0.70053064028E+03  0.81789439170E+02 0.  0.
          5    1    5    5  501    0  0.19314737218E+02  0.14877010726E+02  0.13994117600E+02  0.28501049969E+02  0.47000000000E+01 0. -1.
        -11    1    6    6    0    0  0.12506946380E+01  0.29412794357E+02  0.12052012038E+03  0.12406359710E+03  0.00000000000E+00 0.  1.
         12    1    6    6    0    0 -0.70150142740E+02 -0.21997561181E+02  0.57175984176E+03  0.57646704318E+03  0.00000000000E+00 0. -1.
         -5    1    3    3    0  503 -0.27615893541E+02 -0.43458710441E+02  0.26915771055E+03  0.27407893067E+03  0.47000000000E+01 0.  1.
         13    1    4    4    0    0  0.11679598498E+02  0.28067062338E+01 -0.44140268774E+01  0.12797431548E+02  0.00000000000E+00 0. -1.
        -14    1    4    4    0    0  0.65521005927E+02  0.18359760304E+02  0.22345853273E+03  0.23358895279E+03  0.00000000000E+00 0.  1.
</event>
<event>
12    1  0.8494789E-002  0.2076542E+03  0.7818608E-02  0.1143679E+00
         21   -1    0    0  503  502  0.00000000000E+00  0.00000000000E+00  0.70188779877E+03  0.70188779877E+03  0.00000000000E+00 0.  1.
         21   -1    0    0  501  503 -0.00000000000E+00 -0.00000000000E+00 -0.61318229018E+02  0.61318229018E+02  0.00000000000E+00 0.  1.
          6    2    1    2  501    0  0.11584598314E+03 -0.59700038236E+01  0.29740082520E+03  0.36272236745E+03  0.17223336571E+03 0.  0.
         24    2    3    3    0    0  0.33425959428E+02 -0.34039383713E+02  0.24253906935E+03  0.25970366696E+03  0.79654378813E+02 0.  0.
         -6    2    1    2    0  502 -0.11584598314E+03  0.59700038236E+01  0.34316874455E+03  0.40048366034E+03  0.17078185562E+03 0.  0.
        -24    2    5    5    0    0 -0.31273189456E+02 -0.28770826110E+02  0.75152577039E+02  0.11726247691E+03  0.79352415475E+02 0.  0.
          5    1    3    3  501    0  0.82420023709E+02  0.28069379890E+02  0.54861755857E+02  0.10301870049E+03  0.47000000000E+01 0. -1.
        -13    1    4    4    0    0  0.36346435870E+02 -0.10399442168E+02  0.37373656491E+02  0.53160154227E+02  0.00000000000E+00 0.  1.
         14    1    4    4    0    0 -0.29204764418E+01 -0.23639941546E+02  0.20516541286E+03  0.20654351273E+03  0.00000000000E+00 0. -1.
         -5    1    5    5    0  502 -0.84572793681E+02  0.34740829933E+02  0.26801616751E+03  0.28322118343E+03  0.47000000000E+01 0.  1.
         11    1    6    6    0    0 -0.39897352163E+02 -0.37854659847E+02  0.16692133400E+02  0.57475223350E+02  0.00000000000E+00 0. -1.
        -12    1    6    6    0    0  0.86241627070E+01  0.90838337370E+01  0.58460443639E+02  0.59787253560E+02  0.00000000000E+00 0.  1.
</event>
<event>
12    1  0.8494789E-002  0.2483857E+03  0.7818608E-02  0.1114466E+00
         21   -1    0    0  503  502  0.00000000000E+00  0.00000000000E+00  0.48787149161E+03  0.48787149161E+03  0.00000000000E+00 0. -1.
         21   -1    0    0  501  503 -0.00000000000E+00 -0.00000000000E+00 -0.25127312391E+03  0.25127312391E+03  0.00000000000E+00 0. -1.
          6    2    1    2  501    0  0.43347364368E+02  0.17371392154E+03 -0.14272837712E+03  0.28573061474E+03  0.17092417626E+03 0.  0.
         24    2    3    3    0    0  0.75569325272E+02  0.79458435031E+02 -0.36276501909E+02  0.13986614601E+03  0.78880849318E+02 0.  0.
         -6    2    1    2    0  502 -0.43347364368E+02 -0.17371392154E+03  0.37932674483E+03  0.45341400078E+03  0.17216258662E+03 0.  0.
        -24    2    5    5    0    0  0.25729906263E+01 -0.14176410097E+03  0.35947896374E+03  0.39386994607E+03  0.76188768487E+02 0.  0.
          5    1    3    3  501    0 -0.32221960903E+02  0.94255486505E+02 -0.10645187522E+03  0.14586446873E+03  0.47000000000E+01 0. -1.
        -13    1    4    4    0    0  0.30906088462E+02  0.65762095420E+02  0.10897376013E+02  0.73475113488E+02  0.00000000000E+00 0.  1.
         14    1    4    4    0    0  0.44663236810E+02  0.13696339611E+02 -0.47173877922E+02  0.66391032522E+02  0.00000000000E+00 0. -1.
         -5    1    5    5    0  502 -0.45920354995E+02 -0.31949820570E+02  0.19847781085E+02  0.59544054710E+02  0.47000000000E+01 0.  1.
         11    1    6    6    0    0 -0.91437577269E+01 -0.17435594197E+02  0.13977969924E+03  0.14115938712E+03  0.00000000000E+00 0. -1.
        -12    1    6    6    0    0  0.11716748353E+02 -0.12432850677E+03  0.21969926450E+03  0.25271055896E+03  0.00000000000E+00 0.  1.
</event>
<event>
12    1  0.8494789E-002  0.2086850E+03  0.7818608E-02  0.1142682E+00
         21   -1    0    0  503  502  0.00000000000E+00  0.00000000000E+00  0.70058732177E+03  0.70058732177E+03  0.00000000000E+00 0.  1.
         21   -1    0    0  501  503 -0.00000000000E+00 -0.00000000000E+00 -0.82793019063E+02  0.82793019063E+02  0.00000000000E+00 0. -1.
          6    2    1    2  501    0  0.84121208079E+02  0.80821117923E+02  0.11306416098E+03  0.23734557963E+03  0.17303464660E+03 0.  0.
         24    2    3    3    0    0  0.11138667567E+03  0.19629117014E+02  0.94164501738E+02  0.16758058972E+03  0.80149902757E+02 0.  0.
         -6    2    1    2    0  502 -0.84121208079E+02 -0.80821117923E+02  0.50473014172E+03  0.54603476119E+03  0.17260652862E+03 0.  0.
        -24    2    5    5    0    0 -0.80030677940E+02 -0.89151094311E+02  0.51291397593E+03  0.53279897312E+03  0.80256912655E+02 0.  0.
          5    1    3    3  501    0 -0.27265467591E+02  0.61192000908E+02  0.18899659244E+02  0.69764989914E+02  0.47000000000E+01 0. -1.
        -11    1    4    4    0    0  0.66124377335E+01  0.11777303693E+02  0.53070224353E+02  0.54762011723E+02  0.00000000000E+00 0.  1.
         12    1    4    4    0    0  0.10477423794E+03  0.78518133220E+01  0.41094277385E+02  0.11281857800E+03  0.00000000000E+00 0. -1.
         -5    1    5    5    0  502 -0.40905301386E+01  0.83299763880E+01 -0.81838342106E+01  0.13235788070E+02  0.47000000000E+01 0.  1.
         13    1    6    6    0    0  0.14270835721E+02 -0.24432516079E+02  0.73915689201E+02  0.79146280419E+02  0.00000000000E+00 0. -1.
        -14    1    6    6    0    0 -0.94301513661E+02 -0.64718578231E+02  0.43899828673E+03  0.45365269271E+03  0.00000000000E+00 0.  1.
</event>
<event>
12    1  0.8494789E-002  0.4364143E+03  0.7818608E-02  0.1031901E+00
         21   -1    0    0  503  502  0.00000000000E+00  0.00000000000E+00  0.23009648287E+03  0.23009648287E+03  0.00000000000E+00 0. -1.
         21   -1    0    0  501  503 -0.00000000000E+00 -0.00000000000E+00 -0.88410242151E+03  0.88410242151E+03  0.00000000000E+00 0.  1.
          6    2    1    2  501    0 -0.61474275001E+02 -0.39624914547E+03 -0.46936853151E+03  0.64090893126E+03  0.17223521135E+03 0.  0.
         24    2    3    3    0    0  0.14401162614E+02 -0.17111765538E+03 -0.27500894520E+03  0.33392520424E+03  0.79921690572E+02 0.  0.
         -6    2    1    2    0  502  0.61474275001E+02  0.39624914547E+03 -0.18463740713E+03  0.47328997312E+03  0.17064569953E+03 0.  0.
        -24    2    5    5    0    0  0.73553833866E+02  0.16739640809E+03 -0.12843638386E+03  0.23728121021E+03  0.79841994621E+02 0.  0.
          5    1    3    3  501    0 -0.75875437614E+02 -0.22513149009E+03 -0.19435958632E+03  0.30698372702E+03  0.47000000000E+01 0. -1.
        -13    1    4    4    0    0  0.36610663471E+02 -0.11618264795E+03 -0.13466961159E+03  0.18158924156E+03  0.00000000000E+00 0.  1.
         14    1    4    4    0    0 -0.22209500857E+02 -0.54935007431E+02 -0.14033933361E+03  0.15233596269E+03  0.00000000000E+00 0. -1.
         -5    1    5    5    0  502 -0.12079558865E+02  0.22885273738E+03 -0.56201023279E+02  0.23600876290E+03  0.47000000000E+01 0.  1.
         11    1    6    6    0    0  0.61698783672E+02  0.17071617054E+03 -0.13202481744E+03  0.22445779829E+03  0.00000000000E+00 0. -1.
        -12    1    6    6    0    0  0.11855050194E+02 -0.33197624552E+01  0.35884335837E+01  0.12823411927E+02  0.00000000000E+00 0.  1.
</event>
<event>
12    1  0.8494789E-002  0.1900055E+03  0.7818608E-02  0.1160032E+00
         21   -1    0    0  503  502  0.00000000000E+00  0.00000000000E+00  0.12649130605E+03  0.12649130605E+03  0.00000000000E+00 0. -1.
         21   -1    0    0  501  503 -0.00000000000E+00 -0.00000000000E+00 -0.27550648203E+03  0.27550648203E+03  0.00000000000E+00 0. -1.
          6    2    1    2  501    0  0.31929090992E+02  0.54641781172E+02 -0.79733335922E+02  0.19975524202E+03  0.17187076761E+03 0.  0.
         24    2    3    3    0    0 -0.71795796355E+01  0.11754449463E+02 -0.10856836216E+03  0.13477555229E+03  0.78661596661E+02 0.  0.
         -6    2    1    2    0  502 -0.31929090992E+02 -0.54641781172E+02 -0.69281840059E+02  0.20224254606E+03  0.17915602969E+03 0.  0.
        -24    2    5    5    0    0  0.11822833868E+02 -0.96876310824E+02 -0.54104939002E+02  0.13939022112E+03  0.83531373274E+02 0.  0.
          5    1    3    3  501    0  0.39108670627E+02  0.42887331709E+02  0.28835026234E+02  0.64979689729E+02  0.47000000000E+01 0. -1.
        -13    1    4    4    0    0  0.21267876690E+01 -0.32341337736E+02 -0.29814662897E+02  0.44038613466E+02  0.00000000000E+00 0.  1.
         14    1    4    4    0    0 -0.93063673046E+01  0.44095787199E+02 -0.78753699258E+02  0.90736938829E+02  0.00000000000E+00 0. -1.
         -5    1    5    5    0  502 -0.43751924860E+02  0.42234529652E+02 -0.15176901057E+02  0.62852324934E+02  0.47000000000E+01 0.  1.
         13    1    6    6    0    0  0.60319217581E-01 -0.95228048540E+02 -0.70968215963E+02  0.11876393621E+03  0.00000000000E+00 0. -1.
        -14    1    6    6    0    0  0.11762514651E+02 -0.16482622838E+01  0.16863276961E+02  0.20626284914E+02  0.00000000000E+00 0.  1.
</event>
<event>
12    1  0.8494789E-002  0.3149977E+03  0.7818608E-02  0.1078028E+00
         21   -1    0    0  501  502  0.00000000000E+00  0.00000000000E+00  0.10444492809E+04  0.10444492809E+04  0.00000000000E+00 0. -1.
         21   -1    0    0  502  503 -0.00000000000E+00 -0.00000000000E+00 -0.95339717279E+02  0.95339717279E+02  0.00000000000E+00 0. -1.
         -6    2    1    2    0  503 -0.15850434434E+03  0.20982590517E+03  0.51443909605E+03  0.60298180715E+03  0.17259472344E+03 0.  0.
        -24    2    3    3    0    0 -0.89356067613E+02  0.20602392910E+03  0.34898361376E+03  0.42355620748E+03  0.84734479680E+02 0.  0.
          6    2    1    2  501    0  0.15850434434E+03 -0.20982590517E+03  0.43467046759E+03  0.53680719104E+03  0.17341570664E+03 0.  0.
         24    2    5    5    0    0  0.13027871105E+03 -0.12637596407E+03  0.39344045061E+03  0.43942863415E+03  0.73203206765E+02 0.  0.
          5    1    5    5  501    0  0.28225633283E+02 -0.83449941099E+02  0.41230016975E+02  0.97378556898E+02  0.47000000000E+01 0. -1.
        -11    1    6    6    0    0  0.39922352566E+02 -0.10911617042E+01  0.10289194972E+03  0.11037091187E+03  0.00000000000E+00 0.  1.
         12    1    6    6    0    0  0.90356358487E+02 -0.12528480237E+03  0.29054850089E+03  0.32905772228E+03  0.00000000000E+00 0. -1.
         -5    1    3    3    0  503 -0.69148276723E+02  0.38019760724E+01  0.16545548229E+03  0.17942559967E+03  0.47000000000E+01 0.  1.
         11    1    4    4    0    0 -0.90569262272E+02  0.15774412890E+03  0.21780211266E+03  0.28376709068E+03  0.00000000000E+00 0. -1.
        -12    1    4    4    0    0  0.12131946587E+01  0.48279800199E+02  0.13118150109E+03  0.13978911680E+03  0.00000000000E+00 0.  1.
</event>
<event>
12    1  0.8494789E-002  0.2410614E+03  0.7818608E-02  0.1120378E+00
         21   -1    0    0  501  502  0.00000000000E+00  0.00000000000E+00  0.81208729371E+03  0.81208729371E+03  0.00000000000E+00 0.  1.
         21   -1    0    0  502  503 -0.00000000000E+00 -0.00000000000E+00 -0.69543454534E+02  0.69543454534E+02  0.00000000000E+00 0. -1.
         -6    2    1    2    0  503 -0.13447448660E+03  0.81115388736E+02  0.39124296726E+03  0.45557570522E+03  0.17267040836E+03 0.  0.
        -24    2    3    3    0    0 -0.10595948802E+03  0.63336510148E+02  0.14666023118E+03  0.20865061849E+03  0.82382829334E+02 0.  0.
          6    2    1    2  501    0  0.13447448660E+03 -0.81115388736E+02  0.35130087192E+03  0.42605504303E+03  0.18288658572E+03 0.  0.
         24    2    5    5    0    0  0.34999773720E+02  0.16328659855E+02  0.15730292612E+03  0.18720811697E+03  0.93867242433E+02 0.  0.
          5    1    5    5  501    0  0.99474712882E+02 -0.97444048591E+02  0.19399794581E+03  0.23884692605E+03  0.47000000000E+01 0. -1.
        -11    1    6    6    0    0 -0.10384094151E+02 -0.72987381665E+01  0.12722457722E+03  0.12785614588E+03  0.00000000000E+00 0.  1.
         12    1    6    6    0    0  0.45383867871E+02  0.23627398021E+02  0.30078348897E+02  0.59351971092E+02  0.00000000000E+00 0. -1.
         -5    1    3    3    0  503 -0.28514998582E+02  0.17778878589E+02  0.24458273608E+03  0.24692508673E+03  0.47000000000E+01 0.  1.
         11    1    4    4    0    0 -0.17962709624E+02  0.53489236588E+02  0.36023764464E+02  0.66943774721E+02  0.00000000000E+00 0. -1.
        -12    1    4    4    0    0 -0.87996778396E+02  0.98472735598E+01  0.11063646672E+03  0.14170684377E+03  0.00000000000E+00 0.  1.
</event>
<event>
12    1  0.8494789E-002  0.2717123E+03  0.7818608E-02  0.1100608E+00
         21   -1    0    0  501  502  0.00000000000E+00  0.00000000000E+00  0.20362396469E+03  0.20362396469E+03  0.00000000000E+00 0. -1.
         21   -1    0    0  502  503 -0.00000000000E+00 -0.00000000000E+00 -0.67440152992E+03  0.67440152992E+03  0.00000000000E+00 0. -1.
         -6    2    1    2    0  503  0.18472118542E+03  0.99117705016E+02 -0.53477393972E+03  0.59887841752E+03  0.16948733453E+03 0.  0.
        -24    2    3    3    0    0  0.12859258732E+03  0.42615775747E+02 -0.47148058039E+03  0.49704017876E+03  0.80017771564E+02 0.  0.
          6    2    1    2  501    0 -0.18472118542E+03 -0.99117705016E+02  0.63996374490E+02  0.27914707710E+03  0.17286213846E+03 0.  0.
         24    2    5    5    0    0 -0.15951222340E+03 -0.26376670402E+02  0.26068517494E+01  0.18056962843E+03  0.80366142616E+02 0.  0.
          5    1    5    5  501    0 -0.25208962019E+02 -0.72741034614E+02  0.61389522741E+02  0.98577448664E+02  0.47000000000E+01 0. -1.
        -11    1    6    6    0    0  0.86456397220E+01  0.25339449583E+01 -0.39077457099E+01  0.98203075200E+01  0.00000000000E+00 0.  1.
         12    1    6    6    0    0 -0.16815786313E+03 -0.28910615360E+02  0.65145974593E+01  0.17074932091E+03  0.00000000000E+00 0. -1.
         -5    1    3    3    0  503  0.56128598101E+02  0.56501929269E+02 -0.63293359337E+02  0.10183823875E+03  0.47000000000E+01 0.  1.
         13    1    4    4    0    0  0.47305478824E+02  0.38343441616E+02 -0.10280894952E+03  0.11948936331E+03  0.00000000000E+00 0. -1.
        -14    1    4    4    0    0  0.81287108498E+02  0.42723341306E+01 -0.36867163086E+03  0.37755081545E+03  0.00000000000E+00 0.  1.
</event>
<event>
12    1  0.8494789E-002  0.1796040E+03  0.7818608E-02  0.1168200E+00
         21   -1    0    0  501  502  0.00000000000E+00  0.00000000000E+00  0.17678016797E+03  0.17678016797E+03  0.00000000000E+00 0.  1.
         21   -1    0    0  502  503 -0.00000000000E+00 -0.00000000000E+00 -0.26068476860E+03  0.26068476860E+03  0.00000000000E+00 0.  1.
         -6    2    1    2    0  503 -0.30727193306E+02  0.42919377057E+02 -0.16180873605E+03  0.24174295489E+03  0.17167223375E+03 0.  0.
        -24    2    3    3    0    0 -0.79984831874E+02  0.27897148561E+02 -0.14848400093E+03  0.18834238493E+03  0.79053976499E+02 0.  0.
          6    2    1    2  501    0  0.30727193306E+02 -0.42919377057E+02  0.77904135421E+02  0.19572198168E+03  0.17161528621E+03 0.  0.
         24    2    5    5    0    0  0.42781431087E+02  0.59862102999E+00  0.11172923545E+03  0.13910618708E+03  0.70968303050E+02 0.  0.
          5    1    5    5  501    0 -0.12054237780E+02 -0.43517998087E+02 -0.33825100029E+02  0.56615794597E+02  0.47000000000E+01 0. -1.
        -11    1    6    6    0    0  0.16248207731E+02  0.12043781525E+02  0.10810813892E+03  0.10998375620E+03  0.00000000000E+00 0.  1.
         12    1    6    6    0    0  0.26533223356E+02 -0.11445160495E+02  0.36210965319E+01  0.29122430882E+02  0.00000000000E+00 0. -1.
         -5    1    3    3    0  503  0.49257638568E+02  0.15022228496E+02 -0.13324735123E+02  0.53400569963E+02  0.47000000000E+01 0.  1.
         11    1    4    4    0    0  0.29300492946E+01 -0.18541388188E+02 -0.12929258568E+02  0.22793288308E+02  0.00000000000E+00 0. -1.
        -12    1    4    4    0    0 -0.82914881169E+02  0.46438536749E+02 -0.13555474236E+03  0.16554909662E+03  0.00000000000E+00 0.  1.
</event>
<event>
12    1  0.8494789E-002  0.2341923E+03  0.7818608E-02  0.1125508E+00
         21   -1    0    0  501  502  0.00000000000E+00  0.00000000000E+00  0.22010290887E+03  0.22010290887E+03  0.00000000000E+00 0.  1.
         21   -1    0    0  502  503 -0.00000000000E+00 -0.00000000000E+00 -0.24762174627E+03  0.24762174627E+03  0.00000000000E+00 0.  1.
         -6    2    1    2    0  503 -0.77536949683E+01 -0.14286827554E+03  0.30788104434E+02  0.23620738705E+03  0.18540377121E+03 0.  0.
        -24    2    3    3    0    0 -0.73543623551E+01 -0.14965235410E+03  0.79082856230E+02  0.18721089494E+03  0.79648649083E+02 0.  0.
          6    2    1    2  501    0  0.77536949683E+01  0.14286827554E+03 -0.58306941837E+02  0.23151726809E+03  0.17242123424E+03 0.  0.
         24    2    5    5    0    0 -0.18622738110E+02  0.32464878504E+02 -0.74977817866E+02  0.11669290479E+03  0.81208288649E+02 0.  0.
          5    1    5    5  501    0  0.26376433078E+02  0.11040339704E+03  0.16670876030E+02  0.11482436330E+03  0.47000000000E+01 0. -1.
        -11    1    6    6    0    0  0.13265637183E+02  0.27915613128E+02  0.42211037712E+01  0.31194170982E+02  0.00000000000E+00 0.  1.
         12    1    6    6    0    0 -0.31888375293E+02  0.45492653759E+01 -0.79198921637E+02  0.85498733808E+02  0.00000000000E+00 0. -1.
         -5    1    3    3    0  503 -0.39933261323E+00  0.67840785541E+01 -0.48294751796E+02  0.48996492113E+02  0.47000000000E+01 0.  1.
         11    1    4    4    0    0 -0.17159396232E+02 -0.20033949517E+01 -0.36810974868E+01  0.17663775052E+02  0.00000000000E+00 0. -1.
        -12    1    4    4    0    0  0.98050338769E+01 -0.14764895915E+03  0.82763953717E+02  0.16954711988E+03  0.00000000000E+00 0.  1.
</event>
<event>
12    1  0.8494789E-002  0.2548222E+03  0.7818608E-02  0.1110857E+00
         21   -1    0    0  503  502  0.00000000000E+00  0.00000000000E+00  0.89446542896E+03  0.89446542896E+03  0.00000000000E+00 0. -1.
         21   -1    0    0  501  503 -0.00000000000E+00 -0.00000000000E+00 -0.19726096958E+03  0.19726096958E+03  0.00000000000E+00 0.  1.
          6    2    1    2  501    0 -0.54317301620E+02  0.17112607898E+03 -0.86219678169E+02  0.26901340464E+03  0.18083106706E+03 0.  0.
         24    2    3    3    0    0 -0.46396679139E+02  0.17913390896E+03 -0.20701694622E+02  0.20236839156E+03  0.79264093792E+02 0.  0.
         -6    2    1    2    0  502  0.54317301620E+02 -0.17112607898E+03  0.78342413755E+03  0.82271299390E+03  0.17569515326E+03 0.  0.
        -24    2    5    5    0    0  0.10165906082E+03 -0.96181577728E+02  0.48211448688E+03  0.50859913553E+03  0.81567405656E+02 0.  0.
          5    1    3    3  501    0 -0.79206224809E+01 -0.80078299847E+01 -0.65517983547E+02  0.66645013089E+02  0.47000000000E+01 0. -1.
        -13    1    4    4    0    0 -0.57850176688E+01  0.13669013364E+03 -0.36383852146E+02  0.14156780623E+03  0.00000000000E+00 0.  1.
         14    1    4    4    0    0 -0.40611661470E+02  0.42443775321E+02  0.15682157524E+02  0.60800585322E+02  0.00000000000E+00 0. -1.
         -5    1    5    5    0  502 -0.47341759200E+02 -0.74944501251E+02  0.30130965067E+03  0.31411385837E+03  0.47000000000E+01 0.  1.
         13    1    6    6    0    0  0.95090471995E+02 -0.83607405025E+02  0.47699917207E+03  0.49351859761E+03  0.00000000000E+00 0. -1.
        -14    1    6    6    0    0  0.65685888254E+01 -0.12574172703E+02  0.51153148144E+01  0.15080537921E+02  0.00000000000E+00 0.  1.
</event>
<event>
12    1  0.8494789E-002  0.1962215E+03  0.7818608E-02  0.1153150E+00
         21   -1    0    0  503  502  0.00000000000E+00  0.00000000000E+00  0.11517819426E+03  0.11517819426E+03  0.00000000000E+00 0. -1.
         21   -1    0    0  501  503 -0.00000000000E+00 -0.00000000000E+00 -0.74141613240E+03  0.74141613240E+03  0.00000000000E+00 0.  1.
          6    2    1    2  501    0 -0.81880910513E+02 -0.42181635794E+02 -0.63136444218E+03  0.66115350047E+03  0.17326026213E+03 0.  0.
         24    2    3    3    0    0 -0.50469563167E+02 -0.53318051274E+02 -0.61340045325E+03  0.62300265002E+03  0.80512076678E+02 0.  0.
         -6    2    1    2    0  502  0.81880910513E+02  0.42181635794E+02  0.51265040341E+01  0.19544082619E+03  0.17229933718E+03 0.  0.
        -24    2    5    5    0    0  0.67322392010E+02 -0.15451407078E+02  0.53318298289E+02  0.11877233771E+03  0.80579009837E+02 0.  0.
          5    1    3    3  501    0 -0.31411347346E+02  0.11136415480E+02 -0.17963988934E+02  0.38150850452E+02  0.47000000000E+01 0. -1.
        -11    1    4    4    0    0 -0.31572853547E+02 -0.21420195231E+02 -0.53412620016E+03  0.53548713107E+03  0.00000000000E+00 0.  1.
         12    1    4    4    0    0 -0.18896709620E+02 -0.31897856043E+02 -0.79274253089E+02  0.87515518952E+02  0.00000000000E+00 0. -1.
         -5    1    5    5    0  502  0.14558518502E+02  0.57633042873E+02 -0.48191794255E+02  0.76668488476E+02  0.47000000000E+01 0.  1.
         13    1    6    6    0    0  0.57221540349E+02  0.21316915499E+02  0.52663849770E+02  0.80636199308E+02  0.00000000000E+00 0. -1.
        -14    1    6    6    0    0  0.10100851661E+02 -0.36768322577E+02  0.65444851949E+00  0.38136138403E+02  0.00000000000E+00 0.  1.
</event>
<event>
12    1  0.8494789E-002  0.2504389E+03  0.7818608E-02  0.1113835E+00
         21   -1    0    0  501  502  0.00000000000E+00  0.00000000000E+00  0.26102441580E+03  0.26102441580E+03  0.00000000000E+00 0.  1.
         21   -1    0    0  502  503 -0.00000000000E+00 -0.00000000000E+00 -0.45611095482E+03  0.45611095482E+03  0.00000000000E+00 0. -1.
         -6    2    1    2    0  503  0.15762557049E+03  0.79012735579E+02 -0.34745480626E+03  0.42830420347E+03  0.17785054246E+03 0.  0.
        -24    2    3    3    0    0  0.30794231064E+02  0.87063786822E+02 -0.14977587874E+03  0.19325089787E+03  0.79904368034E+02 0.  0.
          6    2    1    2  501    0 -0.15762557049E+03 -0.79012735579E+02  0.15236826724E+03  0.28883116715E+03  0.17064149964E+03 0.  0.
         24    2    5    5    0    0 -0.12808439085E+03 -0.52232797515E+02  0.17910119411E+03  0.24059647262E+03  0.81704030442E+02 0.  0.
          5    1    5    5  501    0 -0.29541179640E+02 -0.26779938064E+02 -0.26732926872E+02  0.48234694530E+02  0.47000000000E+01 0. -1.
        -11    1    6    6    0    0 -0.37594580083E+02  0.20130655332E+02  0.31851915899E+02  0.53227251311E+02  0.00000000000E+00 0.  1.
         12    1    6    6    0    0 -0.90489810768E+02 -0.72363452847E+02  0.14724927821E+03  0.18736922131E+03  0.00000000000E+00 0. -1.
         -5    1    3    3    0  503  0.12683133943E+03 -0.80510512432E+01 -0.19767892752E+03  0.23505330560E+03  0.47000000000E+01 0.  1.
         11    1    4    4    0    0  0.22706168870E+01  0.40689167626E+02 -0.12848238088E+03  0.13479052734E+03  0.00000000000E+00 0. -1.
        -12    1    4    4    0    0  0.28523614177E+02  0.46374619196E+02 -0.21293497862E+02  0.58460370530E+02  0.00000000000E+00 0.  1.
</event>
<event>
12    1  0.8494789E-002  0.1981248E+03  0.7818608E-02  0.1151580E+00
         21   -1    0    0  503  502  0.00000000000E+00  0.00000000000E+00  0.96278164111E+02  0.96278164111E+02  0.00000000000E+00 0. -1.
         21   -1    0    0  501  503 -0.00000000000E+00 -0.00000000000E+00 -0.46804440384E+03  0.46804440384E+03  0.00000000000E+00 0.  1.
          6    2    1    2  501    0 -0.52016833179E+02 -0.83859479586E+02 -0.82116069318E+02  0.21339429524E+03  0.17045795127E+03 0.  0.
         24    2    3    3    0    0 -0.31981853151E+02 -0.81987823622E+01 -0.10040489313E+03  0.13288024301E+03  0.80535442234E+02 0.  0.
         -6    2    1    2    0  502  0.52016833179E+02  0.83859479586E+02 -0.28965017041E+03  0.35092827271E+03  0.17180008184E+03 0.  0.
        -24    2    5    5    0    0  0.58863282732E+02  0.70577389341E+02 -0.93101536400E+02  0.15375641031E+03  0.80790368796E+02 0.  0.
          5    1    3    3  501    0 -0.20034980029E+02 -0.75660697224E+02  0.18288823813E+02  0.80514052225E+02  0.47000000000E+01 0. -1.
        -11    1    4    4    0    0  0.11138780253E+02 -0.22760579786E+02 -0.78270673560E+02  0.82270375939E+02  0.00000000000E+00 0.  1.
         12    1    4    4    0    0 -0.43120633404E+02  0.14561797423E+02 -0.22134219571E+02  0.50609867075E+02  0.00000000000E+00 0. -1.
         -5    1    5    5    0  502 -0.68464495522E+01  0.13282090245E+02 -0.19654863401E+03  0.19717186240E+03  0.47000000000E+01 0.  1.
         11    1    6    6    0    0 -0.19127346660E+01 -0.15922306153E+02 -0.73813180516E+01  0.17653958290E+02  0.00000000000E+00 0. -1.
        -12    1    6    6    0    0  0.60776017398E+02  0.86499695494E+02 -0.85720218348E+02  0.13610245202E+03  0.00000000000E+00 0.  1.
</event>
<event>
12    1  0.8494789E-002  0.2016355E+03  0.7818608E-02  0.1148706E+00
         21   -1    0    0  501  502  0.00000000000E+00  0.00000000000E+00  0.51176452326E+03  0.51176452326E+03  0.00000000000E+00 0.  1.
         21   -1    0    0  502  503 -0.00000000000E+00 -0.00000000000E+00 -0.10893110240E+03  0.10893110240E+03  0.00000000000E+00 0. -1.
         -6    2    1    2    0  503  0.10190413647E+03  0.20195212655E+02  0.38802157990E+02  0.20533508381E+03  0.17281374231E+03 0.  0.
        -24    2    3    3    0    0  0.99027816259E+01 -0.43093474590E+02  0.22145008664E+02  0.92333942880E+02  0.77974630251E+02 0.  0.
          6    2    1    2  501    0 -0.10190413647E+03 -0.20195212655E+02  0.36403126287E+03  0.41536054186E+03  0.17091904441E+03 0.  0.
         24    2    5    5    0    0 -0.83280371434E+02  0.48168234335E+02  0.19229189747E+03  0.22951946692E+03  0.80294537769E+02 0.  0.
          5    1    5    5  501    0 -0.18623765039E+02 -0.68363446990E+02  0.17173936539E+03  0.18584107494E+03  0.47000000000E+01 0. -1.
        -11    1    6    6    0    0 -0.44687969162E+02 -0.11917395041E+02  0.11669751675E+03  0.12552828091E+03  0.00000000000E+00 0.  1.
         12    1    6    6    0    0 -0.38592402272E+02  0.60085629376E+02  0.75594380723E+02  0.10399118601E+03  0.00000000000E+00 0. -1.
         -5    1    3    3    0  503  0.92001354847E+02  0.63288687245E+02  0.16657149327E+02  0.11300114093E+03  0.47000000000E+01 0.  1.
         11    1    4    4    0    0  0.35834047084E+02 -0.46478627068E+02  0.98929763975E+00  0.58696851827E+02  0.00000000000E+00 0. -1.
        -12    1    4    4    0    0 -0.25931265459E+02  0.33851524774E+01  0.21155711024E+02  0.33637091053E+02  0.00000000000E+00 0.  1.
</event>
<event>
12    1  0.8494789E-002  0.2130838E+03  0.7818608E-02  0.1139280E+00
         21   -1    0    0  501  502  0.00000000000E+00  0.00000000000E+00  0.21804474603E+03  0.21804474603E+03  0.00000000000E+00 0.  1.
         21   -1    0    0  502  503 -0.00000000000E+00 -0.00000000000E+00 -0.26010046016E+03  0.26010046016E+03  0.00000000000E+00 0.  1.
         -6    2    1    2    0  503  0.32095446084E+02 -0.12040200016E+03 -0.12849598623E+03  0.24882910343E+03  0.17285237902E+03 0.  0.
        -24    2    3    3    0    0 -0.35770835582E+02 -0.18940878170E+02 -0.28039261886E+02  0.90671476581E+02  0.76136764538E+02 0.  0.
          6    2    1    2  501    0 -0.32095446084E+02  0.12040200016E+03  0.86440272107E+02  0.22931610276E+03  0.17200928766E+03 0.  0.
         24    2    5    5    0    0  0.35902575487E+02  0.13334877673E+02  0.43634692461E+02  0.95370190902E+02  0.75661569091E+02 0.  0.
          5    1    5    5  501    0 -0.67998021571E+02  0.10706712249E+03  0.42805579646E+02  0.13394591186E+03  0.47000000000E+01 0. -1.
        -13    1    6    6    0    0  0.17758838255E+02 -0.45233130360E+01  0.61563094121E+02  0.64232789561E+02  0.00000000000E+00 0.  1.
         14    1    6    6    0    0  0.18143737232E+02  0.17858190709E+02 -0.17928401661E+02  0.31137401340E+02  0.00000000000E+00 0. -1.
         -5    1    3    3    0  503  0.67866281666E+02 -0.10146112199E+03 -0.10045672435E+03  0.15815762684E+03  0.47000000000E+01 0.  1.
         13    1    4    4    0    0  0.21236444724E+02 -0.12767074172E+02  0.38248515578E+01  0.25072180936E+02  0.00000000000E+00 0. -1.
        -14    1    4    4    0    0 -0.57007280306E+02 -0.61738039980E+01 -0.31864113443E+02  0.65599295645E+02  0.00000000000E+00 0.  1.
</event>
<event>
12    1  0.8494789E-002  0.2887674E+03  0.7818608E-02  0.1091034E+00
         21   -1    0    0  503  502  0.00000000000E+00  0.00000000000E+00  0.68357403541E+03  0.68357403541E+03  0.00000000000E+00 0.  1.
         21   -1    0    0  501  503 -0.00000000000E+00 -0.00000000000E+00 -0.12314654291E+03  0.12314654291E+03  0.00000000000E+00 0. -1.
          6    2    1    2  501    0  0.88073166634E+01 -0.23160157833E+03  0.23881943252E+03  0.37449569996E+03  0.17174238855E+03 0.  0.
         24    2    3    3    0    0 -0.39657643958E+02 -0.13648837987E+03  0.20656056659E+03  0.26287985269E+03  0.78973050576E+02 0.  0.
         -6    2    1    2    0  502 -0.88073166634E+01  0.23160157833E+03  0.32160805998E+03  0.43222487836E+03  0.17224906768E+03 0.  0.
        -24    2    5    5    0    0 -0.28875215641E+02  0.13348170866E+03  0.94698990016E+02  0.18415221677E+03  0.79328403536E+02 0.  0.
          5    1    3    3  501    0  0.48464960622E+02 -0.95113198468E+02  0.32258865930E+02  0.11161584727E+03  0.47000000000E+01 0. -1.
        -13    1    4    4    0    0 -0.20518987343E+02  0.32168308002E+01  0.18417402026E+02  0.27759278437E+02  0.00000000000E+00 0.  1.
         14    1    4    4    0    0 -0.19138656615E+02 -0.13970521067E+03  0.18814316456E+03  0.23512057425E+03  0.00000000000E+00 0. -1.
         -5    1    5    5    0  502  0.20067898978E+02  0.98119869674E+02  0.22690906997E+03  0.24807266159E+03  0.47000000000E+01 0.  1.
         13    1    6    6    0    0 -0.45944243196E+02  0.95821612324E+02  0.95387781705E+02  0.14279875269E+03  0.00000000000E+00 0. -1.
        -14    1    6    6    0    0  0.17069027555E+02  0.37660096337E+02 -0.68879168888E+00  0.41353464084E+02  0.00000000000E+00 0.  1.
</event>
<event>
12    1  0.8494789E-002  0.2097346E+03  0.7818608E-02  0.1142934E+00
         21   -1    0    0  501  502  0.00000000000E+00  0.00000000000E+00  0.36042854491E+03  0.36042854491E+03  0.00000000000E+00 0. -1.
         21   -1    0    0  502  503 -0.00000000000E+00 -0.00000000000E+00 -0.26565462625E+03  0.26565462625E+03  0.00000000000E+00 0. -1.
         -6    2    1    2    0  503  0.53246252308E+02 -0.10872480834E+03 -0.18570782767E+03  0.27585668010E+03  0.16417449059E+03 0.  0.
        -24    2    3    3    0    0  0.50204860773E+01 -0.45989369852E+02 -0.29246686499E+02  0.10046101747E+03  0.84242625434E+02 0.  0.
          6    2    1    2  501    0 -0.53246252308E+02  0.10872480834E+03  0.28048174634E+03  0.35022649106E+03  0.17126686100E+03 0.  0.
         24    2    5    5    0    0 -0.38097348266E+02  0.11924727950E+03  0.14425726336E+03  0.21267863955E+03  0.93545304934E+02 0.  0.
          5    1    5    5  501    0 -0.15148904041E+02 -0.10522471157E+02  0.13622448297E+03  0.13754785151E+03  0.47000000000E+01 0. -1.
        -11    1    6    6    0    0 -0.48327850406E+01  0.68555653182E+00 -0.12453345134E+02  0.13375784240E+02  0.00000000000E+00 0.  1.
         12    1    6    6    0    0 -0.33264563226E+02  0.11856172297E+03  0.15671060850E+03  0.19930285531E+03  0.00000000000E+00 0. -1.
         -5    1    3    3    0  503  0.48225766230E+02 -0.62735438493E+02 -0.15646114118E+03  0.17539566263E+03  0.47000000000E+01 0.  1.
         11    1    4    4    0    0 -0.10220185535E+02 -0.59806303747E+02 -0.44168650342E+02  0.75047423895E+02  0.00000000000E+00 0. -1.
        -12    1    4    4    0    0  0.15240671612E+02  0.13816933895E+02  0.14921963843E+02  0.25413593575E+02  0.00000000000E+00 0.  1.
</event>
<event>
12    1  0.8494789E-002  0.1730270E+03  0.7818608E-02  0.1174933E+00
         21   -1    0    0  501  502  0.00000000000E+00  0.00000000000E+00  0.57496873577E+02  0.57496873577E+02  0.00000000000E+00 0.  1.
         21   -1    0    0  502  503 -0.00000000000E+00 -0.00000000000E+00 -0.53256831015E+03  0.53256831015E+03  0.00000000000E+00 0.  1.
         -6    2    1    2    0  503 -0.17305202080E+02 -0.60445365363E+01 -0.28640502684E+03  0.33461347220E+03  0.17205327646E+03 0.  0.
        -24    2    3    3    0    0 -0.98198330000E+01  0.46591414970E+02 -0.81610041810E+02  0.12297781822E+03  0.78715664146E+02 0.  0.
          6    2    1    2  501    0  0.17305202080E+02  0.60445365363E+01 -0.18866640974E+03  0.25545171153E+03  0.17124414244E+03 0.  0.
         24    2    5    5    0    0  0.31884356608E+02 -0.20005995135E+02 -0.27339915806E+02  0.91319113941E+02  0.78580261752E+02 0.  0.
          5    1    5    5  501    0 -0.14579154527E+02  0.26050531671E+02 -0.16132649393E+03  0.16413259759E+03  0.47000000000E+01 0. -1.
        -13    1    6    6    0    0 -0.84145236833E+01  0.21578331405E+02  0.67475319363E+01  0.24123801157E+02  0.00000000000E+00 0.  1.
         14    1    6    6    0    0  0.40298880291E+02 -0.41584326540E+02 -0.34087447743E+02  0.67195312784E+02  0.00000000000E+00 0. -1.
         -5    1    3    3    0  503 -0.74853690804E+01 -0.52635951506E+02 -0.20479498503E+03  0.21163565398E+03  0.47000000000E+01 0.  1.
         11    1    4    4    0    0 -0.70796469172E+01  0.33004924722E+02 -0.96739411572E+02  0.10245955401E+03  0.00000000000E+00 0. -1.
        -12    1    4    4    0    0 -0.27401860828E+01  0.13586490248E+02  0.15129369762E+02  0.20518264215E+02  0.00000000000E+00 0.  1.
</event>
<event>
12    1  0.8494789E-002  0.2503171E+03  0.7818608E-02  0.1113223E+00
         21   -1    0    0  503  502  0.00000000000E+00  0.00000000000E+00  0.49633023504E+03  0.49633023504E+03  0.00000000000E+00 0.  1.
         21   -1    0    0  501  503 -0.00000000000E+00 -0.00000000000E+00 -0.13706703409E+03  0.13706703409E+03  0.00000000000E+00 0. -1.
          6    2    1    2  501    0 -0.10284336440E+03 -0.14913508527E+03  0.26991928028E+03  0.36761357362E+03  0.17165456703E+03 0.  0.
         24    2    3    3    0    0 -0.12413871708E+03 -0.89226522202E+02  0.13739360971E+03  0.22055007939E+03  0.79959615968E+02 0.  0.
         -6    2    1    2    0  502  0.10284336440E+03  0.14913508527E+03  0.89343920670E+02  0.26578369551E+03  0.17274433530E+03 0.  0.
        -24    2    5    5    0    0  0.10077847393E+03  0.13584744583E+03  0.12206724577E+02  0.18734223864E+03  0.79607040565E+02 0.  0.
          5    1    3    3  501    0  0.21295352690E+02 -0.59908563072E+02  0.13252567057E+03  0.14706349423E+03  0.47000000000E+01 0. -1.
        -11    1    4    4    0    0 -0.10533312123E+03 -0.35988759889E+02  0.11430828355E+03  0.15955137403E+03  0.00000000000E+00 0.  1.
         12    1    4    4    0    0 -0.18805595854E+02 -0.53237762313E+02  0.23085326158E+02  0.60998705358E+02  0.00000000000E+00 0. -1.
         -5    1    5    5    0  502  0.20648904647E+01  0.13287639444E+02  0.77137196093E+02  0.78441456869E+02  0.47000000000E+01 0.  1.
         11    1    6    6    0    0  0.10444822827E+03  0.86162739677E+02 -0.24090895272E+01  0.13542250112E+03  0.00000000000E+00 0. -1.
        -12    1    6    6    0    0 -0.36697543364E+01  0.49684706154E+02  0.14615814104E+02  0.51919737523E+02  0.00000000000E+00 0.  1.
</event>
<event>
12    1  0.8494789E-002  0.2347835E+03  0.7818608E-02  0.1123349E+00
         21   -1    0    0  501  502  0.00000000000E+00  0.00000000000E+00  0.11223851856E+04  0.11223851856E+04  0.00000000000E+00 0.  1.
         21   -1    0    0  502  503 -0.00000000000E+00 -0.00000000000E+00 -0.68393112471E+02  0.68393112471E+02  0.00000000000E+00 0. -1.
         -6    2    1    2    0  503  0.21834270079E+02  0.15746430172E+03  0.21071024975E+03  0.31547126413E+03  0.17277606164E+03 0.  0.
        -24    2    3    3    0    0 -0.45625515867E+02  0.12259568913E+03  0.16509425700E+03  0.22676077062E+03  0.83981799856E+02 0.  0.
          6    2    1    2  501    0 -0.21834270079E+02 -0.15746430172E+03  0.84328182334E+03  0.87530703390E+03  0.17252949997E+03 0.  0.
         24    2    5    5    0    0 -0.44646455548E+02 -0.16344312790E+03  0.82293666141E+03  0.84380849771E+03  0.77981216112E+02 0.  0.
          5    1    5    5  501    0  0.22812185468E+02  0.59788261800E+01  0.20345161932E+02  0.31498536194E+02  0.47000000000E+01 0. -1.
        -11    1    6    6    0    0 -0.13082128463E+02 -0.14096179691E+03  0.72073043979E+03  0.73450237379E+03  0.00000000000E+00 0.  1.
         12    1    6    6    0    0 -0.31564327085E+02 -0.22481330988E+02  0.10220622162E+03  0.10930612392E+03  0.00000000000E+00 0. -1.
         -5    1    3    3    0  503  0.67459785946E+02  0.34868612589E+02  0.45615992755E+02  0.88710493510E+02  0.47000000000E+01 0.  1.
         11    1    4    4    0    0 -0.12499932703E+02  0.45048725087E+02  0.65788394488E+01  0.47211408346E+02  0.00000000000E+00 0. -1.
        -12    1    4    4    0    0 -0.33125583165E+02  0.77546964044E+02  0.15851541755E+03  0.17954936227E+03  0.00000000000E+00 0.  1.
</event>
<event>
12    1  0.8494789E-002  0.3547302E+03  0.7818608E-02  0.1061045E+00
         21   -1    0    0  503  502  0.00000000000E+00  0.00000000000E+00  0.10636060270E+04  0.10636060270E+04  0.00000000000E+00 0.  1.
         21   -1    0    0  501  503 -0.00000000000E+00 -0.00000000000E+00 -0.12723535847E+03  0.12723535847E+03  0.00000000000E+00 0. -1.
          6    2    1    2  501    0  0.28744745266E+03  0.10634266225E+03  0.30263104462E+03  0.46628216773E+03  0.17860210224E+03 0.  0.
         24    2    3    3    0    0  0.27014510157E+03  0.77811243205E+02  0.31552585820E+03  0.43020198698E+03  0.80524635572E+02 0.  0.
         -6    2    1    2    0  502 -0.28744745266E+03 -0.10634266225E+03  0.63373962396E+03  0.72455921778E+03  0.17153818593E+03 0.  0.
        -24    2    5    5    0    0 -0.24432254542E+03 -0.11086500267E+03  0.61743118586E+03  0.67799459236E+03  0.80441550103E+02 0.  0.
          5    1    3    3  501    0  0.17302351083E+02  0.28531419049E+02 -0.12894813582E+02  0.36080180755E+02  0.47000000000E+01 0. -1.
        -11    1    4    4    0    0  0.92373219311E+02 -0.87097816060E+01  0.12463099651E+03  0.15537553615E+03  0.00000000000E+00 0.  1.
         12    1    4    4    0    0  0.17777188226E+03  0.86521024811E+02  0.19089486169E+03  0.27482645083E+03  0.00000000000E+00 0. -1.
         -5    1    5    5    0  502 -0.43124907235E+02  0.45223404132E+01  0.16308438104E+02  0.46564625417E+02  0.47000000000E+01 0.  1.
         11    1    6    6    0    0 -0.50230031981E+02 -0.48578072012E+02  0.10125136895E+03  0.12302326978E+03  0.00000000000E+00 0. -1.
        -12    1    6    6    0    0 -0.19409251344E+03 -0.62286930656E+02  0.51617981690E+03  0.55497132258E+03  0.00000000000E+00 0.  1.
</event>
<event>
12    1  0.8494789E-002  0.1895129E+03  0.7818608E-02  0.1159047E+00
         21   -1    0    0  503  502  0.00000000000E+00  0.00000000000E+00  0.16280429395E+03  0.16280429395E+03  0.00000000000E+00 0. -1.
         21   -1    0    0  501  503 -0.00000000000E+00 -0.00000000000E+00 -0.22122333592E+03  0.22122333592E+03  0.00000000000E+00 0. -1.
          6    2    1    2  501    0  0.70471972444E+02  0.15709866521E+02 -0.44265126696E+02  0.19398695487E+03  0.17452346092E+03 0.  0.
         24    2    3    3    0    0  0.40114398011E+02  0.75504306411E+02 -0.49317050660E+02  0.12657353408E+03  0.79237761381E+02 0.  0.
         -6    2    1    2    0  502 -0.70471972444E+02 -0.15709866521E+02 -0.14153915273E+02  0.19004067500E+03  0.17521993617E+03 0.  0.
        -24    2    5    5    0    0 -0.28358827673E+02 -0.33899665056E+02 -0.70695918982E+02  0.11707853471E+03  0.82195254914E+02 0.  0.
          5    1    3    3  501    0  0.30357574433E+02 -0.59794439890E+02  0.50519239646E+01  0.67413420793E+02  0.47000000000E+01 0. -1.
        -13    1    4    4    0    0  0.52336362731E+02  0.76101579784E+02 -0.19574839430E+02  0.94412497310E+02  0.00000000000E+00 0.  1.
         14    1    4    4    0    0 -0.12221964720E+02 -0.59727337347E+00 -0.29742211230E+02  0.32161036768E+02  0.00000000000E+00 0. -1.
         -5    1    5    5    0  502 -0.42113144771E+02  0.18189798535E+02  0.56542003709E+02  0.72962140297E+02  0.47000000000E+01 0.  1.
         11    1    6    6    0    0 -0.98399339262E+01  0.25596687840E+02 -0.37555564793E+02  0.46501991086E+02  0.00000000000E+00 0. -1.
        -12    1    6    6    0    0 -0.18518893746E+02 -0.59496352896E+02 -0.33140354189E+02  0.70576543620E+02  0.00000000000E+00 0.  1.
</event>
<event>
12    1  0.8494789E-002  0.1737424E+03  0.7818608E-02  0.1176679E+00
         21   -1    0    0  501  502  0.00000000000E+00  0.00000000000E+00  0.61013317173E+03  0.61013317173E+03  0.00000000000E+00 0.  1.
         21   -1    0    0  502  503 -0.00000000000E+00 -0.00000000000E+00 -0.76134676555E+02  0.76134676555E+02  0.00000000000E+00 0.  1.
         -6    2    1    2    0  503  0.52734947852E+01 -0.21850834989E+02  0.48397892801E+02  0.17052143076E+03  0.16195657932E+03 0.  0.
        -24    2    3    3    0    0  0.28636832876E+02 -0.59592908354E+01  0.87119783401E+02  0.12235648963E+03  0.80781634983E+02 0.  0.
          6    2    1    2  501    0 -0.52734947852E+01  0.21850834989E+02  0.48560060238E+03  0.51574641753E+03  0.17228219127E+03 0.  0.
         24    2    5    5    0    0  0.41293543294E+02  0.31119994796E+02  0.16753404941E+03  0.19412112549E+03  0.83317122237E+02 0.  0.
          5    1    5    5  501    0 -0.46567038079E+02 -0.92691598067E+01  0.31806655297E+03  0.32162529204E+03  0.47000000000E+01 0. -1.
        -11    1    6    6    0    0  0.56341206885E+02  0.44772994351E+02  0.97392976855E+02  0.12109642669E+03  0.00000000000E+00 0.  1.
         12    1    6    6    0    0 -0.15047663591E+02 -0.13652999556E+02  0.70141072551E+02  0.73024698801E+02  0.00000000000E+00 0. -1.
         -5    1    3    3    0  503 -0.23363338091E+02 -0.15891544154E+02 -0.38721890600E+02  0.48164941129E+02  0.47000000000E+01 0.  1.
         11    1    4    4    0    0 -0.24975238557E+02 -0.28434634241E+01  0.73407113887E+01  0.26186520748E+02  0.00000000000E+00 0. -1.
        -12    1    4    4    0    0  0.53612071433E+02 -0.31158274113E+01  0.79779072012E+02  0.96169968883E+02  0.00000000000E+00 0.  1.
</event>
<event>
12    1  0.8494789E-002  0.2770134E+03  0.7818608E-02  0.1097985E+00
         21   -1    0    0  503  502  0.00000000000E+00  0.00000000000E+00  0.31060401081E+03  0.31060401081E+03  0.00000000000E+00 0. -1.
         21   -1    0    0  501  503 -0.00000000000E+00 -0.00000000000E+00 -0.70692396131E+03  0.70692396131E+03  0.00000000000E+00 0. -1.
          6    2    1    2  501    0 -0.16293543937E+03  0.13358559895E+03 -0.61092656266E+03  0.67079630558E+03  0.17984256716E+03 0.  0.
         24    2    3    3    0    0 -0.11123054797E+03  0.11305757986E+03 -0.25349117845E+03  0.30902712606E+03  0.78011126934E+02 0.  0.
         -6    2    1    2    0  502  0.16293543937E+03 -0.13358559895E+03  0.21460661216E+03  0.34673166654E+03  0.17255080686E+03 0.  0.
        -24    2    5    5    0    0  0.66131302289E+02 -0.13961545389E+03  0.11652065823E+03  0.20870868126E+03  0.78207581034E+02 0.  0.
          5    1    3    3  501    0 -0.51704891401E+02  0.20528019096E+02 -0.35743538421E+03  0.36176917952E+03  0.47000000000E+01 0. -1.
        -11    1    4    4    0    0 -0.29343891478E+02  0.75021051047E+02 -0.15953785054E+03  0.17872198472E+03  0.00000000000E+00 0.  1.
         12    1    4    4    0    0 -0.81886656488E+02  0.38036528809E+02 -0.93953327914E+02  0.13030514134E+03  0.00000000000E+00 0. -1.
         -5    1    5    5    0  502  0.96804137078E+02  0.60298549414E+01  0.98085953930E+02  0.13802298528E+03  0.47000000000E+01 0.  1.
         13    1    6    6    0    0  0.77282431855E+02 -0.13084093889E+03  0.12053723651E+03  0.19396172547E+03  0.00000000000E+00 0. -1.
        -14    1    6    6    0    0 -0.11151129566E+02 -0.87745150065E+01 -0.40165782727E+01  0.14746955795E+02  0.00000000000E+00 0.  1.
</event>
<event>
12    1  0.8494789E-002  0.1901715E+03  0.7818608E-02  0.1158516E+00
         21   -1    0    0  501  502  0.00000000000E+00  0.00000000000E+00  0.15314202565E+03  0.15314202565E+03  0.00000000000E+00 0. -1.
         21   -1    0    0  502  503 -0.00000000000E+00 -0.00000000000E+00 -0.38729359520E+03  0.38729359520E+03  0.00000000000E+00 0. -1.
         -6    2    1    2    0  503  0.58229580724E+02  0.49723176958E+02 -0.28669244755E+03  0.34403162529E+03  0.17407504509E+03 0.  0.
        -24    2    3    3    0    0  0.44626840234E+02 -0.38651785204E+02 -0.15806184282E+03  0.18730545978E+03  0.81328185376E+02 0.  0.
          6    2    1    2  501    0 -0.58229580724E+02 -0.49723176958E+02  0.52540878001E+02  0.19640399556E+03  0.17306330406E+03 0.  0.
         24    2    5    5    0    0 -0.37323909775E+02  0.14827191276E+02  0.85627648308E+02  0.12076920537E+03  0.75101178219E+02 0.  0.
          5    1    5    5  501    0 -0.20905670948E+02 -0.64550368234E+02 -0.33086770307E+02  0.75634790185E+02  0.47000000000E+01 0. -1.
        -11    1    6    6    0    0 -0.35288029408E+02  0.34726772725E+02  0.22194351002E+02  0.54256639961E+02  0.00000000000E+00 0.  1.
         12    1    6    6    0    0 -0.20358803670E+01 -0.19899581449E+02  0.63433297307E+02  0.66512565414E+02  0.00000000000E+00 0. -1.
         -5    1    3    3    0  503  0.13602740490E+02  0.88374962162E+02 -0.12863060473E+03  0.15672616552E+03  0.47000000000E+01 0.  1.
         13    1    4    4    0    0 -0.16553919317E+02 -0.17195276496E+02 -0.90795732421E+02  0.93880641265E+02  0.00000000000E+00 0. -1.
        -14    1    4    4    0    0  0.61180759550E+02 -0.21456508708E+02 -0.67266110401E+02  0.93424818510E+02  0.00000000000E+00 0.  1.
</event>
<event>
12    1  0.8494789E-002  0.2521749E+03  0.7818608E-02  0.1113923E+00
         21   -1    0    0  503  502  0.00000000000E+00  0.00000000000E+00  0.89844276663E+02  0.89844276663E+02  0.00000000000E+00 0. -1.
         21   -1    0    0  501  503 -0.00000000000E+00 -0.00000000000E+00 -0.67857122972E+03  0.67857122972E+03  0.00000000000E+00 0. -1.
          6    2    1    2  501    0 -0.12318633781E+03  0.11244569120E+03 -0.33485659320E+03  0.41919100361E+03  0.18913818285E+03 0.  0.
         24    2    3    3    0    0 -0.84882794149E+02  0.62404691669E+02 -0.76256544644E+02  0.15298180354E+03  0.80553940492E+02 0.  0.
         -6    2    1    2    0  502  0.12318633781E+03 -0.11244569120E+03 -0.25387035986E+03  0.34922450277E+03  0.17230405227E+03 0.  0.
        -24    2    5    5    0    0  0.14361410115E+03 -0.64013838688E+02 -0.23359889920E+03  0.29269168071E+03  0.79857326874E+02 0.  0.
          5    1    3    3  501    0 -0.38303543660E+02  0.50040999528E+02 -0.25860004856E+03  0.26620920007E+03  0.47000000000E+01 0. -1.
        -13    1    4    4    0    0 -0.77186845645E+01 -0.18127325504E+02 -0.19959107287E+02  0.28045391511E+02  0.00000000000E+00 0.  1.
         14    1    4    4    0    0 -0.77164109585E+02  0.80532017173E+02 -0.56297437357E+02  0.12493641203E+03  0.00000000000E+00 0. -1.
         -5    1    5    5    0  502 -0.20427763344E+02 -0.48431852509E+02 -0.20271460656E+02  0.56532822058E+02  0.47000000000E+01 0.  1.
         11    1    6    6    0    0  0.11500447207E+03 -0.83158920255E+02 -0.18697030269E+03  0.23473246197E+03  0.00000000000E+00 0. -1.
        -12    1    6    6    0    0  0.28609629080E+02  0.19145081567E+02 -0.46628596515E+02  0.57959218743E+02  0.00000000000E+00 0.  1.
</event>
<event>
12    1  0.8494789E-002  0.2360597E+03  0.7818608E-02  0.1122458E+00
         21   -1    0    0  503  502  0.00000000000E+00  0.00000000000E+00  0.25018776368E+03  0.25018776368E+03  0.00000000000E+00 0. -1.
         21   -1    0    0  501  503 -0.00000000000E+00 -0.00000000000E+00 -0.31259029733E+03  0.31259029733E+03  0.00000000000E+00 0.  1.
          6    2    1    2  501    0 -0.58499616075E+02 -0.15028651048E+03 -0.18212457702E+03  0.29809416870E+03  0.17228619081E+03 0.  0.
         24    2    3    3    0    0  0.18614463774E+02 -0.78874989948E+02 -0.15148218168E+03  0.18851664834E+03  0.77613871408E+02 0.  0.
         -6    2    1    2    0  502  0.58499616075E+02  0.15028651048E+03  0.11972204337E+03  0.26468389232E+03  0.17238316296E+03 0.  0.
        -24    2    5    5    0    0  0.41500176677E+02  0.82200376433E+01  0.64503095316E+02  0.11124632890E+03  0.80157736405E+02 0.  0.
          5    1    3    3  501    0 -0.77114079849E+02 -0.71411520527E+02 -0.30642395341E+02  0.10957752036E+03  0.47000000000E+01 0. -1.
        -11    1    4    4    0    0  0.38041323332E+02 -0.11317240637E+02 -0.37511069830E+02  0.54610462150E+02  0.00000000000E+00 0.  1.
         12    1    4    4    0    0 -0.19426859558E+02 -0.67557749311E+02 -0.11397111185E+03  0.13390618619E+03  0.00000000000E+00 0. -1.
         -5    1    5    5    0  502  0.16999439399E+02  0.14206647283E+03  0.55218948058E+02  0.15343756342E+03  0.47000000000E+01 0.  1.
         13    1    6    6    0    0 -0.46778063028E+00  0.34184093887E+02  0.48555101811E+02  0.59383238422E+02  0.00000000000E+00 0. -1.
        -14    1    6    6    0    0  0.41967957307E+02 -0.25964056244E+02  0.15947993505E+02  0.51863090479E+02  0.00000000000E+00 0.  1.
</event>
<event>
12    1  0.8494789E-002  0.1735986E+03  0.7818608E-02  0.1174239E+00
         21   -1    0    0  501  502  0.00000000000E+00  0.00000000000E+00  0.20387651308E+03  0.20387651308E+03  0.00000000000E+00 0. -1.
         21   -1    0    0  502  503 -0.00000000000E+00 -0.00000000000E+00 -0.15542304642E+03  0.15542304642E+03  0.00000000000E+00 0. -1.
         -6    2    1    2    0  503  0.25541294649E+00 -0.25491789229E+02 -0.16296316876E+02  0.17436181710E+03  0.17171655938E+03 0.  0.
        -24    2    3    3    0    0 -0.33750917323E+02 -0.72900163799E+02 -0.28131536761E+02  0.11464459256E+03  0.76801308194E+02 0.  0.
          6    2    1    2  501    0 -0.25541294649E+00  0.25491789229E+02  0.64749783536E+02  0.18493774239E+03  0.17134625044E+03 0.  0.
         24    2    5    5    0    0 -0.44120263591E+02  0.38468295826E+02 -0.91472415683E+01  0.97901111227E+02  0.77939387398E+02 0.  0.
          5    1    5    5  501    0  0.43864850644E+02 -0.12976506597E+02  0.73897025105E+02  0.87036631167E+02  0.47000000000E+01 0. -1.
        -13    1    6    6    0    0  0.27346434302E+01 -0.26721334180E+01  0.26030147731E+02  0.26309450062E+02  0.00000000000E+00 0.  1.
         14    1    6    6    0    0 -0.46854907021E+02  0.41140429244E+02 -0.35177389299E+02  0.71591661164E+02  0.00000000000E+00 0. -1.
         -5    1    3    3    0  503  0.34006330269E+02  0.47408374570E+02  0.11835219885E+02  0.59717224546E+02  0.47000000000E+01 0.  1.
         13    1    4    4    0    0  0.54462683963E+01 -0.69930999657E+02 -0.27468720531E+02  0.75329523827E+02  0.00000000000E+00 0. -1.
        -14    1    4    4    0    0 -0.39197185719E+02 -0.29691641421E+01 -0.66281622996E+00  0.39315068731E+02  0.00000000000E+00 0.  1.
</event>
<event>
12    1  0.8494789E-002  0.2439582E+03  0.7818608E-02  0.1117355E+00
         21   -1    0    0  503  502  0.00000000000E+00  0.00000000000E+00  0.27264871468E+03  0.27264871468E+03  0.00000000000E+00 0. -1.
         21   -1    0    0  501  503 -0.00000000000E+00 -0.00000000000E+00 -0.48089357240E+03  0.48089357240E+03  0.00000000000E+00 0.  1.
          6    2    1    2  501    0  0.55134724563E+02  0.16273739159E+03 -0.38314180721E+03  0.45421715614E+03  0.17318280522E+03 0.  0.
         24    2    3    3    0    0  0.98427469870E+02  0.82735071679E+02 -0.21129250185E+03  0.25972060928E+03  0.79228875004E+02 0.  0.
         -6    2    1    2    0  502 -0.55134724563E+02 -0.16273739159E+03  0.17489694949E+03  0.29932513095E+03  0.17170700219E+03 0.  0.
        -24    2    5    5    0    0  0.24432053410E+02 -0.29058598977E+02  0.55880912085E+02  0.10339708571E+03  0.78274859239E+02 0.  0.
          5    1    3    3  501    0 -0.43292745308E+02  0.80002319916E+02 -0.17184930536E+03  0.19449654686E+03  0.47000000000E+01 0. -1.
        -13    1    4    4    0    0  0.98993779417E+02  0.93760562144E+02 -0.17536059655E+03  0.22213093031E+03  0.00000000000E+00 0.  1.
         14    1    4    4    0    0 -0.56630954674E+00 -0.11025490465E+02 -0.35931905305E+02  0.37589678973E+02  0.00000000000E+00 0. -1.
         -5    1    5    5    0  502 -0.79566777973E+02 -0.13367879262E+03  0.11901603740E+03  0.19592804524E+03  0.47000000000E+01 0.  1.
         13    1    6    6    0    0  0.14812106671E+02 -0.37374504803E+02  0.72242307650E+02  0.82675287286E+02  0.00000000000E+00 0. -1.
        -14    1    6    6    0    0  0.96199467397E+01  0.83159058261E+01 -0.16361395564E+02  0.20721798421E+02  0.00000000000E+00 0.  1.
</event>
<event>
12    1  0.8494789E-002  0.1961446E+03  0.7818608E-02  0.1153124E+00
         21   -1    0    0  503  502  0.00000000000E+00  0.00000000000E+00  0.10798624430E+04  0.10798624430E+04  0.00000000000E+00 0. -1.
         21   -1    0    0  501  503 -0.00000000000E+00 -0.00000000000E+00 -0.93089454767E+02  0.93089454767E+02  0.00000000000E+00 0. -1.
          6    2    1    2  501    0 -0.32285125143E+02 -0.87825305157E+02  0.32104934443E+02  0.19834233638E+03  0.17191085496E+03 0.  0.
         24    2    3    3    0    0 -0.79163657542E+02 -0.67038574106E+02 -0.13758938638E+02  0.12938387177E+03  0.76090885048E+02 0.  0.
         -6    2    1    2    0  502  0.32285125143E+02  0.87825305157E+02  0.95466805376E+03  0.97460956136E+03  0.17238645738E+03 0.  0.
        -24    2    5    5    0    0  0.76279780161E+02  0.24688410445E+02  0.66850446839E+03  0.67824241619E+03  0.81770583884E+02 0.  0.
          5    1    3    3  501    0  0.46878532399E+02 -0.20786731051E+02  0.45863873081E+02  0.68958464612E+02  0.47000000000E+01 0. -1.
        -11    1    4    4    0    0 -0.81311490538E+01 -0.99169805560E+01 -0.33717025890E+02  0.36073534941E+02  0.00000000000E+00 0.  1.
         12    1    4    4    0    0 -0.71032508488E+02 -0.57121593550E+02  0.19958087252E+02  0.93310336826E+02  0.00000000000E+00 0. -1.
         -5    1    5    5    0  502 -0.43994655018E+02  0.63136894712E+02  0.28616358538E+03  0.29636714517E+03  0.47000000000E+01 0.  1.
         11    1    6    6    0    0 -0.10337514974E+02  0.79776812210E+01  0.25971919609E+03  0.26004724269E+03  0.00000000000E+00 0. -1.
        -12    1    6    6    0    0  0.86617295136E+02  0.16710729224E+02  0.40878527230E+03  0.41819517350E+03  0.00000000000E+00 0.  1.
</event>
<event>
12    1  0.8494789E-002  0.2496961E+03  0.7818608E-02  0.1113510E+00
         21   -1    0    0  501  502  0.00000000000E+00  0.00000000000E+00  0.34308525486E+03  0.34308525486E+03  0.00000000000E+00 0.  1.
         21   -1    0    0  502  503 -0.00000000000E+00 -0.00000000000E+00 -0.40815902988E+03  0.40815902988E+03  0.00000000000E+00 0.  1.
         -6    2    1    2    0  503  0.76853061078E+02  0.16399443221E+03 -0.31234866336E+03  0.39988727075E+03  0.17189408079E+03 0.  0.
        -24    2    3    3    0    0  0.96999241079E+02  0.95106554203E+02 -0.12209689346E+03  0.19649298800E+03  0.72441241833E+02 0.  0.
          6    2    1    2  501    0 -0.76853061078E+02 -0.16399443221E+03  0.24727488834E+03  0.35135701399E+03  0.17177402038E+03 0.  0.
         24    2    5    5    0    0 -0.58174910491E+02 -0.12410453166E+03  0.80858012648E+02  0.17914567873E+03  0.82273331088E+02 0.  0.
          5    1    5    5  501    0 -0.18678150586E+02 -0.39889900553E+02  0.16641687569E+03  0.17221133526E+03  0.47000000000E+01 0. -1.
        -13    1    6    6    0    0 -0.46710315816E+02 -0.24100626889E+02  0.53133129708E+02  0.74738365601E+02  0.00000000000E+00 0.  1.
         14    1    6    6    0    0 -0.11464594676E+02 -0.10000390477E+03  0.27724882940E+02  0.10440731313E+03  0.00000000000E+00 0. -1.
         -5    1    3    3    0  503 -0.20146180002E+02  0.68887878008E+02 -0.19025176990E+03  0.20339428275E+03  0.47000000000E+01 0.  1.
         13    1    4    4    0    0  0.94749272029E+02  0.46988146460E+02 -0.82326683321E+02  0.13402609166E+03  0.00000000000E+00 0. -1.
        -14    1    4    4    0    0  0.22499690502E+01  0.48118407743E+02 -0.39770210140E+02  0.62466896345E+02  0.00000000000E+00 0.  1.
</event>
<event>
12    1  0.8494789E-002  0.1785260E+03  0.7818608E-02  0.1169577E+00
         21   -1    0    0  501  502  0.00000000000E+00  0.00000000000E+00  0.20074986174E+04  0.20074986174E+04  0.00000000000E+00 0.  1.
         21   -1    0    0  502  503 -0.00000000000E+00 -0.00000000000E+00 -0.27778548348E+02  0.27778548348E+02  0.00000000000E+00 0.  1.
         -6    2    1    2    0  503  0.16212118386E+02  0.41131607506E+02  0.32249713462E+03  0.36861352331E+03  0.17296498436E+03 0.  0.
        -24    2    3    3    0    0 -0.14807827673E+02  0.75206814057E+02  0.13206093498E+03  0.17262527650E+03  0.80523654287E+02 0.  0.
          6    2    1    2  501    0 -0.16212118386E+02 -0.41131607506E+02  0.16572229344E+04  0.16666636424E+04  0.17153775292E+03 0.  0.
         24    2    5    5    0    0 -0.71373350715E+02 -0.49258868566E+02  0.12545614250E+04  0.12601329608E+04  0.80561271635E+02 0.  0.
          5    1    5    5  501    0  0.55161232329E+02  0.81272610595E+01  0.40266150944E+03  0.40653068164E+03  0.47000000000E+01 0. -1.
        -11    1    6    6    0    0 -0.28165526766E+02  0.14951818718E+02  0.62808861141E+03  0.62889757319E+03  0.00000000000E+00 0.  1.
         12    1    6    6    0    0 -0.43207823949E+02 -0.64210687284E+02  0.62647281355E+03  0.63123538758E+03  0.00000000000E+00 0. -1.
         -5    1    3    3    0  503  0.31019946059E+02 -0.34075206551E+02  0.19043619964E+03  0.19598824681E+03  0.47000000000E+01 0.  1.
         13    1    4    4    0    0 -0.98612889833E+01  0.62752563007E+02  0.14225134569E+03  0.15579016187E+03  0.00000000000E+00 0. -1.
        -14    1    4    4    0    0 -0.49465386896E+01  0.12454251050E+02 -0.10190410714E+02  0.16835114634E+02  0.00000000000E+00 0.  1.
</event>
<event>
12    1  0.8494789E-002  0.2046120E+03  0.7818608E-02  0.1146022E+00
         21   -1    0    0  503  502  0.00000000000E+00  0.00000000000E+00  0.87901657744E+02  0.87901657744E+02  0.00000000000E+00 0. -1.
         21   -1    0    0  501  503 -0.00000000000E+00 -0.00000000000E+00 -0.52593992876E+03  0.52593992876E+03  0.00000000000E+00 0.  1.
          6    2    1    2  501    0 -0.58221673438E+02  0.95487791602E+02 -0.12373733741E+03  0.23911715660E+03  0.17134294357E+03 0.  0.
         24    2    3    3    0    0  0.10316856162E+02  0.11181086362E+02 -0.11110492209E+03  0.12963282665E+03  0.65030083956E+02 0.  0.
         -6    2    1    2    0  502  0.58221673438E+02 -0.95487791602E+02 -0.31430093361E+03  0.37472442990E+03  0.17066235640E+03 0.  0.
        -24    2    5    5    0    0  0.45356749901E+01  0.12774116576E+02 -0.16119655510E+03  0.17961966853E+03  0.78071413101E+02 0.  0.
          5    1    3    3  501    0 -0.68538529600E+02  0.84306705241E+02 -0.12632415314E+02  0.10948432995E+03  0.47000000000E+01 0. -1.
        -11    1    4    4    0    0  0.35428704926E+02  0.16768910207E+02 -0.51554303111E+02  0.64762918800E+02  0.00000000000E+00 0.  1.
         12    1    4    4    0    0 -0.25111848764E+02 -0.55878238450E+01 -0.59550618982E+02  0.64869907852E+02  0.00000000000E+00 0. -1.
         -5    1    5    5    0  502  0.53685998448E+02 -0.10826190818E+03 -0.15310437851E+03  0.19510476137E+03  0.47000000000E+01 0.  1.
         11    1    6    6    0    0  0.39639453968E+02  0.56574629497E+01 -0.58795457717E+02  0.71135076060E+02  0.00000000000E+00 0. -1.
        -12    1    6    6    0    0 -0.35103778978E+02  0.71166536264E+01 -0.10240109739E+03  0.10848459247E+03  0.00000000000E+00 0.  1.
</event>
<event>
12    1  0.8494789E-002  0.1788773E+03  0.7818608E-02  0.1168968E+00
         21   -1    0    0  503  502  0.00000000000E+00  0.00000000000E+00  0.14978135851E+03  0.14978135851E+03  0.00000000000E+00 0. -1.
         21   -1    0    0  501  503 -0.00000000000E+00 -0.00000000000E+00 -0.24006103138E+03  0.24006103138E+03  0.00000000000E+00 0. -1.
          6    2    1    2  501    0  0.44947010667E+02 -0.28744114636E+01 -0.11029746127E+03  0.21014906362E+03  0.17311442161E+03 0.  0.
         24    2    3    3    0    0  0.49426673173E+01 -0.42466913606E+02 -0.12260488139E+03  0.15234355953E+03  0.79678946267E+02 0.  0.
         -6    2    1    2    0  502 -0.44947010667E+02  0.28744114636E+01  0.20017788406E+02  0.17969332627E+03  0.17280186239E+03 0.  0.
        -24    2    5    5    0    0 -0.24428064091E+02 -0.17685515212E+02 -0.41857410126E+02  0.11117786855E+03  0.98483338230E+02 0.  0.
          5    1    3    3  501    0  0.40004343350E+02  0.39592502142E+02  0.12307420124E+02  0.57805504088E+02  0.47000000000E+01 0. -1.
        -11    1    4    4    0    0 -0.31630891124E+02 -0.13947670766E+01 -0.25122243913E+02  0.40417642035E+02  0.00000000000E+00 0.  1.
         12    1    4    4    0    0  0.36573558441E+02 -0.41072146529E+02 -0.97482637479E+02  0.11192591750E+03  0.00000000000E+00 0. -1.
         -5    1    5    5    0  502 -0.20518946577E+02  0.20559926676E+02  0.61875198532E+02  0.68515457723E+02  0.47000000000E+01 0.  1.
         13    1    6    6    0    0 -0.30097730638E+02  0.67244931488E+01  0.25049927366E+02  0.39731486993E+02  0.00000000000E+00 0. -1.
        -14    1    6    6    0    0  0.56696665473E+01 -0.24410008361E+02 -0.66907337493E+02  0.71446381555E+02  0.00000000000E+00 0.  1.
</event>
<event>
12    1  0.8494789E-002  0.2073752E+03  0.7818608E-02  0.1143828E+00
         21   -1    0    0  503  502  0.00000000000E+00  0.00000000000E+00  0.11249537000E+03  0.11249537000E+03  0.00000000000E+00 0.  1.
         21   -1    0    0  501  503 -0.00000000000E+00 -0.00000000000E+00 -0.38818835197E+03  0.38818835197E+03  0.00000000000E+00 0. -1.
          6    2    1    2  501    0  0.77500924414E+02  0.88900042623E+02 -0.10348454524E+03  0.23176178024E+03  0.17057215721E+03 0.  0.
         24    2    3    3    0    0  0.11076412740E+03  0.79474774424E+02 -0.45686225924E+02  0.16424872914E+03  0.79407065793E+02 0.  0.
         -6    2    1    2    0  502 -0.77500924414E+02 -0.88900042623E+02 -0.17220843673E+03  0.26892194172E+03  0.16956902486E+03 0.  0.
        -24    2    5    5    0    0 -0.81742009140E+02 -0.58909416169E+02 -0.19309768045E+03  0.23182915296E+03  0.79410116446E+02 0.  0.
          5    1    3    3  501    0 -0.33263202984E+02  0.94252681990E+01 -0.57798319315E+02  0.67513051101E+02  0.47000000000E+01 0. -1.
        -11    1    4    4    0    0  0.82673830290E+02  0.94160366728E+02 -0.29827307077E+02  0.12880529929E+03  0.00000000000E+00 0.  1.
         12    1    4    4    0    0  0.28090297108E+02 -0.14685592304E+02 -0.15858918847E+02  0.35443429855E+02  0.00000000000E+00 0. -1.
         -5    1    5    5    0  502  0.42410847260E+01 -0.29990626454E+02  0.20889243721E+02  0.37092788760E+02  0.47000000000E+01 0.  1.
         11    1    6    6    0    0  0.15816865014E+02 -0.92117475852E+01 -0.35362527890E+02  0.39818813283E+02  0.00000000000E+00 0. -1.
        -12    1    6    6    0    0 -0.97558874154E+02 -0.49697668584E+02 -0.15773515256E+03  0.19201033968E+03  0.00000000000E+00 0.  1.
</event>
<event>
12    1  0.8494789E-002  0.2142783E+03  0.7818608E-02  0.1138357E+00
         21   -1    0    0  503  502  0.00000000000E+00  0.00000000000E+00  0.90760590485E+02  0.90760590485E+02  0.00000000000E+00 0.  1.
         21   -1    0    0  501  503 -0.00000000000E+00 -0.00000000000E+00 -0.52383600708E+03  0.52383600708E+03  0.00000000000E+00 0. -1.
          6    2    1    2  501    0  0.10080879781E+03  0.78167526390E+02 -0.15676958357E+03  0.26493947659E+03  0.17129987748E+03 0.  0.
         24    2    3    3    0    0 -0.70411940363E+01  0.20620712831E+02 -0.98604229807E+02  0.12948263892E+03  0.81044231355E+02 0.  0.
         -6    2    1    2    0  502 -0.10080879781E+03 -0.78167526390E+02 -0.27630583303E+03  0.34965712097E+03  0.17217030227E+03 0.  0.
        -24    2    5    5    0    0 -0.30570679301E+02 -0.98909214803E+02 -0.22288115948E+03  0.25888324437E+03  0.81405919679E+02 0.  0.
          5    1    3    3  501    0  0.10784999185E+03  0.57546813559E+02 -0.58165353762E+02  0.13545683767E+03  0.47000000000E+01 0. -1.
        -13    1    4    4    0    0 -0.85587667047E+00  0.51794934513E+02 -0.55375356741E+02  0.75827949335E+02  0.00000000000E+00 0.  1.
         14    1    4    4    0    0 -0.61853173659E+01 -0.31174221683E+02 -0.43228873066E+02  0.53654689590E+02  0.00000000000E+00 0. -1.
         -5    1    5    5    0  502 -0.70238118510E+02  0.20741688414E+02 -0.53424673550E+02  0.90773876606E+02  0.47000000000E+01 0.  1.
         13    1    6    6    0    0 -0.86973565580E+00 -0.86533922399E+02 -0.10185874607E+03  0.13365657603E+03  0.00000000000E+00 0. -1.
        -14    1    6    6    0    0 -0.29700943645E+02 -0.12375292405E+02 -0.12102241341E+03  0.12522666834E+03  0.00000000000E+00 0.  1.
</event>
<event>
12    1  0.8494789E-002  0.1737251E+03  0.7818608E-02  0.1174027E+00
         21   -1    0    0  501  502  0.00000000000E+00  0.00000000000E+00  0.87804401071E+02  0.87804401071E+02  0.00000000000E+00 0. -1.
         21   -1    0    0  502  503 -0.00000000000E+00 -0.00000000000E+00 -0.39241042278E+03  0.39241042278E+03  0.00000000000E+00 0. -1.
         -6    2    1    2    0  503 -0.14731284023E+02  0.18879672430E+02 -0.23692839475E+03  0.29377266734E+03  0.17202866936E+03 0.  0.
        -24    2    3    3    0    0 -0.50670651650E+02  0.25115686199E+01 -0.23605279254E+03  0.25399315444E+03  0.78852892914E+02 0.  0.
          6    2    1    2  501    0  0.14731284023E+02 -0.18879672430E+02 -0.67677626957E+02  0.18644215650E+03  0.17206674220E+03 0.  0.
         24    2    5    5    0    0  0.46468125183E+02 -0.57015085074E+02 -0.80387887990E+02  0.13501086719E+03  0.79722739172E+02 0.  0.
          5    1    5    5  501    0 -0.31736841160E+02  0.38135412643E+02  0.12710261033E+02  0.51431289308E+02  0.47000000000E+01 0. -1.
        -11    1    6    6    0    0  0.22260220181E+02 -0.69484823949E+02 -0.32396750265E+02  0.79832371814E+02  0.00000000000E+00 0.  1.
         12    1    6    6    0    0  0.24207905003E+02  0.12469738876E+02 -0.47991137725E+02  0.55178495380E+02  0.00000000000E+00 0. -1.
         -5    1    3    3    0  503  0.35939367626E+02  0.16368103811E+02 -0.87560220809E+00  0.39779512905E+02  0.47000000000E+01 0.  1.
         11    1    4    4    0    0 -0.62659160157E+02  0.78967974022E+01 -0.10681304228E+03  0.12408688795E+03  0.00000000000E+00 0. -1.
        -12    1    4    4    0    0  0.11988508507E+02 -0.53852287823E+01 -0.12923975026E+03  0.12990626649E+03  0.00000000000E+00 0.  1.
</event>
<event>
12    1  0.8494789E-002  0.1838319E+03  0.7818608E-02  0.1164682E+00
         21   -1    0    0  503  502  0.00000000000E+00  0.00000000000E+00  0.20701699553E+03  0.20701699553E+03  0.00000000000E+00 0. -1.
         21   -1    0    0  501  503 -0.00000000000E+00 -0.00000000000E+00 -0.16229628037E+03  0.16229628037E+03  0.00000000000E+00 0. -1.
          6    2    1    2  501    0 -0.52885531105E+02  0.25531365562E+02  0.75848260543E+01  0.18398834992E+03  0.17419946410E+03 0.  0.
         24    2    3    3    0    0 -0.98666352652E+02  0.35672652687E+02 -0.11297525033E+02  0.13322061895E+03  0.81317353283E+02 0.  0.
         -6    2    1    2    0  502  0.52885531105E+02 -0.25531365562E+02  0.37135889101E+02  0.18532492598E+03  0.17180664685E+03 0.  0.
        -24    2    5    5    0    0 -0.13377501471E+02 -0.38087291713E+02 -0.28094829439E+02  0.91380381650E+02  0.77015942334E+02 0.  0.
          5    1    3    3  501    0  0.45780821547E+02 -0.10141287125E+02  0.18882351088E+02  0.50767730978E+02  0.47000000000E+01 0. -1.
        -11    1    4    4    0    0 -0.64835523743E+02 -0.19694861741E+02 -0.82860117789E+01  0.68265589496E+02  0.00000000000E+00 0.  1.
         12    1    4    4    0    0 -0.33830828909E+02  0.55367514428E+02 -0.30115132546E+01  0.64955029449E+02  0.00000000000E+00 0. -1.
         -5    1    5    5    0  502  0.66263032577E+02  0.12555926151E+02  0.65230718540E+02  0.93944544328E+02  0.47000000000E+01 0.  1.
         13    1    6    6    0    0 -0.35575714080E+02 -0.36528192268E+02  0.52852451694E+01  0.51262794297E+02  0.00000000000E+00 0. -1.
        -14    1    6    6    0    0  0.22198212609E+02 -0.15590994450E+01 -0.33380074608E+02  0.40117587352E+02  0.00000000000E+00 0.  1.
</event>
<event>
12    1  0.8494789E-002  0.2477730E+03  0.7818608E-02  0.1115042E+00
         21   -1    0    0  501  502  0.00000000000E+00  0.00000000000E+00  0.26078414984E+03  0.26078414984E+03  0.00000000000E+00 0. -1.
         21   -1    0    0  502  503 -0.00000000000E+00 -0.00000000000E+00 -0.59634386653E+03  0.59634386653E+03  0.00000000000E+00 0.  1.
         -6    2    1    2    0  503 -0.97841003368E+02  0.14649877608E+03 -0.50233259283E+03  0.56011562536E+03  0.17423181863E+03 0.  0.
        -24    2    3    3    0    0  0.16723544198E+02  0.34561403206E+02 -0.22232076700E+03  0.23749553360E+03  0.74185156992E+02 0.  0.
          6    2    1    2  501    0  0.97841003368E+02 -0.14649877608E+03  0.16677287614E+03  0.29701239101E+03  0.17137215313E+03 0.  0.
         24    2    5    5    0    0  0.43600030694E+02 -0.41072128835E+02  0.13673870251E+03  0.17461548480E+03  0.90582627055E+02 0.  0.
          5    1    5    5  501    0  0.54240972675E+02 -0.10542664724E+03  0.30034173632E+02  0.12239690622E+03  0.47000000000E+01 0. -1.
        -11    1    6    6    0    0  0.26827289875E+01 -0.35449848286E+02  0.42093486571E+01  0.35799544613E+02  0.00000000000E+00 0.  1.
         12    1    6    6    0    0  0.40917301706E+02 -0.56222805491E+01  0.13252935385E+03  0.13881594019E+03  0.00000000000E+00 0. -1.
         -5    1    3    3    0  503 -0.11456454757E+03  0.11193737287E+03 -0.28001182583E+03  0.32262009176E+03  0.47000000000E+01 0.  1.
         13    1    4    4    0    0  0.31220739130E+02  0.14528991293E+02 -0.37050175623E+02  0.50582028958E+02  0.00000000000E+00 0. -1.
        -14    1    4    4    0    0 -0.14497194932E+02  0.20032411913E+02 -0.18527059138E+03  0.18691350464E+03  0.00000000000E+00 0.  1.
</event>
<event>
12    1  0.8494789E-002  0.2330721E+03  0.7818608E-02  0.1125006E+00
         21   -1    0    0  503  502  0.00000000000E+00  0.00000000000E+00  0.14572309286E+03  0.14572309286E+03  0.00000000000E+00 0.  1.
         21   -1    0    0  501  503 -0.00000000000E+00 -0.00000000000E+00 -0.41705642924E+03  0.41705642924E+03  0.00000000000E+00 0. -1.
          6    2    1    2  501    0 -0.13237182427E+03 -0.84812515181E+02 -0.23130536684E+03  0.32629521793E+03  0.16808014136E+03 0.  0.
         24    2    3    3    0    0 -0.43392438730E+02 -0.89913211813E+02 -0.74683929740E+02  0.14602954533E+03  0.76024005093E+02 0.  0.
         -6    2    1    2    0  502  0.13237182427E+03  0.84812515181E+02 -0.40027969536E+02  0.23648430417E+03  0.17206721123E+03 0.  0.
        -24    2    5    5    0    0  0.71159476319E+02  0.51961227055E+02 -0.91373467192E+02  0.14997067055E+03  0.79865207260E+02 0.  0.
          5    1    3    3  501    0 -0.88979385540E+02  0.51006966320E+01 -0.15662143710E+03  0.18026567260E+03  0.47000000000E+01 0. -1.
        -11    1    4    4    0    0 -0.65415017033E+02 -0.66668506582E+02 -0.53548871956E+02  0.10766288084E+03  0.00000000000E+00 0.  1.
         12    1    4    4    0    0  0.22022578304E+02 -0.23244705231E+02 -0.21135057784E+02  0.38366664488E+02  0.00000000000E+00 0. -1.
         -5    1    5    5    0  502  0.61212347950E+02  0.32851288126E+02  0.51345497656E+02  0.86513633622E+02  0.47000000000E+01 0.  1.
         13    1    6    6    0    0 -0.17076345009E+02  0.11798434663E+02 -0.24935732094E+02  0.32443725964E+02  0.00000000000E+00 0. -1.
        -14    1    6    6    0    0  0.88235821329E+02  0.40162792393E+02 -0.66437735098E+02  0.11752694458E+03  0.00000000000E+00 0.  1.
</event>
<event>
12    1  0.8494789E-002  0.1842390E+03  0.7818608E-02  0.1163808E+00
         21   -1    0    0  503  502  0.00000000000E+00  0.00000000000E+00  0.15278981906E+03  0.15278981906E+03  0.00000000000E+00 0. -1.
         21   -1    0    0  501  503 -0.00000000000E+00 -0.00000000000E+00 -0.25129622989E+03  0.25129622989E+03  0.00000000000E+00 0. -1.
          6    2    1    2  501    0  0.62245199676E+02 -0.83705324830E+01 -0.11834451895E+03  0.21897355321E+03  0.17320352520E+03 0.  0.
         24    2    3    3    0    0  0.66773574978E+02  0.42701274940E+02 -0.12360635870E+03  0.16721823798E+03  0.80008112124E+02 0.  0.
         -6    2    1    2    0  502 -0.62245199676E+02  0.83705324830E+01  0.19838108128E+02  0.18511249574E+03  0.17299871343E+03 0.  0.
        -24    2    5    5    0    0  0.27494347440E+01  0.68883613627E+01 -0.49042681708E+02  0.90280262073E+02  0.75434290460E+02 0.  0.
          5    1    3    3  501    0 -0.45283753018E+01 -0.51071807423E+02  0.52618397521E+01  0.51755315223E+02  0.47000000000E+01 0. -1.
        -11    1    4    4    0    0  0.26078787361E+02  0.35106221300E+02 -0.80460468555E+01  0.44466715577E+02  0.00000000000E+00 0.  1.
         12    1    4    4    0    0  0.40694787617E+02  0.75950536399E+01 -0.11556031185E+03  0.12275152241E+03  0.00000000000E+00 0. -1.
         -5    1    5    5    0  502 -0.64994634420E+02  0.14821711203E+01  0.68880789837E+02  0.94832233672E+02  0.47000000000E+01 0.  1.
         13    1    6    6    0    0 -0.27213689177E+01 -0.89975283764E+01  0.18461349314E+02  0.20716727159E+02  0.00000000000E+00 0. -1.
        -14    1    6    6    0    0  0.54708036617E+01  0.15885889739E+02 -0.67504031022E+02  0.69563534914E+02  0.00000000000E+00 0.  1.
</event>
<event>
12    1  0.8494789E-002  0.1793677E+03  0.7818608E-02  0.1168881E+00
         21   -1    0    0  503  502  0.00000000000E+00  0.00000000000E+00  0.20854690508E+03  0.20854690508E+03  0.00000000000E+00 0. -1.
         21   -1    0    0  501  503 -0.00000000000E+00 -0.00000000000E+00 -0.22114833319E+03  0.22114833319E+03  0.00000000000E+00 0. -1.
          6    2    1    2  501    0 -0.93352759704E+01  0.47991385286E+02 -0.12585568169E+03  0.21756483360E+03  0.17060036274E+03 0.  0.
         24    2    3    3    0    0  0.10439383815E+02  0.87819809108E+02 -0.30443286056E+02  0.11219426962E+03  0.61963383245E+02 0.  0.
         -6    2    1    2    0  502  0.93352759704E+01 -0.47991385286E+02  0.11325425358E+03  0.21213040468E+03  0.17257596065E+03 0.  0.
        -24    2    5    5    0    0 -0.53399843620E+01  0.37526436808E+02  0.78134208358E+02  0.11840650838E+03  0.80488494940E+02 0.  0.
          5    1    3    3  501    0 -0.19774659786E+02 -0.39828423823E+02 -0.95412395630E+02  0.10537056398E+03  0.47000000000E+01 0. -1.
        -13    1    4    4    0    0 -0.16955024764E+01  0.66366672443E+02 -0.48008601243E+02  0.81928235261E+02  0.00000000000E+00 0.  1.
         14    1    4    4    0    0  0.12134886292E+02  0.21453136666E+02  0.17565315187E+02  0.30266034357E+02  0.00000000000E+00 0. -1.
         -5    1    5    5    0  502  0.14675260332E+02 -0.85517822093E+02  0.35120045218E+02  0.93723896299E+02  0.47000000000E+01 0.  1.
         11    1    6    6    0    0 -0.40853238783E+02  0.18988401490E+02  0.58377026615E+02  0.73738888970E+02  0.00000000000E+00 0. -1.
        -12    1    6    6    0    0  0.35513254421E+02  0.18538035318E+02  0.19757181743E+02  0.44667619406E+02  0.00000000000E+00 0.  1.
</event>
<event>
12    1  0.8494789E-002  0.2528906E+03  0.7818608E-02  0.1111635E+00
         21   -1    0    0  501  502  0.00000000000E+00  0.00000000000E+00  0.58180141603E+03  0.58180141603E+03  0.00000000000E+00 0.  1.
         21   -1    0    0  502  503 -0.00000000000E+00 -0.00000000000E+00 -0.33866675544E+03  0.33866675544E+03  0.00000000000E+00 0.  1.
         -6    2    1    2    0  503  0.13719252308E+03  0.12349558456E+03 -0.25707304905E+03  0.35996713715E+03  0.17151337989E+03 0.  0.
        -24    2    3    3    0    0  0.11976567270E+03  0.70956111730E+02 -0.90512654251E+02  0.18438653903E+03  0.80170250391E+02 0.  0.
          6    2    1    2  501    0 -0.13719252308E+03 -0.12349558456E+03  0.50020770964E+03  0.56050103432E+03  0.17286037401E+03 0.  0.
         24    2    5    5    0    0 -0.16045874646E+03 -0.82279241397E+02  0.44964686957E+03  0.49108495087E+03  0.80406708515E+02 0.  0.
          5    1    5    5  501    0  0.23266223379E+02 -0.41216343164E+02  0.50560840069E+02  0.69416083458E+02  0.47000000000E+01 0. -1.
        -11    1    6    6    0    0 -0.51071416429E+02 -0.69170569879E+02  0.16967841972E+03  0.19021993437E+03  0.00000000000E+00 0.  1.
         12    1    6    6    0    0 -0.10938733003E+03 -0.13108671518E+02  0.27996844984E+03  0.30086501649E+03  0.00000000000E+00 0. -1.
         -5    1    3    3    0  503  0.17426850385E+02  0.52539472831E+02 -0.16656039480E+03  0.17558059812E+03  0.47000000000E+01 0.  1.
         11    1    4    4    0    0  0.32903447365E+02  0.34270335713E+01 -0.62715508052E+02  0.70905686358E+02  0.00000000000E+00 0. -1.
        -12    1    4    4    0    0  0.86862225331E+02  0.67529078159E+02 -0.27797146198E+02  0.11348085267E+03  0.00000000000E+00 0.  1.
</event>
<event>
12    1  0.8494789E-002  0.1833348E+03  0.7818608E-02  0.1166542E+00
         21   -1    0    0  501  502  0.00000000000E+00  0.00000000000E+00  0.31349245943E+03  0.31349245943E+03  0.00000000000E+00 0.  1.
         21   -1    0    0  502  503 -0.00000000000E+00 -0.00000000000E+00 -0.10990765772E+03  0.10990765772E+03  0.00000000000E+00 0.  1.
         -6    2    1    2    0  503 -0.59256558174E+01 -0.50995686444E+02  0.45129663578E+02  0.18107871211E+03  0.16768166272E+03 0.  0.
        -24    2    3    3    0    0  0.34249989632E+02 -0.29366334009E+02 -0.27483877627E+02  0.95190833219E+02  0.79186411944E+02 0.  0.
          6    2    1    2  501    0  0.59256558174E+01  0.50995686444E+02  0.15845513813E+03  0.24232140504E+03  0.17599988384E+03 0.  0.
         24    2    5    5    0    0 -0.56223384598E+01 -0.24007422476E+02  0.14284579762E+03  0.16470333994E+03  0.78193997631E+02 0.  0.
          5    1    5    5  501    0  0.11547994277E+02  0.75003108920E+02  0.15609340507E+02  0.77618065104E+02  0.47000000000E+01 0. -1.
        -13    1    6    6    0    0  0.13872292932E+02  0.24922151304E+02  0.39649356350E+02  0.48842866376E+02  0.00000000000E+00 0.  1.
         14    1    6    6    0    0 -0.19494631392E+02 -0.48929573780E+02  0.10319644127E+03  0.11586047356E+03  0.00000000000E+00 0. -1.
         -5    1    3    3    0  503 -0.40175645449E+02 -0.21629352435E+02  0.72613541205E+02  0.85887878891E+02  0.47000000000E+01 0.  1.
         13    1    4    4    0    0  0.18305896578E+02  0.21439805734E+02  0.10173901589E+02  0.29971309498E+02  0.00000000000E+00 0. -1.
        -14    1    4    4    0    0  0.15944093053E+02 -0.50806139744E+02 -0.37657779216E+02  0.65219523721E+02  0.00000000000E+00 0.  1.
</event>
<event>
12    1  0.8494789E-002  0.2232971E+03  0.7818608E-02  0.1131670E+00
         21   -1    0    0  501  502  0.00000000000E+00  0.00000000000E+00  0.50870507974E+03  0.50870507974E+03  0.00000000000E+00 0.  1.
         21   -1    0    0  502  503 -0.00000000000E+00 -0.00000000000E+00 -0.14051321483E+03  0.14051321483E+03  0.00000000000E+00 0.  1.
         -6    2    1    2    0  503  0.28208057432E+01 -0.14019759644E+03  0.41269640288E+01  0.22212951455E+03  0.17222417488E+03 0.  0.
        -24    2    3    3    0    0  0.35651095597E+02 -0.23351507641E+02  0.35960638059E+02  0.96565549974E+02  0.78838089943E+02 0.  0.
          6    2    1    2  501    0 -0.28208057432E+01  0.14019759644E+03  0.36406490088E+03  0.42708878001E+03  0.17377643962E+03 0.  0.
         24    2    5    5    0    0  0.39532365637E+02  0.10265219779E+03  0.33809667840E+03  0.36463970745E+03  0.80947332615E+02 0.  0.
          5    1    5    5  501    0 -0.42353171380E+02  0.37545398644E+02  0.25968222476E+02  0.62449072562E+02  0.47000000000E+01 0. -1.
        -11    1    6    6    0    0 -0.24762547111E+02  0.33631909919E+02  0.90076773016E+02  0.99288036244E+02  0.00000000000E+00 0.  1.
         12    1    6    6    0    0  0.64294912748E+02  0.69020287874E+02  0.24801990539E+03  0.26535167121E+03  0.00000000000E+00 0. -1.
         -5    1    3    3    0  503 -0.32830289853E+02 -0.11684608880E+03 -0.31833674030E+02  0.12556396458E+03  0.47000000000E+01 0.  1.
         13    1    4    4    0    0  0.10500552730E+02 -0.83167752915E+01  0.58236923562E+02  0.59757590521E+02  0.00000000000E+00 0. -1.
        -14    1    4    4    0    0  0.25150542866E+02 -0.15034732350E+02 -0.22276285503E+02  0.36807959453E+02  0.00000000000E+00 0.  1.
</event>
<event>
12    1  0.8494789E-002  0.2286534E+03  0.7818608E-02  0.1127707E+00
         21   -1    0    0  501  502  0.00000000000E+00  0.00000000000E+00  0.30705632219E+03  0.30705632219E+03  0.00000000000E+00 0. -1.
         21   -1    0    0  502  503 -0.00000000000E+00 -0.00000000000E+00 -0.34623192050E+03  0.34623192050E+03  0.00000000000E+00 0.  1.
         -6    2    1    2    0  503  0.30171597313E+02 -0.14736547406E+03 -0.25278528296E+03  0.34085591986E+03  0.17220757996E+03 0.  0.
        -24    2    3    3    0    0 -0.85966660278E+01 -0.16269501636E+03 -0.23130833255E+03  0.29372501166E+03  0.78913032828E+02 0.  0.
          6    2    1    2  501    0 -0.30171597313E+02  0.14736547406E+03  0.21360968464E+03  0.31243232283E+03  0.17134162001E+03 0.  0.
         24    2    5    5    0    0  0.38926092138E+02  0.35596261844E+02  0.94621947498E+02  0.13509924899E+03  0.80722733000E+02 0.  0.
          5    1    5    5  501    0 -0.69097689451E+02  0.11176921222E+03  0.11898773714E+03  0.17733307384E+03  0.47000000000E+01 0. -1.
        -13    1    6    6    0    0 -0.68058682087E+01 -0.20436300968E+02  0.99052689049E+01  0.23708154534E+02  0.00000000000E+00 0.  1.
         14    1    6    6    0    0  0.45731960347E+02  0.56032562812E+02  0.84716678593E+02  0.11139109446E+03  0.00000000000E+00 0. -1.
         -5    1    3    3    0  503  0.38768263341E+02  0.15329542295E+02 -0.21476950403E+02  0.47130908203E+02  0.47000000000E+01 0.  1.
         11    1    4    4    0    0  0.39203703358E+01 -0.69101990824E+02 -0.38901194791E+02  0.79396205171E+02  0.00000000000E+00 0. -1.
        -12    1    4    4    0    0 -0.12517036364E+02 -0.93593025533E+02 -0.19240713776E+03  0.21432880649E+03  0.00000000000E+00 0.  1.
</event>
<event>
12    1  0.8494789E-002  0.2727613E+03  0.7818608E-02  0.1100049E+00
         21   -1    0    0  503  502  0.00000000000E+00  0.00000000000E+00  0.30199928741E+03  0.30199928741E+03  0.00000000000E+00 0. -1.
         21   -1    0    0  501  503 -0.00000000000E+00 -0.00000000000E+00 -0.34070474580E+03  0.34070474580E+03  0.00000000000E+00 0.  1.
          6    2    1    2  501    0 -0.10664681562E+03  0.18038783450E+03 -0.19044294544E+03  0.33266683305E+03  0.17460066501E+03 0.  0.
         24    2    3    3    0    0 -0.99728454006E+02  0.12320564672E+03 -0.53965034564E+02  0.18445760093E+03  0.77375614145E+02 0.  0.
         -6    2    1    2    0  502  0.10664681562E+03 -0.18038783450E+03  0.15173748705E+03  0.31003720016E+03  0.17083760239E+03 0.  0.
        -24    2    5    5    0    0  0.14180573047E+03 -0.16301007167E+03  0.13808159381E+03  0.26824354807E+03  0.78784045793E+02 0.  0.
          5    1    3    3  501    0 -0.69183616130E+01  0.57182187787E+02 -0.13647791087E+03  0.14820923211E+03  0.47000000000E+01 0. -1.
        -11    1    4    4    0    0 -0.74911196157E+02  0.53137915476E+02 -0.60276683099E+02  0.10985719774E+03  0.00000000000E+00 0.  1.
         12    1    4    4    0    0 -0.24817257848E+02  0.70067731241E+02  0.63116485347E+01  0.74600403187E+02  0.00000000000E+00 0. -1.
         -5    1    5    5    0  502 -0.35158914854E+02 -0.17377762831E+02  0.13655893234E+02  0.41793652087E+02  0.47000000000E+01 0.  1.
         11    1    6    6    0    0  0.42563302505E+02 -0.39616579809E+02  0.40017442875E-02  0.58147296858E+02  0.00000000000E+00 0. -1.
        -12    1    6    6    0    0  0.99242427968E+02 -0.12339349186E+03  0.13807759207E+03  0.21009625122E+03  0.00000000000E+00 0.  1.
</event>
<event>
12    1  0.8494789E-002  0.1729677E+03  0.7818608E-02  0.1174803E+00
         21   -1    0    0  503  502  0.00000000000E+00  0.00000000000E+00  0.42584641883E+03  0.42584641883E+03  0.00000000000E+00 0.  1.
         21   -1    0    0  501  503 -0.00000000000E+00 -0.00000000000E+00 -0.14936018291E+03  0.14936018291E+03  0.00000000000E+00 0.  1.
          6    2    1    2  501    0 -0.34998276912E+02 -0.18939896198E+02 -0.71081678732E+02  0.18700382278E+03  0.16832773280E+03 0.  0.
         24    2    3    3    0    0  0.29611895847E+02 -0.50644442928E+02 -0.54900539658E+02  0.11308784367E+03  0.79580570210E+02 0.  0.
         -6    2    1    2    0  502  0.34998276912E+02  0.18939896198E+02  0.34756791466E+03  0.38820277896E+03  0.16826866386E+03 0.  0.
        -24    2    5    5    0    0  0.84800853361E+02  0.12160642153E+02  0.27306795340E+03  0.29821061744E+03  0.83811689132E+02 0.  0.
          5    1    3    3  501    0 -0.64610172759E+02  0.31704546730E+02 -0.16181139073E+02  0.73915979118E+02  0.47000000000E+01 0. -1.
        -11    1    4    4    0    0 -0.20767011385E+02  0.55648810739E+00  0.27870808102E+01  0.20960588263E+02  0.00000000000E+00 0.  1.
         12    1    4    4    0    0  0.50378907232E+02 -0.51200931035E+02 -0.57687620469E+02  0.92127255403E+02  0.00000000000E+00 0. -1.
         -5    1    5    5    0  502 -0.49802576450E+02  0.67792540449E+01  0.74499961261E+02  0.89992161516E+02  0.47000000000E+01 0.  1.
         13    1    6    6    0    0  0.37325196058E+02 -0.96130696029E+01  0.28003895664E+02  0.47642413250E+02  0.00000000000E+00 0. -1.
        -14    1    6    6    0    0  0.47475657303E+02  0.21773711756E+02  0.24506405773E+03  0.25056820419E+03  0.00000000000E+00 0.  1.
</event>
<event>
12    1  0.8494789E-002  0.2050804E+03  0.7818608E-02  0.1145735E+00
         21   -1    0    0  503  502  0.00000000000E+00  0.00000000000E+00  0.41260592728E+03  0.41260592728E+03  0.00000000000E+00 0. -1.
         21   -1    0    0  501  503 -0.00000000000E+00 -0.00000000000E+00 -0.10192557260E+03  0.10192557260E+03  0.00000000000E+00 0. -1.
          6    2    1    2  501    0 -0.80977239278E+02 -0.75923590954E+02  0.17313866712E+03  0.26759891102E+03  0.17120302036E+03 0.  0.
         24    2    3    3    0    0 -0.51800541303E+02  0.22111659716E+02  0.58435863564E+02  0.11384256733E+03  0.79832063809E+02 0.  0.
         -6    2    1    2    0  502  0.80977239278E+02  0.75923590954E+02  0.13754168756E+03  0.24693258886E+03  0.17244211400E+03 0.  0.
        -24    2    5    5    0    0  0.46955754443E+01  0.93392228979E+02  0.10493135851E+03  0.16202340731E+03  0.80602963063E+02 0.  0.
          5    1    3    3  501    0 -0.29176697975E+02 -0.98035250671E+02  0.11470280356E+03  0.15375634368E+03  0.47000000000E+01 0. -1.
        -13    1    4    4    0    0 -0.38818619453E+02  0.41523519039E+01 -0.11322660314E+02  0.40648860736E+02  0.00000000000E+00 0.  1.
         14    1    4    4    0    0 -0.12981921851E+02  0.17959307813E+02  0.69758523878E+02  0.73193706598E+02  0.00000000000E+00 0. -1.
         -5    1    5    5    0  502  0.76281663834E+02 -0.17468638025E+02  0.32610329055E+02  0.84909181558E+02  0.47000000000E+01 0.  1.
         13    1    6    6    0    0 -0.28551612605E+02  0.44260284651E+02  0.15863403486E+02  0.55007408136E+02  0.00000000000E+00 0. -1.
        -14    1    6    6    0    0  0.33247188049E+02  0.49131944328E+02  0.89067955023E+02  0.10701599917E+03  0.00000000000E+00 0.  1.
</event>
<event>
12    1  0.8494789E-002  0.1791603E+03  0.7818608E-02  0.1168890E+00
         21   -1    0    0  503  502  0.00000000000E+00  0.00000000000E+00  0.75815072204E+02  0.75815072204E+02  0.00000000000E+00 0. -1.
         21   -1    0    0  501  503 -0.00000000000E+00 -0.00000000000E+00 -0.90289111690E+03  0.90289111690E+03  0.00000000000E+00 0. -1.
          6    2    1    2  501    0  0.97134305471E+01 -0.43077774127E+02 -0.77173256813E+03  0.79225600648E+03  0.17363288205E+03 0.  0.
         24    2    3    3    0    0 -0.45563069671E+02 -0.19309165070E+02 -0.24758684625E+03  0.26464699782E+03  0.79309204035E+02 0.  0.
         -6    2    1    2    0  502 -0.97134305471E+01  0.43077774127E+02 -0.55343476566E+02  0.18645018263E+03  0.17248398432E+03 0.  0.
        -24    2    5    5    0    0 -0.35712983458E+02  0.60948188178E+02  0.16261401506E+02  0.10806219239E+03  0.80143030984E+02 0.  0.
          5    1    3    3  501    0  0.55276500218E+02 -0.23768609057E+02 -0.52414572188E+03  0.52760900866E+03  0.47000000000E+01 0. -1.
        -11    1    4    4    0    0 -0.56397440430E+02 -0.30570097717E+02 -0.23758604006E+03  0.24609414579E+03  0.00000000000E+00 0.  1.
         12    1    4    4    0    0  0.10834370760E+02  0.11260932647E+02 -0.10000806188E+02  0.18552852024E+02  0.00000000000E+00 0. -1.
         -5    1    5    5    0  502  0.25999552911E+02 -0.17870414051E+02 -0.71604878072E+02  0.78387990239E+02  0.47000000000E+01 0.  1.
         13    1    6    6    0    0 -0.51762014352E+02  0.14307227176E+02 -0.58254619209E+01  0.54017949663E+02  0.00000000000E+00 0. -1.
        -14    1    6    6    0    0  0.16049030893E+02  0.46640961002E+02  0.22086863427E+02  0.54044242726E+02  0.00000000000E+00 0.  1.
</event>
<event>
12    1  0.8494789E-002  0.2320602E+03  0.7818608E-02  0.1125201E+00
         21   -1    0    0  501  502  0.00000000000E+00  0.00000000000E+00  0.17310385735E+03  0.17310385735E+03  0.00000000000E+00 0. -1.
         21   -1    0    0  502  503 -0.00000000000E+00 -0.00000000000E+00 -0.41072694070E+03  0.41072694070E+03  0.00000000000E+00 0.  1.
         -6    2    1    2    0  503 -0.10831289770E+03  0.11203939387E+03  0.24972541973E+02  0.23339996188E+03  0.17195175127E+03 0.  0.
        -24    2    3    3    0    0 -0.11000417155E+03  0.16937141711E+02  0.16675824807E+02  0.13780590198E+03  0.79527347249E+02 0.  0.
          6    2    1    2  501    0  0.10831289770E+03 -0.11203939387E+03 -0.26259562532E+03  0.35043083618E+03  0.17193254176E+03 0.  0.
         24    2    5    5    0    0  0.98743593636E+02 -0.14774605880E+03 -0.22427934667E+03  0.29698212515E+03  0.79485609613E+02 0.  0.
          5    1    5    5  501    0  0.95693040680E+01  0.35706664936E+02 -0.38316278649E+02  0.53448711029E+02  0.47000000000E+01 0. -1.
        -13    1    6    6    0    0  0.42374617078E+02 -0.19799951975E+02 -0.97973679197E+02  0.10856559347E+03  0.00000000000E+00 0.  1.
         14    1    6    6    0    0  0.56368976558E+02 -0.12794610683E+03 -0.12630566748E+03  0.18841653167E+03  0.00000000000E+00 0. -1.
         -5    1    3    3    0  503  0.16912738444E+01  0.95102252157E+02  0.82967171656E+01  0.95594059900E+02  0.47000000000E+01 0.  1.
         13    1    4    4    0    0 -0.37724761294E+02  0.71597054977E+01  0.45360324544E+02  0.59430447081E+02  0.00000000000E+00 0. -1.
        -14    1    4    4    0    0 -0.72279410255E+02  0.97774362134E+01 -0.28684499737E+02  0.78375454901E+02  0.00000000000E+00 0.  1.
</event>
<event>
12    1  0.8494789E-002  0.2140496E+03  0.7818608E-02  0.1139007E+00
         21   -1    0    0  503  502  0.00000000000E+00  0.00000000000E+00  0.77515648862E+03  0.77515648862E+03  0.00000000000E+00 0.  1.
         21   -1    0    0  501  503 -0.00000000000E+00 -0.00000000000E+00 -0.74143519095E+02  0.74143519095E+02  0.00000000000E+00 0.  1.
          6    2    1    2  501    0 -0.10840057028E+03  0.68954327026E+02  0.15185532310E+03  0.25990087873E+03  0.16728133417E+03 0.  0.
         24    2    3    3    0    0 -0.70714983142E+02  0.10916616273E+03  0.12645928230E+03  0.19903837717E+03  0.81893013007E+02 0.  0.
         -6    2    1    2    0  502  0.10840057028E+03 -0.68954327026E+02  0.54915764642E+03  0.58939912898E+03  0.17120697930E+03 0.  0.
        -24    2    5    5    0    0 -0.74386549676E+01 -0.69411361748E+01  0.20831660110E+03  0.22407862569E+03  0.81926254870E+02 0.  0.
          5    1    3    3  501    0 -0.37685587140E+02 -0.40211835706E+02  0.25396040796E+02  0.60862501567E+02  0.47000000000E+01 0. -1.
        -13    1    4    4    0    0 -0.71928023724E+02  0.81469615867E+02  0.13177668585E+03  0.17080993484E+03  0.00000000000E+00 0.  1.
         14    1    4    4    0    0  0.12130405826E+01  0.27696546864E+02 -0.53174035511E+01  0.28228442326E+02  0.00000000000E+00 0. -1.
         -5    1    5    5    0  502  0.11583922525E+03 -0.62013190851E+02  0.34084104533E+03  0.36532050329E+03  0.47000000000E+01 0.  1.
         13    1    6    6    0    0  0.22038838249E+02 -0.16588528829E+02  0.17993433779E+03  0.18203641283E+03  0.00000000000E+00 0. -1.
        -14    1    6    6    0    0 -0.29477493217E+02  0.96473926538E+01  0.28382263309E+02  0.42042212857E+02  0.00000000000E+00 0.  1.
</event>
<event>
12    1  0.8494789E-002  0.1980043E+03  0.7818608E-02  0.1151645E+00
         21   -1    0    0  501  502  0.00000000000E+00  0.00000000000E+00  0.83729548078E+02  0.83729548078E+02  0.00000000000E+00 0. -1.
         21   -1    0    0  502  503 -0.00000000000E+00 -0.00000000000E+00 -0.64666361813E+03  0.64666361813E+03  0.00000000000E+00 0. -1.
         -6    2    1    2    0  503 -0.94281807593E+02 -0.18490825244E+02 -0.47403650106E+03  0.51334829270E+03  0.17200260296E+03 0.  0.
        -24    2    3    3    0    0  0.17389448012E+02 -0.20396828447E+02 -0.17374477301E+03  0.19292464484E+03  0.79462248427E+02 0.  0.
          6    2    1    2  501    0  0.94281807593E+02  0.18490825244E+02 -0.88897568997E+02  0.21704487351E+03  0.17313211568E+03 0.  0.
         24    2    5    5    0    0 -0.10462102531E+02  0.24744189337E+02 -0.71764049756E+02  0.11062100987E+03  0.79782194075E+02 0.  0.
          5    1    5    5  501    0  0.10474391012E+03 -0.62533640933E+01 -0.17133519240E+02  0.10642386364E+03  0.47000000000E+01 0. -1.
        -13    1    6    6    0    0  0.11674820424E+02  0.43337060863E+02 -0.67987900126E+02  0.81466292660E+02  0.00000000000E+00 0.  1.
         14    1    6    6    0    0 -0.22136922955E+02 -0.18592871525E+02 -0.37761496301E+01  0.29154717208E+02  0.00000000000E+00 0. -1.
         -5    1    3    3    0  503 -0.11167125561E+03  0.19060032031E+01 -0.30029172805E+03  0.32042364786E+03  0.47000000000E+01 0.  1.
         11    1    4    4    0    0 -0.20167552875E+02  0.41867765888E+01 -0.12489966716E+03  0.12658667443E+03  0.00000000000E+00 0. -1.
        -12    1    4    4    0    0  0.37557000887E+02 -0.24583605036E+02 -0.48845105851E+02  0.66337970407E+02  0.00000000000E+00 0.  1.
</event>
<event>
12    1  0.8494789E-002  0.2111783E+03  0.7818608E-02  0.1140920E+00
         21   -1    0    0  501  502  0.00000000000E+00  0.00000000000E+00  0.69040792524E+03  0.69040792524E+03  0.00000000000E+00 0.  1.
         21   -1    0    0  502  503 -0.00000000000E+00 -0.00000000000E+00 -0.89658626959E+03  0.89658626959E+03  0.00000000000E+00 0.  1.
         -6    2    1    2    0  503  0.68763432581E+02  0.98239817802E+02 -0.86764463879E+03  0.89263554191E+03  0.17207998143E+03 0.  0.
        -24    2    3    3    0    0  0.91962625731E+02  0.11951198648E+03 -0.80066137840E+03  0.81847655800E+03  0.78134459032E+02 0.  0.
          6    2    1    2  501    0 -0.68763432581E+02 -0.98239817802E+02  0.66146629443E+03  0.69435865292E+03  0.17382982700E+03 0.  0.
         24    2    5    5    0    0 -0.73917450111E+01 -0.41212187154E+01  0.14244753823E+03  0.16329617635E+03  0.79389657551E+02 0.  0.
          5    1    5    5  501    0 -0.61371687570E+02 -0.94118599086E+02  0.51901875620E+03  0.53106247657E+03  0.47000000000E+01 0. -1.
        -13    1    6    6    0    0  0.10425835193E+02  0.30926781825E+02  0.10111013665E+03  0.10624699340E+03  0.00000000000E+00 0.  1.
         14    1    6    6    0    0 -0.17817580205E+02 -0.35048000541E+02  0.41337401585E+02  0.57049182957E+02  0.00000000000E+00 0. -1.
         -5    1    3    3    0  503 -0.23199193149E+02 -0.21272168682E+02 -0.66983260390E+02  0.74158983918E+02  0.47000000000E+01 0.  1.
         11    1    4    4    0    0  0.91759943979E+02  0.74504841978E+02 -0.46391758677E+03  0.47873832739E+03  0.00000000000E+00 0. -1.
        -12    1    4    4    0    0  0.20268175149E+00  0.45007144506E+02 -0.33674379163E+03  0.33973823061E+03  0.00000000000E+00 0.  1.
</event>
<event>
12    1  0.8494789E-002  0.1810661E+03  0.7818608E-02  0.1167544E+00
         21   -1    0    0  501  502  0.00000000000E+00  0.00000000000E+00  0.80822809297E+02  0.80822809297E+02  0.00000000000E+00 0.  1.
         21   -1    0    0  502  503 -0.00000000000E+00 -0.00000000000E+00 -0.55387138469E+03  0.55387138469E+03  0.00000000000E+00 0.  1.
         -6    2    1    2    0  503  0.23177623899E+02 -0.45807724484E+02 -0.40305892475E+03  0.44057181020E+03  0.17032754696E+03 0.  0.
        -24    2    3    3    0    0  0.60432238294E+02 -0.32350755487E+02 -0.38031518071E+03  0.39465488302E+03  0.80088783316E+02 0.  0.
          6    2    1    2  501    0 -0.23177623899E+02  0.45807724484E+02 -0.69989650643E+02  0.19412238378E+03  0.17363582239E+03 0.  0.
         24    2    5    5    0    0  0.21872901940E+02  0.85802193077E+02 -0.52907918276E+02  0.13132920759E+03  0.81287592983E+02 0.  0.
          5    1    5    5  501    0 -0.45050525839E+02 -0.39994468593E+02 -0.17081732367E+02  0.62793176198E+02  0.47000000000E+01 0. -1.
        -11    1    6    6    0    0 -0.52584086891E+01  0.80225240340E+02 -0.11073772746E+02  0.81156444552E+02  0.00000000000E+00 0.  1.
         12    1    6    6    0    0  0.27131310629E+02  0.55769527367E+01 -0.41834145530E+02  0.50172763034E+02  0.00000000000E+00 0. -1.
         -5    1    3    3    0  503 -0.37254614394E+02 -0.13456968997E+02 -0.22743744041E+02  0.45916927176E+02  0.47000000000E+01 0.  1.
         11    1    4    4    0    0  0.47862858017E+02 -0.13571338358E+02 -0.85092464550E+02  0.98568564591E+02  0.00000000000E+00 0. -1.
        -12    1    4    4    0    0  0.12569380277E+02 -0.18779417130E+02 -0.29522271616E+03  0.29608631843E+03  0.00000000000E+00 0.  1.
</event>
<event>
12    1  0.8494789E-002  0.2094360E+03  0.7818608E-02  0.1142707E+00
         21   -1    0    0  503  502  0.00000000000E+00  0.00000000000E+00  0.44073016040E+03  0.44073016040E+03  0.00000000000E+00 0.  1.
         21   -1    0    0  501  503 -0.00000000000E+00 -0.00000000000E+00 -0.14751095519E+03  0.14751095519E+03  0.00000000000E+00 0.  1.
          6    2    1    2  501    0 -0.71254518487E+02 -0.92971326952E+02 -0.24789470306E+02  0.20746171208E+03  0.16942541161E+03 0.  0.
         24    2    3    3    0    0  0.50955012519E+01 -0.57923959201E+02 -0.61518196152E+02  0.11565358171E+03  0.78804272226E+02 0.  0.
         -6    2    1    2    0  502  0.71254518487E+02  0.92971326952E+02  0.31800867551E+03  0.38077940351E+03  0.17361613518E+03 0.  0.
        -24    2    5    5    0    0 -0.25043405566E+02  0.27447255708E+02  0.17730340116E+03  0.19805896590E+03  0.80064560840E+02 0.  0.
          5    1    3    3  501    0 -0.76350019739E+02 -0.35047367751E+02  0.36728725846E+02  0.91808130374E+02  0.47000000000E+01 0. -1.
        -11    1    4    4    0    0 -0.31639603918E+02 -0.44753683060E+02 -0.51852842596E+02  0.75449810926E+02  0.00000000000E+00 0.  1.
         12    1    4    4    0    0  0.36735105170E+02 -0.13170276141E+02 -0.96653535560E+01  0.40203770779E+02  0.00000000000E+00 0. -1.
         -5    1    5    5    0  502  0.96297924054E+02  0.65524071244E+02  0.14070527436E+03  0.18272043761E+03  0.47000000000E+01 0.  1.
         13    1    6    6    0    0 -0.74318578583E+01 -0.28567312200E+02  0.56910632357E+02  0.64110404092E+02  0.00000000000E+00 0. -1.
        -14    1    6    6    0    0 -0.17611547708E+02  0.56014567909E+02  0.12039276880E+03  0.13394856181E+03  0.00000000000E+00 0.  1.
</event>
<event>
12    1  0.8494789E-002  0.1833109E+03  0.7818608E-02  0.1164684E+00
         21   -1    0    0  503  502  0.00000000000E+00  0.00000000000E+00  0.16010711420E+03  0.16010711420E+03  0.00000000000E+00 0. -1.
         21   -1    0    0  501  503 -0.00000000000E+00 -0.00000000000E+00 -0.30675756517E+03  0.30675756517E+03  0.00000000000E+00 0. -1.
          6    2    1    2  501    0 -0.59833152742E+02 -0.22567851018E+02 -0.20469226916E+03  0.27477592585E+03  0.17179514052E+03 0.  0.
         24    2    3    3    0    0 -0.38938399573E+01  0.29338837933E+02 -0.46331519992E+02  0.98924488694E+02  0.82240594099E+02 0.  0.
         -6    2    1    2    0  502  0.59833152742E+02  0.22567851018E+02  0.58041818187E+02  0.19208875351E+03  0.17158065888E+03 0.  0.
        -24    2    5    5    0    0 -0.12637890285E+02  0.25263153160E+01 -0.19687377843E+02  0.83840736691E+02  0.80470974535E+02 0.  0.
          5    1    3    3  501    0 -0.55939312785E+02 -0.51906688951E+02 -0.15836074917E+03  0.17585143716E+03  0.47000000000E+01 0. -1.
        -13    1    4    4    0    0  0.34009438269E+02  0.11519535935E+02  0.74287535093E+00  0.35915086849E+02  0.00000000000E+00 0.  1.
         14    1    4    4    0    0 -0.37903278227E+02  0.17819301998E+02 -0.47074395343E+02  0.63009401846E+02  0.00000000000E+00 0. -1.
         -5    1    5    5    0  502  0.72471043027E+02  0.20041535702E+02  0.77729196030E+02  0.10824801682E+03  0.47000000000E+01 0.  1.
         13    1    6    6    0    0 -0.26286033594E+02  0.16951317473E+02  0.21609895065E+02  0.38016973721E+02  0.00000000000E+00 0. -1.
        -14    1    6    6    0    0  0.13648143308E+02 -0.14425002157E+02 -0.41297272909E+02  0.45823762970E+02  0.00000000000E+00 0.  1.
</event>
<event>
12    1  0.8494789E-002  0.1821080E+03  0.7818608E-02  0.1167905E+00
         21   -1    0    0  501  502  0.00000000000E+00  0.00000000000E+00  0.45068728147E+02  0.45068728147E+02  0.00000000000E+00 0. -1.
         21   -1    0    0  502  503 -0.00000000000E+00 -0.00000000000E+00 -0.12571796639E+04  0.12571796639E+04  0.00000000000E+00 0. -1.
         -6    2    1    2    0  503 -0.10075431691E+02 -0.25370631309E+01 -0.10307507399E+04  0.10452370388E+04  0.17310525256E+03 0.  0.
        -24    2    3    3    0    0 -0.41648070343E+02 -0.52026063794E+02 -0.82941840249E+03  0.83546861223E+03  0.75044270668E+02 0.  0.
          6    2    1    2  501    0  0.10075431691E+02  0.25370631309E+01 -0.18136019583E+03  0.25701135323E+03  0.18181134190E+03 0.  0.
         24    2    5    5    0    0 -0.48552091125E+02  0.39139180366E+02 -0.12446305341E+03  0.16736607319E+03  0.92904089240E+02 0.  0.
          5    1    5    5  501    0  0.58627522816E+02 -0.36602117235E+02 -0.56897142420E+02  0.89645280039E+02  0.47000000000E+01 0. -1.
        -13    1    6    6    0    0 -0.31532415927E+02 -0.28281557945E+02 -0.46724431614E+02  0.63065936001E+02  0.00000000000E+00 0.  1.
         14    1    6    6    0    0 -0.17019675198E+02  0.67420738311E+02 -0.77738621798E+02  0.10430013719E+03  0.00000000000E+00 0. -1.
         -5    1    3    3    0  503  0.31572638653E+02  0.49489000663E+02 -0.20133233745E+03  0.20976842661E+03  0.47000000000E+01 0.  1.
         13    1    4    4    0    0 -0.38253558414E+02 -0.25834692544E+02 -0.19080136267E+03  0.19630569545E+03  0.00000000000E+00 0. -1.
        -14    1    4    4    0    0 -0.33945119290E+01 -0.26191371250E+02 -0.63861703982E+03  0.63916291678E+03  0.00000000000E+00 0.  1.
</event>
<event>
12    1  0.8494789E-002  0.2148379E+03  0.7818608E-02  0.1137934E+00
         21   -1    0    0  501  502  0.00000000000E+00  0.00000000000E+00  0.70611298694E+03  0.70611298694E+03  0.00000000000E+00 0. -1.
         21   -1    0    0  502  503 -0.00000000000E+00 -0.00000000000E+00 -0.10999734692E+03  0.10999734692E+03  0.00000000000E+00 0.  1.
         -6    2    1    2    0  503  0.45154064280E+02 -0.11980187681E+03  0.37780420034E+02  0.21813456389E+03  0.17252231339E+03 0.  0.
        -24    2    3    3    0    0 -0.20307425354E+02 -0.83286058376E+02 -0.25141212262E+02  0.12015582420E+03  0.80351617841E+02 0.  0.
          6    2    1    2  501    0 -0.45154064280E+02  0.11980187681E+03  0.55833521998E+03  0.59797576997E+03  0.17159669109E+03 0.  0.
         24    2    5    5    0    0 -0.24259053595E+02  0.40153722197E+01  0.13524711275E+03  0.15880751907E+03  0.79519945369E+02 0.  0.
          5    1    5    5  501    0 -0.20895010685E+02  0.11578650459E+03  0.42308810723E+03  0.43916825090E+03  0.47000000000E+01 0. -1.
        -11    1    6    6    0    0 -0.23125911434E+02  0.22571447667E+02  0.12481008381E+02  0.34641789787E+02  0.00000000000E+00 0.  1.
         12    1    6    6    0    0 -0.11331421611E+01 -0.18556075448E+02  0.12276610437E+03  0.12416572929E+03  0.00000000000E+00 0. -1.
         -5    1    3    3    0  503  0.65461489634E+02 -0.36515818436E+02  0.62921632296E+02  0.97978739694E+02  0.47000000000E+01 0.  1.
         11    1    4    4    0    0 -0.83829401593E+01  0.24298861013E+00  0.21971628579E+02  0.23517763320E+02  0.00000000000E+00 0. -1.
        -12    1    4    4    0    0 -0.11924485195E+02 -0.83529046987E+02 -0.47112840841E+02  0.96638060875E+02  0.00000000000E+00 0.  1.
</event>
<event>
12    1  0.8494789E-002  0.2048251E+03  0.7818608E-02  0.1145965E+00
         21   -1    0    0  503  502  0.00000000000E+00  0.00000000000E+00  0.51382042952E+02  0.51382042952E+02  0.00000000000E+00 0. -1.
         21   -1    0    0  501  503 -0.00000000000E+00 -0.00000000000E+00 -0.81659611875E+03  0.81659611875E+03  0.00000000000E+00 0.  1.
          6    2    1    2  501    0 -0.10555668209E+03 -0.25487703889E+02 -0.35096402439E+03  0.40636074906E+03  0.17367059562E+03 0.  0.
         24    2    3    3    0    0 -0.83071409205E+02  0.16422616117E+02 -0.33743230388E+03  0.35668922926E+03  0.78715215961E+02 0.  0.
         -6    2    1    2    0  502  0.10555668209E+03  0.25487703889E+02 -0.41425005141E+03  0.46161741264E+03  0.17232438706E+03 0.  0.
        -24    2    5    5    0    0  0.77146660842E+02  0.35952659981E+02 -0.12533688132E+03  0.17108418826E+03  0.79474930740E+02 0.  0.
          5    1    3    3  501    0 -0.22485272882E+02 -0.41910320006E+02 -0.13531720513E+02  0.49671519804E+02  0.47000000000E+01 0. -1.
        -11    1    4    4    0    0  0.93736549522E+01  0.52654635070E+00 -0.11372621220E+03  0.11411307550E+03  0.00000000000E+00 0.  1.
         12    1    4    4    0    0 -0.92445064157E+02  0.15896069766E+02 -0.22370609167E+03  0.24257615376E+03  0.00000000000E+00 0. -1.
         -5    1    5    5    0  502  0.28410021244E+02 -0.10464956092E+02 -0.28891317009E+03  0.29053322438E+03  0.47000000000E+01 0.  1.
         11    1    6    6    0    0  0.32334185497E+02  0.55012669943E+02 -0.48648741085E+02  0.80240846301E+02  0.00000000000E+00 0. -1.
        -12    1    6    6    0    0  0.44812475345E+02 -0.19060009962E+02 -0.76688140231E+02  0.90843341959E+02  0.00000000000E+00 0.  1.
</event>
<event>
12    1  0.8494789E-002  0.3030143E+03  0.7818608E-02  0.1084280E+00
         21   -1    0    0  503  502  0.00000000000E+00  0.00000000000E+00  0.26152534309E+03  0.26152534309E+03  0.00000000000E+00 0. -1.
         21   -1    0    0  501  503 -0.00000000000E+00 -0.00000000000E+00 -0.49194637367E+03  0.49194637367E+03  0.00000000000E+00 0. -1.
          6    2    1    2  501    0  0.24461303346E+03 -0.78517492468E+01 -0.32091620107E+03  0.44136704931E+03  0.17866302920E+03 0.  0.
         24    2    3    3    0    0  0.22529465803E+03  0.42788708353E+02 -0.27936337488E+03  0.37290988797E+03  0.91811398084E+02 0.  0.
         -6    2    1    2    0  502 -0.24461303346E+03  0.78517492468E+01  0.90495170487E+02  0.31210466745E+03  0.17123890169E+03 0.  0.
        -24    2    5    5    0    0 -0.16607863427E+03 -0.35022795227E+02  0.45167561589E+01  0.18792634345E+03  0.80543159421E+02 0.  0.
          5    1    3    3  501    0  0.19318375432E+02 -0.50640457600E+02 -0.41552826183E+02  0.68457161342E+02  0.47000000000E+01 0. -1.
        -13    1    4    4    0    0  0.14903493920E+03  0.40411101520E+02 -0.24413952048E+03  0.28887467125E+03  0.00000000000E+00 0.  1.
         14    1    4    4    0    0  0.76259718830E+02  0.23776068334E+01 -0.35223854407E+02  0.84035216723E+02  0.00000000000E+00 0. -1.
         -5    1    5    5    0  502 -0.78534399197E+02  0.42874544473E+02  0.85978414328E+02  0.12417832400E+03  0.47000000000E+01 0.  1.
         11    1    6    6    0    0 -0.59019762021E+02  0.26006217235E+02  0.50539290053E+01  0.64693105059E+02  0.00000000000E+00 0. -1.
        -12    1    6    6    0    0 -0.10705887225E+03 -0.61029012461E+02 -0.53717284635E+00  0.12323323839E+03  0.00000000000E+00 0.  1.
</event>
<event>
12    1  0.8494789E-002  0.2624724E+03  0.7818608E-02  0.1106025E+00
         21   -1    0    0  503  502  0.00000000000E+00  0.00000000000E+00  0.29309928512E+03  0.29309928512E+03  0.00000000000E+00 0. -1.
         21   -1    0    0  501  503 -0.00000000000E+00 -0.00000000000E+00 -0.23612954414E+03  0.23612954414E+03  0.00000000000E+00 0.  1.
          6    2    1    2  501    0  0.42235005008E+02  0.19037861435E+03 -0.23264750463E+01  0.26248269270E+03  0.17568135653E+03 0.  0.
         24    2    3    3    0    0  0.99100537773E+02  0.16239770032E+03 -0.11789810630E+02  0.19823111617E+03  0.54430194996E+02 0.  0.
         -6    2    1    2    0  502 -0.42235005008E+02 -0.19037861435E+03  0.59296216029E+02  0.26674613655E+03  0.17207454106E+03 0.  0.
        -24    2    5    5    0    0  0.42125783370E+02 -0.78516473145E+02  0.28356442235E+02  0.12318694718E+03  0.80196745319E+02 0.  0.
          5    1    3    3  501    0 -0.56865532765E+02  0.27980914026E+02  0.94633355842E+01  0.64251576531E+02  0.47000000000E+01 0. -1.
        -13    1    4    4    0    0  0.86875949696E+02  0.10043508759E+03 -0.20867648322E+02  0.13442505794E+03  0.00000000000E+00 0.  1.
         14    1    4    4    0    0  0.12224588076E+02  0.61962612736E+02  0.90778376918E+01  0.63806058237E+02  0.00000000000E+00 0. -1.
         -5    1    5    5    0  502 -0.84360788377E+02 -0.11186214120E+03  0.30939773794E+02  0.14355918937E+03  0.47000000000E+01 0.  1.
         11    1    6    6    0    0  0.20767450033E+02 -0.12837386710E+02  0.45846488042E+02  0.51942140350E+02  0.00000000000E+00 0. -1.
        -12    1    6    6    0    0  0.21358333336E+02 -0.65679086436E+02 -0.17490045807E+02  0.71244806830E+02  0.00000000000E+00 0.  1.
</event>
<event>
12    1  0.8494789E-002  0.2349006E+03  0.7818608E-02  0.1123531E+00
         21   -1    0    0  501  502  0.00000000000E+00  0.00000000000E+00  0.37952588558E+03  0.37952588558E+03  0.00000000000E+00 0.  1.
         21   -1    0    0  502  503 -0.00000000000E+00 -0.00000000000E+00 -0.54727235599E+03  0.54727235599E+03  0.00000000000E+00 0.  1.
         -6    2    1    2    0  503 -0.81107057973E+02  0.13723943381E+03 -0.48141719167E+03  0.53492120546E+03  0.17019155845E+03 0.  0.
        -24    2    3    3    0    0 -0.11975347393E+03  0.11155809422E+03 -0.42021152959E+03  0.45797122339E+03  0.79836138117E+02 0.  0.
          6    2    1    2  501    0  0.81107057973E+02 -0.13723943381E+03  0.31367072126E+03  0.39187703611E+03  0.17252615168E+03 0.  0.
         24    2    5    5    0    0  0.11350699884E+03 -0.14502713074E+03  0.26692945268E+03  0.33428154514E+03  0.81093225853E+02 0.  0.
          5    1    5    5  501    0 -0.32399940868E+02  0.77876969329E+01  0.46741268579E+02  0.57595490971E+02  0.47000000000E+01 0. -1.
        -11    1    6    6    0    0  0.10203796046E+03 -0.15530065595E+03  0.24569546304E+03  0.30805243007E+03  0.00000000000E+00 0.  1.
         12    1    6    6    0    0  0.11469038381E+02  0.10273525208E+02  0.21233989642E+02  0.26229115077E+02  0.00000000000E+00 0. -1.
         -5    1    3    3    0  503  0.38646415957E+02  0.25681339589E+02 -0.61205662086E+02  0.76949982071E+02  0.47000000000E+01 0.  1.
         13    1    4    4    0    0 -0.11341215507E+03  0.63984521949E+02 -0.34494185710E+03  0.36870207586E+03  0.00000000000E+00 0. -1.
        -14    1    4    4    0    0 -0.63413188621E+01  0.47573572272E+02 -0.75269672490E+02  0.89269147528E+02  0.00000000000E+00 0.  1.
</event>
<event>
12    1  0.8494789E-002  0.2013928E+03  0.7818608E-02  0.1148676E+00
         21   -1    0    0  503  502  0.00000000000E+00  0.00000000000E+00  0.58535466154E+03  0.58535466154E+03  0.00000000000E+00 0.  1.
         21   -1    0    0  501  503 -0.00000000000E+00 -0.00000000000E+00 -0.18148621939E+03  0.18148621939E+03  0.00000000000E+00 0. -1.
          6    2    1    2  501    0  0.67383560009E+02  0.80340944176E+02 -0.99672796682E+02  0.22470811671E+03  0.17194144307E+03 0.  0.
         24    2    3    3    0    0  0.11156218414E+03  0.52581665017E+02 -0.86095097789E+02  0.17058998373E+03  0.80483689396E+02 0.  0.
         -6    2    1    2    0  502 -0.67383560009E+02 -0.80340944176E+02  0.50354123884E+03  0.54213276422E+03  0.17134451658E+03 0.  0.
        -24    2    5    5    0    0 -0.70876058229E+02 -0.89542555436E+02  0.23583994919E+03  0.27420938399E+03  0.80802350038E+02 0.  0.
          5    1    3    3  501    0 -0.44178624136E+02  0.27759279159E+02 -0.13577698893E+02  0.54118132980E+02  0.47000000000E+01 0. -1.
        -11    1    4    4    0    0  0.64533868343E+01 -0.14079272789E+02 -0.30635829198E+02  0.34328212225E+02  0.00000000000E+00 0.  1.
         12    1    4    4    0    0  0.10510879731E+03  0.66660937806E+02 -0.55459268591E+02  0.13626177151E+03  0.00000000000E+00 0. -1.
         -5    1    5    5    0  502  0.34924982203E+01  0.92016112599E+01  0.26770128965E+03  0.26792338023E+03  0.47000000000E+01 0.  1.
         13    1    6    6    0    0 -0.20865574978E+02  0.98390898658E+01  0.16812446715E+02  0.28545372184E+02  0.00000000000E+00 0. -1.
        -14    1    6    6    0    0 -0.50010483251E+02 -0.99381645301E+02  0.21902750248E+03  0.24566401181E+03  0.00000000000E+00 0.  1.
</event>
<event>
12    1  0.8494789E-002  0.1908201E+03  0.7818608E-02  0.1159124E+00
         21   -1    0    0  501  502  0.00000000000E+00  0.00000000000E+00  0.96851108691E+02  0.96851108691E+02  0.00000000000E+00 0. -1.
         21   -1    0    0  502  503 -0.00000000000E+00 -0.00000000000E+00 -0.40375052657E+03  0.40375052657E+03  0.00000000000E+00 0. -1.
         -6    2    1    2    0  503 -0.61790098270E+02 -0.30418133543E+02 -0.23427015021E+03  0.30215034598E+03  0.17795799843E+03 0.  0.
        -24    2    3    3    0    0 -0.32210381412E+02 -0.66564782560E+02 -0.65426369111E+02  0.12690237224E+03  0.79719654774E+02 0.  0.
          6    2    1    2  501    0  0.61790098270E+02  0.30418133543E+02 -0.72629267664E+02  0.19845128927E+03  0.17136109419E+03 0.  0.
         24    2    5    5    0    0  0.94938941350E+02  0.60735680682E+02 -0.69139783014E+02  0.15314934710E+03  0.77279929012E+02 0.  0.
          5    1    5    5  501    0 -0.33148843080E+02 -0.30317547138E+02 -0.34894846503E+01  0.45301942178E+02  0.47000000000E+01 0. -1.
        -13    1    6    6    0    0  0.17253330470E+01 -0.12274294426E+02 -0.22897052564E+02  0.26036706664E+02  0.00000000000E+00 0.  1.
         14    1    6    6    0    0  0.93213608303E+02  0.73009975107E+02 -0.46242730450E+02  0.12711264043E+03  0.00000000000E+00 0. -1.
         -5    1    3    3    0  503 -0.29579716858E+02  0.36146649017E+02 -0.16884378110E+03  0.17524797374E+03  0.47000000000E+01 0.  1.
         11    1    4    4    0    0 -0.53039580497E+02 -0.33075033267E+02 -0.60788650700E+02  0.87191828624E+02  0.00000000000E+00 0. -1.
        -12    1    4    4    0    0  0.20829199086E+02 -0.33489749293E+02 -0.46377184115E+01  0.39710543617E+02  0.00000000000E+00 0.  1.
</event>
<event>
12    1  0.8494789E-002  0.2237400E+03  0.7818608E-02  0.1131759E+00
         21   -1    0    0  501  502  0.00000000000E+00  0.00000000000E+00  0.16473322000E+03  0.16473322000E+03  0.00000000000E+00 0. -1.
         21   -1    0    0  502  503 -0.00000000000E+00 -0.00000000000E+00 -0.30097781583E+03  0.30097781583E+03  0.00000000000E+00 0. -1.
         -6    2    1    2    0  503 -0.83497998923E+02 -0.11432004475E+03 -0.85404535898E+02  0.23626757159E+03  0.16878223300E+03 0.  0.
        -24    2    3    3    0    0 -0.65654524720E+02 -0.10305308758E+03  0.24710986404E+01  0.14577143332E+03  0.79452809702E+02 0.  0.
          6    2    1    2  501    0  0.83497998923E+02  0.11432004475E+03 -0.50840059933E+02  0.22944346423E+03  0.17325877504E+03 0.  0.
         24    2    5    5    0    0  0.10159866374E+02  0.11665833602E+03 -0.34667458337E+01  0.14197764130E+03  0.80207493768E+02 0.  0.
          5    1    5    5  501    0  0.73338132549E+02 -0.23382912686E+01 -0.47373314099E+02  0.87465822929E+02  0.47000000000E+01 0. -1.
        -11    1    6    6    0    0  0.43544103917E+02  0.49259471537E+02  0.66700497312E+01  0.66083841334E+02  0.00000000000E+00 0.  1.
         12    1    6    6    0    0 -0.33384237543E+02  0.67398864480E+02 -0.10136795565E+02  0.75893799970E+02  0.00000000000E+00 0. -1.
         -5    1    3    3    0  503 -0.17843474203E+02 -0.11266957172E+02 -0.87875634538E+02  0.90496138266E+02  0.47000000000E+01 0.  1.
         13    1    4    4    0    0 -0.61042759312E+02 -0.92252436325E+02 -0.27153713421E+02  0.11390370769E+03  0.00000000000E+00 0. -1.
        -14    1    4    4    0    0 -0.46117654082E+01 -0.10800651252E+02  0.29624812061E+02  0.31867725637E+02  0.00000000000E+00 0.  1.
</event>
<event>
12    1  0.8494789E-002  0.1756669E+03  0.7818608E-02  0.1172162E+00
         21   -1    0    0  503  502  0.00000000000E+00  0.00000000000E+00  0.13345679400E+04  0.13345679400E+04  0.00000000000E+00 0.  1.
         21   -1    0    0  501  503 -0.00000000000E+00 -0.00000000000E+00 -0.84169628394E+02  0.84169628394E+02  0.00000000000E+00 0.  1.
          6    2    1    2  501    0  0.19591920440E+02 -0.34399053775E+02  0.20627177195E+02  0.17648320147E+03  0.17074455106E+03 0.  0.
         24    2    3    3    0    0  0.25693766452E+02  0.29858154789E+02  0.51838926899E+02  0.10463276865E+03  0.81908869432E+02 0.  0.
         -6    2    1    2    0  502 -0.19591920440E+02  0.34399053775E+02  0.12297711344E+04  0.12422543669E+04  0.17114827155E+03 0.  0.
        -24    2    5    5    0    0 -0.41395334001E+02  0.49981503857E+02  0.11879650518E+04  0.11923741089E+04  0.79267439403E+02 0.  0.
          5    1    3    3  501    0 -0.61018460122E+01 -0.64257208564E+02 -0.31211749703E+02  0.71850432823E+02  0.47000000000E+01 0. -1.
        -13    1    4    4    0    0 -0.33281100204E+01 -0.26918961591E+02  0.15365678131E+02  0.31173881277E+02  0.00000000000E+00 0.  1.
         14    1    4    4    0    0  0.29021876473E+02  0.56777116380E+02  0.36473248768E+02  0.73458887373E+02  0.00000000000E+00 0. -1.
         -5    1    5    5    0  502  0.21803413561E+02 -0.15582450081E+02  0.41806082593E+02  0.49880257970E+02  0.47000000000E+01 0.  1.
         11    1    6    6    0    0 -0.20594239337E+02  0.58494068170E+02  0.47200161401E+03  0.47605798211E+03  0.00000000000E+00 0. -1.
        -12    1    6    6    0    0 -0.20801094664E+02 -0.85125643133E+01  0.71596343777E+03  0.71631612680E+03  0.00000000000E+00 0.  1.
</event>
<event>
12    1  0.8494789E-002  0.2257628E+03  0.7818608E-02  0.1130031E+00
         21   -1    0    0  501  502  0.00000000000E+00  0.00000000000E+00  0.33170349060E+03  0.33170349060E+03  0.00000000000E+00 0. -1.
         21   -1    0    0  502  503 -0.00000000000E+00 -0.00000000000E+00 -0.16004214035E+03  0.16004214035E+03  0.00000000000E+00 0. -1.
         -6    2    1    2    0  503 -0.34496879704E+02 -0.13982781625E+03  0.31986535843E+02  0.22801748024E+03  0.17385908061E+03 0.  0.
        -24    2    3    3    0    0 -0.75196885427E+02 -0.12806616440E+03  0.58807942200E+02  0.17765574120E+03  0.77766794159E+02 0.  0.
          6    2    1    2  501    0  0.34496879704E+02  0.13982781625E+03  0.13967481441E+03  0.26372815072E+03  0.17117719123E+03 0.  0.
         24    2    5    5    0    0  0.30296987472E+02  0.13888230090E+02  0.80275004917E+02  0.12434075594E+03  0.88914322735E+02 0.  0.
          5    1    5    5  501    0  0.41998922321E+01  0.12593958616E+03  0.59399809490E+02  0.13938739478E+03  0.47000000000E+01 0. -1.
        -11    1    6    6    0    0  0.48321162695E+02  0.35193327976E+02  0.30104519618E+02  0.66931212448E+02  0.00000000000E+00 0.  1.
         12    1    6    6    0    0 -0.18024175223E+02 -0.21305097887E+02  0.50170485299E+02  0.57409543489E+02  0.00000000000E+00 0. -1.
         -5    1    3    3    0  503  0.40700005723E+02 -0.11761651856E+02 -0.26821406357E+02  0.50361739040E+02  0.47000000000E+01 0.  1.
         13    1    4    4    0    0  0.14492378181E+02 -0.23360160204E+02  0.21300746691E+02  0.34777117760E+02  0.00000000000E+00 0. -1.
        -14    1    4    4    0    0 -0.89689263608E+02 -0.10470600419E+03  0.37507195509E+02  0.14287862344E+03  0.00000000000E+00 0.  1.
</event>
<event>
12    1  0.8494789E-002  0.2091763E+03  0.7818608E-02  0.1142311E+00
         21   -1    0    0  503  502  0.00000000000E+00  0.00000000000E+00  0.45806715867E+02  0.45806715867E+02  0.00000000000E+00 0.  1.
         21   -1    0    0  501  503 -0.00000000000E+00 -0.00000000000E+00 -0.96195073161E+03  0.96195073161E+03  0.00000000000E+00 0. -1.
          6    2    1    2  501    0 -0.79292952793E+02  0.87071879858E+02 -0.41026235354E+03  0.46051051146E+03  0.17287523768E+03 0.  0.
         24    2    3    3    0    0 -0.10842636494E+03  0.49557554111E+02 -0.21436642574E+03  0.25888366585E+03  0.82798310228E+02 0.  0.
         -6    2    1    2    0  502  0.79292952793E+02 -0.87071879858E+02 -0.50588166220E+03  0.54724693602E+03  0.17231966867E+03 0.  0.
        -24    2    5    5    0    0  0.32878624356E+02 -0.95124968251E+02 -0.19385571650E+03  0.23165000494E+03  0.77148703455E+02 0.  0.
          5    1    3    3  501    0  0.29133412143E+02  0.37514325748E+02 -0.19589592781E+03  0.20162684561E+03  0.47000000000E+01 0. -1.
        -13    1    4    4    0    0 -0.80257195440E+02  0.55803640029E+00 -0.80968468418E+02  0.11400623537E+03  0.00000000000E+00 0.  1.
         14    1    4    4    0    0 -0.28169169497E+02  0.48999517710E+02 -0.13339795732E+03  0.14487743048E+03  0.00000000000E+00 0. -1.
         -5    1    5    5    0  502  0.46414328438E+02  0.80530883927E+01 -0.31202594571E+03  0.31559693108E+03  0.47000000000E+01 0.  1.
         13    1    6    6    0    0  0.35082187407E+02 -0.74177340454E+02 -0.19394247957E+03  0.21058661660E+03  0.00000000000E+00 0. -1.
        -14    1    6    6    0    0 -0.22035630518E+01 -0.20947627797E+02  0.86763070298E-01  0.21063388338E+02  0.00000000000E+00 0.  1.
</event>
<event>
12    1  0.8494789E-002  0.2222788E+03  0.7818608E-02  0.1132201E+00
         21   -1    0    0  501  502  0.00000000000E+00  0.00000000000E+00  0.73808134727E+02  0.73808134727E+02  0.00000000000E+00 0. -1.
         21   -1    0    0  502  503 -0.00000000000E+00 -0.00000000000E+00 -0.73327992677E+03  0.73327992677E+03  0.00000000000E+00 0.  1.
         -6    2    1    2    0  503  0.26380202663E+02 -0.13798011641E+03 -0.44894265560E+03  0.50095644706E+03  0.17225976378E+03 0.  0.
        -24    2    3    3    0    0  0.84905177909E+02 -0.88202059969E+02 -0.29230140902E+03  0.32642393501E+03  0.78255856127E+02 0.  0.
          6    2    1    2  501    0 -0.26380202663E+02  0.13798011641E+03 -0.21052913644E+03  0.30613161443E+03  0.17221968658E+03 0.  0.
         24    2    5    5    0    0  0.10092434431E+02  0.55278297539E+02 -0.18978791068E+03  0.21327617545E+03  0.79433799897E+02 0.  0.
          5    1    5    5  501    0 -0.36472637093E+02  0.82701818876E+02 -0.20741225768E+02  0.92855438980E+02  0.47000000000E+01 0. -1.
        -11    1    6    6    0    0  0.24638823570E+02  0.60028112759E+02 -0.82784875618E+02  0.10518451207E+03  0.00000000000E+00 0.  1.
         12    1    6    6    0    0 -0.14546389139E+02 -0.47498152198E+01 -0.10700303506E+03  0.10809166338E+03  0.00000000000E+00 0. -1.
         -5    1    3    3    0  503 -0.58524975247E+02 -0.49778056446E+02 -0.15664124658E+03  0.17453251205E+03  0.47000000000E+01 0.  1.
         11    1    4    4    0    0  0.22108401343E+02  0.13153112254E+02 -0.43729094475E+02  0.50734795511E+02  0.00000000000E+00 0. -1.
        -12    1    4    4    0    0  0.62796776566E+02 -0.10135517222E+03 -0.24857231454E+03  0.27568913950E+03  0.00000000000E+00 0.  1.
</event>
<event>
12    1  0.8494789E-002  0.2539484E+03  0.7818608E-02  0.1111223E+00
         21   -1    0    0  503  502  0.00000000000E+00  0.00000000000E+00  0.16442985008E+03  0.16442985008E+03  0.00000000000E+00 0. -1.
         21   -1    0    0  501  503 -0.00000000000E+00 -0.00000000000E+00 -0.42197462974E+03  0.42197462974E+03  0.00000000000E+00 0. -1.
          6    2    1    2  501    0 -0.85158403090E+02 -0.16270557830E+03 -0.21093789202E+03  0.32821460279E+03  0.17177011488E+03 0.  0.
         24    2    3    3    0    0  0.76752355241E+01 -0.23957119840E+02 -0.81076139067E+02  0.11665991940E+03  0.80020895004E+02 0.  0.
         -6    2    1    2    0  502  0.85158403090E+02  0.16270557830E+03 -0.46606887643E+02  0.25818987703E+03  0.17539883636E+03 0.  0.
        -24    2    5    5    0    0  0.10634623016E+03  0.97186266398E+02  0.15762162767E+02  0.16516465090E+03  0.79222629877E+02 0.  0.
          5    1    3    3  501    0 -0.92833638614E+02 -0.13874845846E+03 -0.12986175295E+03  0.21155468339E+03  0.47000000000E+01 0. -1.
        -11    1    4    4    0    0  0.40666153886E+02 -0.23277420299E+02 -0.29303173025E+02  0.55265272251E+02  0.00000000000E+00 0.  1.
         12    1    4    4    0    0 -0.32990918362E+02 -0.67969954074E+00 -0.51772966043E+02  0.61394647150E+02  0.00000000000E+00 0. -1.
         -5    1    5    5    0  502 -0.21187827071E+02  0.65519311899E+02 -0.62369050410E+02  0.93025226131E+02  0.47000000000E+01 0.  1.
         13    1    6    6    0    0  0.57185131493E+02  0.99213997170E+02  0.17952068298E+02  0.11591304178E+03  0.00000000000E+00 0. -1.
        -14    1    6    6    0    0  0.49161098668E+02 -0.20277307720E+01 -0.21899055308E+01  0.49251609117E+02  0.00000000000E+00 0.  1.
</event>
<event>
12    1  0.8494789E-002  0.1866191E+03  0.7818608E-02  0.1164227E+00
         21   -1    0    0  501  502  0.00000000000E+00  0.00000000000E+00  0.65424141099E+03  0.65424141099E+03  0.00000000000E+00 0. -1.
         21   -1    0    0  502  503 -0.00000000000E+00 -0.00000000000E+00 -0.53669062002E+02  0.53669062002E+02  0.00000000000E+00 0. -1.
         -6    2    1    2    0  503 -0.14300950308E+02 -0.30744458551E+02  0.38313081017E+03  0.42136640119E+03  0.17207756228E+03 0.  0.
        -24    2    3    3    0    0 -0.66469960565E+01  0.40346360449E+02  0.29190321226E+03  0.30536186601E+03  0.79789551496E+02 0.  0.
          6    2    1    2  501    0  0.14300950308E+02  0.30744458551E+02  0.21744153882E+03  0.28654407180E+03  0.18351278803E+03 0.  0.
         24    2    5    5    0    0  0.31426127232E+02  0.85924225460E+01  0.21150822292E+02  0.88210716619E+02  0.79198118948E+02 0.  0.
          5    1    5    5  501    0 -0.17125176925E+02  0.22152036005E+02  0.19629071652E+03  0.19833335518E+03  0.47000000000E+01 0. -1.
        -11    1    6    6    0    0  0.14738594643E+02 -0.17850155308E+02  0.43841259883E+02  0.49577316231E+02  0.00000000000E+00 0.  1.
         12    1    6    6    0    0  0.16687532589E+02  0.26442577854E+02 -0.22690437591E+02  0.38633400388E+02  0.00000000000E+00 0. -1.
         -5    1    3    3    0  503 -0.76539542511E+01 -0.71090819000E+02  0.91227597911E+02  0.11600453518E+03  0.47000000000E+01 0.  1.
         11    1    4    4    0    0  0.27000741207E+02  0.40157039283E+02  0.22866281766E+03  0.23372700317E+03  0.00000000000E+00 0. -1.
        -12    1    4    4    0    0 -0.33647737263E+02  0.18932116646E+00  0.63240394604E+02  0.71634862847E+02  0.00000000000E+00 0.  1.
</event>
<event>
12    1  0.8494789E-002  0.2234955E+03  0.7818608E-02  0.1131514E+00
         21   -1    0    0  503  502  0.00000000000E+00  0.00000000000E+00  0.19781827371E+03  0.19781827371E+03  0.00000000000E+00 0.  1.
         21   -1    0    0  501  503 -0.00000000000E+00 -0.00000000000E+00 -0.28366897043E+03  0.28366897043E+03  0.00000000000E+00 0. -1.
          6    2    1    2  501    0  0.10469672520E+03  0.94673292548E+02  0.38410936181E+02  0.22677223060E+03  0.17327956591E+03 0.  0.
         24    2    3    3    0    0  0.39902773030E+02  0.49218817562E+02  0.90969168761E+02  0.13164692720E+03  0.70998594906E+02 0.  0.
         -6    2    1    2    0  502 -0.10469672520E+03 -0.94673292548E+02 -0.12426163290E+03  0.25471501354E+03  0.17179740428E+03 0.  0.
        -24    2    5    5    0    0 -0.21742298303E+02 -0.88961025645E+02 -0.12138077016E+03  0.17138160904E+03  0.79066888979E+02 0.  0.
          5    1    3    3  501    0  0.64793952172E+02  0.45454474985E+02 -0.52558232580E+02  0.95125303396E+02  0.47000000000E+01 0. -1.
        -13    1    4    4    0    0  0.51842387588E+02  0.55616413115E+02  0.56844615195E+02  0.94932232857E+02  0.00000000000E+00 0.  1.
         14    1    4    4    0    0 -0.11939614558E+02 -0.63975955529E+01  0.34124553566E+02  0.36714694344E+02  0.00000000000E+00 0. -1.
         -5    1    5    5    0  502 -0.82954426899E+02 -0.57122669030E+01 -0.28808627469E+01  0.83333404500E+02  0.47000000000E+01 0.  1.
         13    1    6    6    0    0 -0.34624009225E+02 -0.10652639234E+02 -0.63675883101E+02  0.73259257614E+02  0.00000000000E+00 0. -1.
        -14    1    6    6    0    0  0.12881710922E+02 -0.78308386411E+02 -0.57704887054E+02  0.98122351422E+02  0.00000000000E+00 0.  1.
</event>
<event>
12    1  0.8494789E-002  0.2031033E+03  0.7818608E-02  0.1147554E+00
         21   -1    0    0  503  502  0.00000000000E+00  0.00000000000E+00  0.14947161339E+04  0.14947161339E+04  0.00000000000E+00 0.  1.
         21   -1    0    0  501  503 -0.00000000000E+00 -0.00000000000E+00 -0.30325580103E+02  0.30325580103E+02  0.00000000000E+00 0.  1.
          6    2    1    2  501    0 -0.46033434593E+02  0.96985767040E+02  0.49583197642E+03  0.53581742666E+03  0.17241128086E+03 0.  0.
         24    2    3    3    0    0  0.33861166819E+01  0.71058773888E+02  0.14748661122E+03  0.18299865664E+03  0.81703076513E+02 0.  0.
         -6    2    1    2    0  502  0.46033434593E+02 -0.96985767040E+02  0.96855857740E+03  0.98922428737E+03  0.17009896161E+03 0.  0.
        -24    2    5    5    0    0 -0.75535021710E+01 -0.98366276434E+02  0.85360315631E+03  0.86229791329E+03  0.72016408272E+02 0.  0.
          5    1    3    3  501    0 -0.49419551275E+02  0.25926993152E+02  0.34834536520E+03  0.35281877002E+03  0.47000000000E+01 0. -1.
        -13    1    4    4    0    0 -0.17218654953E+02  0.39162628889E+02  0.15249348470E+02  0.45417355808E+02  0.00000000000E+00 0.  1.
         14    1    4    4    0    0  0.20604771635E+02  0.31896144999E+02  0.13223726275E+03  0.13758130083E+03  0.00000000000E+00 0. -1.
         -5    1    5    5    0  502  0.53586936764E+02  0.13805093945E+01  0.11495542109E+03  0.12692637408E+03  0.47000000000E+01 0.  1.
         11    1    6    6    0    0 -0.27173568375E+02 -0.22359025899E+02  0.43333695771E+03  0.43476343886E+03  0.00000000000E+00 0. -1.
        -12    1    6    6    0    0  0.19620066204E+02 -0.76007250535E+02  0.42026619861E+03  0.42753447443E+03  0.00000000000E+00 0.  1.
</event>
<event>
12    1  0.8494789E-002  0.2038287E+03  0.7818608E-02  0.1147109E+00
         21   -1    0    0  503  502  0.00000000000E+00  0.00000000000E+00  0.51960890132E+03  0.51960890132E+03  0.00000000000E+00 0. -1.
         21   -1    0    0  501  503 -0.00000000000E+00 -0.00000000000E+00 -0.79132117988E+02  0.79132117988E+02  0.00000000000E+00 0.  1.
          6    2    1    2  501    0 -0.15403452303E+01 -0.10514838684E+03  0.23503328517E+03  0.30933964379E+03  0.17144040995E+03 0.  0.
         24    2    3    3    0    0  0.59922178562E+02 -0.97050481894E+02  0.15770632967E+03  0.21011884989E+03  0.79178160764E+02 0.  0.
         -6    2    1    2    0  502  0.15403452303E+01  0.10514838684E+03  0.20544349815E+03  0.28940137551E+03  0.17460689933E+03 0.  0.
        -24    2    5    5    0    0 -0.77867512241E+00  0.39673525365E+01  0.29241896728E+02  0.86147657452E+02  0.80931972292E+02 0.  0.
          5    1    3    3  501    0 -0.61462523792E+02 -0.80979049498E+01  0.77326955501E+02  0.99220793902E+02  0.47000000000E+01 0. -1.
        -13    1    4    4    0    0  0.62880014395E+02 -0.85408510255E+02  0.83602282339E+02  0.13504758956E+03  0.00000000000E+00 0.  1.
         14    1    4    4    0    0 -0.29578358327E+01 -0.11641971639E+02  0.74104047333E+02  0.75071260330E+02  0.00000000000E+00 0. -1.
         -5    1    5    5    0  502  0.23190203527E+01  0.10118103431E+03  0.17620160143E+03  0.20325371806E+03  0.47000000000E+01 0.  1.
         13    1    6    6    0    0  0.37360614675E+01 -0.87249872606E+01  0.55675793038E+02  0.56479000419E+02  0.00000000000E+00 0. -1.
        -14    1    6    6    0    0 -0.45147365899E+01  0.12692339797E+02 -0.26433896310E+02  0.29668657032E+02  0.00000000000E+00 0.  1.
</event>
<event>
12    1  0.8494789E-002  0.1715028E+03  0.7818608E-02  0.1177325E+00
         21   -1    0    0  503  502  0.00000000000E+00  0.00000000000E+00  0.25034587693E+03  0.25034587693E+03  0.00000000000E+00 0.  1.
         21   -1    0    0  501  503 -0.00000000000E+00 -0.00000000000E+00 -0.12515422824E+03  0.12515422824E+03  0.00000000000E+00 0.  1.
          6    2    1    2  501    0 -0.67565626022E+01  0.18297430253E+01  0.92362913371E+01  0.17175137821E+03  0.17135993622E+03 0.  0.
         24    2    3    3    0    0  0.38000475457E+02 -0.28168261951E+02 -0.38647353842E+02  0.99515609825E+02  0.78563678145E+02 0.  0.
         -6    2    1    2    0  502  0.67565626022E+01 -0.18297430253E+01  0.11595535735E+03  0.20374872696E+03  0.16738846956E+03 0.  0.
        -24    2    5    5    0    0 -0.43351021186E+01  0.54740292782E+02  0.34869619925E+02  0.10414862258E+03  0.81337275759E+02 0.  0.
          5    1    3    3  501    0 -0.44757038059E+02  0.29998004976E+02  0.47883645179E+02  0.72235768384E+02  0.47000000000E+01 0. -1.
        -11    1    4    4    0    0  0.35017321293E+02  0.14863191688E+02 -0.41486835254E+02  0.56287518661E+02  0.00000000000E+00 0.  1.
         12    1    4    4    0    0  0.29831541644E+01 -0.43031453638E+02  0.28394814118E+01  0.43228091164E+02  0.00000000000E+00 0. -1.
         -5    1    5    5    0  502  0.11091664721E+02 -0.56570035807E+02  0.81085737426E+02  0.99600104375E+02  0.47000000000E+01 0.  1.
         13    1    6    6    0    0  0.37655523340E+02  0.35458997987E+02  0.15022053905E+02  0.53860385068E+02  0.00000000000E+00 0. -1.
        -14    1    6    6    0    0 -0.41990625458E+02  0.19281294795E+02  0.19847566020E+02  0.50288237514E+02  0.00000000000E+00 0.  1.
</event>
<event>
12    1  0.8494789E-002  0.1877190E+03  0.7818608E-02  0.1160730E+00
         21   -1    0    0  501  502  0.00000000000E+00  0.00000000000E+00  0.99497174070E+03  0.99497174070E+03  0.00000000000E+00 0.  1.
         21   -1    0    0  502  503 -0.00000000000E+00 -0.00000000000E+00 -0.39012675454E+02  0.39012675454E+02  0.00000000000E+00 0.  1.
         -6    2    1    2    0  503  0.73005379145E+02  0.82713759747E+01  0.63938153804E+03  0.66636863824E+03  0.17274319032E+03 0.  0.
        -24    2    3    3    0    0  0.81238334557E+02  0.57384653202E+02  0.54507392367E+03  0.55961700274E+03  0.78568072787E+02 0.  0.
          6    2    1    2  501    0 -0.73005379145E+02 -0.82713759747E+01  0.31657752721E+03  0.36761577791E+03  0.17181917353E+03 0.  0.
         24    2    5    5    0    0 -0.95853932339E+02 -0.54157849986E+02  0.20823264944E+03  0.24766442353E+03  0.76523077105E+02 0.  0.
          5    1    5    5  501    0  0.22848553194E+02  0.45886474011E+02  0.10834487777E+03  0.11995135438E+03  0.47000000000E+01 0. -1.
        -11    1    6    6    0    0  0.12980750637E+02 -0.92716494810E+01  0.19109312538E+02  0.24892352176E+02  0.00000000000E+00 0.  1.
         12    1    6    6    0    0 -0.10883468298E+03 -0.44886200505E+02  0.18912333690E+03  0.22277207135E+03  0.00000000000E+00 0. -1.
         -5    1    3    3    0  503 -0.82329554125E+01 -0.49113277227E+02  0.94307614367E+02  0.10675163550E+03  0.47000000000E+01 0.  1.
         13    1    4    4    0    0  0.28104319215E+02 -0.75957970978E+01  0.28146930947E+03  0.28297088377E+03  0.00000000000E+00 0. -1.
        -14    1    4    4    0    0  0.53134015343E+02  0.64980450300E+02  0.26360461421E+03  0.27664611896E+03  0.00000000000E+00 0.  1.
</event>
<event>
12    1  0.8494789E-002  0.1960840E+03  0.7818608E-02  0.1156851E+00
         21   -1    0    0  503  502  0.00000000000E+00  0.00000000000E+00  0.22684901034E+02  0.22684901034E+02  0.00000000000E+00 0. -1.
         21   -1    0    0  501  503 -0.00000000000E+00 -0.00000000000E+00 -0.17116445685E+04  0.17116445685E+04  0.00000000000E+00 0.  1.
          6    2    1    2  501    0  0.43767820243E+02 -0.30614350848E+02 -0.11408781088E+04  0.11576060615E+04  0.18866921872E+03 0.  0.
         24    2    3    3    0    0  0.69051664367E+02  0.45804969865E+02 -0.62832805697E+03  0.63875268056E+03  0.79640518214E+02 0.  0.
         -6    2    1    2    0  502 -0.43767820243E+02  0.30614350848E+02 -0.54808155873E+03  0.57672340802E+03  0.17135820311E+03 0.  0.
        -24    2    5    5    0    0 -0.46226707998E+02  0.10643772717E+02 -0.13261348718E+03  0.16074182357E+03  0.77468693254E+02 0.  0.
          5    1    3    3  501    0 -0.25283844124E+02 -0.76419320713E+02 -0.51255005180E+03  0.51885338098E+03  0.47000000000E+01 0. -1.
        -11    1    4    4    0    0  0.32967384214E+02  0.35893971396E+02 -0.54769969025E+03  0.54986377978E+03  0.00000000000E+00 0.  1.
         12    1    4    4    0    0  0.36084280153E+02  0.99109984694E+01 -0.80628366711E+02  0.88888900788E+02  0.00000000000E+00 0. -1.
         -5    1    5    5    0  502  0.24588877548E+01  0.19970578131E+02 -0.41546807155E+03  0.41598158444E+03  0.47000000000E+01 0.  1.
         11    1    6    6    0    0 -0.34427113927E+02 -0.20498632727E+02 -0.23041093097E+02  0.46220256253E+02  0.00000000000E+00 0. -1.
        -12    1    6    6    0    0 -0.11799594071E+02  0.31142405443E+02 -0.10957239408E+03  0.11452156732E+03  0.00000000000E+00 0.  1.
</event>
<event>
12    1  0.8494789E-002  0.1825648E+03  0.7818608E-02  0.1165356E+00
         21   -1    0    0  501  502  0.00000000000E+00  0.00000000000E+00  0.64073719651E+03  0.64073719651E+03  0.00000000000E+00 0.  1.
         21   -1    0    0  502  503 -0.00000000000E+00 -0.00000000000E+00 -0.52261856013E+02  0.52261856013E+02  0.00000000000E+00 0. -1.
         -6    2    1    2    0  503 -0.55763282047E+02  0.23768560624E+02  0.31864448490E+03  0.36723864467E+03  0.17220750936E+03 0.  0.
        -24    2    3    3    0    0  0.30161052625E+02 -0.10100272076E+02  0.12690424306E+03  0.15436192105E+03  0.81921982225E+02 0.  0.
          6    2    1    2  501    0  0.55763282047E+02 -0.23768560624E+02  0.26983085560E+03  0.32576040786E+03  0.17215302668E+03 0.  0.
         24    2    5    5    0    0  0.94255657683E+02 -0.40976378058E+02  0.14866587983E+03  0.19738278786E+03  0.79342476359E+02 0.  0.
          5    1    5    5  501    0 -0.38492375636E+02  0.17207817435E+02  0.12116497577E+03  0.12837761999E+03  0.47000000000E+01 0. -1.
        -13    1    6    6    0    0  0.62175466989E+02 -0.56087282114E+02  0.13603266147E+03  0.15973871446E+03  0.00000000000E+00 0.  1.
         14    1    6    6    0    0  0.32080190695E+02  0.15110904055E+02  0.12633218360E+02  0.37644073405E+02  0.00000000000E+00 0. -1.
         -5    1    3    3    0  503 -0.85924334672E+02  0.33868832700E+02  0.19174024185E+03  0.21287672362E+03  0.47000000000E+01 0.  1.
         11    1    4    4    0    0  0.24956538328E+02  0.66355315693E+01  0.13324461739E+03  0.13572393727E+03  0.00000000000E+00 0. -1.
        -12    1    4    4    0    0  0.52045142964E+01 -0.16735803645E+02 -0.63403743297E+01  0.18637983779E+02  0.00000000000E+00 0.  1.
</event>
<event>
12    1  0.8494789E-002  0.2682841E+03  0.7818608E-02  0.1102479E+00
         21   -1    0    0  501  502  0.00000000000E+00  0.00000000000E+00  0.18421887285E+03  0.18421887285E+03  0.00000000000E+00 0. -1.
         21   -1    0    0  502  503 -0.00000000000E+00 -0.00000000000E+00 -0.38969700765E+03  0.38969700765E+03  0.00000000000E+00 0.  1.
         -6    2    1    2    0  503  0.82147106930E+02 -0.18933389068E+03 -0.87029052008E+02  0.28064720014E+03  0.16909561117E+03 0.  0.
        -24    2    3    3    0    0  0.23301114227E+02 -0.17292869898E+03 -0.10166051114E+03  0.21765394043E+03  0.81185598512E+02 0.  0.
          6    2    1    2  501    0 -0.82147106930E+02  0.18933389068E+03 -0.11844908279E+03  0.29326868036E+03  0.17140847217E+03 0.  0.
         24    2    5    5    0    0 -0.12178122220E+03  0.12506819917E+03 -0.79996192716E+02  0.20840610349E+03  0.80999954309E+02 0.  0.
          5    1    5    5  501    0  0.39634115274E+02  0.64265691506E+02 -0.38452890072E+02  0.84862576871E+02  0.47000000000E+01 0. -1.
        -13    1    6    6    0    0 -0.23462532799E+02 -0.98474098094E+01 -0.12312353094E+02  0.28267577965E+02  0.00000000000E+00 0.  1.
         14    1    6    6    0    0 -0.98318689404E+02  0.13491560898E+03 -0.67683839621E+02  0.18013852553E+03  0.00000000000E+00 0. -1.
         -5    1    3    3    0  503  0.58845992703E+02 -0.16405191698E+02  0.14631459133E+02  0.62993259704E+02  0.47000000000E+01 0.  1.
         13    1    4    4    0    0  0.37595049902E+02 -0.53394995835E+02 -0.93879080772E+01  0.65973829473E+02  0.00000000000E+00 0. -1.
        -14    1    4    4    0    0 -0.14293935675E+02 -0.11953370314E+03 -0.92272603064E+02  0.15168011096E+03  0.00000000000E+00 0.  1.
</event>
<event>
12    1  0.8494789E-002  0.1911337E+03  0.7818608E-02  0.1159417E+00
         21   -1    0    0  503  502  0.00000000000E+00  0.00000000000E+00  0.31785381302E+03  0.31785381302E+03  0.00000000000E+00 0. -1.
         21   -1    0    0  501  503 -0.00000000000E+00 -0.00000000000E+00 -0.14609463645E+03  0.14609463645E+03  0.00000000000E+00 0. -1.
          6    2    1    2  501    0 -0.25405706926E+02 -0.71981103604E+02  0.20294398149E+03  0.27878008840E+03  0.17522941775E+03 0.  0.
         24    2    3    3    0    0 -0.60455057373E+01 -0.90774263678E+02  0.61568244260E+02  0.13477595883E+03  0.78085820037E+02 0.  0.
         -6    2    1    2    0  502  0.25405706926E+02  0.71981103604E+02 -0.31184804924E+02  0.18516836107E+03  0.16579535778E+03 0.  0.
        -24    2    5    5    0    0  0.49714427896E+02  0.13319896430E+02 -0.57482314403E+02  0.11627931878E+03  0.86992640640E+02 0.  0.
          5    1    3    3  501    0 -0.19360201189E+02  0.18793160074E+02  0.14137573723E+03  0.14400412957E+03  0.47000000000E+01 0. -1.
        -13    1    4    4    0    0 -0.63982748107E+01  0.13559133213E+02  0.12307255205E+02  0.19397333444E+02  0.00000000000E+00 0.  1.
         14    1    4    4    0    0  0.35276907339E+00 -0.10433339689E+03  0.49260989055E+02  0.11537862538E+03  0.00000000000E+00 0. -1.
         -5    1    5    5    0  502 -0.24308720970E+02  0.58661207174E+02  0.26297509480E+02  0.68889042286E+02  0.47000000000E+01 0.  1.
         11    1    6    6    0    0  0.31073252905E+02  0.24492816682E+02  0.13686542934E+02  0.41866055135E+02  0.00000000000E+00 0. -1.
        -12    1    6    6    0    0  0.18641174991E+02 -0.11172920252E+02 -0.71168857337E+02  0.74413263648E+02  0.00000000000E+00 0.  1.
</event>
<event>
12    1  0.8494789E-002  0.1744185E+03  0.7818608E-02  0.1173918E+00
         21   -1    0    0  503  502  0.00000000000E+00  0.00000000000E+00  0.12076746133E+03  0.12076746133E+03  0.00000000000E+00 0. -1.
         21   -1    0    0  501  503 -0.00000000000E+00 -0.00000000000E+00 -0.29586654307E+03  0.29586654307E+03  0.00000000000E+00 0. -1.
          6    2    1    2  501    0  0.22654802417E+02  0.19674961915E+02 -0.36939938790E+01  0.17209053406E+03  0.16941417333E+03 0.  0.
         24    2    3    3    0    0  0.70167408564E+02  0.11837670131E+02 -0.39919216357E+02  0.11164859805E+03  0.76212006624E+02 0.  0.
         -6    2    1    2    0  502 -0.22654802417E+02 -0.19674961915E+02 -0.17140508785E+03  0.24454347034E+03  0.17181810307E+03 0.  0.
        -24    2    5    5    0    0  0.10225190131E+02  0.48398372279E+02 -0.66457985282E+02  0.11511759550E+03  0.79927717561E+02 0.  0.
          5    1    3    3  501    0 -0.47512606147E+02  0.78372917840E+01  0.36225222478E+02  0.60441936013E+02  0.47000000000E+01 0. -1.
        -13    1    4    4    0    0  0.28532683200E+02 -0.31174325352E+02 -0.27764166468E+02  0.50564824843E+02  0.00000000000E+00 0.  1.
         14    1    4    4    0    0  0.41634725364E+02  0.43011995483E+02 -0.12155049889E+02  0.61083773209E+02  0.00000000000E+00 0. -1.
         -5    1    5    5    0  502 -0.32879992548E+02 -0.68073334193E+02 -0.10494710257E+03  0.12942587483E+03  0.47000000000E+01 0.  1.
         11    1    6    6    0    0  0.24809756664E+02 -0.70327854767E+01  0.19618464430E+01  0.25861804631E+02  0.00000000000E+00 0. -1.
        -12    1    6    6    0    0 -0.14584566534E+02  0.55431157755E+02 -0.68419831725E+02  0.89255790873E+02  0.00000000000E+00 0.  1.
</event>
<event>
12    1  0.8494789E-002  0.1866294E+03  0.7818608E-02  0.1164895E+00
         21   -1    0    0  503  502  0.00000000000E+00  0.00000000000E+00  0.15680364832E+03  0.15680364832E+03  0.00000000000E+00 0.  1.
         21   -1    0    0  501  503 -0.00000000000E+00 -0.00000000000E+00 -0.20624687065E+03  0.20624687065E+03  0.00000000000E+00 0.  1.
          6    2    1    2  501    0  0.14880238327E+02 -0.71270732112E+01 -0.15583147510E+02  0.17337440522E+03  0.17188261469E+03 0.  0.
         24    2    3    3    0    0  0.30085235266E+02  0.57287455231E+02 -0.27969876498E+02  0.10587666850E+03  0.78997348273E+02 0.  0.
         -6    2    1    2    0  502 -0.14880238327E+02  0.71270732112E+01 -0.33860074817E+02  0.18967611375E+03  0.18589864657E+03 0.  0.
        -24    2    5    5    0    0  0.39632788119E+02  0.61550084394E+02 -0.29144190401E+02  0.11235946765E+03  0.80100532793E+02 0.  0.
          5    1    3    3  501    0 -0.15204996939E+02 -0.64414528442E+02  0.12386728988E+02  0.67497736713E+02  0.47000000000E+01 0. -1.
        -13    1    4    4    0    0  0.13840356297E+02  0.36862654241E+02 -0.55431116516E+02  0.67992789458E+02  0.00000000000E+00 0.  1.
         14    1    4    4    0    0  0.16244878969E+02  0.20424800990E+02  0.27461240018E+02  0.37883879045E+02  0.00000000000E+00 0. -1.
         -5    1    5    5    0  502 -0.54513026446E+02 -0.54423011183E+02 -0.47158844156E+01  0.77316646102E+02  0.47000000000E+01 0.  1.
         11    1    6    6    0    0  0.40691213349E+01  0.36442909269E+02 -0.51657479700E+02  0.63349337750E+02  0.00000000000E+00 0. -1.
        -12    1    6    6    0    0  0.35563666784E+02  0.25107175125E+02  0.22513289299E+02  0.49010129901E+02  0.00000000000E+00 0.  1.
</event>
<event>
12    1  0.8494789E-002  0.2816224E+03  0.7818608E-02  0.1094936E+00
         21   -1    0    0  501  502  0.00000000000E+00  0.00000000000E+00  0.22042434699E+03  0.22042434699E+03  0.00000000000E+00 0.  1.
         21   -1    0    0  502  503 -0.00000000000E+00 -0.00000000000E+00 -0.39277862751E+03  0.39277862751E+03  0.00000000000E+00 0.  1.
         -6    2    1    2    0  503 -0.12523036075E+03  0.18321759795E+03 -0.17650073344E+03  0.33155009434E+03  0.17181858078E+03 0.  0.
        -24    2    3    3    0    0 -0.27172043829E+02  0.95581431230E+02 -0.12649726093E+03  0.19077378775E+03  0.10256193791E+03 0.  0.
          6    2    1    2  501    0  0.12523036075E+03 -0.18321759795E+03  0.41464529197E+01  0.28165288017E+03  0.17337768133E+03 0.  0.
         24    2    5    5    0    0  0.53266994907E+02 -0.58799212175E+02  0.56953102098E+02  0.12845597113E+03  0.83441959357E+02 0.  0.
          5    1    5    5  501    0  0.71963365843E+02 -0.12441838577E+03 -0.52806649178E+02  0.15319690904E+03  0.47000000000E+01 0. -1.
        -11    1    6    6    0    0  0.61061866314E+02 -0.62219705519E+02  0.18560474447E+02  0.89130996203E+02  0.00000000000E+00 0.  1.
         12    1    6    6    0    0 -0.77948714067E+01  0.34204933438E+01  0.38392627651E+02  0.39324974926E+02  0.00000000000E+00 0. -1.
         -5    1    3    3    0  503 -0.98058316921E+02  0.87636166717E+02 -0.50003472509E+02  0.14077630659E+03  0.47000000000E+01 0.  1.
         11    1    4    4    0    0  0.86336758691E+00  0.49999313550E+02  0.35640508652E+01  0.50133613650E+02  0.00000000000E+00 0. -1.
        -12    1    4    4    0    0 -0.28035411416E+02  0.45582117680E+02 -0.13006131179E+03  0.14064017410E+03  0.00000000000E+00 0.  1.
</event>
<event>
12    1  0.8494789E-002  0.1965149E+03  0.7818608E-02  0.1152897E+00
         21   -1    0    0  501  502  0.00000000000E+00  0.00000000000E+00  0.72640112328E+02  0.72640112328E+02  0.00000000000E+00 0. -1.
         21   -1    0    0  502  503 -0.00000000000E+00 -0.00000000000E+00 -0.10785479821E+04  0.10785479821E+04  0.00000000000E+00 0. -1.
         -6    2    1    2    0  503  0.56164813604E+02  0.75592087158E+02 -0.91422867754E+03  0.93511079301E+03  0.17248034801E+03 0.  0.
        -24    2    3    3    0    0 -0.24025138764E+02  0.77565190073E+02 -0.48211000361E+03  0.49558495765E+03  0.81122306815E+02 0.  0.
          6    2    1    2  501    0 -0.56164813604E+02 -0.75592087158E+02 -0.91679192252E+02  0.21607730143E+03  0.17150998797E+03 0.  0.
         24    2    5    5    0    0 -0.53209858427E+02  0.84704670454E-01 -0.10169956267E+03  0.13953838058E+03  0.79352771844E+02 0.  0.
          5    1    5    5  501    0 -0.29549551770E+01 -0.75676791829E+02  0.10020370419E+02  0.76538920850E+02  0.47000000000E+01 0. -1.
        -13    1    6    6    0    0 -0.36881000601E+02  0.10112381218E+02 -0.23029168326E+01  0.38311511132E+02  0.00000000000E+00 0.  1.
         14    1    6    6    0    0 -0.16328857825E+02 -0.10027676548E+02 -0.99396645838E+02  0.10122686945E+03  0.00000000000E+00 0. -1.
         -5    1    3    3    0  503  0.80189952367E+02 -0.19731029145E+01 -0.43211867393E+03  0.43952583536E+03  0.47000000000E+01 0.  1.
         13    1    4    4    0    0 -0.30704468729E+02  0.61976294571E+01 -0.26734857473E+03  0.26917733080E+03  0.00000000000E+00 0. -1.
        -14    1    4    4    0    0  0.66793299653E+01  0.71367560616E+02 -0.21476142888E+03  0.22640762684E+03  0.00000000000E+00 0.  1.
</event>
<event>
12    1  0.8494789E-002  0.1789303E+03  0.7818608E-02  0.1169165E+00
         21   -1    0    0  503  502  0.00000000000E+00  0.00000000000E+00  0.75384178393E+03  0.75384178393E+03  0.00000000000E+00 0.  1.
         21   -1    0    0  501  503 -0.00000000000E+00 -0.00000000000E+00 -0.51084385550E+02  0.51084385550E+02  0.00000000000E+00 0.  1.
          6    2    1    2  501    0  0.11192823268E+02 -0.51094127426E+02  0.18207118589E+03  0.25435357722E+03  0.16973490024E+03 0.  0.
         24    2    3    3    0    0 -0.34966730509E+02 -0.56165257464E+02  0.51062904162E+02  0.11527920630E+03  0.79401932184E+02 0.  0.
         -6    2    1    2    0  502 -0.11192823268E+02  0.51094127426E+02  0.52068621248E+03  0.55057259226E+03  0.17111445973E+03 0.  0.
        -24    2    5    5    0    0  0.43854919852E+02  0.52433059385E+02  0.44326964366E+03  0.45545444526E+03  0.79235692714E+02 0.  0.
          5    1    3    3  501    0  0.46159553776E+02  0.50711300381E+01  0.13100828173E+03  0.13907437092E+03  0.47000000000E+01 0. -1.
        -13    1    4    4    0    0  0.13538877913E+02 -0.22579904948E+02 -0.11989194184E+02  0.28929122002E+02  0.00000000000E+00 0.  1.
         14    1    4    4    0    0 -0.48505608421E+02 -0.33585352515E+02  0.63052098346E+02  0.86350084295E+02  0.00000000000E+00 0. -1.
         -5    1    5    5    0  502 -0.55047743119E+02 -0.13389319598E+01  0.77416568820E+02  0.95118147002E+02  0.47000000000E+01 0.  1.
         11    1    6    6    0    0  0.42130843787E+02  0.22352909529E+02  0.99214718374E+02  0.11008279114E+03  0.00000000000E+00 0. -1.
        -12    1    6    6    0    0  0.17240760642E+01  0.30080149857E+02  0.34405492529E+03  0.34537165412E+03  0.00000000000E+00 0.  1.
</event>
<event>
12    1  0.8494789E-002  0.2126630E+03  0.7818608E-02  0.1139558E+00
         21   -1    0    0  501  502  0.00000000000E+00  0.00000000000E+00  0.12303255683E+03  0.12303255683E+03  0.00000000000E+00 0.  1.
         21   -1    0    0  502  503 -0.00000000000E+00 -0.00000000000E+00 -0.59112443968E+03  0.59112443968E+03  0.00000000000E+00 0. -1.
         -6    2    1    2    0  503  0.11361305193E+02  0.12415495381E+03 -0.14247829938E+02  0.21313979635E+03  0.17228476519E+03 0.  0.
        -24    2    3    3    0    0  0.35759759168E+02  0.75525714713E+02  0.50863473802E+02  0.12815944964E+03  0.82794067458E+02 0.  0.
          6    2    1    2  501    0 -0.11361305193E+02 -0.12415495381E+03 -0.45384405291E+03  0.50101720016E+03  0.17175645166E+03 0.  0.
         24    2    5    5    0    0  0.32828997831E+02 -0.65940306047E+02 -0.11576661454E+03  0.15509788525E+03  0.72301991028E+02 0.  0.
          5    1    5    5  501    0 -0.44190303024E+02 -0.58214647763E+02 -0.33807743837E+03  0.34591931491E+03  0.47000000000E+01 0. -1.
        -11    1    6    6    0    0 -0.17200431179E+02 -0.84858237091E+01 -0.36144330590E+01  0.19517381051E+02  0.00000000000E+00 0.  1.
         12    1    6    6    0    0  0.50029429010E+02 -0.57454482337E+02 -0.11215218148E+03  0.13558050420E+03  0.00000000000E+00 0. -1.
         -5    1    3    3    0  503 -0.24398453975E+02  0.48629239097E+02 -0.65111303740E+02  0.84980346705E+02  0.47000000000E+01 0.  1.
         13    1    4    4    0    0  0.34121612578E+02  0.98091657904E+01 -0.11727778545E+02  0.37390439527E+02  0.00000000000E+00 0. -1.
        -14    1    4    4    0    0  0.16381465905E+01  0.65716548923E+02  0.62591252347E+02  0.90769010113E+02  0.00000000000E+00 0.  1.
</event>
<event>
12    1  0.8494789E-002  0.1853017E+03  0.7818608E-02  0.1163686E+00
         21   -1    0    0  503  502  0.00000000000E+00  0.00000000000E+00  0.50212919747E+02  0.50212919747E+02  0.00000000000E+00 0.  1.
         21   -1    0    0  501  503 -0.00000000000E+00 -0.00000000000E+00 -0.68312697613E+03  0.68312697613E+03  0.00000000000E+00 0.  1.
          6    2    1    2  501    0  0.57997523650E+02  0.21414459862E+01 -0.26141879836E+03  0.31819478630E+03  0.17187156643E+03 0.  0.
         24    2    3    3    0    0  0.98496079308E+02 -0.21283368216E+02 -0.14889158123E+03  0.19623856659E+03  0.78653751675E+02 0.  0.
         -6    2    1    2    0  502 -0.57997523650E+02 -0.21414459862E+01 -0.37149525802E+03  0.41514510958E+03  0.17597851214E+03 0.  0.
        -24    2    5    5    0    0 -0.56485441132E+02  0.52201265419E+02 -0.32560148781E+03  0.34384472515E+03  0.79355459637E+02 0.  0.
          5    1    3    3  501    0 -0.40498555658E+02  0.23424814202E+02 -0.11252721713E+03  0.12195621971E+03  0.47000000000E+01 0. -1.
        -11    1    4    4    0    0  0.83134253173E+02  0.15626999920E+02 -0.79124319876E+02  0.11582817090E+03  0.00000000000E+00 0.  1.
         12    1    4    4    0    0  0.15361826135E+02 -0.36910368136E+02 -0.69767261356E+02  0.80410395691E+02  0.00000000000E+00 0. -1.
         -5    1    5    5    0  502 -0.15120825178E+01 -0.54342711405E+02 -0.45893770207E+02  0.71300384432E+02  0.47000000000E+01 0.  1.
         11    1    6    6    0    0  0.13819865383E+02  0.35720446436E+02 -0.11295481568E+03  0.11927166201E+03  0.00000000000E+00 0. -1.
        -12    1    6    6    0    0 -0.70305306515E+02  0.16480818983E+02 -0.21264667213E+03  0.22457306314E+03  0.00000000000E+00 0.  1.
</event>
<event>
12    1  0.8494789E-002  0.1872670E+03  0.7818608E-02  0.1161304E+00
         21   -1    0    0  501  502  0.00000000000E+00  0.00000000000E+00  0.34881430455E+03  0.34881430455E+03  0.00000000000E+00 0. -1.
         21   -1    0    0  502  503 -0.00000000000E+00 -0.00000000000E+00 -0.23550495991E+03  0.23550495991E+03  0.00000000000E+00 0. -1.
         -6    2    1    2    0  503  0.66712865309E+02 -0.33782514417E+01 -0.16509282602E+03  0.24964890301E+03  0.17494831978E+03 0.  0.
        -24    2    3    3    0    0 -0.34109084055E+02  0.29213275061E+01 -0.73731241564E+02  0.11336324976E+03  0.79012446137E+02 0.  0.
          6    2    1    2  501    0 -0.66712865309E+02  0.33782514417E+01  0.27840217065E+03  0.33467036145E+03  0.17330453897E+03 0.  0.
         24    2    5    5    0    0  0.63111486668E+01 -0.47806440168E+02  0.16749336872E+03  0.19227923947E+03  0.81191077386E+02 0.  0.
          5    1    5    5  501    0 -0.73024013976E+02  0.51184691610E+02  0.11090880194E+03  0.14239112198E+03  0.47000000000E+01 0. -1.
        -13    1    6    6    0    0  0.42092104273E+01 -0.34279574443E+02  0.12571740617E+02  0.36753983982E+02  0.00000000000E+00 0.  1.
         14    1    6    6    0    0  0.21019382396E+01 -0.13526865725E+02  0.15492162810E+03  0.15552525549E+03  0.00000000000E+00 0. -1.
         -5    1    3    3    0  503  0.10082194936E+03 -0.62995789478E+01 -0.91361584454E+02  0.13628565325E+03  0.47000000000E+01 0.  1.
         11    1    4    4    0    0 -0.30687217139E+02  0.39063063233E+02 -0.39489532416E+02  0.63459052745E+02  0.00000000000E+00 0. -1.
        -12    1    4    4    0    0 -0.34218669167E+01 -0.36141735727E+02 -0.34241709148E+02  0.49904197017E+02  0.00000000000E+00 0.  1.
</event>
<event>
12    1  0.8494789E-002  0.2061182E+03  0.7818608E-02  0.1144737E+00
         21   -1    0    0  503  502  0.00000000000E+00  0.00000000000E+00  0.14289232351E+03  0.14289232351E+03  0.00000000000E+00 0. -1.
         21   -1    0    0  501  503 -0.00000000000E+00 -0.00000000000E+00 -0.50388715483E+03  0.50388715483E+03  0.00000000000E+00 0.  1.
          6    2    1    2  501    0  0.55921845828E+02 -0.97665221439E+02 -0.38784217424E+03  0.43921095182E+03  0.17268167175E+03 0.  0.
         24    2    3    3    0    0 -0.37054287079E+02 -0.33580117512E+02 -0.15209747321E+03  0.17777431342E+03  0.77262026056E+02 0.  0.
         -6    2    1    2    0  502 -0.55921845828E+02  0.97665221439E+02  0.26847342912E+02  0.20756852652E+03  0.17233155562E+03 0.  0.
        -24    2    5    5    0    0 -0.97431648591E+02  0.49295342925E+02  0.42138713293E+02  0.14185228134E+03  0.80146375970E+02 0.  0.
          5    1    3    3  501    0  0.92976132907E+02 -0.64085103928E+02 -0.23574470103E+03  0.26143663840E+03  0.47000000000E+01 0. -1.
        -11    1    4    4    0    0 -0.23762158197E+02  0.10634185170E+02 -0.11677834048E+03  0.11964491992E+03  0.00000000000E+00 0.  1.
         12    1    4    4    0    0 -0.13292128883E+02 -0.44214302681E+02 -0.35319132731E+02  0.58129393500E+02  0.00000000000E+00 0. -1.
         -5    1    5    5    0  502  0.41509802763E+02  0.48369878514E+02 -0.15291370381E+02  0.65716245184E+02  0.47000000000E+01 0.  1.
         13    1    6    6    0    0  0.45281364125E+01  0.31458090586E+02  0.12833022328E+02  0.34275383947E+02  0.00000000000E+00 0. -1.
        -14    1    6    6    0    0 -0.10195978500E+03  0.17837252339E+02  0.29305690966E+02  0.10757689739E+03  0.00000000000E+00 0.  1.
</event>
<event>
12    1  0.8494789E-002  0.2872870E+03  0.7818608E-02  0.1091908E+00
         21   -1    0    0  503  502  0.00000000000E+00  0.00000000000E+00  0.66739197791E+03  0.66739197791E+03  0.00000000000E+00 0. -1.
         21   -1    0    0  501  503 -0.00000000000E+00 -0.00000000000E+00 -0.44001652971E+03  0.44001652971E+03  0.00000000000E+00 0.  1.
          6    2    1    2  501    0 -0.20145397890E+03  0.10896057578E+03 -0.35607007387E+03  0.45751474454E+03  0.17342932648E+03 0.  0.
         24    2    3    3    0    0 -0.21309530725E+03  0.72279107893E+02 -0.25446409312E+03  0.34876311957E+03  0.79056052738E+02 0.  0.
         -6    2    1    2    0  502  0.20145397890E+03 -0.10896057578E+03  0.58344552207E+03  0.64989376308E+03  0.17174723687E+03 0.  0.
        -24    2    5    5    0    0  0.57130894103E+02 -0.10314327122E+03  0.29987702393E+03  0.33162315969E+03  0.78391435167E+02 0.  0.
          5    1    3    3  501    0  0.11641328345E+02  0.36681467883E+02 -0.10160598074E+03  0.10875162497E+03  0.47000000000E+01 0. -1.
        -11    1    4    4    0    0 -0.14264170903E+03  0.51056307918E+02 -0.22096447674E+03  0.26791547868E+03  0.00000000000E+00 0.  1.
         12    1    4    4    0    0 -0.70453598214E+02  0.21222799975E+02 -0.33499616384E+02  0.80847640893E+02  0.00000000000E+00 0. -1.
         -5    1    5    5    0  502  0.14432308480E+03 -0.58173045564E+01  0.28356849814E+03  0.31827060338E+03  0.47000000000E+01 0.  1.
         11    1    6    6    0    0  0.30914016497E+02 -0.34557431091E+02  0.21245990227E+03  0.21746057696E+03  0.00000000000E+00 0. -1.
        -12    1    6    6    0    0  0.26216877606E+02 -0.68585840127E+02  0.87417121654E+02  0.11416258273E+03  0.00000000000E+00 0.  1.
</event>
<event>
12    1  0.8494789E-002  0.2350927E+03  0.7818608E-02  0.1123211E+00
         21   -1    0    0  503  502  0.00000000000E+00  0.00000000000E+00  0.14825052209E+03  0.14825052209E+03  0.00000000000E+00 0.  1.
         21   -1    0    0  501  503 -0.00000000000E+00 -0.00000000000E+00 -0.86371643244E+03  0.86371643244E+03  0.00000000000E+00 0.  1.
          6    2    1    2  501    0  0.15703008602E+03  0.32502852438E+02 -0.73977707628E+03  0.77623365552E+03  0.17191184380E+03 0.  0.
         24    2    3    3    0    0  0.11413449914E+03 -0.42612453118E+02 -0.38666672647E+03  0.41265237211E+03  0.76995569965E+02 0.  0.
         -6    2    1    2    0  502 -0.15703008602E+03 -0.32502852438E+02  0.24311165934E+02  0.23573329901E+03  0.17106803367E+03 0.  0.
        -24    2    5    5    0    0 -0.71065911788E+02 -0.72127775600E+02 -0.21396421794E+02  0.13051330394E+03  0.79518147673E+02 0.  0.
          5    1    3    3  501    0  0.42895586879E+02  0.75115305556E+02 -0.35311034980E+03  0.36358128340E+03  0.47000000000E+01 0. -1.
        -13    1    4    4    0    0  0.70523201772E+02  0.81860183425E+01 -0.13881241042E+03  0.15591477855E+03  0.00000000000E+00 0.  1.
         14    1    4    4    0    0  0.43611297366E+02 -0.50798471461E+02 -0.24785431605E+03  0.25673759356E+03  0.00000000000E+00 0. -1.
         -5    1    5    5    0  502 -0.85964174229E+02  0.39624923162E+02  0.45707587728E+02  0.10521999507E+03  0.47000000000E+01 0.  1.
         11    1    6    6    0    0 -0.78495738928E+01 -0.38936100379E+01  0.25054619264E+02  0.26542606426E+02  0.00000000000E+00 0. -1.
        -12    1    6    6    0    0 -0.63216337895E+02 -0.68234165562E+02 -0.46451041058E+02  0.10397069752E+03  0.00000000000E+00 0.  1.
</event>
<event>
12    1  0.8494789E-002  0.1930952E+03  0.7818608E-02  0.1156661E+00
         21   -1    0    0  501  502  0.00000000000E+00  0.00000000000E+00  0.15172198977E+03  0.15172198977E+03  0.00000000000E+00 0. -1.
         21   -1    0    0  502  503 -0.00000000000E+00 -0.00000000000E+00 -0.26492273359E+03  0.26492273359E+03  0.00000000000E+00 0. -1.
         -6    2    1    2    0  503 -0.51794634513E+02  0.58174759759E+02 -0.11952598607E+03  0.22344595507E+03  0.17197280789E+03 0.  0.
        -24    2    3    3    0    0 -0.38706508262E+02  0.78568977660E+02 -0.14529934203E+03  0.18775871575E+03  0.80437295534E+02 0.  0.
          6    2    1    2  501    0  0.51794634513E+02 -0.58174759759E+02  0.63252422505E+01  0.19319876830E+03  0.17668833732E+03 0.  0.
         24    2    5    5    0    0  0.69293362462E+02 -0.84260736041E+02  0.51573835503E+02  0.13791577969E+03  0.66779188816E+02 0.  0.
          5    1    5    5  501    0 -0.17498727949E+02  0.26085976281E+02 -0.45248593253E+02  0.55282988611E+02  0.47000000000E+01 0. -1.
        -11    1    6    6    0    0 -0.10453759037E+02 -0.38581698262E+01  0.15451449386E+02  0.19050297650E+02  0.00000000000E+00 0.  1.
         12    1    6    6    0    0  0.79747121499E+02 -0.80402566214E+02  0.36122386117E+02  0.11886548204E+03  0.00000000000E+00 0. -1.
         -5    1    3    3    0  503 -0.13088126251E+02 -0.20394217901E+02  0.25773355962E+02  0.35687239317E+02  0.47000000000E+01 0.  1.
         11    1    4    4    0    0 -0.35150994894E+02  0.10245351002E+02 -0.97913039546E+02  0.10453479312E+03  0.00000000000E+00 0. -1.
        -12    1    4    4    0    0 -0.35555133687E+01  0.68323626658E+02 -0.47386302489E+02  0.83223922634E+02  0.00000000000E+00 0.  1.
</event>
<event>
12    1  0.8494789E-002  0.2197469E+03  0.7818608E-02  0.1136531E+00
         21   -1    0    0  503  502  0.00000000000E+00  0.00000000000E+00  0.15040511301E+03  0.15040511301E+03  0.00000000000E+00 0. -1.
         21   -1    0    0  501  503 -0.00000000000E+00 -0.00000000000E+00 -0.44317924457E+03  0.44317924457E+03  0.00000000000E+00 0. -1.
          6    2    1    2  501    0 -0.43303126403E+02  0.11366007168E+03 -0.31643197796E+03  0.38525041455E+03  0.18301615390E+03 0.  0.
         24    2    3    3    0    0 -0.82578403149E+02  0.19106584964E+02 -0.15308368142E+03  0.19240937848E+03  0.80015630670E+02 0.  0.
         -6    2    1    2    0  502  0.43303126403E+02 -0.11366007168E+03  0.23657846401E+02  0.20833394303E+03  0.16748004500E+03 0.  0.
        -24    2    5    5    0    0 -0.39005817865E+02 -0.55407677599E+02  0.17776929761E+02  0.10721629421E+03  0.81165571202E+02 0.  0.
          5    1    3    3  501    0  0.39275276746E+02  0.94553486716E+02 -0.16334829654E+03  0.19284103608E+03  0.47000000000E+01 0. -1.
        -11    1    4    4    0    0 -0.54878324850E+02 -0.14868078837E+02 -0.35768695561E+02  0.67172091592E+02  0.00000000000E+00 0.  1.
         12    1    4    4    0    0 -0.27700078299E+02  0.33974663800E+02 -0.11731498586E+03  0.12523728688E+03  0.00000000000E+00 0. -1.
         -5    1    5    5    0  502  0.82308944267E+02 -0.58252394081E+02  0.58809166401E+01  0.10111764882E+03  0.47000000000E+01 0.  1.
         11    1    6    6    0    0  0.36831176560E+00 -0.57543321406E+02  0.31329535845E+02  0.65520296918E+02  0.00000000000E+00 0. -1.
        -12    1    6    6    0    0 -0.39374129630E+02  0.21356438065E+01 -0.13552606085E+02  0.41695997293E+02  0.00000000000E+00 0.  1.
</event>
<event>
12    1  0.8494789E-002  0.2714621E+03  0.7818608E-02  0.1100507E+00
         21   -1    0    0  501  502  0.00000000000E+00  0.00000000000E+00  0.40112171239E+03  0.40112171239E+03  0.00000000000E+00 0. -1.
         21   -1    0    0  502  503 -0.00000000000E+00 -0.00000000000E+00 -0.18713980126E+03  0.18713980126E+03  0.00000000000E+00 0.  1.
         -6    2    1    2    0  503  0.20956996927E+03  0.13670198144E+02  0.65631376497E+02  0.27928329482E+03  0.17200358963E+03 0.  0.
        -24    2    3    3    0    0  0.11045195189E+03 -0.44510707872E+02  0.79697408686E+02  0.16339825499E+03  0.78526912523E+02 0.  0.
          6    2    1    2  501    0 -0.20956996927E+03 -0.13670198144E+02  0.14835053464E+03  0.30897821883E+03  0.17132779180E+03 0.  0.
         24    2    5    5    0    0 -0.48210420952E+02 -0.46701368917E+02  0.65649796341E+02  0.12461590112E+03  0.81938785103E+02 0.  0.
          5    1    5    5  501    0 -0.16135954832E+03  0.33031170773E+02  0.82700738299E+02  0.18436231771E+03  0.47000000000E+01 0. -1.
        -11    1    6    6    0    0 -0.47910723535E+02 -0.17699343553E+02 -0.18915838303E+01  0.51110490912E+02  0.00000000000E+00 0.  1.
         12    1    6    6    0    0 -0.29969741702E+00 -0.29002025364E+02  0.67541380171E+02  0.73505410204E+02  0.00000000000E+00 0. -1.
         -5    1    3    3    0  503  0.99118017384E+02  0.58180906017E+02 -0.14066032189E+02  0.11588503983E+03  0.47000000000E+01 0.  1.
         11    1    4    4    0    0  0.53082600231E+02  0.13265038598E+02  0.87628650729E+01  0.55412196316E+02  0.00000000000E+00 0. -1.
        -12    1    4    4    0    0  0.57369351659E+02 -0.57775746471E+02  0.70934543613E+02  0.10798605867E+03  0.00000000000E+00 0.  1.
</event>
<event>
12    1  0.8494789E-002  0.1951447E+03  0.7818608E-02  0.1153993E+00
         21   -1    0    0  501  502  0.00000000000E+00  0.00000000000E+00  0.38843878489E+03  0.38843878489E+03  0.00000000000E+00 0.  1.
         21   -1    0    0  502  503 -0.00000000000E+00 -0.00000000000E+00 -0.19684537030E+03  0.19684537030E+03  0.00000000000E+00 0. -1.
         -6    2    1    2    0  503 -0.84592564974E+02  0.30482786133E+02 -0.11170801097E+03  0.22485579577E+03  0.17319453479E+03 0.  0.
        -24    2    3    3    0    0 -0.92817656378E+02 -0.35844820783E+02 -0.84523907481E+02  0.15255040835E+03  0.78913672075E+02 0.  0.
          6    2    1    2  501    0  0.84592564974E+02 -0.30482786133E+02  0.30330142555E+03  0.36042835942E+03  0.17271868813E+03 0.  0.
         24    2    5    5    0    0  0.93241433461E+02 -0.26723655843E+02  0.31815943111E+03  0.34221341182E+03  0.80476561367E+02 0.  0.
          5    1    5    5  501    0 -0.86488684874E+01 -0.37591302891E+01 -0.14858005559E+02  0.18214947593E+02  0.47000000000E+01 0. -1.
        -11    1    6    6    0    0  0.87966763215E+02 -0.46897935407E+02  0.21525934708E+03  0.23722174075E+03  0.00000000000E+00 0.  1.
         12    1    6    6    0    0  0.52746702466E+01  0.20174279563E+02  0.10290008403E+03  0.10499167108E+03  0.00000000000E+00 0. -1.
         -5    1    3    3    0  503  0.82250914048E+01  0.66327606916E+02 -0.27184103487E+02  0.72305387422E+02  0.47000000000E+01 0.  1.
         13    1    4    4    0    0 -0.19656468544E+02  0.15270556357E+02 -0.51838494049E+02  0.57504748607E+02  0.00000000000E+00 0. -1.
        -14    1    4    4    0    0 -0.73161187834E+02 -0.51115377140E+02 -0.32685413432E+02  0.95045659747E+02  0.00000000000E+00 0.  1.
</event>
<event>
12    1  0.8494789E-002  0.1845412E+03  0.7818608E-02  0.1164373E+00
         21   -1    0    0  503  502  0.00000000000E+00  0.00000000000E+00  0.36553027446E+03  0.36553027446E+03  0.00000000000E+00 0.  1.
         21   -1    0    0  501  503 -0.00000000000E+00 -0.00000000000E+00 -0.10977895297E+03  0.10977895297E+03  0.00000000000E+00 0.  1.
          6    2    1    2  501    0  0.51498977926E+02  0.41537799536E+02  0.31396274869E+02  0.18719293147E+03  0.17227284754E+03 0.  0.
         24    2    3    3    0    0  0.65929225171E+02 -0.15112408838E+02 -0.25313352850E+02  0.10561137706E+03  0.77058091714E+02 0.  0.
         -6    2    1    2    0  502 -0.51498977926E+02 -0.41537799536E+02  0.22435504662E+03  0.28811629595E+03  0.16822092477E+03 0.  0.
        -24    2    5    5    0    0 -0.87752370515E+02  0.67235837173E+01  0.13743008001E+03  0.18218466986E+03  0.80984825304E+02 0.  0.
          5    1    3    3  501    0 -0.14430247244E+02  0.56650208374E+02  0.56709627719E+02  0.81581554412E+02  0.47000000000E+01 0. -1.
        -13    1    4    4    0    0  0.53782134985E+02 -0.26417008007E+02  0.15211862698E+02  0.61820523472E+02  0.00000000000E+00 0.  1.
         14    1    4    4    0    0  0.12147090186E+02  0.11304599169E+02 -0.40525215548E+02  0.43790853584E+02  0.00000000000E+00 0. -1.
         -5    1    5    5    0  502  0.36253392589E+02 -0.48261383253E+02  0.86924966609E+02  0.10593162610E+03  0.47000000000E+01 0.  1.
         13    1    6    6    0    0  0.14544380293E+02 -0.73300613908E+01  0.16863608312E+02  0.23444617365E+02  0.00000000000E+00 0. -1.
        -14    1    6    6    0    0 -0.10229675081E+03  0.14053645108E+02  0.12056647170E+03  0.15874005249E+03  0.00000000000E+00 0.  1.
</event>
<event>
12    1  0.8494789E-002  0.2055405E+03  0.7818608E-02  0.1145533E+00
         21   -1    0    0  501  502  0.00000000000E+00  0.00000000000E+00  0.84530934063E+03  0.84530934063E+03  0.00000000000E+00 0.  1.
         21   -1    0    0  502  503 -0.00000000000E+00 -0.00000000000E+00 -0.19231544715E+03  0.19231544715E+03  0.00000000000E+00 0. -1.
         -6    2    1    2    0  503  0.77849642986E+01  0.11113092548E+03 -0.12094280947E+03  0.23685958068E+03  0.17048345823E+03 0.  0.
        -24    2    3    3    0    0  0.34111844382E+02  0.11349816361E+03 -0.14234537762E+03  0.20252492828E+03  0.81906586884E+02 0.  0.
          6    2    1    2  501    0 -0.77849642986E+01 -0.11113092548E+03  0.77393670295E+03  0.80076520710E+03  0.17273160818E+03 0.  0.
         24    2    5    5    0    0 -0.26928331256E+02 -0.19166283716E+02  0.56659584065E+03  0.57308936954E+03  0.79423531618E+02 0.  0.
          5    1    5    5  501    0  0.19143366957E+02 -0.91964641763E+02  0.20734086229E+03  0.22767583756E+03  0.47000000000E+01 0. -1.
        -11    1    6    6    0    0 -0.49449601752E+02 -0.23042380181E+02  0.26101836684E+03  0.26665858738E+03  0.00000000000E+00 0.  1.
         12    1    6    6    0    0  0.22521270496E+02  0.38760964641E+01  0.30557747381E+03  0.30643078215E+03  0.00000000000E+00 0. -1.
         -5    1    3    3    0  503 -0.26326880083E+02 -0.23672381309E+01  0.21402568157E+02  0.34334652394E+02  0.47000000000E+01 0.  1.
         11    1    4    4    0    0  0.57483813463E+01  0.15602498605E+01 -0.60963013447E+02  0.61253304207E+02  0.00000000000E+00 0. -1.
        -12    1    4    4    0    0  0.28363463036E+02  0.11193791375E+03 -0.81382364178E+02  0.14127162408E+03  0.00000000000E+00 0.  1.
</event>
<event>
12    1  0.8494789E-002  0.2459104E+03  0.7818608E-02  0.1115937E+00
         21   -1    0    0  501  502  0.00000000000E+00  0.00000000000E+00  0.56285570205E+03  0.56285570205E+03  0.00000000000E+00 0.  1.
         21   -1    0    0  502  503 -0.00000000000E+00 -0.00000000000E+00 -0.10776405230E+03  0.10776405230E+03  0.00000000000E+00 0.  1.
         -6    2    1    2    0  503  0.49978404268E+02 -0.16843092788E+03  0.20756686617E+03  0.32170652062E+03  0.17188444699E+03 0.  0.
        -24    2    3    3    0    0 -0.24396260207E+02 -0.11390027076E+03  0.17208972103E+03  0.22278280704E+03  0.80304780907E+02 0.  0.
          6    2    1    2  501    0 -0.49978404268E+02  0.16843092788E+03  0.24752478358E+03  0.34891323374E+03  0.17206134904E+03 0.  0.
         24    2    5    5    0    0 -0.86612296849E+02  0.62070339613E+02  0.12963600675E+03  0.18589645386E+03  0.79984875352E+02 0.  0.
          5    1    5    5  501    0  0.36633892580E+02  0.10636058826E+03  0.11788877683E+03  0.16301677988E+03  0.47000000000E+01 0. -1.
        -11    1    6    6    0    0 -0.33643909463E+02  0.62157819019E+01 -0.10451392887E+01  0.34229240493E+02  0.00000000000E+00 0.  1.
         12    1    6    6    0    0 -0.52968387386E+02  0.55854557712E+02  0.13068114604E+03  0.15166721336E+03  0.00000000000E+00 0. -1.
         -5    1    3    3    0  503  0.74374664475E+02 -0.54530657119E+02  0.35477145144E+02  0.98923713584E+02  0.47000000000E+01 0.  1.
         13    1    4    4    0    0 -0.47556444339E+02 -0.36150736525E+02  0.62797174343E+02  0.86671657738E+02  0.00000000000E+00 0. -1.
        -14    1    4    4    0    0  0.23160184133E+02 -0.77749534233E+02  0.10929254668E+03  0.13611114930E+03  0.00000000000E+00 0.  1.
</event>
<event>
12    1  0.8494789E-002  0.2282235E+03  0.7818608E-02  0.1128056E+00
         21   -1    0    0  503  502  0.00000000000E+00  0.00000000000E+00  0.10970750550E+03  0.10970750550E+03  0.00000000000E+00 0.  1.
         21   -1    0    0  501  503 -0.00000000000E+00 -0.00000000000E+00 -0.79747930344E+03  0.79747930344E+03  0.00000000000E+00 0.  1.
          6    2    1    2  501    0  0.42077178525E+02 -0.14232284055E+03 -0.63365920009E+03  0.67350570264E+03  0.17337724689E+03 0.  0.
         24    2    3    3    0    0  0.56408437566E+02 -0.53379279535E+02 -0.49944815466E+03  0.51179288081E+03  0.80325801185E+02 0.  0.
         -6    2    1    2    0  502 -0.42077178525E+02  0.14232284055E+03 -0.54112597846E+02  0.23368110630E+03  0.17219874071E+03 0.  0.
        -24    2    5    5    0    0  0.79016512101E+01  0.61915701550E+02  0.32269572196E+02  0.10543462204E+03  0.78607531733E+02 0.  0.
          5    1    3    3  501    0 -0.14331259041E+02 -0.88943561012E+02 -0.13421104543E+03  0.16171282184E+03  0.47000000000E+01 0. -1.
        -11    1    4    4    0    0  0.30072530367E+02 -0.19017554695E+02 -0.56744195187E+02  0.66977071873E+02  0.00000000000E+00 0.  1.
         12    1    4    4    0    0  0.26335907200E+02 -0.34361724840E+02 -0.44270395948E+03  0.44481580893E+03  0.00000000000E+00 0. -1.
         -5    1    5    5    0  502 -0.49978829735E+02  0.80407138997E+02 -0.86382170043E+02  0.12824648426E+03  0.47000000000E+01 0.  1.
         13    1    6    6    0    0  0.22602451068E+02 -0.11483521240E+02  0.55564316273E+01  0.25954113099E+02  0.00000000000E+00 0. -1.
        -14    1    6    6    0    0 -0.14700799857E+02  0.73399222790E+02  0.26713140569E+02  0.79480508942E+02  0.00000000000E+00 0.  1.
</event>
<event>
12    1  0.8494789E-002  0.1730982E+03  0.7818608E-02  0.1174692E+00
         21   -1    0    0  503  502  0.00000000000E+00  0.00000000000E+00  0.14913261892E+03  0.14913261892E+03  0.00000000000E+00 0.  1.
         21   -1    0    0  501  503 -0.00000000000E+00 -0.00000000000E+00 -0.21931986416E+03  0.21931986416E+03  0.00000000000E+00 0.  1.
          6    2    1    2  501    0  0.22446899543E+02  0.25611309459E+01 -0.88694375259E+02  0.19436773589E+03  0.17146924465E+03 0.  0.
         24    2    3    3    0    0  0.60789543522E+02 -0.35659685809E+02 -0.34972549425E+02  0.11795364196E+03  0.87880604483E+02 0.  0.
         -6    2    1    2    0  502 -0.22446899543E+02 -0.25611309459E+01  0.18507130017E+02  0.17408474719E+03  0.17161748935E+03 0.  0.
        -24    2    5    5    0    0  0.48209837713E+02 -0.15455616200E+02 -0.12775576755E+02  0.95603284327E+02  0.80085629723E+02 0.  0.
          5    1    3    3  501    0 -0.38342643979E+02  0.38220816755E+02 -0.53721825834E+02  0.76414093933E+02  0.47000000000E+01 0. -1.
        -13    1    4    4    0    0  0.58071723058E+01 -0.25729939626E+02 -0.53037009915E+02  0.59234090388E+02  0.00000000000E+00 0.  1.
         14    1    4    4    0    0  0.54982371216E+02 -0.99297461825E+01  0.18064460490E+02  0.58719551570E+02  0.00000000000E+00 0. -1.
         -5    1    5    5    0  502 -0.70656737256E+02  0.12894485254E+02  0.31282706771E+02  0.78481462859E+02  0.47000000000E+01 0.  1.
         13    1    6    6    0    0  0.43459722178E+02 -0.45873278503E+02 -0.28452800265E+01  0.63255045260E+02  0.00000000000E+00 0. -1.
        -14    1    6    6    0    0  0.47501155348E+01  0.30417662303E+02 -0.99302967281E+01  0.32348239066E+02  0.00000000000E+00 0.  1.
</event>
<event>
12    1  0.8494789E-002  0.2029980E+03  0.7818608E-02  0.1147423E+00
         21   -1    0    0  503  502  0.00000000000E+00  0.00000000000E+00  0.62328051755E+03  0.62328051755E+03  0.00000000000E+00 0.  1.
         21   -1    0    0  501  503 -0.00000000000E+00 -0.00000000000E+00 -0.69778682610E+02  0.69778682610E+02  0.00000000000E+00 0. -1.
          6    2    1    2  501    0 -0.79480832419E+02  0.69404137631E+02  0.35871744093E+03  0.41172463046E+03  0.17235089746E+03 0.  0.
         24    2    3    3    0    0  0.97318649616E+01  0.45976200696E+01  0.86887456586E+02  0.11834361457E+03  0.79623700568E+02 0.  0.
         -6    2    1    2    0  502  0.79480832419E+02 -0.69404137631E+02  0.19478439401E+03  0.28133456970E+03  0.17341869253E+03 0.  0.
        -24    2    5    5    0    0  0.68634187645E+02  0.20400500402E+02  0.75287443292E+02  0.13138746588E+03  0.80421607432E+02 0.  0.
          5    1    3    3  501    0 -0.89212697380E+02  0.64806517561E+02  0.27182998435E+03  0.29338101589E+03  0.47000000000E+01 0. -1.
        -13    1    4    4    0    0  0.97816697351E+01 -0.10825749617E+02  0.98160919871E+02  0.99239327424E+02  0.00000000000E+00 0.  1.
         14    1    4    4    0    0 -0.49804773448E-01  0.15423369686E+02 -0.11273463286E+02  0.19104287148E+02  0.00000000000E+00 0. -1.
         -5    1    5    5    0  502  0.10846644774E+02 -0.89804638033E+02  0.11949695071E+03  0.14994710382E+03  0.47000000000E+01 0.  1.
         11    1    6    6    0    0  0.32949361271E+02  0.34116058276E+02  0.54199606030E+00  0.47432684936E+02  0.00000000000E+00 0. -1.
        -12    1    6    6    0    0  0.35684826374E+02 -0.13715557874E+02  0.74745447232E+02  0.83954780942E+02  0.00000000000E+00 0.  1.
</event>
<event>
12    1  0.8494789E-002  0.1954386E+03  0.7818608E-02  0.1153953E+00
         21   -1    0    0  503  502  0.00000000000E+00  0.00000000000E+00  0.14579152056E+03  0.14579152056E+03  0.00000000000E+00 0. -1.
         21   -1    0    0  501  503 -0.00000000000E+00 -0.00000000000E+00 -0.30924936175E+03  0.30924936175E+03  0.00000000000E+00 0. -1.
          6    2    1    2  501    0 -0.92874313831E+02 -0.52618669012E+01 -0.17217800641E+03  0.25940781436E+03  0.17027572594E+03 0.  0.
         24    2    3    3    0    0 -0.16214858051E+02 -0.56253853180E+02 -0.11117442931E+03  0.14886198112E+03  0.79829305853E+02 0.  0.
         -6    2    1    2    0  502  0.92874313831E+02  0.52618669012E+01  0.87201652212E+01  0.19563306795E+03  0.17188057069E+03 0.  0.
        -24    2    5    5    0    0  0.56020887160E+01  0.29904737416E+01 -0.43500716591E+02  0.93796380057E+02  0.82856033195E+02 0.  0.
          5    1    3    3  501    0 -0.76659455780E+02  0.50991986279E+02 -0.61003577106E+02  0.11054583323E+03  0.47000000000E+01 0. -1.
        -13    1    4    4    0    0 -0.35320552646E+02 -0.34944381550E+02 -0.20448575167E+02  0.53728907186E+02  0.00000000000E+00 0.  1.
         14    1    4    4    0    0  0.19105694595E+02 -0.21309471631E+02 -0.90725854142E+02  0.95133073938E+02  0.00000000000E+00 0. -1.
         -5    1    5    5    0  502  0.87272225115E+02  0.22713931596E+01  0.52220881812E+02  0.10183668789E+03  0.47000000000E+01 0.  1.
         11    1    6    6    0    0  0.42636222571E+02 -0.71748680942E+01 -0.31728764213E+02  0.53628730041E+02  0.00000000000E+00 0. -1.
        -12    1    6    6    0    0 -0.37034133855E+02  0.10165341836E+02 -0.11771952379E+02  0.40167650017E+02  0.00000000000E+00 0.  1.
</event>
<event>
12    1  0.8494789E-002  0.2010459E+03  0.7818608E-02  0.1148969E+00
         21   -1    0    0  501  502  0.00000000000E+00  0.00000000000E+00  0.51292473813E+03  0.51292473813E+03  0.00000000000E+00 0.  1.
         21   -1    0    0  502  503 -0.00000000000E+00 -0.00000000000E+00 -0.15852622658E+03  0.15852622658E+03  0.00000000000E+00 0.  1.
         -6    2    1    2    0  503 -0.10151379681E+03  0.19056351749E+02 -0.61303575693E+02  0.20968512477E+03  0.17187648959E+03 0.  0.
        -24    2    3    3    0    0 -0.62574143355E+02 -0.48425025699E+02 -0.28611275547E+01  0.11217798320E+03  0.79468278783E+02 0.  0.
          6    2    1    2  501    0  0.10151379681E+03 -0.19056351749E+02  0.41570208724E+03  0.46176583994E+03  0.17248556494E+03 0.  0.
         24    2    5    5    0    0  0.53909178919E+02  0.48220484204E+02  0.30775309654E+03  0.32587085514E+03  0.79047018481E+02 0.  0.
          5    1    5    5  501    0  0.47604617887E+02 -0.67276835953E+02  0.10794899070E+03  0.13589498480E+03  0.47000000000E+01 0. -1.
        -11    1    6    6    0    0  0.41165796122E+02  0.21376291841E+02  0.57580843379E+02  0.73939990178E+02  0.00000000000E+00 0.  1.
         12    1    6    6    0    0  0.12743382797E+02  0.26844192364E+02  0.25017225316E+03  0.25193086496E+03  0.00000000000E+00 0. -1.
         -5    1    3    3    0  503 -0.38939653451E+02  0.67481377448E+02 -0.58442448138E+02  0.97507141572E+02  0.47000000000E+01 0.  1.
         13    1    4    4    0    0  0.13152138834E+02 -0.21629643808E+02 -0.17167588751E+02  0.30586702187E+02  0.00000000000E+00 0. -1.
        -14    1    4    4    0    0 -0.75726282189E+02 -0.26795381891E+02  0.14306461197E+02  0.81591281009E+02  0.00000000000E+00 0.  1.
</event>
<event>
12    1  0.8494789E-002  0.1908612E+03  0.7818608E-02  0.1157764E+00
         21   -1    0    0  501  502  0.00000000000E+00  0.00000000000E+00  0.29216412017E+03  0.29216412017E+03  0.00000000000E+00 0. -1.
         21   -1    0    0  502  503 -0.00000000000E+00 -0.00000000000E+00 -0.17707965272E+03  0.17707965272E+03  0.00000000000E+00 0. -1.
         -6    2    1    2    0  503  0.14791745744E+02 -0.80023024309E+02 -0.70390958973E+02  0.20310634667E+03  0.17226381161E+03 0.  0.
        -24    2    3    3    0    0  0.47991161741E+02 -0.58517301059E+01 -0.77603422367E+02  0.12138920199E+03  0.79847685284E+02 0.  0.
          6    2    1    2  501    0 -0.14791745744E+02  0.80023024309E+02  0.18547542642E+03  0.26613742623E+03  0.17264273999E+03 0.  0.
         24    2    5    5    0    0 -0.60923916463E+00  0.27169726795E+01  0.48757442608E+02  0.10836776435E+03  0.96739500862E+02 0.  0.
          5    1    5    5  501    0 -0.14182506580E+02  0.77306051630E+02  0.13671798382E+03  0.15776966188E+03  0.47000000000E+01 0. -1.
        -13    1    6    6    0    0  0.29326558305E+02 -0.12281726983E+02  0.64088501926E+02  0.71541763458E+02  0.00000000000E+00 0.  1.
         14    1    6    6    0    0 -0.29935797469E+02  0.14998699662E+02 -0.15331059318E+02  0.36826000889E+02  0.00000000000E+00 0. -1.
         -5    1    3    3    0  503 -0.33199415997E+02 -0.74171294204E+02  0.72124633946E+01  0.81717144680E+02  0.47000000000E+01 0.  1.
         13    1    4    4    0    0  0.32245230179E+02  0.34142231234E+02 -0.56612062602E+02  0.73555234043E+02  0.00000000000E+00 0. -1.
        -14    1    4    4    0    0  0.15745931562E+02 -0.39993961340E+02 -0.20991359765E+02  0.47833967944E+02  0.00000000000E+00 0.  1.
</event>
<event>
12    1  0.8494789E-002  0.1837108E+03  0.7818608E-02  0.1164617E+00
         21   -1    0    0  501  502  0.00000000000E+00  0.00000000000E+00  0.32697096830E+03  0.32697096830E+03  0.00000000000E+00 0.  1.
         21   -1    0    0  502  503 -0.00000000000E+00 -0.00000000000E+00 -0.11792573499E+03  0.11792573499E+03  0.00000000000E+00 0. -1.
         -6    2    1    2    0  503 -0.57417378827E+02 -0.26151456666E+02  0.23363141122E+02  0.18369277996E+03  0.17092848495E+03 0.  0.
        -24    2    3    3    0    0 -0.83660522923E+02 -0.54708377720E+02  0.46798155062E+02  0.13813523140E+03  0.83061333655E+02 0.  0.
          6    2    1    2  501    0  0.57417378827E+02  0.26151456666E+02  0.18568209219E+03  0.26120392332E+03  0.17253694133E+03 0.  0.
         24    2    5    5    0    0  0.56291463257E+02 -0.98872581782E+01  0.34943823043E+02  0.10614208909E+03  0.82332166234E+02 0.  0.
          5    1    5    5  501    0  0.11259155703E+01  0.36038714844E+02  0.15073826914E+03  0.15506183424E+03  0.47000000000E+01 0. -1.
        -11    1    6    6    0    0  0.10312130990E+02 -0.40873389896E+02  0.27175832982E+02  0.50154759948E+02  0.00000000000E+00 0.  1.
         12    1    6    6    0    0  0.45979332267E+02  0.30986131717E+02  0.77679900610E+01  0.55987329139E+02  0.00000000000E+00 0. -1.
         -5    1    3    3    0  503  0.26243144096E+02  0.28556921054E+02 -0.23435013940E+02  0.45557548557E+02  0.47000000000E+01 0.  1.
         11    1    4    4    0    0 -0.19598857360E+01  0.83234716446E+01 -0.15425522917E+02  0.17637122485E+02  0.00000000000E+00 0. -1.
        -12    1    4    4    0    0 -0.81700637187E+02 -0.63031849365E+02  0.62223677979E+02  0.12049810892E+03  0.00000000000E+00 0.  1.
</event>
<event>
12    1  0.8494789E-002  0.1739252E+03  0.7818608E-02  0.1173935E+00
         21   -1    0    0  501  502  0.00000000000E+00  0.00000000000E+00  0.10399913188E+03  0.10399913188E+03  0.00000000000E+00 0. -1.
         21   -1    0    0  502  503 -0.00000000000E+00 -0.00000000000E+00 -0.47317470414E+03  0.47317470414E+03  0.00000000000E+00 0. -1.
         -6    2    1    2    0  503 -0.20194412709E+02  0.97447632825E+01 -0.36425943892E+03  0.40365198493E+03  0.17247379910E+03 0.  0.
        -24    2    3    3    0    0 -0.41073429677E+02  0.52598278828E+01 -0.82939168196E+02  0.12148318311E+03  0.78514748576E+02 0.  0.
          6    2    1    2  501    0  0.20194412709E+02 -0.97447632825E+01 -0.49161333442E+01  0.17352185110E+03  0.17199677242E+03 0.  0.
         24    2    5    5    0    0 -0.31783128966E+02 -0.45675047719E+02  0.28575575251E+02  0.10185292671E+03  0.80380830470E+02 0.  0.
          5    1    5    5  501    0  0.51977541674E+02  0.35930284436E+02 -0.33491708595E+02  0.71668924387E+02  0.47000000000E+01 0. -1.
        -11    1    6    6    0    0 -0.22201713210E+02 -0.34211973564E+01 -0.24565486848E+02  0.33287892767E+02  0.00000000000E+00 0.  1.
         12    1    6    6    0    0 -0.95814157554E+01 -0.42253850362E+02  0.53141062098E+02  0.68565033941E+02  0.00000000000E+00 0. -1.
         -5    1    3    3    0  503  0.20879016968E+02  0.44849353996E+01 -0.28132027073E+03  0.28216880181E+03  0.47000000000E+01 0.  1.
         13    1    4    4    0    0 -0.25000651786E+02 -0.25706361013E+02 -0.78513499086E+02  0.86314651856E+02  0.00000000000E+00 0. -1.
        -14    1    4    4    0    0 -0.16072777891E+02  0.30966188896E+02 -0.44256691093E+01  0.35168531259E+02  0.00000000000E+00 0.  1.
</event>
<event>
12    1  0.8494789E-002  0.2316463E+03  0.7818608E-02  0.1125539E+00
         21   -1    0    0  501  502  0.00000000000E+00  0.00000000000E+00  0.19453034242E+03  0.19453034242E+03  0.00000000000E+00 0.  1.
         21   -1    0    0  502  503 -0.00000000000E+00 -0.00000000000E+00 -0.51541952814E+03  0.51541952814E+03  0.00000000000E+00 0. -1.
         -6    2    1    2    0  503  0.14942008573E+03 -0.41189165903E+02 -0.40269305658E+03  0.46456615015E+03  0.17215429313E+03 0.  0.
        -24    2    3    3    0    0  0.12354835526E+03 -0.81427976860E+02 -0.22876257362E+03  0.28411557175E+03  0.80589276686E+02 0.  0.
          6    2    1    2  501    0 -0.14942008573E+03  0.41189165903E+02  0.81803870856E+02  0.24538372042E+03  0.17175094629E+03 0.  0.
         24    2    5    5    0    0 -0.14747510673E+03  0.38927925677E+02  0.97860138460E+01  0.17315105551E+03  0.81370949695E+02 0.  0.
          5    1    5    5  501    0 -0.19449789919E+01  0.22612402262E+01  0.72017857010E+02  0.72232664903E+02  0.47000000000E+01 0. -1.
        -13    1    6    6    0    0 -0.72860041833E+02  0.91888077164E+01 -0.34819321242E+02  0.81273642806E+02  0.00000000000E+00 0.  1.
         14    1    6    6    0    0 -0.74615064901E+02  0.29739117960E+02  0.44605335088E+02  0.91877412706E+02  0.00000000000E+00 0. -1.
         -5    1    3    3    0  503  0.25871730471E+02  0.40238810957E+02 -0.17393048295E+03  0.18045057840E+03  0.47000000000E+01 0.  1.
         13    1    4    4    0    0  0.18219455815E+02 -0.54806400739E+02 -0.58978215992E+02  0.82547683757E+02  0.00000000000E+00 0. -1.
        -14    1    4    4    0    0  0.10532889944E+03 -0.26621576121E+02 -0.16978435763E+03  0.20156788799E+03  0.00000000000E+00 0.  1.
</event>
<event>
12    1  0.8494789E-002  0.1974502E+03  0.7818608E-02  0.1152750E+00
         21   -1    0    0  503  502  0.00000000000E+00  0.00000000000E+00  0.93363578463E+03  0.93363578463E+03  0.00000000000E+00 0.  1.
         21   -1    0    0  501  503 -0.00000000000E+00 -0.00000000000E+00 -0.46323983727E+02  0.46323983727E+02  0.00000000000E+00 0.  1.
          6    2    1    2  501    0 -0.71149054535E+02  0.67918073778E+02  0.60678500608E+03  0.63691188166E+03  0.16671427260E+03 0.  0.
         24    2    3    3    0    0 -0.57004832854E+02 -0.18875974342E+02  0.37724334154E+03  0.39105677889E+03  0.83707898116E+02 0.  0.
         -6    2    1    2    0  502  0.71149054535E+02 -0.67918073778E+02  0.28052679482E+03  0.34304788670E+03  0.17120606662E+03 0.  0.
        -24    2    5    5    0    0  0.65012588900E+02 -0.37559207227E+02  0.69451634127E+02  0.12966060861E+03  0.79693244244E+02 0.  0.
          5    1    3    3  501    0 -0.14144221681E+02  0.86794048120E+02  0.22954166455E+03  0.24585510277E+03  0.47000000000E+01 0. -1.
        -11    1    4    4    0    0 -0.54116276640E+02  0.18381958312E+02  0.14554839361E+03  0.15636752435E+03  0.00000000000E+00 0.  1.
         12    1    4    4    0    0 -0.28885562138E+01 -0.37257932654E+02  0.23169494792E+03  0.23468925454E+03  0.00000000000E+00 0. -1.
         -5    1    5    5    0  502  0.61364656346E+01 -0.30358866551E+02  0.21107516070E+03  0.21338727809E+03  0.47000000000E+01 0.  1.
         13    1    6    6    0    0  0.37493661848E+02  0.21726647703E+02  0.35434630471E+02  0.55977092956E+02  0.00000000000E+00 0. -1.
        -14    1    6    6    0    0  0.27518927052E+02 -0.59285854930E+02  0.34017003657E+02  0.73683515650E+02  0.00000000000E+00 0.  1.
</event>
<event>
12    1  0.8494789E-002  0.3120299E+03  0.7818608E-02  0.1079542E+00
         21   -1    0    0  501  502  0.00000000000E+00  0.00000000000E+00  0.84398736428E+03  0.84398736428E+03  0.00000000000E+00 0.  1.
         21   -1    0    0  502  503 -0.00000000000E+00 -0.00000000000E+00 -0.11845846709E+03  0.11845846709E+03  0.00000000000E+00 0. -1.
         -6    2    1    2    0  503  0.92328191309E+02 -0.24338630677E+03  0.27954203686E+03  0.41893486247E+03  0.17205022345E+03 0.  0.
        -24    2    3    3    0    0  0.27743218254E+01 -0.51844345511E+02  0.49893569244E+02  0.10673504322E+03  0.78787487436E+02 0.  0.
          6    2    1    2  501    0 -0.92328191309E+02  0.24338630677E+03  0.44598686032E+03  0.54351096890E+03  0.16952434781E+03 0.  0.
         24    2    5    5    0    0 -0.35914795885E+02  0.35020065883E+02  0.11679945346E+03  0.14982911720E+03  0.79311880908E+02 0.  0.
          5    1    5    5  501    0 -0.56413395425E+02  0.20836624089E+03  0.32918740686E+03  0.39368185170E+03  0.47000000000E+01 0. -1.
        -13    1    6    6    0    0 -0.16770661692E+02 -0.12268227415E+02  0.89673364970E+02  0.92049317665E+02  0.00000000000E+00 0.  1.
         14    1    6    6    0    0 -0.19144134193E+02  0.47288293298E+02  0.27126088490E+02  0.57779799531E+02  0.00000000000E+00 0. -1.
         -5    1    3    3    0  503  0.89553869484E+02 -0.19154196126E+03  0.22964846762E+03  0.31219981925E+03  0.47000000000E+01 0.  1.
         13    1    4    4    0    0  0.30458902052E+02 -0.42506156837E+02  0.41501177973E+01  0.52457044913E+02  0.00000000000E+00 0. -1.
        -14    1    4    4    0    0 -0.27684580227E+02 -0.93381886741E+01  0.45743451447E+02  0.54277998308E+02  0.00000000000E+00 0.  1.
</event>
<event>
12    1  0.8494789E-002  0.2322384E+03  0.7818608E-02  0.1125151E+00
         21   -1    0    0  503  502  0.00000000000E+00  0.00000000000E+00  0.67020920312E+02  0.67020920312E+02  0.00000000000E+00 0. -1.
         21   -1    0    0  501  503 -0.00000000000E+00 -0.00000000000E+00 -0.14664774828E+04  0.14664774828E+04  0.00000000000E+00 0. -1.
          6    2    1    2  501    0  0.15653427448E+03 -0.81536705624E+01 -0.12157466687E+04  0.12377296212E+04  0.17136274780E+03 0.  0.
         24    2    3    3    0    0  0.62272889144E+02 -0.43334235659E+02 -0.32368259140E+03  0.33999731761E+03  0.71217886102E+02 0.  0.
         -6    2    1    2    0  502 -0.15653427448E+03  0.81536705624E+01 -0.18370989382E+03  0.29576878194E+03  0.17076412342E+03 0.  0.
        -24    2    5    5    0    0 -0.43832179195E+02 -0.28897995642E+02 -0.12856587380E+03  0.16485834998E+03  0.88841080400E+02 0.  0.
          5    1    3    3  501    0  0.94261385339E+02  0.35180565097E+02 -0.89206407729E+03  0.89773230359E+03  0.47000000000E+01 0. -1.
        -11    1    4    4    0    0 -0.65533604786E+01  0.55919282707E+01 -0.42780538515E+01  0.96186246472E+01  0.00000000000E+00 0.  1.
         12    1    4    4    0    0  0.68826249623E+02 -0.48926163930E+02 -0.31940453755E+03  0.33037869296E+03  0.00000000000E+00 0. -1.
         -5    1    5    5    0  502 -0.11270209529E+03  0.37051666205E+02 -0.55144020022E+02  0.13091043196E+03  0.47000000000E+01 0.  1.
         11    1    6    6    0    0 -0.63986155165E+02  0.10144194687E+01 -0.61749631786E+02  0.88928477584E+02  0.00000000000E+00 0. -1.
        -12    1    6    6    0    0  0.20153975969E+02 -0.29912415111E+02 -0.66816242014E+02  0.75929872396E+02  0.00000000000E+00 0.  1.
</event>
<event>
12    1  0.8494789E-002  0.2120152E+03  0.7818608E-02  0.1140741E+00
         21   -1    0    0  501  502  0.00000000000E+00  0.00000000000E+00  0.62555853586E+03  0.62555853586E+03  0.00000000000E+00 0.  1.
         21   -1    0    0  502  503 -0.00000000000E+00 -0.00000000000E+00 -0.14608185496E+03  0.14608185496E+03  0.00000000000E+00 0. -1.
         -6    2    1    2    0  503  0.73286052994E+02 -0.90143239985E+02 -0.36611344672E+02  0.21515308936E+03  0.17735222588E+03 0.  0.
        -24    2    3    3    0    0  0.10321796742E+03 -0.31370160229E+02  0.92299302838E+01  0.13469374003E+03  0.80119761864E+02 0.  0.
          6    2    1    2  501    0 -0.73286052994E+02  0.90143239985E+02  0.51608802557E+03  0.55648730146E+03  0.17272700214E+03 0.  0.
         24    2    5    5    0    0 -0.83581845529E+02  0.11079597652E+02  0.21069467055E+03  0.24082252013E+03  0.80588830584E+02 0.  0.
          5    1    5    5  501    0  0.10295792534E+02  0.79063642334E+02  0.30539335502E+03  0.31566478133E+03  0.47000000000E+01 0. -1.
        -11    1    6    6    0    0  0.14154806988E+02 -0.90133037198E+01  0.33384261651E+02  0.37364517002E+02  0.00000000000E+00 0.  1.
         12    1    6    6    0    0 -0.97736652517E+02  0.20092901372E+02  0.17731040890E+03  0.20345800313E+03  0.00000000000E+00 0. -1.
         -5    1    3    3    0  503 -0.29931914421E+02 -0.58773079756E+02 -0.45841274956E+02  0.80459349329E+02  0.47000000000E+01 0.  1.
         11    1    4    4    0    0  0.71604278175E+01 -0.31403802426E+02 -0.15143672565E+02  0.35592152957E+02  0.00000000000E+00 0. -1.
        -12    1    4    4    0    0  0.96057539598E+02  0.33642196543E-01  0.24373602849E+02  0.99101587077E+02  0.00000000000E+00 0.  1.
</event>
<event>
12    1  0.8494789E-002  0.2113039E+03  0.7818608E-02  0.1140742E+00
         21   -1    0    0  501  502  0.00000000000E+00  0.00000000000E+00  0.37570173641E+02  0.37570173641E+02  0.00000000000E+00 0.  1.
         21   -1    0    0  502  503 -0.00000000000E+00 -0.00000000000E+00 -0.28139766194E+04  0.28139766194E+04  0.00000000000E+00 0.  1.
         -6    2    1    2    0  503  0.74645069092E+02  0.97180810584E+02 -0.24723616884E+04  0.24812866742E+04  0.17086616025E+03 0.  0.
        -24    2    3    3    0    0 -0.16044335325E+02  0.84237282788E+02 -0.98237556276E+03  0.98847963785E+03  0.68387920273E+02 0.  0.
          6    2    1    2  501    0 -0.74645069092E+02 -0.97180810584E+02 -0.30404475739E+03  0.37026011893E+03  0.17214338468E+03 0.  0.
         24    2    5    5    0    0 -0.62639977868E+02 -0.12377395443E+03 -0.30049927228E+03  0.34049473669E+03  0.79956828665E+02 0.  0.
          5    1    5    5  501    0 -0.12005091224E+02  0.26593143847E+02 -0.35454851039E+01  0.29765382235E+02  0.47000000000E+01 0. -1.
        -13    1    6    6    0    0 -0.35854385617E+02 -0.99364660073E+02 -0.13683366153E+03  0.17286504438E+03  0.00000000000E+00 0.  1.
         14    1    6    6    0    0 -0.26785592251E+02 -0.24409294359E+02 -0.16366561075E+03  0.16762969232E+03  0.00000000000E+00 0. -1.
         -5    1    3    3    0  503  0.90689404416E+02  0.12943527796E+02 -0.14899861257E+04  0.14928070363E+04  0.47000000000E+01 0.  1.
         13    1    4    4    0    0 -0.19940332850E+02  0.36869619091E+02 -0.18501281346E+03  0.18970167852E+03  0.00000000000E+00 0. -1.
        -14    1    4    4    0    0  0.38959975253E+01  0.47367663697E+02 -0.79736274930E+03  0.79877795934E+03  0.00000000000E+00 0.  1.
</event>
<event>
12    1  0.8494789E-002  0.1764294E+03  0.7818608E-02  0.1171385E+00
         21   -1    0    0  503  502  0.00000000000E+00  0.00000000000E+00  0.85134723438E+02  0.85134723438E+02  0.00000000000E+00 0. -1.
         21   -1    0    0  501  503 -0.00000000000E+00 -0.00000000000E+00 -0.44205709576E+03  0.44205709576E+03  0.00000000000E+00 0. -1.
          6    2    1    2  501    0 -0.38494640126E+02 -0.58727835338E+01 -0.28841363605E+03  0.33792803842E+03  0.17174576206E+03 0.  0.
         24    2    3    3    0    0 -0.68751367491E+02  0.31594429932E+02 -0.12435184418E+03  0.16687943952E+03  0.81611320583E+02 0.  0.
         -6    2    1    2    0  502  0.38494640126E+02  0.58727835338E+01 -0.68508736276E+02  0.18926378078E+03  0.17207848461E+03 0.  0.
        -24    2    5    5    0    0 -0.26378277158E+02  0.43220260582E+01  0.12399410131E+02  0.85441247580E+02  0.80199551129E+02 0.  0.
          5    1    3    3  501    0  0.30256727365E+02 -0.37467213466E+02 -0.16406179187E+03  0.17104859890E+03  0.47000000000E+01 0. -1.
        -13    1    4    4    0    0 -0.24965931673E+02 -0.12131559671E+02  0.24954853614E+00  0.27758507864E+02  0.00000000000E+00 0.  1.
         14    1    4    4    0    0 -0.43785435818E+02  0.43725989603E+02 -0.12460139272E+03  0.13912093165E+03  0.00000000000E+00 0. -1.
         -5    1    5    5    0  502  0.64872917284E+02  0.15507574756E+01 -0.80908146407E+02  0.10382253320E+03  0.47000000000E+01 0.  1.
         13    1    6    6    0    0 -0.36143802527E+02 -0.33582570475E+01 -0.26281021751E+02  0.44814556294E+02  0.00000000000E+00 0. -1.
        -14    1    6    6    0    0  0.97655253686E+01  0.76802831056E+01  0.38680431882E+02  0.40626691286E+02  0.00000000000E+00 0.  1.
</event>
<event>
12    1  0.8494789E-002  0.2562840E+03  0.7818608E-02  0.1110171E+00
         21   -1    0    0  501  502  0.00000000000E+00  0.00000000000E+00  0.65150212616E+03  0.65150212616E+03  0.00000000000E+00 0.  1.
         21   -1    0    0  502  503 -0.00000000000E+00 -0.00000000000E+00 -0.18269220778E+03  0.18269220778E+03  0.00000000000E+00 0. -1.
         -6    2    1    2    0  503 -0.12033435505E+03 -0.14663041447E+03 -0.46886085662E+02  0.26053748641E+03  0.17233874011E+03 0.  0.
        -24    2    3    3    0    0 -0.31716570171E+02 -0.50512311990E+02  0.36278213539E+02  0.10552073866E+03  0.79127005653E+02 0.  0.
          6    2    1    2  501    0  0.12033435505E+03  0.14663041447E+03  0.51569600404E+03  0.57365684754E+03  0.16479980186E+03 0.  0.
         24    2    5    5    0    0  0.14463814305E+03  0.12485864079E+03  0.36728217459E+03  0.42162580133E+03  0.79763700813E+02 0.  0.
          5    1    5    5  501    0 -0.24303788000E+02  0.21771773677E+02  0.14841382945E+03  0.15203104621E+03  0.47000000000E+01 0. -1.
        -13    1    6    6    0    0  0.41014231716E+02  0.47724648447E+02  0.54609931269E+02  0.83318988627E+02  0.00000000000E+00 0.  1.
         14    1    6    6    0    0  0.10362391133E+03  0.77133992343E+02  0.31267224332E+03  0.33830681270E+03  0.00000000000E+00 0. -1.
         -5    1    3    3    0  503 -0.88617784879E+02 -0.96118102476E+02 -0.83164299202E+02  0.15501674775E+03  0.47000000000E+01 0.  1.
         11    1    4    4    0    0 -0.48397429247E+02 -0.68732776818E+01  0.32391286016E+02  0.58640843391E+02  0.00000000000E+00 0. -1.
        -12    1    4    4    0    0  0.16680859076E+02 -0.43639034308E+02  0.38869275229E+01  0.46879895269E+02  0.00000000000E+00 0.  1.
</event>
<event>
12    1  0.8494789E-002  0.1856013E+03  0.7818608E-02  0.1162836E+00
         21   -1    0    0  501  502  0.00000000000E+00  0.00000000000E+00  0.11060546387E+03  0.11060546387E+03  0.00000000000E+00 0. -1.
         21   -1    0    0  502  503 -0.00000000000E+00 -0.00000000000E+00 -0.31058391954E+03  0.31058391954E+03  0.00000000000E+00 0.  1.
         -6    2    1    2    0  503 -0.66377745242E+02  0.11288781044E+02 -0.11479850264E+03  0.21697514831E+03  0.17136533236E+03 0.  0.
        -24    2    3    3    0    0  0.27660840068E+02 -0.70611481431E+01 -0.35794715207E+02  0.92702609681E+02  0.80607259714E+02 0.  0.
          6    2    1    2  501    0  0.66377745242E+02 -0.11288781044E+02 -0.85179953037E+02  0.20421423510E+03  0.17295776298E+03 0.  0.
         24    2    5    5    0    0 -0.79225879640E+01 -0.45813864082E+02 -0.80881027877E+02  0.12203703856E+03  0.78674141672E+02 0.  0.
          5    1    5    5  501    0  0.74300333206E+02  0.34525083038E+02 -0.42989251594E+01  0.82177196538E+02  0.47000000000E+01 0. -1.
        -11    1    6    6    0    0 -0.38580397770E+02 -0.33176594619E+01 -0.29839882129E+02  0.48886322442E+02  0.00000000000E+00 0.  1.
         12    1    6    6    0    0  0.30657809806E+02 -0.42496204620E+02 -0.51041145749E+02  0.73150716118E+02  0.00000000000E+00 0. -1.
         -5    1    3    3    0  503 -0.94038585311E+02  0.18349929187E+02 -0.79003787430E+02  0.12427253863E+03  0.47000000000E+01 0.  1.
         13    1    4    4    0    0 -0.21808475285E+02 -0.24705215954E+02 -0.12464277476E+02  0.35232307653E+02  0.00000000000E+00 0. -1.
        -14    1    4    4    0    0  0.49469315353E+02  0.17644067811E+02 -0.23330437731E+02  0.57470302028E+02  0.00000000000E+00 0.  1.
</event>
<event>
12    1  0.8494789E-002  0.3462031E+03  0.7818608E-02  0.1064326E+00
         21   -1    0    0  503  502  0.00000000000E+00  0.00000000000E+00  0.95674921960E+02  0.95674921960E+02  0.00000000000E+00 0.  1.
         21   -1    0    0  501  503 -0.00000000000E+00 -0.00000000000E+00 -0.14429568885E+04  0.14429568885E+04  0.00000000000E+00 0.  1.
          6    2    1    2  501    0 -0.29794419242E+03  0.22651654225E+02 -0.38959560154E+03  0.52029012566E+03  0.17214308842E+03 0.  0.
         24    2    3    3    0    0 -0.22245820419E+03 -0.48678016883E+02 -0.27448184589E+03  0.36517944538E+03  0.78476376478E+02 0.  0.
         -6    2    1    2    0  502  0.29794419242E+03 -0.22651654225E+02 -0.95768636503E+03  0.10183416848E+04  0.17485071935E+03 0.  0.
        -24    2    5    5    0    0  0.56097050844E+02 -0.74025447511E+01 -0.19985066470E+03  0.22269125032E+03  0.80308330876E+02 0.  0.
          5    1    3    3  501    0 -0.75485988227E+02  0.71329671108E+02 -0.11511375565E+03  0.15511068028E+03  0.47000000000E+01 0. -1.
        -13    1    4    4    0    0 -0.20867023736E+03 -0.21611692889E+02 -0.22987173790E+03  0.31120949394E+03  0.00000000000E+00 0.  1.
         14    1    4    4    0    0 -0.13787966824E+02 -0.27066323994E+02 -0.44610107990E+02  0.53969951441E+02  0.00000000000E+00 0. -1.
         -5    1    5    5    0  502  0.24184714157E+03 -0.15249109474E+02 -0.75783570033E+03  0.79565043450E+03  0.47000000000E+01 0.  1.
         13    1    6    6    0    0 -0.92743028566E+01  0.23977932646E+02 -0.54196896797E+02  0.59985477992E+02  0.00000000000E+00 0. -1.
        -14    1    6    6    0    0  0.65371353701E+02 -0.31380477397E+02 -0.14565376790E+03  0.16270577233E+03  0.00000000000E+00 0.  1.
</event>
<event>
12    1  0.8494789E-002  0.2015452E+03  0.7818608E-02  0.1148480E+00
         21   -1    0    0  503  502  0.00000000000E+00  0.00000000000E+00  0.82856286564E+03  0.82856286564E+03  0.00000000000E+00 0.  1.
         21   -1    0    0  501  503 -0.00000000000E+00 -0.00000000000E+00 -0.10687951988E+03  0.10687951988E+03  0.00000000000E+00 0.  1.
          6    2    1    2  501    0  0.92637251608E+02 -0.46308575546E+02  0.16665869000E+02  0.20223306287E+03  0.17289972809E+03 0.  0.
         24    2    3    3    0    0  0.91772976519E+02 -0.68347099426E+02  0.61382396956E+02  0.15215211461E+03  0.79302346151E+02 0.  0.
         -6    2    1    2    0  502 -0.92637251608E+02  0.46308575546E+02  0.70501747676E+03  0.73320932266E+03  0.17268504201E+03 0.  0.
        -24    2    5    5    0    0 -0.94042435127E+02  0.66627158666E+02  0.34135195969E+03  0.36894359867E+03  0.79467356456E+02 0.  0.
          5    1    3    3  501    0  0.86427508893E+00  0.22038523880E+02 -0.44716527956E+02  0.50080948261E+02  0.47000000000E+01 0. -1.
        -13    1    4    4    0    0  0.23050198665E+02 -0.35865718938E+02 -0.14221002764E+02  0.44943279509E+02  0.00000000000E+00 0.  1.
         14    1    4    4    0    0  0.68722777854E+02 -0.32481380488E+02  0.75603399720E+02  0.10720883510E+03  0.00000000000E+00 0. -1.
         -5    1    5    5    0  502  0.14051835185E+01 -0.20318583120E+02  0.36366551707E+03  0.36426572398E+03  0.47000000000E+01 0.  1.
         11    1    6    6    0    0 -0.48822071809E+01 -0.73811684160E+01  0.42147297995E+00  0.88597535866E+01  0.00000000000E+00 0. -1.
        -12    1    6    6    0    0 -0.89160227946E+02  0.74008327082E+02  0.34093048671E+03  0.36008384509E+03  0.00000000000E+00 0.  1.
</event>
<event>
12    1  0.8494789E-002  0.2119254E+03  0.7818608E-02  0.1140708E+00
         21   -1    0    0  501  502  0.00000000000E+00  0.00000000000E+00  0.32890764681E+03  0.32890764681E+03  0.00000000000E+00 0.  1.
         21   -1    0    0  502  503 -0.00000000000E+00 -0.00000000000E+00 -0.15278458365E+03  0.15278458365E+03  0.00000000000E+00 0.  1.
         -6    2    1    2    0  503 -0.46849143502E+00 -0.12320642490E+03  0.39274190454E+01  0.20862862775E+03  0.16831647892E+03 0.  0.
        -24    2    3    3    0    0  0.15081511218E+02 -0.11373838587E+03 -0.42591233180E+02  0.15845372017E+03  0.10064639036E+03 0.  0.
          6    2    1    2  501    0  0.46849143502E+00  0.12320642490E+03  0.17219564411E+03  0.27306360271E+03  0.17243070682E+03 0.  0.
         24    2    5    5    0    0 -0.53570950652E+02  0.13316378071E+03  0.10927320784E+03  0.18939321833E+03  0.57677707576E+02 0.  0.
          5    1    5    5  501    0  0.54039442087E+02 -0.99573558116E+01  0.62922436272E+02  0.83670384380E+02  0.47000000000E+01 0. -1.
        -11    1    6    6    0    0 -0.16909224206E+02  0.10841899071E+03  0.85984952779E+02  0.13940592352E+03  0.00000000000E+00 0.  1.
         12    1    6    6    0    0 -0.36661726446E+02  0.24744790003E+02  0.23288255058E+02  0.49987294805E+02  0.00000000000E+00 0. -1.
         -5    1    3    3    0  503 -0.15550002653E+02 -0.94680390264E+01  0.46518652225E+02  0.50174907577E+02  0.47000000000E+01 0.  1.
         13    1    4    4    0    0  0.24559496024E+02  0.11314103594E+02 -0.10450566507E+02  0.28989517509E+02  0.00000000000E+00 0. -1.
        -14    1    4    4    0    0 -0.94779848067E+01 -0.12505248947E+03 -0.32140666673E+02  0.12946420266E+03  0.00000000000E+00 0.  1.
</event>
<event>
12    1  0.8494789E-002  0.1847125E+03  0.7818608E-02  0.1163556E+00
         21   -1    0    0  501  502  0.00000000000E+00  0.00000000000E+00  0.16056349704E+03  0.16056349704E+03  0.00000000000E+00 0.  1.
         21   -1    0    0  502  503 -0.00000000000E+00 -0.00000000000E+00 -0.63804915649E+03  0.63804915649E+03  0.00000000000E+00 0.  1.
         -6    2    1    2    0  503 -0.40048952553E+02 -0.50246023169E+02 -0.56507544810E+03  0.59418500775E+03  0.17209584522E+03 0.  0.
        -24    2    3    3    0    0 -0.92652780505E+02 -0.37186656621E+02 -0.24903900585E+03  0.27350006486E+03  0.53051615185E+02 0.  0.
          6    2    1    2  501    0  0.40048952553E+02  0.50246023169E+02  0.87589788660E+02  0.20442764577E+03  0.17317652796E+03 0.  0.
         24    2    5    5    0    0 -0.23151363037E+02  0.18016403765E+02 -0.51897552659E+00  0.91209835409E+02  0.86361961098E+02 0.  0.
          5    1    5    5  501    0  0.63200315589E+02  0.32229619404E+02  0.88108764187E+02  0.11321781037E+03  0.47000000000E+01 0. -1.
        -13    1    6    6    0    0 -0.14909411321E+02  0.52318893050E+02  0.78144537315E+01  0.54960192895E+02  0.00000000000E+00 0.  1.
         14    1    6    6    0    0 -0.82419517157E+01 -0.34302489285E+02 -0.83334292581E+01  0.36249642515E+02  0.00000000000E+00 0. -1.
         -5    1    3    3    0  503  0.52603827952E+02 -0.13059366548E+02 -0.31603644225E+03  0.32068494290E+03  0.47000000000E+01 0.  1.
         13    1    4    4    0    0 -0.23556329018E+02 -0.16130418318E+02 -0.24475523613E+02  0.37605083274E+02  0.00000000000E+00 0. -1.
        -14    1    4    4    0    0 -0.69096451487E+02 -0.21056238302E+02 -0.22456348224E+03  0.23589498158E+03  0.00000000000E+00 0.  1.
</event>
<event>
12    1  0.8494789E-002  0.2311244E+03  0.7818608E-02  0.1125871E+00
         21   -1    0    0  503  502  0.00000000000E+00  0.00000000000E+00  0.19380795243E+03  0.19380795243E+03  0.00000000000E+00 0. -1.
         21   -1    0    0  501  503 -0.00000000000E+00 -0.00000000000E+00 -0.37026291822E+03  0.37026291822E+03  0.00000000000E+00 0. -1.
          6    2    1    2  501    0 -0.14555098503E+03  0.49740932486E+02 -0.23093160218E+03  0.32672294219E+03  0.17250862719E+03 0.  0.
         24    2    3    3    0    0 -0.50742602404E+02  0.35481468062E+02 -0.20384882811E+03  0.22698564528E+03  0.78322360588E+02 0.  0.
         -6    2    1    2    0  502  0.14555098503E+03 -0.49740932486E+02  0.54476636395E+02  0.23734792846E+03  0.17235743565E+03 0.  0.
        -24    2    5    5    0    0  0.12248750296E+03 -0.91876595637E+02  0.12146512921E+02  0.17315082831E+03  0.79932311117E+02 0.  0.
          5    1    3    3  501    0 -0.94808382628E+02  0.14259464424E+02 -0.27082774074E+02  0.99737296904E+02  0.47000000000E+01 0. -1.
        -11    1    4    4    0    0 -0.24350620870E+02  0.68591384690E+01 -0.68955113153E+01  0.26221147831E+02  0.00000000000E+00 0.  1.
         12    1    4    4    0    0 -0.26391981535E+02  0.28622329593E+02 -0.19695331680E+03  0.20076449745E+03  0.00000000000E+00 0. -1.
         -5    1    5    5    0  502  0.23063482071E+02  0.42135663151E+02  0.42330123475E+02  0.64197100151E+02  0.47000000000E+01 0.  1.
         13    1    6    6    0    0  0.19682774349E+02 -0.11797036680E+02  0.33998561543E+02  0.41018091954E+02  0.00000000000E+00 0. -1.
        -14    1    6    6    0    0  0.10280472861E+03 -0.80079558957E+02 -0.21852048623E+02  0.13213273636E+03  0.00000000000E+00 0.  1.
</event>
<event>
12    1  0.8494789E-002  0.2517885E+03  0.7818608E-02  0.1112717E+00
         21   -1    0    0  501  502  0.00000000000E+00  0.00000000000E+00  0.21027625383E+04  0.21027625383E+04  0.00000000000E+00 0.  1.
         21   -1    0    0  502  503 -0.00000000000E+00 -0.00000000000E+00 -0.40279568657E+02  0.40279568657E+02  0.00000000000E+00 0. -1.
         -6    2    1    2    0  503  0.10999656593E+03 -0.14258055650E+03  0.15844535839E+04  0.16043349418E+04  0.17598007368E+03 0.  0.
        -24    2    3    3    0    0  0.18965066463E+02 -0.12931040981E+03  0.11488378577E+04  0.11590867171E+04  0.81072428307E+02 0.  0.
          6    2    1    2  501    0 -0.10999656593E+03  0.14258055650E+03  0.47802938569E+03  0.53870716511E+03  0.17106974176E+03 0.  0.
         24    2    5    5    0    0 -0.98373434198E+02  0.64845291986E+02  0.39628874963E+03  0.42521051263E+03  0.99382908577E+02 0.  0.
          5    1    5    5  501    0 -0.11623131733E+02  0.77735264512E+02  0.81740636062E+02  0.11349665248E+03  0.47000000000E+01 0. -1.
        -13    1    6    6    0    0  0.27214326227E+01 -0.16808303793E+02  0.16130326368E+02  0.23454481462E+02  0.00000000000E+00 0.  1.
         14    1    6    6    0    0 -0.10109486682E+03  0.81653595779E+02  0.38015842326E+03  0.40175603117E+03  0.00000000000E+00 0. -1.
         -5    1    3    3    0  503  0.91031499468E+02 -0.13270146688E+02  0.43561572623E+03  0.44524822474E+03  0.47000000000E+01 0.  1.
         11    1    4    4    0    0  0.27521596879E+02 -0.46001762543E+02  0.21819999422E+03  0.22468831284E+03  0.00000000000E+00 0. -1.
        -12    1    4    4    0    0 -0.85565304163E+01 -0.83308647268E+02  0.93063786346E+03  0.93439840423E+03  0.00000000000E+00 0.  1.
</event>
<event>
12    1  0.8494789E-002  0.2187029E+03  0.7818608E-02  0.1135050E+00
         21   -1    0    0  501  502  0.00000000000E+00  0.00000000000E+00  0.95346888948E+03  0.95346888948E+03  0.00000000000E+00 0. -1.
         21   -1    0    0  502  503 -0.00000000000E+00 -0.00000000000E+00 -0.66129191469E+02  0.66129191469E+02  0.00000000000E+00 0.  1.
         -6    2    1    2    0  503 -0.11703226197E+03  0.65179206086E+02  0.69521616291E+03  0.72849259877E+03  0.17155487181E+03 0.  0.
        -24    2    3    3    0    0 -0.45637361522E+02 -0.17562942129E+02  0.45485492184E+03  0.46441096156E+03  0.79958211548E+02 0.  0.
          6    2    1    2  501    0  0.11703226197E+03 -0.65179206086E+02  0.19212353511E+03  0.29110548219E+03  0.17287587966E+03 0.  0.
         24    2    5    5    0    0  0.87660310057E+02  0.62968998549E+01  0.47223425283E+02  0.12682012950E+03  0.78289925558E+02 0.  0.
          5    1    5    5  501    0  0.29371951915E+02 -0.71476105941E+02  0.14490010983E+03  0.16428535269E+03  0.47000000000E+01 0. -1.
        -13    1    6    6    0    0  0.72121535050E+02 -0.25287343790E+02  0.50288649158E+02  0.91487233033E+02  0.00000000000E+00 0.  1.
         14    1    6    6    0    0  0.15538775007E+02  0.31584243645E+02 -0.30652238751E+01  0.35332896467E+02  0.00000000000E+00 0. -1.
         -5    1    3    3    0  503 -0.71394900450E+02  0.82742148215E+02  0.24036124107E+03  0.26408163721E+03  0.47000000000E+01 0.  1.
         11    1    4    4    0    0 -0.19535912917E+02 -0.23808382715E+01  0.40920507429E+03  0.40967806032E+03  0.00000000000E+00 0. -1.
        -12    1    4    4    0    0 -0.26101448605E+02 -0.15182103858E+02  0.45649847550E+02  0.54732901241E+02  0.00000000000E+00 0.  1.
</event>
<event>
12    1  0.8494789E-002  0.1969163E+03  0.7818608E-02  0.1152740E+00
         21   -1    0    0  501  502  0.00000000000E+00  0.00000000000E+00  0.33913629884E+03  0.33913629884E+03  0.00000000000E+00 0.  1.
         21   -1    0    0  502  503 -0.00000000000E+00 -0.00000000000E+00 -0.19286476693E+03  0.19286476693E+03  0.00000000000E+00 0.  1.
         -6    2    1    2    0  503 -0.16805066721E+02 -0.92568111075E+02 -0.97482395397E+02  0.21972443603E+03  0.17298770165E+03 0.  0.
        -24    2    3    3    0    0  0.57028991626E+02 -0.35752940809E+02 -0.51231474751E+02  0.11560590068E+03  0.78800263982E+02 0.  0.
          6    2    1    2  501    0  0.16805066721E+02  0.92568111075E+02  0.24375392730E+03  0.31227662974E+03  0.17102470859E+03 0.  0.
         24    2    5    5    0    0  0.69898431669E+02  0.93084554871E+02  0.18554369833E+03  0.23334822628E+03  0.80463691262E+02 0.  0.
          5    1    5    5  501    0 -0.53093364948E+02 -0.51644379549E+00  0.58210228971E+02  0.78928403458E+02  0.47000000000E+01 0. -1.
        -13    1    6    6    0    0 -0.11532302948E+02  0.41833273030E+02  0.40933338439E+02  0.59653624696E+02  0.00000000000E+00 0.  1.
         14    1    6    6    0    0  0.81430734616E+02  0.51251281841E+02  0.14461035989E+03  0.17369460158E+03  0.00000000000E+00 0. -1.
         -5    1    3    3    0  503 -0.73834058347E+02 -0.56815170266E+02 -0.46250920646E+02  0.10411853536E+03  0.47000000000E+01 0.  1.
         13    1    4    4    0    0  0.15178267326E+02  0.24517773187E+02 -0.61398670901E+01  0.29482180532E+02  0.00000000000E+00 0. -1.
        -14    1    4    4    0    0  0.41850724300E+02 -0.60270713996E+02 -0.45091607661E+02  0.86123720144E+02  0.00000000000E+00 0.  1.
</event>
<event>
12    1  0.8494789E-002  0.1958304E+03  0.7818608E-02  0.1153367E+00
         21   -1    0    0  501  502  0.00000000000E+00  0.00000000000E+00  0.43718929706E+02  0.43718929706E+02  0.00000000000E+00 0.  1.
         21   -1    0    0  502  503 -0.00000000000E+00 -0.00000000000E+00 -0.10133276254E+04  0.10133276254E+04  0.00000000000E+00 0.  1.
         -6    2    1    2    0  503 -0.69820337291E+02  0.63504477889E+02 -0.28987167036E+03  0.34966267646E+03  0.17126209102E+03 0.  0.
        -24    2    3    3    0    0 -0.10918702091E+03  0.72356313260E+02 -0.21556773371E+03  0.26497940910E+03  0.81162785966E+02 0.  0.
          6    2    1    2  501    0  0.69820337291E+02 -0.63504477889E+02 -0.67973702538E+03  0.70738387870E+03  0.17158621725E+03 0.  0.
         24    2    5    5    0    0  0.73797529327E+02 -0.10543164788E+03 -0.48071291297E+03  0.50389826996E+03  0.79162200984E+02 0.  0.
          5    1    5    5  501    0 -0.39771920360E+01  0.41927169991E+02 -0.19902411242E+03  0.20348560874E+03  0.47000000000E+01 0. -1.
        -11    1    6    6    0    0  0.81083044583E+02 -0.11347894822E+03 -0.45721504743E+03  0.47801415398E+03  0.00000000000E+00 0.  1.
         12    1    6    6    0    0 -0.72855152561E+01  0.80473003379E+01 -0.23497865538E+02  0.25884115981E+02  0.00000000000E+00 0. -1.
         -5    1    3    3    0  503  0.39366683623E+02 -0.88518353702E+01 -0.74303936646E+02  0.84683267356E+02  0.47000000000E+01 0.  1.
         11    1    4    4    0    0  0.47414968976E+01  0.15569636057E+02 -0.20626763800E+01  0.16405791466E+02  0.00000000000E+00 0. -1.
        -12    1    4    4    0    0 -0.11392851781E+03  0.56786677203E+02 -0.21350505733E+03  0.24857361764E+03  0.00000000000E+00 0.  1.
</event>
<event>
12    1  0.8494789E-002  0.1926386E+03  0.7818608E-02  0.1156112E+00
         21   -1    0    0  501  502  0.00000000000E+00  0.00000000000E+00  0.21737219084E+03  0.21737219084E+03  0.00000000000E+00 0. -1.
         21   -1    0    0  502  503 -0.00000000000E+00 -0.00000000000E+00 -0.32170942898E+03  0.32170942898E+03  0.00000000000E+00 0. -1.
         -6    2    1    2    0  503  0.79375500749E+02 -0.25801969773E+02 -0.23684496876E+03  0.30526985917E+03  0.17357400706E+03 0.  0.
        -24    2    3    3    0    0  0.10851515317E+03  0.12915022187E+02 -0.21074690153E+03  0.25003106915E+03  0.78478932011E+02 0.  0.
          6    2    1    2  501    0 -0.79375500749E+02  0.25801969773E+02  0.13250773062E+03  0.23381176065E+03  0.17361863086E+03 0.  0.
         24    2    5    5    0    0 -0.41590600618E+02 -0.36616432216E+02  0.18899716436E+02  0.98709479133E+02  0.79472138648E+02 0.  0.
          5    1    5    5  501    0 -0.37784900132E+02  0.62418401990E+02  0.11360801418E+03  0.13510228152E+03  0.47000000000E+01 0. -1.
        -11    1    6    6    0    0 -0.11709357036E+02  0.97224846000E+01 -0.24293886345E+02  0.28667554182E+02  0.00000000000E+00 0.  1.
         12    1    6    6    0    0 -0.29881243582E+02 -0.46338916816E+02  0.43193602781E+02  0.70041924951E+02  0.00000000000E+00 0. -1.
         -5    1    3    3    0  503 -0.29139652424E+02 -0.38716991960E+02 -0.26098067229E+02  0.55238790020E+02  0.47000000000E+01 0.  1.
         13    1    4    4    0    0  0.81840518700E+02  0.41848206805E+02 -0.17075585295E+03  0.19392448074E+03  0.00000000000E+00 0. -1.
        -14    1    4    4    0    0  0.26674634473E+02 -0.28933184618E+02 -0.39991048579E+02  0.56106588408E+02  0.00000000000E+00 0.  1.
</event>
<event>
12    1  0.8494789E-002  0.2453588E+03  0.7818608E-02  0.1116445E+00
         21   -1    0    0  503  502  0.00000000000E+00  0.00000000000E+00  0.15989549429E+03  0.15989549429E+03  0.00000000000E+00 0.  1.
         21   -1    0    0  501  503 -0.00000000000E+00 -0.00000000000E+00 -0.37847089702E+03  0.37847089702E+03  0.00000000000E+00 0.  1.
          6    2    1    2  501    0 -0.96774040749E+02 -0.14571675287E+03 -0.13572683972E+03  0.28039742680E+03  0.17205334901E+03 0.  0.
         24    2    3    3    0    0 -0.32221011203E+02 -0.12217957169E+03 -0.27063066929E+02  0.15174674457E+03  0.79552646675E+02 0.  0.
         -6    2    1    2    0  502  0.96774040749E+02  0.14571675287E+03 -0.82848563009E+02  0.25796896451E+03  0.17054476019E+03 0.  0.
        -24    2    5    5    0    0  0.11426618518E+03  0.97634182955E+02 -0.13048722349E+02  0.17129707517E+03  0.81137069507E+02 0.  0.
          5    1    3    3  501    0 -0.64553029546E+02 -0.23537181174E+02 -0.10866377279E+03  0.12865068223E+03  0.47000000000E+01 0. -1.
        -13    1    4    4    0    0 -0.29422086907E+02 -0.59626031001E+01 -0.18318001048E+02  0.35167612886E+02  0.00000000000E+00 0.  1.
         14    1    4    4    0    0 -0.27989242961E+01 -0.11621696859E+03 -0.87450658804E+01  0.11657913168E+03  0.00000000000E+00 0. -1.
         -5    1    5    5    0  502 -0.17492144434E+02  0.48082569915E+02 -0.69799840660E+02  0.86671889345E+02  0.47000000000E+01 0.  1.
         11    1    6    6    0    0  0.27062837902E+01 -0.53121075110E+01  0.15703510215E+02  0.16797103656E+02  0.00000000000E+00 0. -1.
        -12    1    6    6    0    0  0.11155990139E+03  0.10294629047E+03 -0.28752232564E+02  0.15449997151E+03  0.00000000000E+00 0.  1.
</event>
<event>
12    1  0.8494789E-002  0.3703543E+03  0.7818608E-02  0.1054590E+00
         21   -1    0    0  503  502  0.00000000000E+00  0.00000000000E+00  0.46087719006E+03  0.46087719006E+03  0.00000000000E+00 0.  1.
         21   -1    0    0  501  503 -0.00000000000E+00 -0.00000000000E+00 -0.45743087616E+03  0.45743087616E+03  0.00000000000E+00 0. -1.
          6    2    1    2  501    0 -0.22429074033E+03  0.23957802084E+03 -0.26991204415E+03  0.45799611027E+03  0.17089166505E+03 0.  0.
         24    2    3    3    0    0 -0.42680794740E+02  0.92220721483E+02 -0.15456739524E+03  0.19718425464E+03  0.68295233322E+02 0.  0.
         -6    2    1    2    0  502  0.22429074033E+03 -0.23957802084E+03  0.27335835805E+03  0.46031195595E+03  0.17163432237E+03 0.  0.
        -24    2    5    5    0    0  0.18796060644E+03 -0.13185326615E+03  0.12387697247E+03  0.27245223159E+03  0.78550880489E+02 0.  0.
          5    1    3    3  501    0 -0.18160994559E+03  0.14735729936E+03 -0.11534464891E+03  0.26081185564E+03  0.47000000000E+01 0. -1.
        -13    1    4    4    0    0 -0.18925006285E+02  0.87470275782E+02 -0.84640217691E+02  0.12317942791E+03  0.00000000000E+00 0.  1.
         14    1    4    4    0    0 -0.23755788455E+02  0.47504457013E+01 -0.69927177549E+02  0.74004826730E+02  0.00000000000E+00 0. -1.
         -5    1    5    5    0  502  0.36330133886E+02 -0.10772475469E+03  0.14948138558E+03  0.18785972436E+03  0.47000000000E+01 0.  1.
         11    1    6    6    0    0  0.40793693536E+02 -0.69378644090E+02  0.24183444238E+02  0.84037852562E+02  0.00000000000E+00 0. -1.
        -12    1    6    6    0    0  0.14716691290E+03 -0.62474622056E+02  0.99693528229E+02  0.18841437903E+03  0.00000000000E+00 0.  1.
</event>
<event>
12    1  0.8494789E-002  0.2420799E+03  0.7818608E-02  0.1118545E+00
         21   -1    0    0  501  502  0.00000000000E+00  0.00000000000E+00  0.19468023307E+03  0.19468023307E+03  0.00000000000E+00 0. -1.
         21   -1    0    0  502  503 -0.00000000000E+00 -0.00000000000E+00 -0.54996058836E+03  0.54996058836E+03  0.00000000000E+00 0.  1.
         -6    2    1    2    0  503 -0.58619059029E+02  0.16069623161E+03  0.73188962336E+02  0.25290180993E+03  0.17129865243E+03 0.  0.
        -24    2    3    3    0    0 -0.50152481379E+02  0.26138832757E+02 -0.39247068807E+01  0.97512027441E+02  0.79339033302E+02 0.  0.
          6    2    1    2  501    0  0.58619059029E+02 -0.16069623161E+03 -0.42846931763E+03  0.49173901150E+03  0.17018174503E+03 0.  0.
         24    2    5    5    0    0 -0.18835921998E+02 -0.51855371923E+02 -0.11080265675E+03  0.14709455085E+03  0.79472049115E+02 0.  0.
          5    1    5    5  501    0  0.77454981027E+02 -0.10884085969E+03 -0.31766666088E+03  0.34464446065E+03  0.47000000000E+01 0. -1.
        -11    1    6    6    0    0 -0.60303759436E+01 -0.66228843915E+02 -0.10909732536E+03  0.12776874266E+03  0.00000000000E+00 0.  1.
         12    1    6    6    0    0 -0.12805546054E+02  0.14373471992E+02 -0.17053313909E+01  0.19325808185E+02  0.00000000000E+00 0. -1.
         -5    1    3    3    0  503 -0.84665776505E+01  0.13455739885E+03  0.77113669217E+02  0.15538978249E+03  0.47000000000E+01 0.  1.
         11    1    4    4    0    0 -0.22642783911E+02  0.22059103337E+02  0.36600446491E+02  0.48362096590E+02  0.00000000000E+00 0. -1.
        -12    1    4    4    0    0 -0.27509697468E+02  0.40797294203E+01 -0.40525153372E+02  0.49149930851E+02  0.00000000000E+00 0.  1.
</event>
<event>
12    1  0.8494789E-002  0.2770206E+03  0.7818608E-02  0.1097462E+00
         21   -1    0    0  501  502  0.00000000000E+00  0.00000000000E+00  0.50819522889E+03  0.50819522889E+03  0.00000000000E+00 0.  1.
         21   -1    0    0  502  503 -0.00000000000E+00 -0.00000000000E+00 -0.22167781390E+03  0.22167781390E+03  0.00000000000E+00 0.  1.
         -6    2    1    2    0  503 -0.21517310597E+03 -0.25551042040E+02 -0.63736363000E+02  0.28331050555E+03  0.17102689060E+03 0.  0.
        -24    2    3    3    0    0 -0.13188788780E+03 -0.80927589284E+02 -0.22856521069E+02  0.17516134455E+03  0.78837722017E+02 0.  0.
          6    2    1    2  501    0  0.21517310597E+03  0.25551042040E+02  0.35025377799E+03  0.44656253723E+03  0.17259220546E+03 0.  0.
         24    2    5    5    0    0  0.19036638384E+03 -0.27758395765E+01  0.18660653071E+03  0.27857355775E+03  0.80834178387E+02 0.  0.
          5    1    5    5  501    0  0.24806722129E+02  0.28326881617E+02  0.16364724728E+03  0.16798897948E+03  0.47000000000E+01 0. -1.
        -13    1    6    6    0    0  0.51952686794E+02  0.35681128778E+02  0.61903390531E+02  0.88341691036E+02  0.00000000000E+00 0.  1.
         14    1    6    6    0    0  0.13841369704E+03 -0.38456968355E+02  0.12470314018E+03  0.19023186672E+03  0.00000000000E+00 0. -1.
         -5    1    3    3    0  503 -0.83285218167E+02  0.55376547244E+02 -0.40879841931E+02  0.10814916101E+03  0.47000000000E+01 0.  1.
         11    1    4    4    0    0 -0.10430359914E+03 -0.34894284079E+02  0.12803585639E+02  0.11072842300E+03  0.00000000000E+00 0. -1.
        -12    1    4    4    0    0 -0.27584288664E+02 -0.46033305205E+02 -0.35660106708E+02  0.64432921551E+02  0.00000000000E+00 0.  1.
</event>
<event>
12    1  0.8494789E-002  0.3003107E+03  0.7818608E-02  0.1085087E+00
         21   -1    0    0  501  502  0.00000000000E+00  0.00000000000E+00  0.29665498905E+03  0.29665498905E+03  0.00000000000E+00 0. -1.
         21   -1    0    0  502  503 -0.00000000000E+00 -0.00000000000E+00 -0.42995117903E+03  0.42995117903E+03  0.00000000000E+00 0.  1.
         -6    2    1    2    0  503 -0.14385107349E+03  0.19926920052E+03 -0.26328059138E+03  0.39937159665E+03  0.17256783244E+03 0.  0.
        -24    2    3    3    0    0 -0.91056248660E+01  0.11906815609E+03 -0.13064795343E+03  0.19394022100E+03  0.79270318443E+02 0.  0.
          6    2    1    2  501    0  0.14385107349E+03 -0.19926920052E+03  0.12998440140E+03  0.32723457143E+03  0.17258381879E+03 0.  0.
         24    2    5    5    0    0  0.23595713059E+01 -0.88393070702E+02  0.66332927310E+02  0.13648090433E+03  0.80050468317E+02 0.  0.
          5    1    5    5  501    0  0.14149150219E+03 -0.11087612982E+03  0.63651474089E+02  0.19075366709E+03  0.47000000000E+01 0. -1.
        -11    1    6    6    0    0 -0.74532160844E+01 -0.98673652449E+02  0.40350047661E+02  0.10686517891E+03  0.00000000000E+00 0.  1.
         12    1    6    6    0    0  0.98127873903E+01  0.10280581748E+02  0.25982879649E+02  0.29615725422E+02  0.00000000000E+00 0. -1.
         -5    1    3    3    0  503 -0.13474544863E+03  0.80201044438E+02 -0.13263263795E+03  0.20543137565E+03  0.47000000000E+01 0.  1.
         11    1    4    4    0    0 -0.85685067143E+01 -0.10103795218E+02 -0.19244161233E+02  0.23363298712E+02  0.00000000000E+00 0. -1.
        -12    1    4    4    0    0 -0.53711815164E+00  0.12917195130E+03 -0.11140379220E+03  0.17057692228E+03  0.00000000000E+00 0.  1.
</event>
<event>
12    1  0.8494789E-002  0.2181762E+03  0.7818608E-02  0.1135293E+00
         21   -1    0    0  501  502  0.00000000000E+00  0.00000000000E+00  0.10394083637E+04  0.10394083637E+04  0.00000000000E+00 0.  1.
         21   -1    0    0  502  503 -0.00000000000E+00 -0.00000000000E+00 -0.47468055024E+02  0.47468055024E+02  0.00000000000E+00 0. -1.
         -6    2    1    2    0  503 -0.25912886625E+02  0.13169662869E+03  0.59965530531E+03  0.63811231163E+03  0.17200394578E+03 0.  0.
        -24    2    3    3    0    0 -0.18433069496E+02  0.77776962033E+02  0.16502975054E+03  0.20006580613E+03  0.80015463173E+02 0.  0.
          6    2    1    2  501    0  0.25912886625E+02 -0.13169662869E+03  0.39228500340E+03  0.44876410713E+03  0.17171552130E+03 0.  0.
         24    2    5    5    0    0 -0.31169921464E+02 -0.13083411007E+03  0.30954629895E+03  0.34813123908E+03  0.85365801522E+02 0.  0.
          5    1    5    5  501    0  0.57082808090E+02 -0.86251861878E+00  0.82738704452E+02  0.10063286805E+03  0.47000000000E+01 0. -1.
        -11    1    6    6    0    0  0.17603682424E+02 -0.13278553791E+01  0.62727660069E+02  0.65164500861E+02  0.00000000000E+00 0.  1.
         12    1    6    6    0    0 -0.48773603889E+02 -0.12950625469E+03  0.24681863888E+03  0.28296673822E+03  0.00000000000E+00 0. -1.
         -5    1    3    3    0  503 -0.74798171291E+01  0.53919666653E+02  0.43462555477E+03  0.43804650549E+03  0.47000000000E+01 0.  1.
         11    1    4    4    0    0 -0.96628590809E+01  0.48261829612E+01  0.10397225403E+03  0.10453177744E+03  0.00000000000E+00 0. -1.
        -12    1    4    4    0    0 -0.87702104153E+01  0.72950779072E+02  0.61057496513E+02  0.95534028693E+02  0.00000000000E+00 0.  1.
</event>
<event>
12    1  0.8494789E-002  0.1876536E+03  0.7818608E-02  0.1161048E+00
         21   -1    0    0  503  502  0.00000000000E+00  0.00000000000E+00  0.28499613142E+03  0.28499613142E+03  0.00000000000E+00 0. -1.
         21   -1    0    0  501  503 -0.00000000000E+00 -0.00000000000E+00 -0.33522926590E+03  0.33522926590E+03  0.00000000000E+00 0. -1.
          6    2    1    2  501    0  0.47746651094E+02  0.59611211148E+02 -0.27223940447E+03  0.32953545397E+03  0.16925153734E+03 0.  0.
         24    2    3    3    0    0  0.69338257901E+02  0.60336116860E+02 -0.28087403126E+03  0.30580004261E+03  0.78582463791E+02 0.  0.
         -6    2    1    2    0  502 -0.47746651094E+02 -0.59611211148E+02  0.22200627000E+03  0.29068994335E+03  0.17140775964E+03 0.  0.
        -24    2    5    5    0    0 -0.93470273787E+02 -0.60702418436E+02  0.13768755453E+03  0.19465049217E+03  0.80681322156E+02 0.  0.
          5    1    3    3  501    0 -0.21591606807E+02 -0.72490571135E+00  0.86346267897E+01  0.23735411363E+02  0.47000000000E+01 0. -1.
        -13    1    4    4    0    0 -0.96962200622E+01 -0.78250322761E+01 -0.11663322397E+02  0.17066953535E+02  0.00000000000E+00 0.  1.
         14    1    4    4    0    0  0.79034477963E+02  0.68161149136E+02 -0.26921070887E+03  0.28873308907E+03  0.00000000000E+00 0. -1.
         -5    1    5    5    0  502  0.45723622693E+02  0.10912072876E+01  0.84318715468E+02  0.96039451183E+02  0.47000000000E+01 0.  1.
         11    1    6    6    0    0 -0.45200742271E+02 -0.20714047356E+02  0.11942568649E+03  0.12936256588E+03  0.00000000000E+00 0. -1.
        -12    1    6    6    0    0 -0.48269531516E+02 -0.39988371080E+02  0.18261868042E+02  0.65287926286E+02  0.00000000000E+00 0.  1.
</event>
<event>
12    1  0.8494789E-002  0.2762130E+03  0.7818608E-02  0.1097895E+00
         21   -1    0    0  503  502  0.00000000000E+00  0.00000000000E+00  0.22441090663E+03  0.22441090663E+03  0.00000000000E+00 0.  1.
         21   -1    0    0  501  503 -0.00000000000E+00 -0.00000000000E+00 -0.60879483284E+03  0.60879483284E+03  0.00000000000E+00 0.  1.
          6    2    1    2  501    0 -0.26374103844E+02 -0.21409384754E+03 -0.46940139949E+03  0.54420474601E+03  0.17114135337E+03 0.  0.
         24    2    3    3    0    0 -0.48769082170E+02 -0.22040341936E+03 -0.36080115353E+03  0.43304068180E+03  0.79941660356E+02 0.  0.
         -6    2    1    2    0  502  0.26374103844E+02  0.21409384754E+03  0.85017473283E+02  0.28900099345E+03  0.17251618633E+03 0.  0.
        -24    2    5    5    0    0 -0.72181323929E+01  0.31996791371E+02  0.18277975818E+01  0.85948319635E+02  0.79422142446E+02 0.  0.
          5    1    3    3  501    0  0.22394978327E+02  0.63095718231E+01 -0.10860024596E+03  0.11116406422E+03  0.47000000000E+01 0. -1.
        -11    1    4    4    0    0 -0.69223036252E+02 -0.13852681612E+03 -0.22458028836E+03  0.27279628562E+03  0.00000000000E+00 0.  1.
         12    1    4    4    0    0  0.20453954082E+02 -0.81876603247E+02 -0.13622086517E+03  0.16024439618E+03  0.00000000000E+00 0. -1.
         -5    1    5    5    0  502  0.33592236236E+02  0.18209705617E+03  0.83189675701E+02  0.20305267382E+03  0.47000000000E+01 0.  1.
         13    1    6    6    0    0  0.78066582815E+00  0.32705322911E+02 -0.35202774485E+02  0.48057079783E+02  0.00000000000E+00 0. -1.
        -14    1    6    6    0    0 -0.79987982210E+01 -0.70853154035E+00  0.37030572066E+02  0.37891239852E+02  0.00000000000E+00 0.  1.
</event>
<event>
12    1  0.8494789E-002  0.1806666E+03  0.7818608E-02  0.1167913E+00
         21   -1    0    0  503  502  0.00000000000E+00  0.00000000000E+00  0.57865161393E+02  0.57865161393E+02  0.00000000000E+00 0. -1.
         21   -1    0    0  501  503 -0.00000000000E+00 -0.00000000000E+00 -0.55840698190E+03  0.55840698190E+03  0.00000000000E+00 0. -1.
          6    2    1    2  501    0  0.48736528375E+02  0.14925890613E+02 -0.27408306862E+03  0.32657578548E+03  0.17009463174E+03 0.  0.
         24    2    3    3    0    0  0.19395963106E+02  0.60578400752E+02 -0.94236586594E+02  0.13866126356E+03  0.79375473135E+02 0.  0.
         -6    2    1    2    0  502 -0.48736528375E+02 -0.14925890613E+02 -0.22645875188E+03  0.28969635781E+03  0.17332738392E+03 0.  0.
        -24    2    5    5    0    0 -0.34149174427E+02  0.12058442144E+02 -0.24035305784E+03  0.25569508066E+03  0.79365040923E+02 0.  0.
          5    1    3    3  501    0  0.29340565269E+02 -0.45652510140E+02 -0.17984648203E+03  0.18791452192E+03  0.47000000000E+01 0. -1.
        -13    1    4    4    0    0 -0.17066455685E+02  0.56850803381E+02 -0.79365571148E+02  0.99106869784E+02  0.00000000000E+00 0.  1.
         14    1    4    4    0    0  0.36462418791E+02  0.37275973715E+01 -0.14871015445E+02  0.39554393771E+02  0.00000000000E+00 0. -1.
         -5    1    5    5    0  502 -0.14587353948E+02 -0.26984332756E+02  0.13894305959E+02  0.34001277146E+02  0.47000000000E+01 0.  1.
         11    1    6    6    0    0 -0.10260493207E+02  0.26703838838E+02 -0.23451727652E+02  0.36991299779E+02  0.00000000000E+00 0. -1.
        -12    1    6    6    0    0 -0.23888681221E+02 -0.14645396694E+02 -0.21690133019E+03  0.21870378088E+03  0.00000000000E+00 0.  1.
</event>
<event>
12    1  0.8494789E-002  0.1937203E+03  0.7818608E-02  0.1156561E+00
         21   -1    0    0  501  502  0.00000000000E+00  0.00000000000E+00  0.79230600777E+02  0.79230600777E+02  0.00000000000E+00 0.  1.
         21   -1    0    0  502  503 -0.00000000000E+00 -0.00000000000E+00 -0.46273449873E+03  0.46273449873E+03  0.00000000000E+00 0.  1.
         -6    2    1    2    0  503  0.51155538645E+02  0.51118158150E+02 -0.22130742219E+03  0.29411655518E+03  0.17971537965E+03 0.  0.
        -24    2    3    3    0    0  0.38806016646E+02 -0.28646847185E+02 -0.53914649142E+02  0.10822035500E+03  0.80487931161E+02 0.  0.
          6    2    1    2  501    0 -0.51155538645E+02 -0.51118158150E+02 -0.16219647575E+03  0.24784854433E+03  0.17289085850E+03 0.  0.
         24    2    5    5    0    0 -0.73503181852E+02 -0.37397919898E+02 -0.17639140638E+03  0.21766165727E+03  0.97269453829E+02 0.  0.
          5    1    5    5  501    0  0.22347643207E+02 -0.13720238252E+02  0.14194930624E+02  0.30186887054E+02  0.47000000000E+01 0. -1.
        -11    1    6    6    0    0 -0.33901137416E+02 -0.68964062169E+02 -0.10883368735E+03  0.13322950308E+03  0.00000000000E+00 0.  1.
         12    1    6    6    0    0 -0.39602044436E+02  0.31566142271E+02 -0.67557719033E+02  0.84432154197E+02  0.00000000000E+00 0. -1.
         -5    1    3    3    0  503  0.12349521999E+02  0.79765005335E+02 -0.16739277305E+03  0.18589620018E+03  0.47000000000E+01 0.  1.
         13    1    4    4    0    0 -0.17982406409E+02 -0.46826151733E+01  0.85588819783E+01  0.20458452675E+02  0.00000000000E+00 0. -1.
        -14    1    4    4    0    0  0.56788423055E+02 -0.23964232012E+02 -0.62473531120E+02  0.87761902325E+02  0.00000000000E+00 0.  1.
</event>
<event>
12    1  0.8494789E-002  0.2044541E+03  0.7818608E-02  0.1148675E+00
         21   -1    0    0  501  502  0.00000000000E+00  0.00000000000E+00  0.73011515744E+03  0.73011515744E+03  0.00000000000E+00 0. -1.
         21   -1    0    0  502  503 -0.00000000000E+00 -0.00000000000E+00 -0.53857211107E+02  0.53857211107E+02  0.00000000000E+00 0. -1.
         -6    2    1    2    0  503  0.83846367112E+02 -0.19585692208E+02  0.33814498472E+03  0.39515000473E+03  0.18543916234E+03 0.  0.
        -24    2    3    3    0    0  0.10510810561E+03  0.39180200909E+02  0.19280777359E+03  0.23687654942E+03  0.79704831095E+02 0.  0.
          6    2    1    2  501    0 -0.83846367112E+02  0.19585692208E+02  0.33811296160E+03  0.38882236381E+03  0.17160606975E+03 0.  0.
         24    2    5    5    0    0 -0.99076826328E+02 -0.12684639470E+01  0.34306851958E+03  0.36211075076E+03  0.60086272761E+02 0.  0.
          5    1    5    5  501    0  0.15230459216E+02  0.20854156155E+02 -0.49555579732E+01  0.26711613049E+02  0.47000000000E+01 0. -1.
        -13    1    6    6    0    0 -0.33512305164E+02 -0.22475832749E+02  0.73218652958E+02  0.83601488002E+02  0.00000000000E+00 0.  1.
         14    1    6    6    0    0 -0.65564521164E+02  0.21207368802E+02  0.26984986662E+03  0.27850926276E+03  0.00000000000E+00 0. -1.
         -5    1    3    3    0  503 -0.21261738494E+02 -0.58765893117E+02  0.14533721114E+03  0.15827345532E+03  0.47000000000E+01 0.  1.
         13    1    4    4    0    0  0.42584643114E+02  0.16463373313E+02  0.16684946050E+02  0.48609483794E+02  0.00000000000E+00 0. -1.
        -14    1    4    4    0    0  0.62523462492E+02  0.22716827596E+02  0.17612282754E+03  0.18826706562E+03  0.00000000000E+00 0.  1.
</event>
<event>
12    1  0.8494789E-002  0.2463017E+03  0.7818608E-02  0.1117112E+00
         21   -1    0    0  501  502  0.00000000000E+00  0.00000000000E+00  0.91078002779E+02  0.91078002779E+02  0.00000000000E+00 0. -1.
         21   -1    0    0  502  503 -0.00000000000E+00 -0.00000000000E+00 -0.82242993720E+03  0.82242993720E+03  0.00000000000E+00 0. -1.
         -6    2    1    2    0  503  0.92311654958E+02  0.13620848747E+03 -0.57411634707E+03  0.62129642425E+03  0.17124681928E+03 0.  0.
        -24    2    3    3    0    0  0.31648830747E+02  0.70698294496E+02 -0.47511524412E+03  0.48789900295E+03  0.79442082987E+02 0.  0.
          6    2    1    2  501    0 -0.92311654958E+02 -0.13620848747E+03 -0.15723558736E+03  0.29221151574E+03  0.18327669327E+03 0.  0.
         24    2    5    5    0    0 -0.11279776543E+03 -0.60711832249E+02 -0.49390622970E+02  0.15889965574E+03  0.80002528054E+02 0.  0.
          5    1    5    5  501    0  0.20486110473E+02 -0.75496655222E+02 -0.10784496439E+03  0.13331186000E+03  0.47000000000E+01 0. -1.
        -11    1    6    6    0    0 -0.96599538181E+01  0.65694577704E+01 -0.32584319863E+02  0.34615175633E+02  0.00000000000E+00 0.  1.
         12    1    6    6    0    0 -0.10313781161E+03 -0.67281290019E+02 -0.16806303108E+02  0.12428448011E+03  0.00000000000E+00 0. -1.
         -5    1    3    3    0  503  0.60662824211E+02  0.65510192975E+02 -0.99001102948E+02  0.13339742130E+03  0.47000000000E+01 0.  1.
         13    1    4    4    0    0 -0.19056823603E+02 -0.48998599335E+01 -0.97663236799E+02  0.99625694353E+02  0.00000000000E+00 0. -1.
        -14    1    4    4    0    0  0.50705654350E+02  0.75598154430E+02 -0.37745200732E+03  0.38827330859E+03  0.00000000000E+00 0.  1.
</event>
<event>
12    1  0.8494789E-002  0.1940779E+03  0.7818608E-02  0.1155004E+00
         21   -1    0    0  501  502  0.00000000000E+00  0.00000000000E+00  0.49026577627E+02  0.49026577627E+02  0.00000000000E+00 0. -1.
         21   -1    0    0  502  503 -0.00000000000E+00 -0.00000000000E+00 -0.16472441340E+04  0.16472441340E+04  0.00000000000E+00 0. -1.
         -6    2    1    2    0  503 -0.80760367389E+02 -0.33188352672E+02 -0.14189863280E+04  0.14320925844E+04  0.17246236558E+03 0.  0.
        -24    2    3    3    0    0 -0.33707402371E+02 -0.76931474612E+02 -0.63614946881E+03  0.64660987909E+03  0.79771851596E+02 0.  0.
          6    2    1    2  501    0  0.80760367389E+02  0.33188352672E+02 -0.17923122833E+03  0.26417812718E+03  0.17332785691E+03 0.  0.
         24    2    5    5    0    0  0.88056648090E+02  0.21091097598E+02 -0.20327106906E+03  0.23590122433E+03  0.78303591587E+02 0.  0.
          5    1    5    5  501    0 -0.72962807009E+01  0.12097255075E+02  0.24039840731E+02  0.28276902850E+02  0.47000000000E+01 0. -1.
        -13    1    6    6    0    0  0.45336425400E+02  0.22184623892E+02 -0.18061068661E+03  0.18753071515E+03  0.00000000000E+00 0.  1.
         14    1    6    6    0    0  0.42720222689E+02 -0.10935262940E+01 -0.22660382448E+02  0.48370509188E+02  0.00000000000E+00 0. -1.
         -5    1    3    3    0  503 -0.47052965017E+02  0.43743121939E+02 -0.78283685919E+03  0.78548270531E+03  0.47000000000E+01 0.  1.
         13    1    4    4    0    0 -0.42419249818E+02 -0.63045441743E+02 -0.61583960461E+03  0.62050990248E+03  0.00000000000E+00 0. -1.
        -14    1    4    4    0    0  0.87118474471E+01 -0.13886032869E+02 -0.20309864205E+02  0.26099976605E+02  0.00000000000E+00 0.  1.
</event>
<event>
12    1  0.8494789E-002  0.1993771E+03  0.7818608E-02  0.1150497E+00
         21   -1    0    0  503  502  0.00000000000E+00  0.00000000000E+00  0.20534645126E+02  0.20534645126E+02  0.00000000000E+00 0.  1.
         21   -1    0    0  501  503 -0.00000000000E+00 -0.00000000000E+00 -0.28141627172E+04  0.28141627172E+04  0.00000000000E+00 0.  1.
          6    2    1    2  501    0  0.68450059281E+02 -0.65934731461E+02 -0.21907767352E+04  0.21997320532E+04  0.17402759176E+03 0.  0.
         24    2    3    3    0    0  0.11150099958E+03 -0.28981154511E+02 -0.16222719251E+04  0.16283838586E+04  0.81212140241E+02 0.  0.
         -6    2    1    2    0  502 -0.68450059281E+02  0.65934731461E+02 -0.60285133685E+03  0.63496530916E+03  0.17526668271E+03 0.  0.
        -24    2    5    5    0    0 -0.10482943873E+03  0.32899895803E+02 -0.52727679498E+03  0.54469703680E+03  0.81255332182E+02 0.  0.
          5    1    3    3  501    0 -0.43050940302E+02 -0.36953576950E+02 -0.56850481009E+03  0.57134819454E+03  0.47000000000E+01 0. -1.
        -11    1    4    4    0    0  0.93448344214E+02 -0.46573170194E+02 -0.96565625899E+03  0.97128454315E+03  0.00000000000E+00 0.  1.
         12    1    4    4    0    0  0.18052655369E+02  0.17592015682E+02 -0.65661566614E+03  0.65709931548E+03  0.00000000000E+00 0. -1.
         -5    1    5    5    0  502  0.36379379448E+02  0.33034835658E+02 -0.75574541876E+02  0.90268272365E+02  0.47000000000E+01 0.  1.
         13    1    6    6    0    0 -0.10608149362E+02  0.40609108499E+02 -0.17391589121E+03  0.17890883081E+03  0.00000000000E+00 0. -1.
        -14    1    6    6    0    0 -0.94221289366E+02 -0.77092126962E+01 -0.35336090377E+03  0.36578820599E+03  0.00000000000E+00 0.  1.
</event>
<event>
12    1  0.8494789E-002  0.1906441E+03  0.7818608E-02  0.1158303E+00
         21   -1    0    0  501  502  0.00000000000E+00  0.00000000000E+00  0.13445062740E+03  0.13445062740E+03  0.00000000000E+00 0. -1.
         21   -1    0    0  502  503 -0.00000000000E+00 -0.00000000000E+00 -0.28684248083E+03  0.28684248083E+03  0.00000000000E+00 0. -1.
         -6    2    1    2    0  503 -0.15871896874E+02 -0.79079107140E+02 -0.13098724297E+03  0.23130680284E+03  0.17274187947E+03 0.  0.
        -24    2    3    3    0    0  0.55714566000E+02 -0.36270372074E+02 -0.88108382883E+02  0.13740314952E+03  0.81834501335E+02 0.  0.
          6    2    1    2  501    0  0.15871896874E+02  0.79079107140E+02 -0.21404610462E+02  0.18998630539E+03  0.17067869402E+03 0.  0.
         24    2    5    5    0    0  0.48395804563E+02  0.10901049768E+03 -0.24886436817E+02  0.14540036786E+03  0.79350423650E+02 0.  0.
          5    1    5    5  501    0 -0.32523907689E+02 -0.29931390537E+02  0.34818263546E+01  0.44585937532E+02  0.47000000000E+01 0. -1.
        -11    1    6    6    0    0  0.36108111349E+02  0.18069870096E+02  0.17878073464E+02  0.44158141053E+02  0.00000000000E+00 0.  1.
         12    1    6    6    0    0  0.12287693214E+02  0.90940627582E+02 -0.42764510280E+02  0.10124222681E+03  0.00000000000E+00 0. -1.
         -5    1    3    3    0  503 -0.71586462874E+02 -0.42808735066E+02 -0.42878860082E+02  0.93903653319E+02  0.47000000000E+01 0.  1.
         11    1    4    4    0    0  0.36472971829E+02 -0.57227090956E+02 -0.85024777044E+02  0.10878616789E+03  0.00000000000E+00 0. -1.
        -12    1    4    4    0    0  0.19241594170E+02  0.20956718882E+02 -0.30836058393E+01  0.28616981628E+02  0.00000000000E+00 0.  1.
</event>
<event>
12    1  0.8494789E-002  0.2435942E+03  0.7818608E-02  0.1117743E+00
         21   -1    0    0  503  502  0.00000000000E+00  0.00000000000E+00  0.15307755885E+03  0.15307755885E+03  0.00000000000E+00 0.  1.
         21   -1    0    0  501  503 -0.00000000000E+00 -0.00000000000E+00 -0.54964938822E+03  0.54964938822E+03  0.00000000000E+00 0. -1.
          6    2    1    2  501    0 -0.12757170210E+02  0.17208608996E+03 -0.39031125020E+03  0.45905231222E+03  0.16914427442E+03 0.  0.
         24    2    3    3    0    0 -0.17385676180E+02  0.19742299702E+03 -0.32940661030E+03  0.39275866932E+03  0.80452196526E+02 0.  0.
         -6    2    1    2    0  502  0.12757170210E+02 -0.17208608996E+03 -0.62605791685E+01  0.24367463485E+03  0.17193535141E+03 0.  0.
        -24    2    5    5    0    0 -0.74358786055E+01 -0.10614657965E+02  0.69409491648E+01  0.80343214347E+02  0.78986657494E+02 0.  0.
          5    1    3    3  501    0  0.46285059699E+01 -0.25336907062E+02 -0.60904639906E+02  0.66293642901E+02  0.47000000000E+01 0. -1.
        -13    1    4    4    0    0 -0.25415381992E+02  0.14442824593E+03 -0.16963157416E+03  0.22423276036E+03  0.00000000000E+00 0.  1.
         14    1    4    4    0    0  0.80297058122E+01  0.52994751093E+02 -0.15977503614E+03  0.16852590896E+03  0.00000000000E+00 0. -1.
         -5    1    5    5    0  502  0.20193048816E+02 -0.16147143200E+03 -0.13201528333E+02  0.16333142050E+03  0.47000000000E+01 0.  1.
         13    1    6    6    0    0 -0.36010470393E+02 -0.18275454452E+02 -0.15454380905E+02  0.43238687567E+02  0.00000000000E+00 0. -1.
        -14    1    6    6    0    0  0.28574591788E+02  0.76607964864E+01  0.22395330070E+02  0.37104526780E+02  0.00000000000E+00 0.  1.
</event>
<event>
12    1  0.8494789E-002  0.2007009E+03  0.7818608E-02  0.1152802E+00
         21   -1    0    0  501  502  0.00000000000E+00  0.00000000000E+00  0.12228388642E+03  0.12228388642E+03  0.00000000000E+00 0.  1.
         21   -1    0    0  502  503 -0.00000000000E+00 -0.00000000000E+00 -0.59493999223E+03  0.59493999223E+03  0.00000000000E+00 0.  1.
         -6    2    1    2    0  503 -0.54254858414E+01 -0.99744965538E+02 -0.48235381675E+03  0.51628883338E+03  0.15463007758E+03 0.  0.
        -24    2    3    3    0    0  0.30513781640E+02 -0.28511534348E+02 -0.35223912365E+03  0.36358730743E+03  0.79870717013E+02 0.  0.
          6    2    1    2  501    0  0.54254858414E+01  0.99744965538E+02  0.96977109443E+01  0.20093504527E+03  0.17407570989E+03 0.  0.
         24    2    5    5    0    0  0.27398044507E+02  0.67831591765E+02 -0.57755807721E+02  0.12300351160E+03  0.80264268865E+02 0.  0.
          5    1    5    5  501    0 -0.21972558666E+02  0.31913373773E+02  0.67453518665E+02  0.77931533670E+02  0.47000000000E+01 0. -1.
        -11    1    6    6    0    0  0.32304676386E+02  0.66824584868E+02 -0.98935852630E+01  0.74879905773E+02  0.00000000000E+00 0.  1.
         12    1    6    6    0    0 -0.49066318783E+01  0.10070068967E+01 -0.47862222458E+02  0.48123605828E+02  0.00000000000E+00 0. -1.
         -5    1    3    3    0  503 -0.35939267482E+02 -0.71233431189E+02 -0.13011469310E+03  0.15270152595E+03  0.47000000000E+01 0.  1.
         13    1    4    4    0    0  0.31835341020E+02 -0.38102443737E+01 -0.44456789138E+02  0.54812525945E+02  0.00000000000E+00 0. -1.
        -14    1    4    4    0    0 -0.13215593794E+01 -0.24701289975E+02 -0.30778233451E+03  0.30877478149E+03  0.00000000000E+00 0.  1.
</event>
<event>
12    1  0.8494789E-002  0.1728100E+03  0.7818608E-02  0.1175375E+00
         21   -1    0    0  501  502  0.00000000000E+00  0.00000000000E+00  0.50009088652E+03  0.50009088652E+03  0.00000000000E+00 0.  1.
         21   -1    0    0  502  503 -0.00000000000E+00 -0.00000000000E+00 -0.91781980871E+02  0.91781980871E+02  0.00000000000E+00 0.  1.
         -6    2    1    2    0  503  0.37667944869E+01 -0.32236907313E+01  0.28313878919E+02  0.17511417372E+03  0.17273886990E+03 0.  0.
        -24    2    3    3    0    0 -0.48750260261E+01  0.41000431727E+02 -0.34096783053E+02  0.97993263475E+02  0.82068799135E+02 0.  0.
          6    2    1    2  501    0 -0.37667944869E+01  0.32236907313E+01  0.37999502673E+03  0.41675869368E+03  0.17107602839E+03 0.  0.
         24    2    5    5    0    0 -0.62538728212E+01 -0.11295798704E+02  0.39000939579E+03  0.39833645929E+03  0.79986873935E+02 0.  0.
          5    1    5    5  501    0  0.24870783343E+01  0.14519489435E+02 -0.10014369058E+02  0.18422234384E+02  0.47000000000E+01 0. -1.
        -13    1    6    6    0    0  0.29235576885E+02  0.18520632619E+02  0.17445920112E+03  0.17785878006E+03  0.00000000000E+00 0.  1.
         14    1    6    6    0    0 -0.35489449706E+02 -0.29816431323E+02  0.21555019467E+03  0.22047767923E+03  0.00000000000E+00 0. -1.
         -5    1    3    3    0  503  0.86418205130E+01 -0.44224122458E+02  0.62410661973E+02  0.77120910244E+02  0.47000000000E+01 0.  1.
         11    1    4    4    0    0 -0.12197521238E+02  0.34530223827E+02  0.20879523169E+02  0.42155312472E+02  0.00000000000E+00 0. -1.
        -12    1    4    4    0    0  0.73224952120E+01  0.64702078998E+01 -0.54976306222E+02  0.55837951003E+02  0.00000000000E+00 0.  1.
</event>
<event>
12    1  0.8494789E-002  0.2222767E+03  0.7818608E-02  0.1132223E+00
         21   -1    0    0  503  502  0.00000000000E+00  0.00000000000E+00  0.17970125196E+03  0.17970125196E+03  0.00000000000E+00 0. -1.
         21   -1    0    0  501  503 -0.00000000000E+00 -0.00000000000E+00 -0.36881312225E+03  0.36881312225E+03  0.00000000000E+00 0.  1.
          6    2    1    2  501    0  0.25608837642E+02 -0.13923729886E+03 -0.23302712297E+03  0.32194102611E+03  0.17117694440E+03 0.  0.
         24    2    3    3    0    0 -0.43680901161E+02 -0.81298120958E+02 -0.17887174310E+03  0.21652323156E+03  0.79811050148E+02 0.  0.
         -6    2    1    2    0  502 -0.25608837642E+02  0.13923729886E+03  0.43915252679E+02  0.22657334809E+03  0.17135954799E+03 0.  0.
        -24    2    5    5    0    0 -0.69234438923E+02  0.69330299143E+02  0.61926248981E+02  0.14209454788E+03  0.82194296110E+02 0.  0.
          5    1    3    3  501    0  0.69289738802E+02 -0.57939177906E+02 -0.54155379865E+02  0.10541779455E+03  0.47000000000E+01 0. -1.
        -13    1    4    4    0    0  0.24955065349E+01 -0.73125606004E+02 -0.12721712613E+03  0.14675755172E+03  0.00000000000E+00 0.  1.
         14    1    4    4    0    0 -0.46176407696E+02 -0.81725149538E+01 -0.51654616971E+02  0.69765679834E+02  0.00000000000E+00 0. -1.
         -5    1    5    5    0  502  0.43625601282E+02  0.69906999721E+02 -0.18010996302E+02  0.84478800210E+02  0.47000000000E+01 0.  1.
         11    1    6    6    0    0 -0.19938004505E+02  0.39454781061E+02  0.71104114130E+02  0.83725735700E+02  0.00000000000E+00 0. -1.
        -12    1    6    6    0    0 -0.49296434418E+02  0.29875518083E+02 -0.91778651496E+01  0.58368812184E+02  0.00000000000E+00 0.  1.
</event>
<event>
12    1  0.8494789E-002  0.2655088E+03  0.7818608E-02  0.1104396E+00
         21   -1    0    0  501  502  0.00000000000E+00  0.00000000000E+00  0.55820155789E+02  0.55820155789E+02  0.00000000000E+00 0. -1.
         21   -1    0    0  502  503 -0.00000000000E+00 -0.00000000000E+00 -0.22579796265E+04  0.22579796265E+04  0.00000000000E+00 0. -1.
         -6    2    1    2    0  503 -0.14233927059E+03  0.14000572675E+03 -0.18795475599E+04  0.18982080893E+04  0.17502242360E+03 0.  0.
        -24    2    3    3    0    0 -0.75069339933E+02  0.11472853070E+03 -0.16538366637E+04  0.16612868389E+04  0.76812820315E+02 0.  0.
          6    2    1    2  501    0  0.14233927059E+03 -0.14000572675E+03 -0.32261191077E+03  0.41559169298E+03  0.16963472177E+03 0.  0.
         24    2    5    5    0    0  0.11569223946E+03 -0.25141896812E+02 -0.15535834528E+03  0.21089775349E+03  0.79528848426E+02 0.  0.
          5    1    5    5  501    0  0.26647031126E+02 -0.11486382994E+03 -0.16725356549E+03  0.20469393949E+03  0.47000000000E+01 0. -1.
        -13    1    6    6    0    0  0.17516753704E+02  0.40648101525E+01 -0.84394668601E+02  0.86289161719E+02  0.00000000000E+00 0.  1.
         14    1    6    6    0    0  0.98175485756E+02 -0.29206706965E+02 -0.70963676680E+02  0.12460859177E+03  0.00000000000E+00 0. -1.
         -5    1    3    3    0  503 -0.67269930653E+02  0.25277196049E+02 -0.22571089620E+03  0.23692125036E+03  0.47000000000E+01 0.  1.
         13    1    4    4    0    0 -0.12704933306E+02  0.34093479826E+02 -0.88168955046E+03  0.88243993795E+03  0.00000000000E+00 0. -1.
        -14    1    4    4    0    0 -0.62364406627E+02  0.80635050874E+02 -0.77214711323E+03  0.77884690094E+03  0.00000000000E+00 0.  1.
</event>
<event>
12    1  0.8494789E-002  0.1975386E+03  0.7818608E-02  0.1153316E+00
         21   -1    0    0  501  502  0.00000000000E+00  0.00000000000E+00  0.70851931557E+02  0.70851931557E+02  0.00000000000E+00 0. -1.
         21   -1    0    0  502  503 -0.00000000000E+00 -0.00000000000E+00 -0.96517489193E+03  0.96517489193E+03  0.00000000000E+00 0. -1.
         -6    2    1    2    0  503 -0.74884919282E+02 -0.34425641689E+02 -0.78986346333E+03  0.81256928632E+03  0.17202231956E+03 0.  0.
        -24    2    3    3    0    0  0.28936061277E+01  0.18381902683E+02 -0.23024241538E+03  0.24508717817E+03  0.81913904572E+02 0.  0.
          6    2    1    2  501    0  0.74884919282E+02  0.34425641689E+02 -0.10445949704E+03  0.22345753716E+03  0.17952328108E+03 0.  0.
         24    2    5    5    0    0  0.11965273425E+03  0.44735350145E+02 -0.84067738779E+02  0.17297624211E+03  0.80841618400E+02 0.  0.
          5    1    5    5  501    0 -0.44767814965E+02 -0.10309708456E+02 -0.20391758257E+02  0.50481295050E+02  0.47000000000E+01 0. -1.
        -13    1    6    6    0    0  0.71765843578E+02  0.53475794373E+02 -0.86189135944E+02  0.12425201827E+03  0.00000000000E+00 0.  1.
         14    1    6    6    0    0  0.47886890669E+02 -0.87404442289E+01  0.21213971642E+01  0.48724223844E+02  0.00000000000E+00 0. -1.
         -5    1    3    3    0  503 -0.77778525410E+02 -0.52807544372E+02 -0.55962104796E+03  0.56748210815E+03  0.47000000000E+01 0.  1.
         13    1    4    4    0    0 -0.35877941781E+02  0.67644419837E+01 -0.15911578919E+03  0.16325078484E+03  0.00000000000E+00 0. -1.
        -14    1    4    4    0    0  0.38771547908E+02  0.11617460699E+02 -0.71126626183E+02  0.81836393325E+02  0.00000000000E+00 0.  1.
</event>
<event>
12    1  0.8494789E-002  0.1753638E+03  0.7818608E-02  0.1172952E+00
         21   -1    0    0  503  502  0.00000000000E+00  0.00000000000E+00  0.14155654393E+03  0.14155654393E+03  0.00000000000E+00 0. -1.
         21   -1    0    0  501  503 -0.00000000000E+00 -0.00000000000E+00 -0.54100839480E+03  0.54100839480E+03  0.00000000000E+00 0. -1.
          6    2    1    2  501    0 -0.16395897166E+02  0.30668191931E+02 -0.46543085483E+03  0.49737143402E+03  0.17188106153E+03 0.  0.
         24    2    3    3    0    0  0.51070337775E+00 -0.80341579086E+01 -0.96283483651E+02  0.12578621274E+03  0.80541005586E+02 0.  0.
         -6    2    1    2    0  502  0.16395897166E+02 -0.30668191931E+02  0.65979003963E+02  0.18519350471E+03  0.16951118483E+03 0.  0.
        -24    2    5    5    0    0  0.37765250899E+02 -0.78252791733E+02  0.29040851188E+02  0.12110403172E+03  0.79202915807E+02 0.  0.
          5    1    3    3  501    0 -0.16906600544E+02  0.38702349840E+02 -0.36914737118E+03  0.37158522128E+03  0.47000000000E+01 0. -1.
        -13    1    4    4    0    0 -0.29876797724E+02 -0.10150019542E+02 -0.82252856749E+01  0.32608300529E+02  0.00000000000E+00 0.  1.
         14    1    4    4    0    0  0.30387501102E+02  0.21158616334E+01 -0.88058197976E+02  0.93177912213E+02  0.00000000000E+00 0. -1.
         -5    1    5    5    0  502 -0.21369353732E+02  0.47584599801E+02  0.36938152776E+02  0.64089472986E+02  0.47000000000E+01 0.  1.
         13    1    6    6    0    0  0.32328357663E+02  0.20020174873E+01  0.24361706979E+02  0.40529292495E+02  0.00000000000E+00 0. -1.
        -14    1    6    6    0    0  0.54368932354E+01 -0.80254809220E+02  0.46791442084E+01  0.80574739227E+02  0.00000000000E+00 0.  1.
</event>
<event>
12    1  0.8494789E-002  0.1856668E+03  0.7818608E-02  0.1162462E+00
         21   -1    0    0  503  502  0.00000000000E+00  0.00000000000E+00  0.30607022357E+03  0.30607022357E+03  0.00000000000E+00 0.  1.
         21   -1    0    0  501  503 -0.00000000000E+00 -0.00000000000E+00 -0.13848866579E+03  0.13848866579E+03  0.00000000000E+00 0.  1.
          6    2    1    2  501    0  0.68874553082E+02  0.35579171047E+01  0.18003177979E+03  0.25861863848E+03  0.17238270099E+03 0.  0.
         24    2    3    3    0    0  0.10216460401E+03  0.20589835513E-02  0.78483345310E+02  0.15159038911E+03  0.79889950954E+02 0.  0.
         -6    2    1    2    0  502 -0.68874553082E+02 -0.35579171047E+01 -0.12450222004E+02  0.18594025087E+03  0.17222777369E+03 0.  0.
        -24    2    5    5    0    0 -0.44493494583E+02  0.36064496301E+02  0.48471152572E+02  0.10914262371E+03  0.79261218290E+02 0.  0.
          5    1    3    3  501    0 -0.33290050932E+02  0.35558581212E+01  0.10154843448E+03  0.10702824937E+03  0.47000000000E+01 0. -1.
        -11    1    4    4    0    0  0.69276126986E+02 -0.34960621876E+02  0.66309023534E+02  0.10207013987E+03  0.00000000000E+00 0.  1.
         12    1    4    4    0    0  0.32888477027E+02  0.34962680859E+02  0.12174321776E+02  0.49520249240E+02  0.00000000000E+00 0. -1.
         -5    1    5    5    0  502 -0.24381058499E+02 -0.39622413406E+02 -0.60921374576E+02  0.76797627163E+02  0.47000000000E+01 0.  1.
         11    1    6    6    0    0 -0.44269745724E+02  0.59101469056E+02  0.43048604345E+02  0.85475004341E+02  0.00000000000E+00 0. -1.
        -12    1    6    6    0    0 -0.22374885856E+00 -0.23036972755E+02  0.54225482262E+01  0.23667619368E+02  0.00000000000E+00 0.  1.
</event>
<event>
12    1  0.8494789E-002  0.2313915E+03  0.7818608E-02  0.1127083E+00
         21   -1    0    0  501  502  0.00000000000E+00  0.00000000000E+00  0.18078946402E+03  0.18078946402E+03  0.00000000000E+00 0. -1.
         21   -1    0    0  502  503 -0.00000000000E+00 -0.00000000000E+00 -0.93868957644E+03  0.93868957644E+03  0.00000000000E+00 0. -1.
         -6    2    1    2    0  503  0.34955894215E+02  0.13845616040E+03 -0.84363328413E+03  0.87271555737E+03  0.17182346490E+03 0.  0.
        -24    2    3    3    0    0 -0.25606839684E+01  0.13705558549E+03 -0.79725259436E+03  0.81285978378E+03  0.79614937379E+02 0.  0.
          6    2    1    2  501    0 -0.34955894215E+02 -0.13845616040E+03  0.85733171710E+02  0.24676348310E+03  0.18207146115E+03 0.  0.
         24    2    5    5    0    0 -0.87628795359E+02 -0.87554924498E+02  0.91516619186E+02  0.17313666328E+03  0.79097041692E+02 0.  0.
          5    1    5    5  501    0  0.52672901144E+02 -0.50901235904E+02 -0.57834474763E+01  0.73626819815E+02  0.47000000000E+01 0. -1.
        -13    1    6    6    0    0 -0.48680633125E+02 -0.14826975122E+01  0.50450066118E+02  0.70122832264E+02  0.00000000000E+00 0.  1.
         14    1    6    6    0    0 -0.38948162234E+02 -0.86072226986E+02  0.41066553068E+02  0.10301383102E+03  0.00000000000E+00 0. -1.
         -5    1    3    3    0  503  0.37516578184E+02  0.14005749096E+01 -0.46380689769E+02  0.59855773591E+02  0.47000000000E+01 0.  1.
         11    1    4    4    0    0 -0.36818866983E+02  0.83772215770E+02 -0.38223694121E+03  0.39303752025E+03  0.00000000000E+00 0. -1.
        -12    1    4    4    0    0  0.34258183014E+02  0.53283369722E+02 -0.41501565315E+03  0.41982226352E+03  0.00000000000E+00 0.  1.
</event>
<event>
12    1  0.8494789E-002  0.1936686E+03  0.7818608E-02  0.1155377E+00
         21   -1    0    0  503  502  0.00000000000E+00  0.00000000000E+00  0.85616734273E+02  0.85616734273E+02  0.00000000000E+00 0. -1.
         21   -1    0    0  501  503 -0.00000000000E+00 -0.00000000000E+00 -0.48525789222E+03  0.48525789222E+03  0.00000000000E+00 0. -1.
          6    2    1    2  501    0 -0.29425233988E+02  0.83962891178E+02 -0.29095603381E+03  0.34951815177E+03  0.17202300230E+03 0.  0.
         24    2    3    3    0    0  0.15065501675E+02  0.30742207150E+01 -0.59489633221E+02  0.10027692892E+03  0.79246614055E+02 0.  0.
         -6    2    1    2    0  502  0.29425233988E+02 -0.83962891178E+02 -0.10868512415E+03  0.22135647472E+03  0.17108658978E+03 0.  0.
        -24    2    5    5    0    0 -0.57641869427E+02 -0.27372408147E+02 -0.70991209254E+02  0.11078484868E+03  0.56228969991E+02 0.  0.
          5    1    3    3  501    0 -0.44490735664E+02  0.80888670463E+02 -0.23146640059E+03  0.24924122285E+03  0.47000000000E+01 0. -1.
        -13    1    4    4    0    0 -0.30774680363E+02  0.11679255817E+02 -0.16388795991E+02  0.36770621452E+02  0.00000000000E+00 0.  1.
         14    1    4    4    0    0  0.45840182038E+02 -0.86050351023E+01 -0.43100837229E+02  0.63506307468E+02  0.00000000000E+00 0. -1.
         -5    1    5    5    0  502  0.87067103416E+02 -0.56590483031E+02 -0.37693914891E+02  0.11057162605E+03  0.47000000000E+01 0.  1.
         13    1    6    6    0    0 -0.49549620806E+02  0.57265351304E+01 -0.33293771219E+02  0.59970270373E+02  0.00000000000E+00 0. -1.
        -14    1    6    6    0    0 -0.80922486215E+01 -0.33098943278E+02 -0.37697438035E+02  0.50814578305E+02  0.00000000000E+00 0.  1.
</event>
<event>
12    1  0.8494789E-002  0.2267170E+03  0.7818608E-02  0.1129013E+00
         21   -1    0    0  501  502  0.00000000000E+00  0.00000000000E+00  0.67405895423E+03  0.67405895423E+03  0.00000000000E+00 0.  1.
         21   -1    0    0  502  503 -0.00000000000E+00 -0.00000000000E+00 -0.76909525725E+02  0.76909525725E+02  0.00000000000E+00 0.  1.
         -6    2    1    2    0  503 -0.13747029432E+03 -0.50294124107E+02  0.26213219584E+03  0.34657452901E+03  0.17312722294E+03 0.  0.
        -24    2    3    3    0    0 -0.25563323433E+02 -0.82843540599E+01  0.16821333560E+03  0.19448628745E+03  0.93846021246E+02 0.  0.
          6    2    1    2  501    0  0.13747029432E+03  0.50294124107E+02  0.33501723266E+03  0.40439395094E+03  0.17283038111E+03 0.  0.
         24    2    5    5    0    0  0.80144718822E+02  0.93166724632E+02  0.27004642744E+03  0.30760770701E+03  0.81204765294E+02 0.  0.
          5    1    5    5  501    0  0.57325575502E+02 -0.42872600526E+02  0.64970805219E+02  0.96786243926E+02  0.47000000000E+01 0. -1.
        -13    1    6    6    0    0  0.67217811572E+01 -0.11004170448E+02  0.56106043899E+01  0.14062467450E+02  0.00000000000E+00 0.  1.
         14    1    6    6    0    0  0.73422937665E+02  0.10417089508E+03  0.26443582305E+03  0.29354523956E+03  0.00000000000E+00 0. -1.
         -5    1    3    3    0  503 -0.11190697089E+03 -0.42009770047E+02  0.93918860238E+02  0.15208824156E+03  0.47000000000E+01 0.  1.
         11    1    4    4    0    0  0.79390419510E+01 -0.12353785600E+01 -0.10105715192E+02  0.12910461914E+02  0.00000000000E+00 0. -1.
        -12    1    4    4    0    0 -0.33502365384E+02 -0.70489754999E+01  0.17831905080E+03  0.18157582554E+03  0.00000000000E+00 0.  1.
</event>
<event>
12    1  0.8494789E-002  0.2203846E+03  0.7818608E-02  0.1133918E+00
         21   -1    0    0  501  502  0.00000000000E+00  0.00000000000E+00  0.44802843460E+03  0.44802843460E+03  0.00000000000E+00 0.  1.
         21   -1    0    0  502  503 -0.00000000000E+00 -0.00000000000E+00 -0.23057807850E+03  0.23057807850E+03  0.00000000000E+00 0.  1.
         -6    2    1    2    0  503  0.43476740257E+02  0.12708648544E+03 -0.13930458292E+03  0.25926958469E+03  0.17255071427E+03 0.  0.
        -24    2    3    3    0    0  0.12005589493E+02  0.86572740631E+01 -0.50739707015E+01  0.77456882451E+02  0.75860008483E+02 0.  0.
          6    2    1    2  501    0 -0.43476740257E+02 -0.12708648544E+03  0.35675493901E+03  0.41933692841E+03  0.17472312753E+03 0.  0.
         24    2    5    5    0    0 -0.24303869844E+02 -0.28458328047E+02  0.64881168619E+02  0.11061780002E+03  0.81401333622E+02 0.  0.
          5    1    5    5  501    0 -0.19172870414E+02 -0.98628157396E+02  0.29187377040E+03  0.30871912839E+03  0.47000000000E+01 0. -1.
        -13    1    6    6    0    0 -0.29696239919E+02 -0.15866518506E+02  0.82029350192E+02  0.88670329692E+02  0.00000000000E+00 0.  1.
         14    1    6    6    0    0  0.53923700758E+01 -0.12591809541E+02 -0.17148181573E+02  0.21947470328E+02  0.00000000000E+00 0. -1.
         -5    1    3    3    0  503  0.31471150764E+02  0.11842921138E+03 -0.13423061222E+03  0.18181270224E+03  0.47000000000E+01 0.  1.
         11    1    4    4    0    0  0.29522837888E+02  0.21766517958E+02 -0.27714081033E+02  0.45972269342E+02  0.00000000000E+00 0. -1.
        -12    1    4    4    0    0 -0.17517248394E+02 -0.13109243894E+02  0.22640110331E+02  0.31484613109E+02  0.00000000000E+00 0.  1.
</event>
<event>
12    1  0.8494789E-002  0.1841606E+03  0.7818608E-02  0.1163862E+00
         21   -1    0    0  501  502  0.00000000000E+00  0.00000000000E+00  0.41166193377E+03  0.41166193377E+03  0.00000000000E+00 0. -1.
         21   -1    0    0  502  503 -0.00000000000E+00 -0.00000000000E+00 -0.14100281635E+03  0.14100281635E+03  0.00000000000E+00 0.  1.
         -6    2    1    2    0  503  0.63900046983E+02  0.66254264730E+01 -0.42935291645E+02  0.18899376524E+03  0.17247635128E+03 0.  0.
        -24    2    3    3    0    0 -0.15452246848E+02 -0.42002397049E+02 -0.23571793825E+02  0.93817682087E+02  0.79013636276E+02 0.  0.
          6    2    1    2  501    0 -0.63900046983E+02 -0.66254264730E+01  0.31359440907E+03  0.36367098488E+03  0.17259206113E+03 0.  0.
         24    2    5    5    0    0 -0.32437471119E+02  0.41307557984E+02  0.90903761273E+02  0.13366950816E+03  0.82737776851E+02 0.  0.
          5    1    5    5  501    0 -0.31462575864E+02 -0.47932984457E+02  0.22269064780E+03  0.23000147672E+03  0.47000000000E+01 0. -1.
        -11    1    6    6    0    0 -0.57607123948E+02  0.35328496639E+02  0.82117004951E+02  0.10634794735E+03  0.00000000000E+00 0.  1.
         12    1    6    6    0    0  0.25169652828E+02  0.59790613453E+01  0.87867563220E+01  0.27321560803E+02  0.00000000000E+00 0. -1.
         -5    1    3    3    0  503  0.79352293831E+02  0.48627823522E+02 -0.19363497820E+02  0.95176083154E+02  0.47000000000E+01 0.  1.
         13    1    4    4    0    0  0.50019079776E+01  0.19744430685E+02  0.75332193240E+01  0.21716607006E+02  0.00000000000E+00 0. -1.
        -14    1    4    4    0    0 -0.20454154825E+02 -0.61746827734E+02 -0.31105013149E+02  0.72101075081E+02  0.00000000000E+00 0.  1.
</event>
<event>
12    1  0.8494789E-002  0.1840546E+03  0.7818608E-02  0.1164300E+00
         21   -1    0    0  503  502  0.00000000000E+00  0.00000000000E+00  0.83380931012E+02  0.83380931012E+02  0.00000000000E+00 0.  1.
         21   -1    0    0  501  503 -0.00000000000E+00 -0.00000000000E+00 -0.41489557316E+03  0.41489557316E+03  0.00000000000E+00 0.  1.
          6    2    1    2  501    0  0.63255189540E+02  0.36274706927E+01 -0.12403870497E+03  0.22194979205E+03  0.17280547536E+03 0.  0.
         24    2    3    3    0    0  0.30419171424E+02 -0.64358043571E+02 -0.82240779539E+02  0.13552415462E+03  0.80845327037E+02 0.  0.
         -6    2    1    2    0  502 -0.63255189540E+02 -0.36274706927E+01 -0.20747593717E+03  0.27632671211E+03  0.17116018747E+03 0.  0.
        -24    2    5    5    0    0 -0.77596365844E+02 -0.58302756141E+02 -0.14666464991E+03  0.19316927808E+03  0.79896452332E+02 0.  0.
          5    1    3    3  501    0  0.32836018115E+02  0.67985514263E+02 -0.41797925435E+02  0.86425637435E+02  0.47000000000E+01 0. -1.
        -13    1    4    4    0    0 -0.91543973794E+01 -0.44706670559E+02 -0.41789393504E+01  0.45825243239E+02  0.00000000000E+00 0.  1.
         14    1    4    4    0    0  0.39573568804E+02 -0.19651373012E+02 -0.78061840189E+02  0.89698911380E+02  0.00000000000E+00 0. -1.
         -5    1    5    5    0  502  0.14341176305E+02  0.54675285449E+02 -0.60811287264E+02  0.83157434036E+02  0.47000000000E+01 0.  1.
         11    1    6    6    0    0 -0.45478794068E+02  0.97852906915E+01 -0.33806287041E+02  0.57505979405E+02  0.00000000000E+00 0. -1.
        -12    1    6    6    0    0 -0.32117571776E+02 -0.68088046833E+02 -0.11285836287E+03  0.13566329867E+03  0.00000000000E+00 0.  1.
</event>
<event>
12    1  0.8494789E-002  0.2645287E+03  0.7818608E-02  0.1104599E+00
         21   -1    0    0  503  502  0.00000000000E+00  0.00000000000E+00  0.10151470451E+03  0.10151470451E+03  0.00000000000E+00 0. -1.
         21   -1    0    0  501  503 -0.00000000000E+00 -0.00000000000E+00 -0.71179606931E+03  0.71179606931E+03  0.00000000000E+00 0.  1.
          6    2    1    2  501    0  0.44463776173E+02  0.19593809076E+03 -0.38202790003E+03  0.46467272701E+03  0.17206587117E+03 0.  0.
         24    2    3    3    0    0  0.42944063365E+02  0.18063483549E+03 -0.39487953226E+03  0.44408745072E+03  0.82526859373E+02 0.  0.
         -6    2    1    2    0  502 -0.44463776173E+02 -0.19593809076E+03 -0.22825346477E+03  0.34863804681E+03  0.17052882661E+03 0.  0.
        -24    2    5    5    0    0 -0.55284741176E+02 -0.15490395264E+03 -0.90148364823E+02  0.20408355050E+03  0.80447068018E+02 0.  0.
          5    1    3    3  501    0  0.15197128077E+01  0.15303255272E+02  0.12851632229E+02  0.20585276289E+02  0.47000000000E+01 0. -1.
        -11    1    4    4    0    0  0.98849301198E+01  0.12687991687E+03 -0.18222001022E+03  0.22226191143E+03  0.00000000000E+00 0.  1.
         12    1    4    4    0    0  0.33059133245E+02  0.53754918624E+02 -0.21265952204E+03  0.22182553929E+03  0.00000000000E+00 0. -1.
         -5    1    5    5    0  502  0.10820965004E+02 -0.41034138121E+02 -0.13810509994E+03  0.14455449632E+03  0.47000000000E+01 0.  1.
         13    1    6    6    0    0 -0.42390101016E+02 -0.11945801694E+03 -0.10393994952E+03  0.16392270002E+03  0.00000000000E+00 0. -1.
        -14    1    6    6    0    0 -0.12894640161E+02 -0.35445935700E+02  0.13791584699E+02  0.40160850476E+02  0.00000000000E+00 0.  1.
</event>
<event>
12    1  0.8494789E-002  0.1807706E+03  0.7818608E-02  0.1168895E+00
         21   -1    0    0  503  502  0.00000000000E+00  0.00000000000E+00  0.81441430794E+02  0.81441430794E+02  0.00000000000E+00 0. -1.
         21   -1    0    0  501  503 -0.00000000000E+00 -0.00000000000E+00 -0.56569382011E+03  0.56569382011E+03  0.00000000000E+00 0. -1.
          6    2    1    2  501    0 -0.17352931429E+02  0.29764400818E+02 -0.42157003214E+03  0.45580546927E+03  0.16985373128E+03 0.  0.
         24    2    3    3    0    0 -0.43028252069E+02  0.70517972090E+02 -0.36176659443E+03  0.37887292204E+03  0.76455263677E+02 0.  0.
         -6    2    1    2    0  502  0.17352931429E+02 -0.29764400818E+02 -0.62682357169E+02  0.19132978163E+03  0.17745693464E+03 0.  0.
        -24    2    5    5    0    0 -0.11565958412E+02 -0.21746599011E+02 -0.10845302405E+03  0.13639681082E+03  0.78964204626E+02 0.  0.
          5    1    3    3  501    0  0.25675320640E+02 -0.40753571272E+02 -0.59803437716E+02  0.76932547235E+02  0.47000000000E+01 0. -1.
        -13    1    4    4    0    0 -0.34765794534E+02  0.95998688870E+01 -0.53405395216E+02  0.64443418519E+02  0.00000000000E+00 0.  1.
         14    1    4    4    0    0 -0.82624575350E+01  0.60918103203E+02 -0.30836119921E+03  0.31442950352E+03  0.00000000000E+00 0. -1.
         -5    1    5    5    0  502  0.28918889841E+02 -0.80178018076E+01  0.45770666883E+02  0.54932970814E+02  0.47000000000E+01 0.  1.
         13    1    6    6    0    0 -0.15642963016E+02 -0.38422326085E+02 -0.19566057759E+02  0.45867287362E+02  0.00000000000E+00 0. -1.
        -14    1    6    6    0    0  0.40770046036E+01  0.16675727075E+02 -0.88886966294E+02  0.90529523455E+02  0.00000000000E+00 0.  1.
</event>
<event>
12    1  0.8494789E-002  0.2292903E+03  0.7818608E-02  0.1128125E+00
         21   -1    0    0  503  502  0.00000000000E+00  0.00000000000E+00  0.78262809144E+02  0.78262809144E+02  0.00000000000E+00 0.  1.
         21   -1    0    0  501  503 -0.00000000000E+00 -0.00000000000E+00 -0.76537860239E+03  0.76537860239E+03  0.00000000000E+00 0. -1.
          6    2    1    2  501    0  0.80896896904E+02  0.11824650805E+03 -0.50677036073E+03  0.55622860077E+03  0.17901819238E+03 0.  0.
         24    2    3    3    0    0  0.50636414051E+02  0.15066241879E+03 -0.33814298549E+03  0.38180449185E+03  0.78554315594E+02 0.  0.
         -6    2    1    2    0  502 -0.80896896904E+02 -0.11824650805E+03 -0.18034543252E+03  0.28741281076E+03  0.17191597997E+03 0.  0.
        -24    2    5    5    0    0 -0.12075327515E+03 -0.11134732907E+03 -0.15130259013E+03  0.23739575117E+03  0.80527558890E+02 0.  0.
          5    1    3    3  501    0  0.30260482853E+02 -0.32415910740E+02 -0.16862737524E+03  0.17442410892E+03  0.47000000000E+01 0. -1.
        -13    1    4    4    0    0  0.71784689415E+02  0.12381206938E+03 -0.27333099377E+03  0.30853249799E+03  0.00000000000E+00 0.  1.
         14    1    4    4    0    0 -0.21148275363E+02  0.26850349411E+02 -0.64811991718E+02  0.73271993864E+02  0.00000000000E+00 0. -1.
         -5    1    5    5    0  502  0.39856378243E+02 -0.68991789743E+01 -0.29042842383E+02  0.50017059598E+02  0.47000000000E+01 0.  1.
         13    1    6    6    0    0 -0.11771380683E+03 -0.83916650559E+02 -0.15202738061E+03  0.20978767603E+03  0.00000000000E+00 0. -1.
        -14    1    6    6    0    0 -0.30394683194E+01 -0.27430678512E+02  0.72479048156E+00  0.27608075133E+02  0.00000000000E+00 0.  1.
</event>
<event>
12    1  0.8494789E-002  0.1722976E+03  0.7818608E-02  0.1175768E+00
         21   -1    0    0  503  502  0.00000000000E+00  0.00000000000E+00  0.21266518446E+03  0.21266518446E+03  0.00000000000E+00 0.  1.
         21   -1    0    0  501  503 -0.00000000000E+00 -0.00000000000E+00 -0.17536129214E+03  0.17536129214E+03  0.00000000000E+00 0.  1.
          6    2    1    2  501    0  0.15634524246E+02  0.33887876313E+01 -0.70051140833E+02  0.18599360240E+03  0.17155330242E+03 0.  0.
         24    2    3    3    0    0 -0.26785146568E+02  0.53780294434E+02 -0.11443641583E+02  0.97700559649E+02  0.76188439260E+02 0.  0.
         -6    2    1    2    0  502 -0.15634524246E+02 -0.33887876313E+01  0.10735503316E+03  0.20203287421E+03  0.17040028429E+03 0.  0.
        -24    2    5    5    0    0  0.51922393106E+01  0.23898804613E+02 -0.62217577922E+01  0.83288846092E+02  0.79373858432E+02 0.  0.
          5    1    3    3  501    0  0.42419670813E+02 -0.50391506803E+02 -0.58607499250E+02  0.88293042751E+02  0.47000000000E+01 0. -1.
        -13    1    4    4    0    0  0.11561162897E+02  0.19836808065E+02 -0.34577737486E+02  0.41506377479E+02  0.00000000000E+00 0.  1.
         14    1    4    4    0    0 -0.38346309465E+02  0.33943486369E+02  0.23134095903E+02  0.56194182170E+02  0.00000000000E+00 0. -1.
         -5    1    5    5    0  502 -0.20826763556E+02 -0.27287592244E+02  0.11357679095E+03  0.11874402811E+03  0.47000000000E+01 0.  1.
         13    1    6    6    0    0  0.40656847158E+02  0.13420535804E+02 -0.14847557519E+02  0.45316001217E+02  0.00000000000E+00 0. -1.
        -14    1    6    6    0    0 -0.35464607847E+02  0.10478268809E+02  0.86257997264E+01  0.37972844875E+02  0.00000000000E+00 0.  1.
</event>
<event>
12    1  0.8494789E-002  0.1819045E+03  0.7818608E-02  0.1165985E+00
         21   -1    0    0  501  502  0.00000000000E+00  0.00000000000E+00  0.82615067409E+02  0.82615067409E+02  0.00000000000E+00 0.  1.
         21   -1    0    0  502  503 -0.00000000000E+00 -0.00000000000E+00 -0.10211263621E+04  0.10211263621E+04  0.00000000000E+00 0.  1.
         -6    2    1    2    0  503 -0.57063962337E+02 -0.48301704487E+01 -0.89955629371E+03  0.91776401144E+03  0.17265465187E+03 0.  0.
        -24    2    3    3    0    0 -0.80969744700E+02 -0.50316284740E+02 -0.72300318180E+03  0.73382498799E+03  0.81717097634E+02 0.  0.
          6    2    1    2  501    0  0.57063962337E+02  0.48301704487E+01 -0.38955000935E+02  0.18597741801E+03  0.17259919342E+03 0.  0.
         24    2    5    5    0    0  0.97736543930E+02  0.35162478507E+02 -0.34201882000E+02  0.13480134992E+03  0.78821337814E+02 0.  0.
          5    1    5    5  501    0 -0.40672581593E+02 -0.30332308058E+02 -0.47531189346E+01  0.51176068090E+02  0.47000000000E+01 0. -1.
        -13    1    6    6    0    0  0.39595418103E+02 -0.13729992959E+02  0.14750887659E+02  0.44428577831E+02  0.00000000000E+00 0.  1.
         14    1    6    6    0    0  0.58141125828E+02  0.48892471466E+02 -0.48952769658E+02  0.90372772093E+02  0.00000000000E+00 0. -1.
         -5    1    3    3    0  503  0.23905782362E+02  0.45486114292E+02 -0.17655311191E+03  0.18393902345E+03  0.47000000000E+01 0.  1.
         13    1    4    4    0    0  0.12750082070E+02  0.80923917474E+01 -0.82010086069E+02  0.83388881837E+02  0.00000000000E+00 0. -1.
        -14    1    4    4    0    0 -0.93719826770E+02 -0.58408676488E+02 -0.64099309573E+03  0.65043610616E+03  0.00000000000E+00 0.  1.
</event>
<event>
12    1  0.8494789E-002  0.1979016E+03  0.7818608E-02  0.1151626E+00
         21   -1    0    0  503  502  0.00000000000E+00  0.00000000000E+00  0.11331407090E+03  0.11331407090E+03  0.00000000000E+00 0.  1.
         21   -1    0    0  501  503 -0.00000000000E+00 -0.00000000000E+00 -0.50616486172E+03  0.50616486172E+03  0.00000000000E+00 0.  1.
          6    2    1    2  501    0  0.25171003363E+02  0.93909440892E+02 -0.37115699858E+03  0.42039188685E+03  0.17181169469E+03 0.  0.
         24    2    3    3    0    0 -0.51802175404E+02  0.60828613688E+02 -0.23015432993E+03  0.25630942604E+03  0.79623618803E+02 0.  0.
         -6    2    1    2    0  502 -0.25171003363E+02 -0.93909440892E+02 -0.21693792245E+02  0.19908704578E+03  0.17237305090E+03 0.  0.
        -24    2    5    5    0    0 -0.12878877246E+02 -0.37359979984E+02 -0.80188451967E+02  0.11666949237E+03  0.74966319356E+02 0.  0.
          5    1    3    3  501    0  0.76973178767E+02  0.33080827204E+02 -0.14100266864E+03  0.16408246080E+03  0.47000000000E+01 0. -1.
        -11    1    4    4    0    0 -0.48343354828E+02  0.75549200017E+02 -0.15023675854E+03  0.17497384146E+03  0.00000000000E+00 0.  1.
         12    1    4    4    0    0 -0.34588205763E+01 -0.14720586329E+02 -0.79917571395E+02  0.81335584582E+02  0.00000000000E+00 0. -1.
         -5    1    5    5    0  502 -0.12292126117E+02 -0.56549460908E+02  0.58494659722E+02  0.82417553406E+02  0.47000000000E+01 0.  1.
         11    1    6    6    0    0  0.11069389830E+02  0.89326687820E+01  0.64056454855E+01  0.15599880027E+02  0.00000000000E+00 0. -1.
        -12    1    6    6    0    0 -0.23948267076E+02 -0.46292648766E+02 -0.86594097452E+02  0.10106961234E+03  0.00000000000E+00 0.  1.
</event>
<event>
12    1  0.8494789E-002  0.2219313E+03  0.7818608E-02  0.1132477E+00
         21   -1    0    0  501  502  0.00000000000E+00  0.00000000000E+00  0.22958951016E+03  0.22958951016E+03  0.00000000000E+00 0.  1.
         21   -1    0    0  502  503 -0.00000000000E+00 -0.00000000000E+00 -0.21466977043E+03  0.21466977043E+03  0.00000000000E+00 0.  1.
         -6    2    1    2    0  503  0.35585560760E+02  0.13591715962E+03 -0.51284195503E+00  0.22179207814E+03  0.17161484931E+03 0.  0.
        -24    2    3    3    0    0  0.26260894120E+02  0.70532692811E+02 -0.65351250629E+02  0.12911960570E+03  0.82076740327E+02 0.  0.
          6    2    1    2  501    0 -0.35585560760E+02 -0.13591715962E+03  0.15432581691E+02  0.22246720246E+03  0.17179547485E+03 0.  0.
         24    2    5    5    0    0  0.99733737854E+01 -0.37263628966E+01 -0.57547461419E+01  0.80971562542E+02  0.80061993931E+02 0.  0.
          5    1    5    5  501    0 -0.45558934546E+02 -0.13219079672E+03  0.21187327832E+02  0.14149563992E+03  0.47000000000E+01 0. -1.
        -13    1    6    6    0    0  0.25466553382E+02 -0.28841590563E+02  0.18575741560E+02  0.42725178313E+02  0.00000000000E+00 0.  1.
         14    1    6    6    0    0 -0.15493179597E+02  0.25115227666E+02 -0.24330487702E+02  0.38246384229E+02  0.00000000000E+00 0. -1.
         -5    1    3    3    0  503  0.93246666399E+01  0.65384466808E+02  0.64838408674E+02  0.92672472434E+02  0.47000000000E+01 0.  1.
         11    1    4    4    0    0  0.55547745804E+02  0.37410891692E+02 -0.42897116060E+02  0.79531688322E+02  0.00000000000E+00 0. -1.
        -12    1    4    4    0    0 -0.29286851683E+02  0.33121801118E+02 -0.22454134568E+02  0.49587917380E+02  0.00000000000E+00 0.  1.
</event>
<event>
12    1  0.8494789E-002  0.1891445E+03  0.7818608E-02  0.1159334E+00
         21   -1    0    0  501  502  0.00000000000E+00  0.00000000000E+00  0.11127594421E+03  0.11127594421E+03  0.00000000000E+00 0.  1.
         21   -1    0    0  502  503 -0.00000000000E+00 -0.00000000000E+00 -0.69809420397E+03  0.69809420397E+03  0.00000000000E+00 0.  1.
         -6    2    1    2    0  503 -0.27996026405E+02  0.72843432047E+02 -0.59108502836E+03  0.62061030200E+03  0.17229536590E+03 0.  0.
        -24    2    3    3    0    0 -0.34580461304E+02  0.50455464984E+01 -0.83186635666E+02  0.10814296122E+03  0.59612229146E+02 0.  0.
          6    2    1    2  501    0  0.27996026405E+02 -0.72843432047E+02  0.42667686117E+01  0.18875984618E+03  0.17182005450E+03 0.  0.
         24    2    5    5    0    0  0.70946514684E+02 -0.65133789977E+01 -0.12225831619E+02  0.10789875391E+03  0.80105168896E+02 0.  0.
          5    1    5    5  501    0 -0.42950488279E+02 -0.66330053049E+02  0.16492600230E+02  0.80861092271E+02  0.47000000000E+01 0. -1.
        -11    1    6    6    0    0  0.96297815279E+01 -0.23424314873E+02  0.23837774856E+02  0.34780321011E+02  0.00000000000E+00 0.  1.
         12    1    6    6    0    0  0.61316733156E+02  0.16910935875E+02 -0.36063606474E+02  0.73118432895E+02  0.00000000000E+00 0. -1.
         -5    1    3    3    0  503  0.65844348995E+01  0.67797885548E+02 -0.50789839270E+03  0.51246734079E+03  0.47000000000E+01 0.  1.
         13    1    4    4    0    0 -0.44080973184E+02  0.19521431470E+02 -0.43871539093E+02  0.65183820277E+02  0.00000000000E+00 0. -1.
        -14    1    4    4    0    0  0.95005118801E+01 -0.14475884972E+02 -0.39315096573E+02  0.42959140939E+02  0.00000000000E+00 0.  1.
</event>
<event>
12    1  0.8494789E-002  0.1813756E+03  0.7818608E-02  0.1167315E+00
         21   -1    0    0  501  502  0.00000000000E+00  0.00000000000E+00  0.12596415534E+03  0.12596415534E+03  0.00000000000E+00 0.  1.
         21   -1    0    0  502  503 -0.00000000000E+00 -0.00000000000E+00 -0.25642133461E+03  0.25642133461E+03  0.00000000000E+00 0.  1.
         -6    2    1    2    0  503  0.36244062622E+02  0.45177164971E+02 -0.70070566076E+02  0.19122155575E+03  0.16822957779E+03 0.  0.
        -24    2    3    3    0    0  0.59103187507E+02  0.62488149449E+02 -0.53141127954E+01  0.12024481297E+03  0.83860715808E+02 0.  0.
          6    2    1    2  501    0 -0.36244062622E+02 -0.45177164971E+02 -0.60386613187E+02  0.19116393420E+03  0.17187931341E+03 0.  0.
         24    2    5    5    0    0 -0.83365704361E+02 -0.16107231012E+01 -0.51233552783E+02  0.12616891522E+03  0.79632174057E+02 0.  0.
          5    1    5    5  501    0  0.47121641739E+02 -0.43566441870E+02 -0.91530604040E+01  0.64995018980E+02  0.47000000000E+01 0. -1.
        -13    1    6    6    0    0 -0.65623702939E+02 -0.11306801377E+02  0.46375891365E+01  0.66751939131E+02  0.00000000000E+00 0.  1.
         14    1    6    6    0    0 -0.17742001422E+02  0.96960782758E+01 -0.55871141919E+02  0.59416976091E+02  0.00000000000E+00 0. -1.
         -5    1    3    3    0  503 -0.22859124885E+02 -0.17310984478E+02 -0.64756453281E+02  0.70976742780E+02  0.47000000000E+01 0.  1.
         13    1    4    4    0    0  0.11989315072E+02  0.41292379317E+02 -0.39425803411E+02  0.58336937185E+02  0.00000000000E+00 0. -1.
        -14    1    4    4    0    0  0.47113872434E+02  0.21195770131E+02  0.34111690615E+02  0.61907875782E+02  0.00000000000E+00 0.  1.
</event>
<event>
12    1  0.8494789E-002  0.1854585E+03  0.7818608E-02  0.1162725E+00
         21   -1    0    0  503  502  0.00000000000E+00  0.00000000000E+00  0.72903283517E+02  0.72903283517E+02  0.00000000000E+00 0.  1.
         21   -1    0    0  501  503 -0.00000000000E+00 -0.00000000000E+00 -0.47505143412E+03  0.47505143412E+03  0.00000000000E+00 0. -1.
          6    2    1    2  501    0 -0.61927515889E+02  0.33074330601E+02 -0.22714046158E+03  0.29295953272E+03  0.17118285531E+03 0.  0.
         24    2    3    3    0    0 -0.10504080207E+03  0.43395029014E+02 -0.15069488040E+03  0.20446496145E+03  0.78614724073E+02 0.  0.
         -6    2    1    2    0  502  0.61927515889E+02 -0.33074330601E+02 -0.17500768902E+03  0.25499518492E+03  0.17165641423E+03 0.  0.
        -24    2    5    5    0    0  0.42283825742E+02 -0.29328554830E+02 -0.20093072603E+03  0.22191952549E+03  0.78911552291E+02 0.  0.
          5    1    3    3  501    0  0.43113286180E+02 -0.10320698413E+02 -0.76445581182E+02  0.88494571264E+02  0.47000000000E+01 0. -1.
        -11    1    4    4    0    0 -0.49839376602E+01  0.36080884728E+02 -0.27798694192E+02  0.45819616718E+02  0.00000000000E+00 0.  1.
         12    1    4    4    0    0 -0.10005686441E+03  0.73141442858E+01 -0.12289618621E+03  0.15864534474E+03  0.00000000000E+00 0. -1.
         -5    1    5    5    0  502  0.19643690147E+02 -0.37457757704E+01  0.25923037008E+02  0.33075659425E+02  0.47000000000E+01 0.  1.
         13    1    6    6    0    0  0.52132228589E+02 -0.13753574661E+02 -0.63687706897E+02  0.83444916463E+02  0.00000000000E+00 0. -1.
        -14    1    6    6    0    0 -0.98484028470E+01 -0.15574980170E+02 -0.13724301913E+03  0.13847460903E+03  0.00000000000E+00 0.  1.
</event>
<event>
12    1  0.8494789E-002  0.1771707E+03  0.7818608E-02  0.1170614E+00
         21   -1    0    0  503  502  0.00000000000E+00  0.00000000000E+00  0.63250177272E+03  0.63250177272E+03  0.00000000000E+00 0.  1.
         21   -1    0    0  501  503 -0.00000000000E+00 -0.00000000000E+00 -0.55395268496E+02  0.55395268496E+02  0.00000000000E+00 0.  1.
          6    2    1    2  501    0 -0.36445371311E+02 -0.81725954943E+01  0.17695637588E+03  0.25027896119E+03  0.17300561565E+03 0.  0.
         24    2    3    3    0    0 -0.26473265296E+02 -0.62081332066E+02  0.54587858249E+02  0.11610840226E+03  0.77112912285E+02 0.  0.
         -6    2    1    2    0  502  0.36445371311E+02  0.81725954943E+01  0.40015012834E+03  0.43761808002E+03  0.17318892095E+03 0.  0.
        -24    2    5    5    0    0  0.71762164931E+02  0.27493863699E+02  0.16213892839E+03  0.19618069970E+03  0.79322846493E+02 0.  0.
          5    1    3    3  501    0 -0.99721060154E+01  0.53908736572E+02  0.12236851763E+03  0.13417055893E+03  0.47000000000E+01 0. -1.
        -11    1    4    4    0    0 -0.26588095248E+02 -0.74649719965E+02  0.62786249669E+02  0.10110203088E+03  0.00000000000E+00 0.  1.
         12    1    4    4    0    0  0.11482995228E+00  0.12568387899E+02 -0.81983914203E+01  0.15006371386E+02  0.00000000000E+00 0. -1.
         -5    1    5    5    0  502 -0.35316793620E+02 -0.19321268204E+02  0.23801119995E+03  0.24143738032E+03  0.47000000000E+01 0.  1.
         11    1    6    6    0    0  0.58445507010E+02 -0.76407146388E+01  0.47995245179E+02  0.76011850192E+02  0.00000000000E+00 0. -1.
        -12    1    6    6    0    0  0.13316657921E+02  0.35134578337E+02  0.11414368322E+03  0.12016884950E+03  0.00000000000E+00 0.  1.
</event>
<event>
12    1  0.8494789E-002  0.1908388E+03  0.7818608E-02  0.1159243E+00
         21   -1    0    0  501  502  0.00000000000E+00  0.00000000000E+00  0.48996661286E+02  0.48996661286E+02  0.00000000000E+00 0. -1.
         21   -1    0    0  502  503 -0.00000000000E+00 -0.00000000000E+00 -0.82409589418E+03  0.82409589418E+03  0.00000000000E+00 0. -1.
         -6    2    1    2    0  503  0.15022815427E+02 -0.66335795653E+02 -0.55068379812E+03  0.58281393632E+03  0.17830680326E+03 0.  0.
        -24    2    3    3    0    0 -0.39349451521E+02  0.11682026941E+02 -0.19117142786E+03  0.21090755236E+03  0.79060936793E+02 0.  0.
          6    2    1    2  501    0 -0.15022815427E+02  0.66335795653E+02 -0.22441543477E+03  0.29027861915E+03  0.17109432077E+03 0.  0.
         24    2    5    5    0    0 -0.85332678114E+01 -0.75321210035E+01 -0.36971162084E+02  0.88645217391E+02  0.79759377091E+02 0.  0.
          5    1    5    5  501    0 -0.64895476161E+01  0.73867916656E+02 -0.18744427269E+03  0.20163340175E+03  0.47000000000E+01 0. -1.
        -13    1    6    6    0    0 -0.17919121997E+02  0.31846356775E+02 -0.30607309458E+02  0.47666474227E+02  0.00000000000E+00 0.  1.
         14    1    6    6    0    0  0.93858541859E+01 -0.39378477779E+02 -0.63638526264E+01  0.40978743163E+02  0.00000000000E+00 0. -1.
         -5    1    3    3    0  503  0.54372266949E+02 -0.78017822594E+02 -0.35951237026E+03  0.37190638396E+03  0.47000000000E+01 0.  1.
         13    1    4    4    0    0 -0.21397133084E+01  0.40470439817E+02 -0.10798005332E+03  0.11533484636E+03  0.00000000000E+00 0. -1.
        -14    1    4    4    0    0 -0.37209738213E+02 -0.28788412876E+02 -0.83191374542E+02  0.95572705999E+02  0.00000000000E+00 0.  1.
</event>
<event>
12    1  0.8494789E-002  0.1833970E+03  0.7818608E-02  0.1165041E+00
         21   -1    0    0  501  502  0.00000000000E+00  0.00000000000E+00  0.93952652921E+03  0.93952652921E+03  0.00000000000E+00 0.  1.
         21   -1    0    0  502  503 -0.00000000000E+00 -0.00000000000E+00 -0.43341254231E+02  0.43341254231E+02  0.00000000000E+00 0.  1.
         -6    2    1    2    0  503 -0.32561645696E+02 -0.55515217320E+02  0.23980944367E+03  0.30189906213E+03  0.17173314858E+03 0.  0.
        -24    2    3    3    0    0  0.39764939738E+02  0.43424776463E+01  0.11230834638E+03  0.14349231222E+03  0.79854689630E+02 0.  0.
          6    2    1    2  501    0  0.32561645696E+02  0.55515217320E+02  0.65637583131E+03  0.68096872131E+03  0.16954930654E+03 0.  0.
         24    2    5    5    0    0  0.30892130343E+02  0.84659494156E+02  0.30484386106E+03  0.32819543396E+03  0.81614395679E+02 0.  0.
          5    1    5    5  501    0  0.16695153529E+01 -0.29144276836E+02  0.35153197026E+03  0.35277328735E+03  0.47000000000E+01 0. -1.
        -13    1    6    6    0    0  0.29511060777E+01 -0.65058282693E-01  0.14587077090E+03  0.14590063421E+03  0.00000000000E+00 0.  1.
         14    1    6    6    0    0  0.27941024266E+02  0.84724552439E+02  0.15897309015E+03  0.18229479975E+03  0.00000000000E+00 0. -1.
         -5    1    3    3    0  503 -0.72326585435E+02 -0.59857694967E+02  0.12750109729E+03  0.15840674991E+03  0.47000000000E+01 0.  1.
         11    1    4    4    0    0 -0.10135631389E+02 -0.59663826087E+01  0.84751593660E+02  0.85563785406E+02  0.00000000000E+00 0. -1.
        -12    1    4    4    0    0  0.49900571127E+02  0.10308860255E+02  0.27556752717E+02  0.57928526815E+02  0.00000000000E+00 0.  1.
</event>
<event>
12    1  0.8494789E-002  0.3510459E+03  0.7818608E-02  0.1062336E+00
         21   -1    0    0  501  502  0.00000000000E+00  0.00000000000E+00  0.81039703802E+03  0.81039703802E+03  0.00000000000E+00 0. -1.
         21   -1    0    0  502  503 -0.00000000000E+00 -0.00000000000E+00 -0.15648630674E+03  0.15648630674E+03  0.00000000000E+00 0. -1.
         -6    2    1    2    0  503  0.20023775247E+02  0.30455172001E+03  0.41315260669E+03  0.54121010937E+03  0.17047171125E+03 0.  0.
        -24    2    3    3    0    0  0.27819897362E+02  0.22103976291E+03  0.19132483323E+03  0.30400834383E+03  0.78634329852E+02 0.  0.
          6    2    1    2  501    0 -0.20023775247E+02 -0.30455172001E+03  0.24075812459E+03  0.42567323538E+03  0.17343738647E+03 0.  0.
         24    2    5    5    0    0 -0.18283863155E+02 -0.53619728904E+02  0.72298027480E+02  0.12339722612E+03  0.82404463819E+02 0.  0.
          5    1    5    5  501    0 -0.17399120919E+01 -0.25093199111E+03  0.16846009711E+03  0.30227600926E+03  0.47000000000E+01 0. -1.
        -13    1    6    6    0    0  0.24644623717E+02 -0.17507047378E+02 -0.20039804744E+01  0.30296371462E+02  0.00000000000E+00 0.  1.
         14    1    6    6    0    0 -0.42928486872E+02 -0.36112681526E+02  0.74302007954E+02  0.93100854659E+02  0.00000000000E+00 0. -1.
         -5    1    3    3    0  503 -0.77961221148E+01  0.83511957102E+02  0.22182777346E+03  0.23720176554E+03  0.47000000000E+01 0.  1.
         11    1    4    4    0    0  0.26489704690E+02  0.10183347776E+03  0.42890768940E+02  0.11362825224E+03  0.00000000000E+00 0. -1.
        -12    1    4    4    0    0  0.13301926719E+01  0.11920628515E+03  0.14843406429E+03  0.19038009159E+03  0.00000000000E+00 0.  1.
</event>
<event>
12    1  0.8494789E-002  0.1748034E+03  0.7818608E-02  0.1173347E+00
         21   -1    0    0  501  502  0.00000000000E+00  0.00000000000E+00  0.31630534566E+03  0.31630534566E+03  0.00000000000E+00 0.  1.
         21   -1    0    0  502  503 -0.00000000000E+00 -0.00000000000E+00 -0.10399484919E+04  0.10399484919E+04  0.00000000000E+00 0.  1.
         -6    2    1    2    0  503 -0.26675259326E+02  0.64147864070E+01 -0.10081536851E+04  0.10231960109E+04  0.17263691682E+03 0.  0.
        -24    2    3    3    0    0  0.46076869251E+02  0.22569877853E+02 -0.48314425414E+03  0.49290283561E+03  0.83020225094E+02 0.  0.
          6    2    1    2  501    0  0.26675259326E+02 -0.64147864070E+01  0.28451053885E+03  0.33305782664E+03  0.17096359327E+03 0.  0.
         24    2    5    5    0    0  0.36977462656E+02 -0.96381381335E+01  0.30007444625E+03  0.31354243263E+03  0.82486103769E+02 0.  0.
          5    1    5    5  501    0 -0.10302203330E+02  0.32233517265E+01 -0.15563907400E+02  0.19515394010E+02  0.47000000000E+01 0. -1.
        -13    1    6    6    0    0 -0.10578383950E+02 -0.32625407207E+02  0.16459529391E+03  0.16813069375E+03  0.00000000000E+00 0.  1.
         14    1    6    6    0    0  0.47555846606E+02  0.22987269073E+02  0.13547915235E+03  0.14541173889E+03  0.00000000000E+00 0. -1.
         -5    1    3    3    0  503 -0.72752128577E+02 -0.16155091446E+02 -0.52500943095E+03  0.53029317531E+03  0.47000000000E+01 0.  1.
         11    1    4    4    0    0 -0.97959851251E+01 -0.46671995817E+00 -0.51007671450E+01  0.11054274176E+02  0.00000000000E+00 0. -1.
        -12    1    4    4    0    0  0.55872854377E+02  0.23036597811E+02 -0.47804348699E+03  0.48184856143E+03  0.00000000000E+00 0.  1.
</event>
<event>
12    1  0.8494789E-002  0.1885658E+03  0.7818608E-02  0.1159799E+00
         21   -1    0    0  501  502  0.00000000000E+00  0.00000000000E+00  0.20072653749E+03  0.20072653749E+03  0.00000000000E+00 0.  1.
         21   -1    0    0  502  503 -0.00000000000E+00 -0.00000000000E+00 -0.22542743591E+03  0.22542743591E+03  0.00000000000E+00 0.  1.
         -6    2    1    2    0  503 -0.69237827502E+02  0.29227657309E+02 -0.11112124596E+03  0.21872799549E+03  0.17275957860E+03 0.  0.
        -24    2    3    3    0    0 -0.79252017592E+01  0.58525396443E+02 -0.12785628813E+02  0.99105342145E+02  0.78551675258E+02 0.  0.
          6    2    1    2  501    0  0.69237827502E+02 -0.29227657309E+02  0.86420347539E+02  0.20742597792E+03  0.17294197621E+03 0.  0.
         24    2    5    5    0    0  0.10726459145E+03  0.40536541797E+01  0.44908183133E+02  0.14185898725E+03  0.81148645472E+02 0.  0.
          5    1    5    5  501    0 -0.38026763946E+02 -0.33281311489E+02  0.41512164406E+02  0.65566990661E+02  0.47000000000E+01 0. -1.
        -13    1    6    6    0    0  0.67483215882E+02 -0.36899549113E+02  0.19374068638E+02  0.79315292889E+02  0.00000000000E+00 0.  1.
         14    1    6    6    0    0  0.39781375566E+02  0.40953203293E+02  0.25534114495E+02  0.62543694366E+02  0.00000000000E+00 0. -1.
         -5    1    3    3    0  503 -0.61312625742E+02 -0.29297739134E+02 -0.98335617143E+02  0.11962265334E+03  0.47000000000E+01 0.  1.
         13    1    4    4    0    0  0.17625101296E+02  0.24998407938E+02  0.27253663470E+02  0.40967386634E+02  0.00000000000E+00 0. -1.
        -14    1    4    4    0    0 -0.25550303055E+02  0.33526988505E+02 -0.40039292283E+02  0.58137955511E+02  0.00000000000E+00 0.  1.
</event>
<event>
12    1  0.8494789E-002  0.1910534E+03  0.7818608E-02  0.1157536E+00
         21   -1    0    0  503  502  0.00000000000E+00  0.00000000000E+00  0.43854790723E+03  0.43854790723E+03  0.00000000000E+00 0. -1.
         21   -1    0    0  501  503 -0.00000000000E+00 -0.00000000000E+00 -0.16692442297E+03  0.16692442297E+03  0.00000000000E+00 0. -1.
          6    2    1    2  501    0  0.30008994538E+02  0.76753208927E+02 -0.78585251260E+02  0.20658418633E+03  0.17236527926E+03 0.  0.
         24    2    3    3    0    0 -0.28514878143E+02  0.20088336647E+02  0.86921405859E+01  0.87104545594E+02  0.79341092824E+02 0.  0.
         -6    2    1    2    0  502 -0.30008994538E+02 -0.76753208927E+02  0.35020873552E+03  0.39888814386E+03  0.17226142355E+03 0.  0.
        -24    2    5    5    0    0 -0.79553165970E+02 -0.20397122786E+02  0.20420290523E+03  0.23466139255E+03  0.81378091727E+02 0.  0.
          5    1    3    3  501    0  0.58523872681E+02  0.56664872280E+02 -0.87277391846E+02  0.11947964074E+03  0.47000000000E+01 0. -1.
        -13    1    4    4    0    0 -0.21879913873E+02  0.23098847987E+01 -0.33935698627E+02  0.40443761450E+02  0.00000000000E+00 0.  1.
         14    1    4    4    0    0 -0.66349642698E+01  0.17778451848E+02  0.42627839213E+02  0.46660784144E+02  0.00000000000E+00 0. -1.
         -5    1    5    5    0  502  0.49544171433E+02 -0.56356086141E+02  0.14600583029E+03  0.16422675131E+03  0.47000000000E+01 0.  1.
         11    1    6    6    0    0 -0.17271245731E+02  0.12245746052E+02  0.13268957848E+03  0.13436807085E+03  0.00000000000E+00 0. -1.
        -12    1    6    6    0    0 -0.62281920240E+02 -0.32642868837E+02  0.71513326747E+02  0.10029332170E+03  0.00000000000E+00 0.  1.
</event>
<event>
12    1  0.8494789E-002  0.6173541E+03  0.7818608E-02  0.9870440E-01
         21   -1    0    0  501  502  0.00000000000E+00  0.00000000000E+00  0.57975777679E+03  0.57975777679E+03  0.00000000000E+00 0.  1.
         21   -1    0    0  502  503 -0.00000000000E+00 -0.00000000000E+00 -0.82839500320E+03  0.82839500320E+03  0.00000000000E+00 0. -1.
         -6    2    1    2    0  503  0.53663060980E+03  0.25168533957E+03 -0.44494100073E+03  0.76034011723E+03  0.16978421072E+03 0.  0.
        -24    2    3    3    0    0  0.36636744561E+03  0.23495797364E+03 -0.35329116716E+03  0.56619807685E+03  0.79594339328E+02 0.  0.
          6    2    1    2  501    0 -0.53663060980E+03 -0.25168533957E+03  0.19630377433E+03  0.64781266276E+03  0.17265037702E+03 0.  0.
         24    2    5    5    0    0 -0.17220561167E+03 -0.66429025638E+02  0.11239760303E+03  0.23045452315E+03  0.80052969564E+02 0.  0.
          5    1    5    5  501    0 -0.36442499813E+03 -0.18525631393E+03  0.83906171295E+02  0.41735813961E+03  0.47000000000E+01 0. -1.
        -11    1    6    6    0    0 -0.61903737014E+02  0.14949637455E+01  0.71559859856E+02  0.94631501708E+02  0.00000000000E+00 0.  1.
         12    1    6    6    0    0 -0.11030187466E+03 -0.67923989383E+02  0.40837743174E+02  0.13582302144E+03  0.00000000000E+00 0. -1.
         -5    1    3    3    0  503  0.17026316419E+03  0.16727365935E+02 -0.91649833570E+02  0.19414204039E+03  0.47000000000E+01 0.  1.
         13    1    4    4    0    0  0.65196107190E+02  0.76681206379E+02 -0.10139821047E+03  0.14287104987E+03  0.00000000000E+00 0. -1.
        -14    1    4    4    0    0  0.30117133842E+03  0.15827676726E+03 -0.25189295670E+03  0.42332702698E+03  0.00000000000E+00 0.  1.
</event>
<event>
12    1  0.8494789E-002  0.2012317E+03  0.7818608E-02  0.1148849E+00
         21   -1    0    0  501  502  0.00000000000E+00  0.00000000000E+00  0.56671436637E+02  0.56671436637E+02  0.00000000000E+00 0. -1.
         21   -1    0    0  502  503 -0.00000000000E+00 -0.00000000000E+00 -0.71490945658E+03  0.71490945658E+03  0.00000000000E+00 0. -1.
         -6    2    1    2    0  503 -0.10159274477E+02 -0.10389418761E+03 -0.35281605952E+03  0.40582584212E+03  0.17122566748E+03 0.  0.
        -24    2    3    3    0    0 -0.15662437491E+02 -0.10759428772E+03 -0.36622802838E+03  0.39014316210E+03  0.79163599367E+02 0.  0.
          6    2    1    2  501    0  0.10159274477E+02  0.10389418761E+03 -0.30542196042E+03  0.36575505109E+03  0.17203770057E+03 0.  0.
         24    2    5    5    0    0 -0.56452444885E+00  0.41140529935E+01 -0.21982164920E+03  0.23376801230E+03  0.79427211966E+02 0.  0.
          5    1    5    5  501    0  0.10723798926E+02  0.99780134612E+02 -0.85600311225E+02  0.13198703879E+03  0.47000000000E+01 0. -1.
        -11    1    6    6    0    0 -0.21698727711E+02 -0.27621201497E+02 -0.60590818444E+02  0.70035796820E+02  0.00000000000E+00 0.  1.
         12    1    6    6    0    0  0.21134203262E+02  0.31735254490E+02 -0.15923083075E+03  0.16373221549E+03  0.00000000000E+00 0. -1.
         -5    1    3    3    0  503  0.55031630139E+01  0.37001001141E+01  0.13411968859E+02  0.15682680023E+02  0.47000000000E+01 0.  1.
         13    1    4    4    0    0 -0.17799519161E+02 -0.38435432033E+02 -0.25959967460E+03  0.26303250060E+03  0.00000000000E+00 0. -1.
        -14    1    4    4    0    0  0.21370816701E+01 -0.69158855687E+02 -0.10662835378E+03  0.12711066150E+03  0.00000000000E+00 0.  1.
</event>
<event>
12    1  0.8494789E-002  0.1988923E+03  0.7818608E-02  0.1150682E+00
         21   -1    0    0  501  502  0.00000000000E+00  0.00000000000E+00  0.17781631987E+03  0.17781631987E+03  0.00000000000E+00 0.  1.
         21   -1    0    0  502  503 -0.00000000000E+00 -0.00000000000E+00 -0.35962485049E+03  0.35962485049E+03  0.00000000000E+00 0. -1.
         -6    2    1    2    0  503 -0.80227881509E+02 -0.58315446554E+02 -0.25687612598E+03  0.32487455877E+03  0.17239759441E+03 0.  0.
        -24    2    3    3    0    0 -0.77444277776E+02 -0.76607981133E+02 -0.26977381036E+03  0.30183534147E+03  0.80375777903E+02 0.  0.
          6    2    1    2  501    0  0.80227881509E+02  0.58315446554E+02  0.75067595355E+02  0.21256661160E+03  0.17237231859E+03 0.  0.
         24    2    5    5    0    0  0.10599847908E+02 -0.16007569061E+02  0.74012259706E+02  0.11060986858E+03  0.79925774303E+02 0.  0.
          5    1    5    5  501    0  0.69628033601E+02  0.74323015614E+02  0.10553356485E+01  0.10195674302E+03  0.47000000000E+01 0. -1.
        -11    1    6    6    0    0  0.32616232032E+02 -0.25296530378E+02  0.10268535628E+02  0.42534408014E+02  0.00000000000E+00 0.  1.
         12    1    6    6    0    0 -0.22016384124E+02  0.92889613178E+01  0.63743724078E+02  0.68075460568E+02  0.00000000000E+00 0. -1.
         -5    1    3    3    0  503 -0.27836037328E+01  0.18292534579E+02  0.12897684380E+02  0.23039217292E+02  0.47000000000E+01 0.  1.
         11    1    4    4    0    0 -0.77804520126E+02 -0.41923266138E+02 -0.24124213481E+03  0.25692191655E+03  0.00000000000E+00 0. -1.
        -12    1    4    4    0    0  0.36024235066E+00 -0.34684714995E+02 -0.28531675551E+02  0.44913424926E+02  0.00000000000E+00 0.  1.
</event>
<event>
12    1  0.8494789E-002  0.2305262E+03  0.7818608E-02  0.1127004E+00
         21   -1    0    0  503  502  0.00000000000E+00  0.00000000000E+00  0.15626241568E+03  0.15626241568E+03  0.00000000000E+00 0.  1.
         21   -1    0    0  501  503 -0.00000000000E+00 -0.00000000000E+00 -0.77280348009E+03  0.77280348009E+03  0.00000000000E+00 0. -1.
          6    2    1    2  501    0 -0.94309173871E+02 -0.12069898169E+03 -0.65709565472E+03  0.69499970110E+03  0.16669559271E+03 0.  0.
         24    2    3    3    0    0 -0.79299088346E+01 -0.84972341782E+02 -0.23409829889E+03  0.26177155882E+03  0.80244334029E+02 0.  0.
         -6    2    1    2    0  502  0.94309173871E+02  0.12069898169E+03  0.40554590303E+02  0.23406619467E+03  0.17227839167E+03 0.  0.
        -24    2    5    5    0    0  0.10228341770E+03  0.14460168574E+03  0.10373294717E+02  0.19446911865E+03  0.79618388643E+02 0.  0.
          5    1    3    3  501    0 -0.86379265036E+02 -0.35726639904E+02 -0.42299735583E+03  0.43322814228E+03  0.47000000000E+01 0. -1.
        -13    1    4    4    0    0  0.21259607037E+02 -0.44191970201E+00 -0.17855923847E+02  0.27766890370E+02  0.00000000000E+00 0.  1.
         14    1    4    4    0    0 -0.29189515872E+02 -0.84530422080E+02 -0.21624237504E+03  0.23400466845E+03  0.00000000000E+00 0. -1.
         -5    1    5    5    0  502 -0.79742438296E+01 -0.23902704059E+02  0.30181295586E+02  0.39597076019E+02  0.47000000000E+01 0.  1.
         13    1    6    6    0    0  0.33441529718E+02  0.19955932702E+02 -0.26836584580E+02  0.47294581421E+02  0.00000000000E+00 0. -1.
        -14    1    6    6    0    0  0.68841887982E+02  0.12464575304E+03  0.37209879296E+02  0.14717453723E+03  0.00000000000E+00 0.  1.
</event>
<event>
12    1  0.8494789E-002  0.1806992E+03  0.7818608E-02  0.1168321E+00
         21   -1    0    0  501  502  0.00000000000E+00  0.00000000000E+00  0.70178062761E+02  0.70178062761E+02  0.00000000000E+00 0. -1.
         21   -1    0    0  502  503 -0.00000000000E+00 -0.00000000000E+00 -0.58862996045E+03  0.58862996045E+03  0.00000000000E+00 0.  1.
         -6    2    1    2    0  503 -0.32692467108E+02  0.22219728347E+02 -0.10372378242E+03  0.20835262544E+03  0.17632265809E+03 0.  0.
        -24    2    3    3    0    0 -0.38654519537E+02 -0.41180224207E+01  0.13783300355E+02  0.87691000691E+02  0.77386059754E+02 0.  0.
          6    2    1    2  501    0  0.32692467108E+02 -0.22219728347E+02 -0.41472811527E+03  0.45045539777E+03  0.17131299441E+03 0.  0.
         24    2    5    5    0    0  0.56989923793E+02 -0.70813522947E+02 -0.28403367189E+03  0.30884024743E+03  0.80279295096E+02 0.  0.
          5    1    5    5  501    0 -0.24297456686E+02  0.48593794600E+02 -0.13069444339E+03  0.14161515034E+03  0.47000000000E+01 0. -1.
        -11    1    6    6    0    0 -0.19635923567E+02 -0.19945415233E+02 -0.87132460962E+02  0.91517511091E+02  0.00000000000E+00 0.  1.
         12    1    6    6    0    0  0.76625847360E+02 -0.50868107714E+02 -0.19690121092E+03  0.21732273634E+03  0.00000000000E+00 0. -1.
         -5    1    3    3    0  503  0.59620524296E+01  0.26337750768E+02 -0.11750708277E+03  0.12066162475E+03  0.47000000000E+01 0.  1.
         13    1    4    4    0    0 -0.47052505219E+02 -0.11846722264E+01 -0.21180366284E+02  0.51613463472E+02  0.00000000000E+00 0. -1.
        -14    1    4    4    0    0  0.83979856817E+01 -0.29333501943E+01  0.34963666640E+02  0.36077537219E+02  0.00000000000E+00 0.  1.
</event>
<event>
12    1  0.8494789E-002  0.1875434E+03  0.7818608E-02  0.1161037E+00
         21   -1    0    0  501  502  0.00000000000E+00  0.00000000000E+00  0.21698124461E+03  0.21698124461E+03  0.00000000000E+00 0.  1.
         21   -1    0    0  502  503 -0.00000000000E+00 -0.00000000000E+00 -0.46287352790E+03  0.46287352790E+03  0.00000000000E+00 0.  1.
         -6    2    1    2    0  503  0.71093682121E+02 -0.79120029990E+01 -0.39771074023E+03  0.43971168347E+03  0.17336556827E+03 0.  0.
        -24    2    3    3    0    0 -0.49194560252E+01 -0.94645870220E+00 -0.79518295863E+02  0.11245790179E+03  0.79363237495E+02 0.  0.
          6    2    1    2  501    0 -0.71093682121E+02  0.79120029990E+01  0.15181845693E+03  0.24014308904E+03  0.17176422188E+03 0.  0.
         24    2    5    5    0    0 -0.96359181352E+02 -0.19860653032E+02  0.15708414282E+03  0.20193990432E+03  0.80154598500E+02 0.  0.
          5    1    5    5  501    0  0.25265499232E+02  0.27772656031E+02 -0.52656858951E+01  0.38203184715E+02  0.47000000000E+01 0. -1.
        -11    1    6    6    0    0 -0.10125417494E+03 -0.30843387274E+01  0.10041068781E+03  0.14263319149E+03  0.00000000000E+00 0.  1.
         12    1    6    6    0    0  0.48949935846E+01 -0.16776314305E+02  0.56673455015E+02  0.59306712834E+02  0.00000000000E+00 0. -1.
         -5    1    3    3    0  503  0.76013138146E+02 -0.69655442968E+01 -0.31819244436E+03  0.32725378169E+03  0.47000000000E+01 0.  1.
         11    1    4    4    0    0  0.27324395297E+02 -0.53770499972E+01 -0.14606916697E+01  0.27886714851E+02  0.00000000000E+00 0. -1.
        -12    1    4    4    0    0 -0.32243851323E+02  0.44305912950E+01 -0.78057604193E+02  0.84571186936E+02  0.00000000000E+00 0.  1.
</event>
<event>
12    1  0.8494789E-002  0.1851384E+03  0.7818608E-02  0.1163067E+00
         21   -1    0    0  503  502  0.00000000000E+00  0.00000000000E+00  0.37320605388E+03  0.37320605388E+03  0.00000000000E+00 0. -1.
         21   -1    0    0  501  503 -0.00000000000E+00 -0.00000000000E+00 -0.25661232959E+03  0.25661232959E+03  0.00000000000E+00 0. -1.
          6    2    1    2  501    0 -0.47072335271E+02  0.40347484917E+02 -0.19431614331E+03  0.26796041827E+03  0.17378232914E+03 0.  0.
         24    2    3    3    0    0 -0.67566143341E+02  0.97701777645E+01 -0.20745906491E+03  0.22859299176E+03  0.67489644931E+02 0.  0.
         -6    2    1    2    0  502  0.47072335271E+02 -0.40347484917E+02  0.31090986761E+03  0.36185796520E+03  0.17444918146E+03 0.  0.
        -24    2    5    5    0    0  0.66057032473E+02  0.30432366533E+02  0.21663289454E+03  0.24235715453E+03  0.80731151876E+02 0.  0.
          5    1    3    3  501    0  0.20493808071E+02  0.30577307152E+02  0.13142921592E+02  0.39367426509E+02  0.47000000000E+01 0. -1.
        -11    1    4    4    0    0 -0.65554325508E+02  0.10009359420E+02 -0.93571049095E+02  0.11468695696E+03  0.00000000000E+00 0.  1.
         12    1    4    4    0    0 -0.20118178330E+01 -0.23918165517E+00 -0.11388801581E+03  0.11390603480E+03  0.00000000000E+00 0. -1.
         -5    1    5    5    0  502 -0.18984697202E+02 -0.70779851450E+02  0.94276973072E+02  0.11950081067E+03  0.47000000000E+01 0.  1.
         11    1    6    6    0    0 -0.11909345961E+02  0.20368874354E+02  0.92203311293E+02  0.95174440776E+02  0.00000000000E+00 0. -1.
        -12    1    6    6    0    0  0.77966378433E+02  0.10063492179E+02  0.12442958324E+03  0.14718271375E+03  0.00000000000E+00 0.  1.
</event>
<event>
12    1  0.8494789E-002  0.1922806E+03  0.7818608E-02  0.1156860E+00
         21   -1    0    0  503  502  0.00000000000E+00  0.00000000000E+00  0.70453435735E+03  0.70453435735E+03  0.00000000000E+00 0.  1.
         21   -1    0    0  501  503 -0.00000000000E+00 -0.00000000000E+00 -0.53961911890E+02  0.53961911890E+02  0.00000000000E+00 0.  1.
          6    2    1    2  501    0  0.16405448776E+02 -0.73905554473E+02  0.25027957808E+03  0.31441721028E+03  0.17460568486E+03 0.  0.
         24    2    3    3    0    0 -0.29329828651E+02  0.35568566018E+02  0.10557472143E+03  0.12723311855E+03  0.54008174506E+02 0.  0.
         -6    2    1    2    0  502 -0.16405448776E+02  0.73905554473E+02  0.40029286738E+03  0.44407905896E+03  0.17675027921E+03 0.  0.
        -24    2    5    5    0    0  0.31490304328E+02  0.10255749250E+03  0.24241298076E+03  0.27655865628E+03  0.78809635091E+02 0.  0.
          5    1    3    3  501    0  0.45735277427E+02 -0.10947412049E+03  0.14470485664E+03  0.18718409172E+03  0.47000000000E+01 0. -1.
        -13    1    4    4    0    0 -0.59994993925E+01  0.31238963879E+02  0.18103617361E+02  0.36600653256E+02  0.00000000000E+00 0.  1.
         14    1    4    4    0    0 -0.23330329258E+02  0.43296021389E+01  0.87471104073E+02  0.90632465297E+02  0.00000000000E+00 0. -1.
         -5    1    5    5    0  502 -0.47895753104E+02 -0.28651938026E+02  0.15787988662E+03  0.16752040269E+03  0.47000000000E+01 0.  1.
         11    1    6    6    0    0  0.33714721010E+02  0.71860229291E+02  0.85539195631E+02  0.11669416847E+03  0.00000000000E+00 0. -1.
        -12    1    6    6    0    0 -0.22244166816E+01  0.30697263209E+02  0.15687378513E+03  0.15986448780E+03  0.00000000000E+00 0.  1.
</event>
<event>
12    1  0.8494789E-002  0.1928486E+03  0.7818608E-02  0.1156044E+00
         21   -1    0    0  503  502  0.00000000000E+00  0.00000000000E+00  0.83906954167E+02  0.83906954167E+02  0.00000000000E+00 0. -1.
         21   -1    0    0  501  503 -0.00000000000E+00 -0.00000000000E+00 -0.59260253153E+03  0.59260253153E+03  0.00000000000E+00 0. -1.
          6    2    1    2  501    0 -0.61092360224E+02 -0.62461687165E+02 -0.42463081119E+03  0.46613485774E+03  0.17127942361E+03 0.  0.
         24    2    3    3    0    0  0.28897986640E+02 -0.16173886283E+02 -0.13669062759E+03  0.16089321188E+03  0.78138401112E+02 0.  0.
         -6    2    1    2    0  502  0.61092360224E+02  0.62461687165E+02 -0.84064766177E+02  0.21037462796E+03  0.17192108752E+03 0.  0.
        -24    2    5    5    0    0  0.27009566019E+02 -0.32209428537E+02 -0.57456330254E+02  0.10619038792E+03  0.78792161144E+02 0.  0.
          5    1    3    3  501    0 -0.89990346864E+02 -0.46287800881E+02 -0.28794018360E+03  0.30524164587E+03  0.47000000000E+01 0. -1.
        -13    1    4    4    0    0  0.27559178950E+02 -0.46699285056E+02 -0.83895152539E+02  0.99893584322E+02  0.00000000000E+00 0.  1.
         14    1    4    4    0    0  0.13388076906E+01  0.30525398773E+02 -0.52795475049E+02  0.60999627555E+02  0.00000000000E+00 0. -1.
         -5    1    5    5    0  502  0.34082794205E+02  0.94671115702E+02 -0.26608435923E+02  0.10418424003E+03  0.47000000000E+01 0.  1.
         13    1    6    6    0    0  0.28061272728E+02 -0.27413548830E+02  0.84271282666E+01  0.40124234290E+02  0.00000000000E+00 0. -1.
        -14    1    6    6    0    0 -0.10517067086E+01 -0.47958797072E+01 -0.65883458521E+02  0.66066153633E+02  0.00000000000E+00 0.  1.
</event>
<event>
12    1  0.8494789E-002  0.1759415E+03  0.7818608E-02  0.1172654E+00
         21   -1    0    0  503  502  0.00000000000E+00  0.00000000000E+00  0.10823530062E+03  0.10823530062E+03  0.00000000000E+00 0.  1.
         21   -1    0    0  501  503 -0.00000000000E+00 -0.00000000000E+00 -0.29153350292E+03  0.29153350292E+03  0.00000000000E+00 0.  1.
          6    2    1    2  501    0 -0.31360130575E+02  0.24423293233E+02 -0.51805675018E+02  0.18011975729E+03  0.16786704251E+03 0.  0.
         24    2    3    3    0    0  0.41751125435E+02  0.27897541399E+02 -0.85845874216E+01  0.94987633102E+02  0.80171852977E+02 0.  0.
         -6    2    1    2    0  502  0.31360130575E+02 -0.24423293233E+02 -0.13149252728E+03  0.21964904624E+03  0.17139271788E+03 0.  0.
        -24    2    5    5    0    0  0.70858785593E+02 -0.33846454303E+02 -0.38754256384E+02  0.11830104872E+03  0.79540529145E+02 0.  0.
          5    1    3    3  501    0 -0.73111256011E+02 -0.34742481660E+01 -0.43221087596E+02  0.85132124188E+02  0.47000000000E+01 0. -1.
        -11    1    4    4    0    0  0.24668283980E+02 -0.12430206054E+02  0.26947451695E+02  0.38590146539E+02  0.00000000000E+00 0.  1.
         12    1    4    4    0    0  0.17082841455E+02  0.40327747453E+02 -0.35532039116E+02  0.56397486562E+02  0.00000000000E+00 0. -1.
         -5    1    5    5    0  502 -0.39498655018E+02  0.94231610701E+01 -0.92738270895E+02  0.10134799752E+03  0.47000000000E+01 0.  1.
         11    1    6    6    0    0  0.87305959331E+02 -0.29807524441E+02 -0.41474443175E+02  0.10114815117E+03  0.00000000000E+00 0. -1.
        -12    1    6    6    0    0 -0.16447173738E+02 -0.40389298616E+01  0.27201867910E+01  0.17152897556E+02  0.00000000000E+00 0.  1.
</event>
<event>
12    1  0.8494789E-002  0.1984662E+03  0.7818608E-02  0.1151067E+00
         21   -1    0    0  501  502  0.00000000000E+00  0.00000000000E+00  0.26188796328E+03  0.26188796328E+03  0.00000000000E+00 0. -1.
         21   -1    0    0  502  503 -0.00000000000E+00 -0.00000000000E+00 -0.16916947463E+03  0.16916947463E+03  0.00000000000E+00 0. -1.
         -6    2    1    2    0  503 -0.50019476749E+02 -0.85161364410E+02 -0.25623742009E+02  0.19998666996E+03  0.17199908711E+03 0.  0.
        -24    2    3    3    0    0 -0.86191005001E+02 -0.94420241974E+02 -0.45786691196E+02  0.15729310148E+03  0.79376490510E+02 0.  0.
          6    2    1    2  501    0  0.50019476749E+02  0.85161364410E+02  0.11834223065E+03  0.23107076794E+03  0.17214647890E+03 0.  0.
         24    2    5    5    0    0 -0.40169882911E+02  0.47318655822E+02  0.56989967196E+02  0.11551826290E+03  0.79018592884E+02 0.  0.
          5    1    5    5  501    0  0.90189359660E+02  0.37842708588E+02  0.61352263458E+02  0.11555250504E+03  0.47000000000E+01 0. -1.
        -11    1    6    6    0    0 -0.29445019990E+02  0.47442438074E+02 -0.16933067432E+01  0.55862880523E+02  0.00000000000E+00 0.  1.
         12    1    6    6    0    0 -0.10724862920E+02 -0.12378225149E+00  0.58683273939E+02  0.59655382380E+02  0.00000000000E+00 0. -1.
         -5    1    3    3    0  503  0.36171528252E+02  0.92588775637E+01  0.20162949187E+02  0.42693568482E+02  0.47000000000E+01 0.  1.
         13    1    4    4    0    0 -0.62852367317E+02 -0.10053870065E+03 -0.55957730548E+02  0.13110956492E+03  0.00000000000E+00 0. -1.
        -14    1    4    4    0    0 -0.23338637685E+02  0.61184586723E+01  0.10171039352E+02  0.26183536564E+02  0.00000000000E+00 0.  1.
</event>
<event>
12    1  0.8494789E-002  0.1813422E+03  0.7818608E-02  0.1166706E+00
         21   -1    0    0  501  502  0.00000000000E+00  0.00000000000E+00  0.45786945045E+02  0.45786945045E+02  0.00000000000E+00 0.  1.
         21   -1    0    0  502  503 -0.00000000000E+00 -0.00000000000E+00 -0.11208699089E+04  0.11208699089E+04  0.00000000000E+00 0.  1.
         -6    2    1    2    0  503 -0.13898296057E+02  0.54195637044E+02 -0.88778957463E+03  0.90595817685E+03  0.17163787364E+03 0.  0.
        -24    2    3    3    0    0 -0.37052623855E+02  0.11355217322E+01 -0.24593040545E+03  0.26147638362E+03  0.80709036210E+02 0.  0.
          6    2    1    2  501    0  0.13898296057E+02 -0.54195637044E+02 -0.18729338923E+03  0.26069867710E+03  0.17249538221E+03 0.  0.
         24    2    5    5    0    0 -0.97147450651E+01  0.27886981681E+02 -0.55707686794E+02  0.10375276574E+03  0.82396783988E+02 0.  0.
          5    1    5    5  501    0  0.23613041122E+02 -0.82082618724E+02 -0.13158570244E+03  0.15694591136E+03  0.47000000000E+01 0. -1.
        -11    1    6    6    0    0 -0.11776480189E+02 -0.28584249742E+02 -0.22146132430E+02  0.38028883767E+02  0.00000000000E+00 0.  1.
         12    1    6    6    0    0  0.20617351234E+01  0.56471231422E+02 -0.33561554363E+02  0.65723881971E+02  0.00000000000E+00 0. -1.
         -5    1    3    3    0  503  0.23154327798E+02  0.53060115311E+02 -0.64185916919E+03  0.64448179323E+03  0.47000000000E+01 0.  1.
         13    1    4    4    0    0  0.20659835104E+02  0.19305442280E+02 -0.74986440669E+02  0.80140471501E+02  0.00000000000E+00 0. -1.
        -14    1    4    4    0    0 -0.57712458959E+02 -0.18169920548E+02 -0.17094396478E+03  0.18133591212E+03  0.00000000000E+00 0.  1.
</event>
<event>
12    1  0.8494789E-002  0.1744788E+03  0.7818608E-02  0.1173844E+00
         21   -1    0    0  503  502  0.00000000000E+00  0.00000000000E+00  0.78575181728E+02  0.78575181728E+02  0.00000000000E+00 0. -1.
         21   -1    0    0  501  503 -0.00000000000E+00 -0.00000000000E+00 -0.84373344187E+03  0.84373344187E+03  0.00000000000E+00 0. -1.
          6    2    1    2  501    0 -0.94132232744E+01  0.26975628421E+02 -0.72476729335E+03  0.74547333105E+03  0.17212368954E+03 0.  0.
         24    2    3    3    0    0 -0.33760078396E+02  0.37191827880E+02 -0.23354404200E+03  0.25351854375E+03  0.84887322473E+02 0.  0.
         -6    2    1    2    0  502  0.94132232744E+01 -0.26975628421E+02 -0.40390966796E+02  0.17683529255E+03  0.16977337009E+03 0.  0.
        -24    2    5    5    0    0  0.44740053435E+02  0.54671066765E+01 -0.75204756495E+02  0.11738274052E+03  0.78047362128E+02 0.  0.
          5    1    3    3  501    0  0.24346855122E+02 -0.10216199459E+02 -0.49122325135E+03  0.49195478730E+03  0.47000000000E+01 0. -1.
        -13    1    4    4    0    0 -0.44150285930E+02 -0.74468108033E+01 -0.16571279696E+03  0.17165498483E+03  0.00000000000E+00 0.  1.
         14    1    4    4    0    0  0.10390207534E+02  0.44638638684E+02 -0.67831245040E+02  0.81863558924E+02  0.00000000000E+00 0. -1.
         -5    1    5    5    0  502 -0.35326830161E+02 -0.32442735097E+02  0.34813789699E+02  0.59452552031E+02  0.47000000000E+01 0.  1.
         11    1    6    6    0    0  0.85439110148E+01 -0.68177598450E+01  0.15492151235E+02  0.18960142790E+02  0.00000000000E+00 0. -1.
        -12    1    6    6    0    0  0.36196142420E+02  0.12284866521E+02 -0.90696907730E+02  0.98422597727E+02  0.00000000000E+00 0.  1.
</event>
<event>
12    1  0.8494789E-002  0.3175407E+03  0.7818608E-02  0.1077045E+00
         21   -1    0    0  501  502  0.00000000000E+00  0.00000000000E+00  0.10858935821E+03  0.10858935821E+03  0.00000000000E+00 0.  1.
         21   -1    0    0  502  503 -0.00000000000E+00 -0.00000000000E+00 -0.92811921197E+03  0.92811921197E+03  0.00000000000E+00 0. -1.
         -6    2    1    2    0  503  0.14069890766E+03 -0.22389933588E+03 -0.36947620615E+03  0.48718041461E+03  0.17579816337E+03 0.  0.
        -24    2    3    3    0    0  0.10110864827E+03 -0.55784905068E+02 -0.12532303796E+03  0.18807723840E+03  0.79575557622E+02 0.  0.
          6    2    1    2  501    0 -0.14069890766E+03  0.22389933588E+03 -0.45005364761E+03  0.54952815557E+03  0.17177256129E+03 0.  0.
         24    2    5    5    0    0  0.28224421476E+01  0.70538295563E+02 -0.15917529787E+03  0.19071024787E+03  0.77781783669E+02 0.  0.
          5    1    5    5  501    0 -0.14352134980E+03  0.15336104032E+03 -0.29087834974E+03  0.35881790770E+03  0.47000000000E+01 0. -1.
        -13    1    6    6    0    0 -0.99437770580E+01  0.79566604224E+02 -0.15502139090E+03  0.17453181614E+03  0.00000000000E+00 0.  1.
         14    1    6    6    0    0  0.12766219206E+02 -0.90283086617E+01 -0.41539069725E+01  0.16178431730E+02  0.00000000000E+00 0. -1.
         -5    1    3    3    0  503  0.39590259391E+02 -0.16811443081E+03 -0.24415316819E+03  0.29910317621E+03  0.47000000000E+01 0.  1.
         11    1    4    4    0    0  0.64197879767E+02 -0.65476790783E+02 -0.11762772051E+03  0.14914710366E+03  0.00000000000E+00 0. -1.
        -12    1    4    4    0    0  0.36910768499E+02  0.96918857149E+01 -0.76953174538E+01  0.38930134737E+02  0.00000000000E+00 0.  1.
</event>
<event>
12    1  0.8494789E-002  0.1926659E+03  0.7818608E-02  0.1156280E+00
         21   -1    0    0  501  502  0.00000000000E+00  0.00000000000E+00  0.13823411359E+03  0.13823411359E+03  0.00000000000E+00 0. -1.
         21   -1    0    0  502  503 -0.00000000000E+00 -0.00000000000E+00 -0.31765158644E+03  0.31765158644E+03  0.00000000000E+00 0. -1.
         -6    2    1    2    0  503  0.37373430250E+02  0.77143079471E+02 -0.18031110589E+03  0.26321768887E+03  0.17153317121E+03 0.  0.
        -24    2    3    3    0    0  0.29670160791E+01  0.17092409316E+02 -0.17571406138E+03  0.19369713694E+03  0.79637904605E+02 0.  0.
          6    2    1    2  501    0 -0.37373430250E+02 -0.77143079471E+02  0.89363304786E+00  0.19266801117E+03  0.17254661964E+03 0.  0.
         24    2    5    5    0    0  0.10991425349E+02 -0.87941201255E+02 -0.43690962119E+02  0.12584260569E+03  0.77929422723E+02 0.  0.
          5    1    5    5  501    0 -0.48364855598E+02  0.10798121785E+02  0.44584595167E+02  0.66825405478E+02  0.47000000000E+01 0. -1.
        -13    1    6    6    0    0 -0.67565883530E+00  0.89899722644E+01 -0.24817538476E+02  0.26404286247E+02  0.00000000000E+00 0.  1.
         14    1    6    6    0    0  0.11667084184E+02 -0.96931173520E+02 -0.18873423643E+02  0.99438319441E+02  0.00000000000E+00 0. -1.
         -5    1    3    3    0  503  0.34406414170E+02  0.60050670154E+02 -0.45970445110E+01  0.69520551927E+02  0.47000000000E+01 0.  1.
         13    1    4    4    0    0  0.35768260182E+02  0.10202756082E+02 -0.43181824377E+02  0.56992408483E+02  0.00000000000E+00 0. -1.
        -14    1    4    4    0    0 -0.32801244103E+02  0.68896532345E+01 -0.13253223701E+03  0.13670472846E+03  0.00000000000E+00 0.  1.
</event>
<event>
12    1  0.8494789E-002  0.2162614E+03  0.7818608E-02  0.1137219E+00
         21   -1    0    0  501  502  0.00000000000E+00  0.00000000000E+00  0.17274202698E+03  0.17274202698E+03  0.00000000000E+00 0. -1.
         21   -1    0    0  502  503 -0.00000000000E+00 -0.00000000000E+00 -0.54144357727E+03  0.54144357727E+03  0.00000000000E+00 0.  1.
         -6    2    1    2    0  503 -0.87963740844E+02  0.98745784925E+02 -0.43783453175E+03  0.48714295298E+03  0.16769266444E+03 0.  0.
        -24    2    3    3    0    0 -0.95772079727E+02  0.88322898078E+01 -0.22371192545E+03  0.25472955559E+03  0.74765100848E+02 0.  0.
          6    2    1    2  501    0  0.87963740844E+02 -0.98745784925E+02  0.69132981452E+02  0.22704265126E+03  0.17111588653E+03 0.  0.
         24    2    5    5    0    0  0.11923843552E+03 -0.99529419261E+02  0.82269269241E+02  0.19278812358E+03  0.79215643209E+02 0.  0.
          5    1    5    5  501    0 -0.31274694676E+02  0.78363433652E+00 -0.13136287788E+02  0.34254527682E+02  0.47000000000E+01 0. -1.
        -11    1    6    6    0    0  0.11741890072E+03 -0.10478041189E+03  0.57729635981E+02  0.16762709755E+03  0.00000000000E+00 0.  1.
         12    1    6    6    0    0  0.18195347973E+01  0.52509926276E+01  0.24539633260E+02  0.25161026032E+02  0.00000000000E+00 0. -1.
         -5    1    3    3    0  503  0.78083388833E+01  0.89913495117E+02 -0.21412260630E+03  0.23241339740E+03  0.47000000000E+01 0.  1.
         11    1    4    4    0    0  0.10795761942E+02 -0.21763897355E+01 -0.71902225670E+01  0.13152355255E+02  0.00000000000E+00 0. -1.
        -12    1    4    4    0    0 -0.10656784167E+03  0.11008679543E+02 -0.21652170288E+03  0.24157720033E+03  0.00000000000E+00 0.  1.
</event>
<event>
12    1  0.8494789E-002  0.1789660E+03  0.7818608E-02  0.1171074E+00
         21   -1    0    0  501  502  0.00000000000E+00  0.00000000000E+00  0.36679630186E+02  0.36679630186E+02  0.00000000000E+00 0. -1.
         21   -1    0    0  502  503 -0.00000000000E+00 -0.00000000000E+00 -0.22326098382E+04  0.22326098382E+04  0.00000000000E+00 0. -1.
         -6    2    1    2    0  503  0.45919420063E+02 -0.31439431863E+01 -0.19867288019E+04  0.19939822409E+04  0.16357067947E+03 0.  0.
        -24    2    3    3    0    0 -0.50679470620E+00 -0.49603095812E+02 -0.14811848366E+04  0.14841679245E+04  0.79907347496E+02 0.  0.
          6    2    1    2  501    0 -0.45919420063E+02  0.31439431863E+01 -0.20920140608E+03  0.27530722746E+03  0.17294612938E+03 0.  0.
         24    2    5    5    0    0 -0.88317303418E+02  0.17662381547E+01 -0.20309959532E+03  0.23219341670E+03  0.69722818778E+02 0.  0.
          5    1    5    5  501    0  0.42397883355E+02  0.13777050316E+01 -0.61018107639E+01  0.43113810766E+02  0.47000000000E+01 0. -1.
        -13    1    6    6    0    0 -0.48151638981E+02 -0.16755338975E+02 -0.16848091909E+03  0.17602596916E+03  0.00000000000E+00 0.  1.
         14    1    6    6    0    0 -0.40165664437E+02  0.18521577129E+02 -0.34618676226E+02  0.56167447536E+02  0.00000000000E+00 0. -1.
         -5    1    3    3    0  503  0.46426214769E+02  0.46459152626E+02 -0.50554396532E+03  0.50981431635E+03  0.47000000000E+01 0.  1.
         13    1    4    4    0    0  0.37352366800E+02 -0.36136854958E+02 -0.68438596147E+03  0.68635647870E+03  0.00000000000E+00 0. -1.
        -14    1    4    4    0    0 -0.37859161506E+02 -0.13466240854E+02 -0.79679887511E+03  0.79781144585E+03  0.00000000000E+00 0.  1.
</event>
<event>
12    1  0.8494789E-002  0.1904804E+03  0.7818608E-02  0.1158184E+00
         21   -1    0    0  503  502  0.00000000000E+00  0.00000000000E+00  0.86869526610E+03  0.86869526610E+03  0.00000000000E+00 0.  1.
         21   -1    0    0  501  503 -0.00000000000E+00 -0.00000000000E+00 -0.45207148766E+02  0.45207148766E+02  0.00000000000E+00 0. -1.
          6    2    1    2  501    0  0.38970541541E+02 -0.71684071537E+02  0.28364111470E+03  0.34166515350E+03  0.17212055643E+03 0.  0.
         24    2    3    3    0    0  0.69811995831E+02 -0.10175736031E+03  0.22051770277E+03  0.26509980145E+03  0.80134713779E+02 0.  0.
         -6    2    1    2    0  502 -0.38970541541E+02  0.71684071537E+02  0.53984700263E+03  0.57223726137E+03  0.17135748548E+03 0.  0.
        -24    2    5    5    0    0 -0.29175413184E+02  0.55694444096E+02  0.14992100013E+03  0.18183235598E+03  0.81447059881E+02 0.  0.
          5    1    3    3  501    0 -0.30841454290E+02  0.30073288776E+02  0.63123411929E+02  0.76565352047E+02  0.47000000000E+01 0. -1.
        -11    1    4    4    0    0  0.39294441874E+02 -0.54772821747E+02  0.18934307385E+03  0.20098486206E+03  0.00000000000E+00 0.  1.
         12    1    4    4    0    0  0.30517553957E+02 -0.46984538566E+02  0.31174628923E+02  0.64114939385E+02  0.00000000000E+00 0. -1.
         -5    1    5    5    0  502 -0.97951283570E+01  0.15989627441E+02  0.38992600251E+03  0.39040490539E+03  0.47000000000E+01 0.  1.
         11    1    6    6    0    0  0.12685214114E+02 -0.10415280504E+02  0.50373112138E+01  0.17168786485E+02  0.00000000000E+00 0. -1.
        -12    1    6    6    0    0 -0.41860627298E+02  0.66109724600E+02  0.14488368891E+03  0.16466356949E+03  0.00000000000E+00 0.  1.
</event>
<event>
12    1  0.8494789E-002  0.2246197E+03  0.7818608E-02  0.1131172E+00
         21   -1    0    0  501  502  0.00000000000E+00  0.00000000000E+00  0.11455783395E+04  0.11455783395E+04  0.00000000000E+00 0.  1.
         21   -1    0    0  502  503 -0.00000000000E+00 -0.00000000000E+00 -0.45192616959E+02  0.45192616959E+02  0.00000000000E+00 0.  1.
         -6    2    1    2    0  503 -0.89293694566E+02  0.10965488958E+03  0.43310952857E+03  0.48789124831E+03  0.17451775767E+03 0.  0.
        -24    2    3    3    0    0 -0.12334205636E+03  0.10545845785E+03  0.29527422419E+03  0.34577312099E+03  0.77700930054E+02 0.  0.
          6    2    1    2  501    0  0.89293694566E+02 -0.10965488958E+03  0.66727619402E+03  0.70287970820E+03  0.16966085697E+03 0.  0.
         24    2    5    5    0    0 -0.13647150496E+02 -0.49540818287E+02  0.20489107738E+03  0.22535211188E+03  0.78502760125E+02 0.  0.
          5    1    5    5  501    0  0.10294084506E+03 -0.60114071298E+02  0.46238511664E+03  0.47752759631E+03  0.47000000000E+01 0. -1.
        -11    1    6    6    0    0 -0.18233780800E+01 -0.43820946794E+02  0.38252468184E+02  0.58196661482E+02  0.00000000000E+00 0.  1.
         12    1    6    6    0    0 -0.11823772416E+02 -0.57198714934E+01  0.16663860919E+03  0.16715545040E+03  0.00000000000E+00 0. -1.
         -5    1    3    3    0  503  0.34048361790E+02  0.41964317379E+01  0.13783530438E+03  0.14211812732E+03  0.47000000000E+01 0.  1.
         13    1    4    4    0    0 -0.14505937934E+02 -0.95348482332E+01  0.11518265639E+02  0.20832810888E+02  0.00000000000E+00 0. -1.
        -14    1    4    4    0    0 -0.10883611842E+03  0.11499330608E+03  0.28375595856E+03  0.32494031011E+03  0.00000000000E+00 0.  1.
</event>
<event>
12    1  0.8494789E-002  0.2270104E+03  0.7818608E-02  0.1129180E+00
         21   -1    0    0  501  502  0.00000000000E+00  0.00000000000E+00  0.21496146401E+03  0.21496146401E+03  0.00000000000E+00 0. -1.
         21   -1    0    0  502  503 -0.00000000000E+00 -0.00000000000E+00 -0.26306140676E+03  0.26306140676E+03  0.00000000000E+00 0.  1.
         -6    2    1    2    0  503  0.11935535805E+03 -0.80424260565E+02 -0.98973976955E+02  0.24764807167E+03  0.17555613377E+03 0.  0.
        -24    2    3    3    0    0  0.20311687085E+02 -0.71456159365E+02 -0.55235089585E+01  0.11110080671E+03  0.82427742643E+02 0.  0.
          6    2    1    2  501    0 -0.11935535805E+03  0.80424260565E+02  0.50874034200E+02  0.23037479910E+03  0.17254163996E+03 0.  0.
         24    2    5    5    0    0 -0.98371382367E+02  0.10736399062E+03 -0.19633672986E+01  0.16728789643E+03  0.82325148840E+02 0.  0.
          5    1    5    5  501    0 -0.20983975688E+02 -0.26939730051E+02  0.52837401499E+02  0.63086902667E+02  0.47000000000E+01 0. -1.
        -11    1    6    6    0    0 -0.68963879926E+02  0.86682356621E+02  0.34563077978E+02  0.11603643412E+03  0.00000000000E+00 0.  1.
         12    1    6    6    0    0 -0.29407502440E+02  0.20681633995E+02 -0.36526445277E+02  0.51251462311E+02  0.00000000000E+00 0. -1.
         -5    1    3    3    0  503  0.99043670969E+02 -0.89681012001E+01 -0.93450467997E+02  0.13654726496E+03  0.47000000000E+01 0.  1.
         13    1    4    4    0    0  0.30320933970E+02 -0.81728812609E+02  0.12503543472E+02  0.88064160966E+02  0.00000000000E+00 0. -1.
        -14    1    4    4    0    0 -0.10009246885E+02  0.10272653244E+02 -0.18027052430E+02  0.23036645745E+02  0.00000000000E+00 0.  1.
</event>
<event>
12    1  0.8494789E-002  0.2084538E+03  0.7818608E-02  0.1143301E+00
         21   -1    0    0  501  502  0.00000000000E+00  0.00000000000E+00  0.38154325586E+03  0.38154325586E+03  0.00000000000E+00 0.  1.
         21   -1    0    0  502  503 -0.00000000000E+00 -0.00000000000E+00 -0.19227096510E+03  0.19227096510E+03  0.00000000000E+00 0.  1.
         -6    2    1    2    0  503  0.30235607341E+02 -0.11009328213E+03 -0.89805465054E+02  0.22697579181E+03  0.17440833063E+03 0.  0.
        -24    2    3    3    0    0 -0.29705534885E+02 -0.11979940453E+03 -0.36105357215E+02  0.14577886498E+03  0.68655404213E+02 0.  0.
          6    2    1    2  501    0 -0.30235607341E+02  0.11009328213E+03  0.27907775581E+03  0.34683842915E+03  0.17139947324E+03 0.  0.
         24    2    5    5    0    0 -0.65227757340E+02  0.25031092369E+02  0.56479116600E+02  0.10593954815E+03  0.56143399772E+02 0.  0.
          5    1    5    5  501    0  0.34992149999E+02  0.85062189756E+02  0.22259863921E+03  0.24089888100E+03  0.47000000000E+01 0. -1.
        -13    1    6    6    0    0 -0.59992498059E+02  0.39953350368E+02  0.53699158227E+02  0.89883088639E+02  0.00000000000E+00 0.  1.
         14    1    6    6    0    0 -0.52352592805E+01 -0.14922257999E+02  0.27799583730E+01  0.16056459513E+02  0.00000000000E+00 0. -1.
         -5    1    3    3    0  503  0.59941142226E+02  0.97061224067E+01 -0.53700107839E+02  0.81196926822E+02  0.47000000000E+01 0.  1.
         11    1    4    4    0    0 -0.16281260713E+02  0.31407695215E+01  0.11416257979E+01  0.16620685698E+02  0.00000000000E+00 0. -1.
        -12    1    4    4    0    0 -0.13424274172E+02 -0.12294017405E+03 -0.37246983013E+02  0.12915817929E+03  0.00000000000E+00 0.  1.
</event>
<event>
12    1  0.8494789E-002  0.2382990E+03  0.7818608E-02  0.1120937E+00
         21   -1    0    0  503  502  0.00000000000E+00  0.00000000000E+00  0.26389778896E+03  0.26389778896E+03  0.00000000000E+00 0.  1.
         21   -1    0    0  501  503 -0.00000000000E+00 -0.00000000000E+00 -0.38677087987E+03  0.38677087987E+03  0.00000000000E+00 0.  1.
          6    2    1    2  501    0  0.24615258208E+02 -0.16269643097E+03 -0.27814685371E+03  0.36624579356E+03  0.17232025268E+03 0.  0.
         24    2    3    3    0    0  0.19641922878E+02 -0.57121844274E+02 -0.22878644866E+03  0.24950134184E+03  0.79113654076E+02 0.  0.
         -6    2    1    2    0  502 -0.24615258208E+02  0.16269643097E+03  0.15527376279E+03  0.28442287527E+03  0.17236702405E+03 0.  0.
        -24    2    5    5    0    0 -0.81411911563E+02  0.79497320500E+02  0.82685937734E+02  0.16016896523E+03  0.76612073536E+02 0.  0.
          5    1    3    3  501    0  0.49733353298E+01 -0.10557458670E+03 -0.49360405043E+02  0.11674445172E+03  0.47000000000E+01 0. -1.
        -11    1    4    4    0    0 -0.16661778410E+02 -0.60421312045E+02 -0.13352912793E+03  0.14750721275E+03  0.00000000000E+00 0.  1.
         12    1    4    4    0    0  0.36303701288E+02  0.32994677709E+01 -0.95257320738E+02  0.10199412909E+03  0.00000000000E+00 0. -1.
         -5    1    5    5    0  502  0.56796653355E+02  0.83199110472E+02  0.72587825059E+02  0.12425391005E+03  0.47000000000E+01 0.  1.
         11    1    6    6    0    0 -0.74415275604E+02  0.37975584316E+02  0.83410754459E+02  0.11805563183E+03  0.00000000000E+00 0. -1.
        -12    1    6    6    0    0 -0.69966359592E+01  0.41521736183E+02 -0.72481672503E+00  0.42113333396E+02  0.00000000000E+00 0.  1.
</event>
<event>
12    1  0.8494789E-002  0.2486505E+03  0.7818608E-02  0.1114174E+00
         21   -1    0    0  503  502  0.00000000000E+00  0.00000000000E+00  0.98897810774E+02  0.98897810774E+02  0.00000000000E+00 0.  1.
         21   -1    0    0  501  503 -0.00000000000E+00 -0.00000000000E+00 -0.65291627663E+03  0.65291627663E+03  0.00000000000E+00 0.  1.
          6    2    1    2  501    0 -0.48489815307E+02 -0.17304035453E+03 -0.19916349837E+03  0.31851385022E+03  0.17172870236E+03 0.  0.
         24    2    3    3    0    0  0.37866059359E+01 -0.15864944218E+03 -0.96980937433E+02  0.20274127861E+03  0.80713938939E+02 0.  0.
         -6    2    1    2    0  502  0.48489815307E+02  0.17304035453E+03 -0.35485496749E+03  0.43330023719E+03  0.17185115976E+03 0.  0.
        -24    2    5    5    0    0 -0.39238707133E+02  0.96388991922E+02 -0.17545535772E+03  0.21934221555E+03  0.80597215010E+02 0.  0.
          5    1    3    3  501    0 -0.52276421243E+02 -0.14390912344E+02 -0.10218256094E+03  0.11577257160E+03  0.47000000000E+01 0. -1.
        -13    1    4    4    0    0  0.34470096212E+02 -0.44919335051E+02 -0.13058522694E+02  0.58107307709E+02  0.00000000000E+00 0.  1.
         14    1    4    4    0    0 -0.30683490277E+02 -0.11373010713E+03 -0.83922414739E+02  0.14463397091E+03  0.00000000000E+00 0. -1.
         -5    1    5    5    0  502  0.87728522440E+02  0.76651362606E+02 -0.17939960976E+03  0.21395802164E+03  0.47000000000E+01 0.  1.
         13    1    6    6    0    0 -0.44909059028E+02  0.78786861134E+02 -0.76412803231E+02  0.11858798239E+03  0.00000000000E+00 0. -1.
        -14    1    6    6    0    0  0.56703518956E+01  0.17602130788E+02 -0.99042554492E+02  0.10075423316E+03  0.00000000000E+00 0.  1.
</event>
<event>
12    1  0.8494789E-002  0.2654071E+03  0.7818608E-02  0.1104126E+00
         21   -1    0    0  503  502  0.00000000000E+00  0.00000000000E+00  0.40336511836E+03  0.40336511836E+03  0.00000000000E+00 0. -1.
         21   -1    0    0  501  503 -0.00000000000E+00 -0.00000000000E+00 -0.23327528742E+03  0.23327528742E+03  0.00000000000E+00 0. -1.
          6    2    1    2  501    0  0.15550451613E+03 -0.12826846572E+03 -0.75546418019E+02  0.27594966149E+03  0.17264559237E+03 0.  0.
         24    2    3    3    0    0  0.14764520288E+02 -0.13807253285E+02 -0.43511430654E+01  0.81013844466E+02  0.78330576703E+02 0.  0.
         -6    2    1    2    0  502 -0.15550451613E+03  0.12826846572E+03  0.24563624896E+03  0.36069074430E+03  0.17066397505E+03 0.  0.
        -24    2    5    5    0    0 -0.17215629959E+03  0.12005579972E+03  0.16763355939E+03  0.28037113675E+03  0.80347853469E+02 0.  0.
          5    1    3    3  501    0  0.14073999584E+03 -0.11446121244E+03 -0.71195274954E+02  0.19493581702E+03  0.47000000000E+01 0. -1.
        -11    1    4    4    0    0  0.21884836569E+02 -0.28121068666E+01 -0.38535624596E+02  0.44405499431E+02  0.00000000000E+00 0.  1.
         12    1    4    4    0    0 -0.71203162815E+01 -0.10995146418E+02  0.34184481531E+02  0.36608345035E+02  0.00000000000E+00 0. -1.
         -5    1    5    5    0  502  0.16651783457E+02  0.82126660080E+01  0.78002689575E+02  0.80319607545E+02  0.47000000000E+01 0.  1.
         13    1    6    6    0    0 -0.91605688546E+02  0.62145424566E+02  0.13784074633E+03  0.17678723743E+03  0.00000000000E+00 0. -1.
        -14    1    6    6    0    0 -0.80550611043E+02  0.57910375151E+02  0.29792813058E+02  0.10358389933E+03  0.00000000000E+00 0.  1.
</event>
<event>
12    1  0.8494789E-002  0.2927544E+03  0.7818608E-02  0.1089021E+00
         21   -1    0    0  503  502  0.00000000000E+00  0.00000000000E+00  0.14610463859E+04  0.14610463859E+04  0.00000000000E+00 0.  1.
         21   -1    0    0  501  503 -0.00000000000E+00 -0.00000000000E+00 -0.11406339119E+03  0.11406339119E+03  0.00000000000E+00 0. -1.
          6    2    1    2  501    0  0.22574909644E+03 -0.68351363472E+02  0.12429958503E+03  0.31804958640E+03  0.17340873431E+03 0.  0.
         24    2    3    3    0    0  0.90168759720E+02 -0.82624103220E+02  0.24654856728E+02  0.14912090120E+03  0.81682516800E+02 0.  0.
         -6    2    1    2    0  502 -0.22574909644E+03  0.68351363472E+02  0.12226834097E+04  0.12570601907E+04  0.17207858457E+03 0.  0.
        -24    2    5    5    0    0 -0.18683939742E+03  0.11227072650E+03  0.10515103541E+04  0.10760486439E+04  0.68505348157E+02 0.  0.
          5    1    3    3  501    0  0.13558033672E+03  0.14272739748E+02  0.99644728306E+02  0.16892868520E+03  0.47000000000E+01 0. -1.
        -13    1    4    4    0    0  0.41105249557E+02 -0.16273817118E+02  0.46086846250E+02  0.63862947489E+02  0.00000000000E+00 0.  1.
         14    1    4    4    0    0  0.49063510164E+02 -0.66350286102E+02 -0.21431989522E+02  0.85257953707E+02  0.00000000000E+00 0. -1.
         -5    1    5    5    0  502 -0.38909699020E+02 -0.43919363025E+02  0.17117305561E+03  0.18101154685E+03  0.47000000000E+01 0.  1.
         11    1    6    6    0    0 -0.15019682333E+03  0.68891630595E+02  0.65644710160E+03  0.67692535756E+03  0.00000000000E+00 0. -1.
        -12    1    6    6    0    0 -0.36642574095E+02  0.43379095902E+02  0.39506325251E+03  0.39912328631E+03  0.00000000000E+00 0.  1.
</event>
<event>
12    1  0.8494789E-002  0.1809652E+03  0.7818608E-02  0.1167944E+00
         21   -1    0    0  501  502  0.00000000000E+00  0.00000000000E+00  0.73894782477E+03  0.73894782477E+03  0.00000000000E+00 0. -1.
         21   -1    0    0  502  503 -0.00000000000E+00 -0.00000000000E+00 -0.43268134579E+02  0.43268134579E+02  0.00000000000E+00 0. -1.
         -6    2    1    2    0  503  0.15992329411E+02  0.56142212417E+02  0.34322437211E+03  0.38800951133E+03  0.17129129765E+03 0.  0.
        -24    2    3    3    0    0  0.64797721089E+02  0.72045152929E+02  0.21480283004E+03  0.24962941072E+03  0.82373164238E+02 0.  0.
          6    2    1    2  501    0 -0.15992329411E+02 -0.56142212417E+02  0.35245531808E+03  0.39420644802E+03  0.16663213918E+03 0.  0.
         24    2    5    5    0    0 -0.34484135343E+02  0.11175939713E+02  0.10725553978E+03  0.13921879779E+03  0.81018921413E+02 0.  0.
          5    1    5    5  501    0  0.18491805931E+02 -0.67318152130E+02  0.24519977830E+03  0.25498765023E+03  0.47000000000E+01 0. -1.
        -11    1    6    6    0    0 -0.30182588655E+02 -0.19493426057E+02  0.10211837230E+02  0.37353231948E+02  0.00000000000E+00 0.  1.
         12    1    6    6    0    0 -0.43015466878E+01  0.30669365770E+02  0.97043702548E+02  0.10186556584E+03  0.00000000000E+00 0. -1.
         -5    1    3    3    0  503 -0.48805391677E+02 -0.15902940512E+02  0.12842154207E+03  0.13838010060E+03  0.47000000000E+01 0.  1.
         11    1    4    4    0    0 -0.30816911411E+01  0.58473113598E+01  0.10224888378E+03  0.10246229602E+03  0.00000000000E+00 0. -1.
        -12    1    4    4    0    0  0.67879412230E+02  0.66197841569E+02  0.11255394626E+03  0.14716711471E+03  0.00000000000E+00 0.  1.
</event>
<event>
12    1  0.8494789E-002  0.1925867E+03  0.7818608E-02  0.1156305E+00
         21   -1    0    0  501  502  0.00000000000E+00  0.00000000000E+00  0.48000066571E+03  0.48000066571E+03  0.00000000000E+00 0.  1.
         21   -1    0    0  502  503 -0.00000000000E+00 -0.00000000000E+00 -0.18755487748E+03  0.18755487748E+03  0.00000000000E+00 0.  1.
         -6    2    1    2    0  503 -0.79276095751E+01 -0.86858378913E+02 -0.11016184957E+03  0.22125681917E+03  0.17091437021E+03 0.  0.
        -24    2    3    3    0    0 -0.47840456938E+02 -0.31753930110E+02 -0.79375796218E+01  0.98368955528E+02  0.79475938773E+02 0.  0.
          6    2    1    2  501    0  0.79276095751E+01  0.86858378913E+02  0.40260763781E+03  0.44629872402E+03  0.17170444392E+03 0.  0.
         24    2    5    5    0    0  0.68835833197E+02  0.32682879567E+02  0.22560543402E+03  0.25137138735E+03  0.80518444928E+02 0.  0.
          5    1    5    5  501    0 -0.60908223622E+02  0.54175499345E+02  0.17700220379E+03  0.19492733667E+03  0.47000000000E+01 0. -1.
        -11    1    6    6    0    0  0.45893536214E+02  0.38460117985E+02  0.62482277914E+02  0.86541506776E+02  0.00000000000E+00 0.  1.
         12    1    6    6    0    0  0.22942296982E+02 -0.57772384177E+01  0.16312315610E+03  0.16482988058E+03  0.00000000000E+00 0. -1.
         -5    1    3    3    0  503  0.39912847363E+02 -0.55104448803E+02 -0.10222426995E+03  0.12288786364E+03  0.47000000000E+01 0.  1.
         11    1    4    4    0    0  0.14573418214E+02  0.12840928534E+02  0.61576103255E+01  0.20376214785E+02  0.00000000000E+00 0. -1.
        -12    1    4    4    0    0 -0.62413875152E+02 -0.44594858643E+02 -0.14095189947E+02  0.77992740743E+02  0.00000000000E+00 0.  1.
</event>
<event>
12    1  0.8494789E-002  0.2986688E+03  0.7818608E-02  0.1086324E+00
         21   -1    0    0  503  502  0.00000000000E+00  0.00000000000E+00  0.17341083181E+03  0.17341083181E+03  0.00000000000E+00 0.  1.
         21   -1    0    0  501  503 -0.00000000000E+00 -0.00000000000E+00 -0.59355664909E+03  0.59355664909E+03  0.00000000000E+00 0. -1.
          6    2    1    2  501    0 -0.83278096362E+02 -0.22942775674E+03 -0.35602302817E+03  0.46471007538E+03  0.17213576233E+03 0.  0.
         24    2    3    3    0    0 -0.84167441686E+02 -0.10601281843E+03 -0.11806374370E+03  0.19660795118E+03  0.79954755824E+02 0.  0.
         -6    2    1    2    0  502  0.83278096362E+02  0.22942775674E+03 -0.64122789112E+02  0.30225740552E+03  0.16635946084E+03 0.  0.
        -24    2    5    5    0    0  0.57178004340E+02  0.15373879231E+03  0.23222384282E+02  0.18367703844E+03  0.79328651058E+02 0.  0.
          5    1    3    3  501    0  0.88934532436E+00 -0.12341493831E+03 -0.23795928447E+03  0.26810212420E+03  0.47000000000E+01 0. -1.
        -11    1    4    4    0    0 -0.27038181131E+02 -0.94935513041E+02 -0.68273118352E+02  0.12002097135E+03  0.00000000000E+00 0.  1.
         12    1    4    4    0    0 -0.57129260555E+02 -0.11077305390E+02 -0.49790625345E+02  0.76586979823E+02  0.00000000000E+00 0. -1.
         -5    1    5    5    0  502  0.26100092022E+02  0.75688964434E+02 -0.87345173394E+02  0.11858036708E+03  0.47000000000E+01 0.  1.
         13    1    6    6    0    0 -0.15500688562E+02  0.70311109727E+01  0.92159407477E+01  0.19355656312E+02  0.00000000000E+00 0. -1.
        -14    1    6    6    0    0  0.72678692902E+02  0.14670768134E+03  0.14006443535E+02  0.16432138213E+03  0.00000000000E+00 0.  1.
</event>
<event>
12    1  0.8494789E-002  0.3036484E+03  0.7818608E-02  0.1083499E+00
         21   -1    0    0  501  502  0.00000000000E+00  0.00000000000E+00  0.17526829156E+03  0.17526829156E+03  0.00000000000E+00 0. -1.
         21   -1    0    0  502  503 -0.00000000000E+00 -0.00000000000E+00 -0.55340667301E+03  0.55340667301E+03  0.00000000000E+00 0.  1.
         -6    2    1    2    0  503 -0.24886727940E+02  0.24878551435E+03 -0.10683797227E+03  0.32189546950E+03  0.17230426457E+03 0.  0.
        -24    2    3    3    0    0 -0.78016116261E+02  0.20272180100E+03 -0.97156064235E+02  0.25075879166E+03  0.79107697348E+02 0.  0.
          6    2    1    2  501    0  0.24886727940E+02 -0.24878551435E+03 -0.27130040918E+03  0.40677949507E+03  0.17132444137E+03 0.  0.
         24    2    5    5    0    0  0.25660356015E+01 -0.15852889677E+03 -0.25765530992E+03  0.31269044652E+03  0.79063651359E+02 0.  0.
          5    1    5    5  501    0  0.22320692338E+02 -0.90256617585E+02 -0.13645099266E+02  0.94089048557E+02  0.47000000000E+01 0. -1.
        -11    1    6    6    0    0  0.27236466940E+02 -0.52092245039E+02 -0.14150022826E+03  0.15322448147E+03  0.00000000000E+00 0.  1.
         12    1    6    6    0    0 -0.24670431338E+02 -0.10643665173E+03 -0.11615508166E+03  0.15946596505E+03  0.00000000000E+00 0. -1.
         -5    1    3    3    0  503  0.53129388321E+02  0.46063713353E+02 -0.96819080346E+01  0.71136677842E+02  0.47000000000E+01 0.  1.
         11    1    4    4    0    0 -0.19305014663E+02  0.35048426835E+02  0.12580275255E+02  0.41944476874E+02  0.00000000000E+00 0. -1.
        -12    1    4    4    0    0 -0.58711101598E+02  0.16767337416E+03 -0.10973633949E+03  0.20881431478E+03  0.00000000000E+00 0.  1.
</event>
<event>
12    1  0.8494789E-002  0.1791916E+03  0.7818608E-02  0.1172695E+00
         21   -1    0    0  501  502  0.00000000000E+00  0.00000000000E+00  0.17966384914E+04  0.17966384914E+04  0.00000000000E+00 0.  1.
         21   -1    0    0  502  503 -0.00000000000E+00 -0.00000000000E+00 -0.24629321599E+02  0.24629321599E+02  0.00000000000E+00 0.  1.
         -6    2    1    2    0  503  0.29212883205E+02  0.38714639196E+02  0.32954239652E+03  0.36771354064E+03  0.15576533965E+03 0.  0.
        -24    2    3    3    0    0  0.26444769410E+02  0.70111290810E+02  0.29304767749E+03  0.31926391006E+03  0.10216449510E+03 0.  0.
          6    2    1    2  501    0 -0.29212883205E+02 -0.38714639196E+02  0.14424667733E+04  0.14535542723E+04  0.17250337626E+03 0.  0.
         24    2    5    5    0    0 -0.41119983435E+02 -0.44608389697E+01  0.13649934684E+04  0.13678845295E+04  0.78677603145E+02 0.  0.
          5    1    5    5  501    0  0.11907100231E+02 -0.34253800227E+02  0.77473304891E+02  0.85669742830E+02  0.47000000000E+01 0. -1.
        -13    1    6    6    0    0  0.19370941936E+02 -0.10894606142E+02  0.62495048335E+03  0.62534553046E+03  0.00000000000E+00 0.  1.
         14    1    6    6    0    0 -0.60490925371E+02  0.64337671726E+01  0.74004298502E+03  0.74253899904E+03  0.00000000000E+00 0. -1.
         -5    1    3    3    0  503  0.27681137947E+01 -0.31396651614E+02  0.36494719031E+02  0.48449630584E+02  0.47000000000E+01 0.  1.
         13    1    4    4    0    0  0.58754941876E+01 -0.24569229232E+02  0.31701247987E+02  0.40535633471E+02  0.00000000000E+00 0. -1.
        -14    1    4    4    0    0  0.20569275222E+02  0.94680520042E+02  0.26134642950E+03  0.27872827659E+03  0.00000000000E+00 0.  1.
</event>
<event>
12    1  0.8494789E-002  0.2008027E+03  0.7818608E-02  0.1149195E+00
         21   -1    0    0  501  502  0.00000000000E+00  0.00000000000E+00  0.16546591805E+03  0.16546591805E+03  0.00000000000E+00 0. -1.
         21   -1    0    0  502  503 -0.00000000000E+00 -0.00000000000E+00 -0.35506435528E+03  0.35506435528E+03  0.00000000000E+00 0.  1.
         -6    2    1    2    0  503 -0.76903148749E+02  0.65715584151E+02 -0.24116547485E+03  0.31381920045E+03  0.17346201898E+03 0.  0.
        -24    2    3    3    0    0 -0.59306606566E+01  0.11539273653E+01 -0.43431587505E+02  0.93987260563E+02  0.83131209969E+02 0.  0.
          6    2    1    2  501    0  0.76903148749E+02 -0.65715584151E+02  0.51567037608E+02  0.20671107287E+03  0.17273585613E+03 0.  0.
         24    2    5    5    0    0  0.10155292579E+03 -0.80838962763E+02  0.74341170736E+02  0.16960205472E+03  0.79939431202E+02 0.  0.
          5    1    5    5  501    0 -0.24649777040E+02  0.15123378613E+02 -0.22774133128E+02  0.37109018157E+02  0.47000000000E+01 0. -1.
        -11    1    6    6    0    0  0.95283292463E+02 -0.75138054973E+02  0.30730695262E+02  0.12517591126E+03  0.00000000000E+00 0.  1.
         12    1    6    6    0    0  0.62696333264E+01 -0.57009077899E+01  0.43610475474E+02  0.44426143460E+02  0.00000000000E+00 0. -1.
         -5    1    3    3    0  503 -0.70972488093E+02  0.64561656785E+02 -0.19773388734E+03  0.21983193989E+03  0.47000000000E+01 0.  1.
         11    1    4    4    0    0 -0.35743322460E+02  0.24468797004E+02 -0.33775616593E+02  0.54928129438E+02  0.00000000000E+00 0. -1.
        -12    1    4    4    0    0  0.29812661803E+02 -0.23314869638E+02 -0.96559709114E+01  0.39059131126E+02  0.00000000000E+00 0.  1.
</event>
<event>
12    1  0.8494789E-002  0.1875466E+03  0.7818608E-02  0.1161159E+00
         21   -1    0    0  501  502  0.00000000000E+00  0.00000000000E+00  0.49536187147E+03  0.49536187147E+03  0.00000000000E+00 0. -1.
         21   -1    0    0  502  503 -0.00000000000E+00 -0.00000000000E+00 -0.18775453277E+03  0.18775453277E+03  0.00000000000E+00 0. -1.
         -6    2    1    2    0  503 -0.31419454890E+02 -0.63028868557E+02 -0.11672095872E+03  0.21918944425E+03  0.17164035030E+03 0.  0.
        -24    2    3    3    0    0 -0.34682392128E+02 -0.26332507712E+02 -0.14609237078E+03  0.17183926468E+03  0.79306259529E+02 0.  0.
          6    2    1    2  501    0  0.31419454890E+02  0.63028868557E+02  0.42432829742E+03  0.46392695999E+03  0.17382145955E+03 0.  0.
         24    2    5    5    0    0  0.76719863702E+01  0.29595037884E+01  0.78501927039E+02  0.11208858901E+03  0.79584428124E+02 0.  0.
          5    1    5    5  501    0  0.23747468520E+02  0.60069364769E+02  0.34582637038E+03  0.35183837098E+03  0.47000000000E+01 0. -1.
        -13    1    6    6    0    0  0.38319156384E+02  0.13860954356E+02  0.65325480983E+02  0.76992871535E+02  0.00000000000E+00 0.  1.
         14    1    6    6    0    0 -0.30647170014E+02 -0.10901450567E+02  0.13176446056E+02  0.35095717474E+02  0.00000000000E+00 0. -1.
         -5    1    3    3    0  503  0.32629372379E+01 -0.36696360845E+02  0.29371412061E+02  0.47350179568E+02  0.47000000000E+01 0.  1.
         13    1    4    4    0    0 -0.31230866019E+02  0.24006020953E+02 -0.74198926479E+02  0.84006765948E+02  0.00000000000E+00 0. -1.
        -14    1    4    4    0    0 -0.34515261089E+01 -0.50338528665E+02 -0.71893444303E+02  0.87832498737E+02  0.00000000000E+00 0.  1.
</event>
<event>
12    1  0.8494789E-002  0.2009623E+03  0.7818608E-02  0.1149038E+00
         21   -1    0    0  503  502  0.00000000000E+00  0.00000000000E+00  0.10001255287E+03  0.10001255287E+03  0.00000000000E+00 0. -1.
         21   -1    0    0  501  503 -0.00000000000E+00 -0.00000000000E+00 -0.43736694054E+03  0.43736694054E+03  0.00000000000E+00 0. -1.
          6    2    1    2  501    0  0.10329280938E+03  0.20578949454E+02 -0.24404176117E+03  0.31580985853E+03  0.17054790505E+03 0.  0.
         24    2    3    3    0    0  0.10886028742E+03 -0.36141941360E+02 -0.16150100573E+03  0.21539410989E+03  0.84588684944E+02 0.  0.
         -6    2    1    2    0  502 -0.10329280938E+03 -0.20578949454E+02 -0.93312626507E+02  0.22156963489E+03  0.17115186007E+03 0.  0.
        -24    2    5    5    0    0 -0.47167034790E+02 -0.31136561272E+02 -0.40836014843E+01  0.11552495257E+03  0.10067335420E+03 0.  0.
          5    1    3    3  501    0 -0.55674780343E+01  0.56720890813E+02 -0.82540755438E+02  0.10041574864E+03  0.47000000000E+01 0. -1.
        -13    1    4    4    0    0  0.85869819213E+02 -0.20351366615E+02 -0.16516593306E+03  0.18726342253E+03  0.00000000000E+00 0.  1.
         14    1    4    4    0    0  0.22990468204E+02 -0.15790574745E+02  0.36649273252E+01  0.28130687359E+02  0.00000000000E+00 0. -1.
         -5    1    5    5    0  502 -0.56125774593E+02  0.10557611818E+02 -0.89229025022E+02  0.10604468232E+03  0.47000000000E+01 0.  1.
         11    1    6    6    0    0 -0.68986303709E+01  0.24195564321E+02  0.29933445972E+02  0.39102782785E+02  0.00000000000E+00 0. -1.
        -12    1    6    6    0    0 -0.40268404420E+02 -0.55332125592E+02 -0.34017047456E+02  0.76422169785E+02  0.00000000000E+00 0.  1.
</event>
<event>
12    1  0.8494789E-002  0.1895111E+03  0.7818608E-02  0.1158972E+00
         21   -1    0    0  503  502  0.00000000000E+00  0.00000000000E+00  0.18719745644E+03  0.18719745644E+03  0.00000000000E+00 0.  1.
         21   -1    0    0  501  503 -0.00000000000E+00 -0.00000000000E+00 -0.28316242735E+03  0.28316242735E+03  0.00000000000E+00 0.  1.
          6    2    1    2  501    0  0.76642736399E+01 -0.78871991458E+02 -0.18173087751E+03  0.26234486831E+03  0.17181148378E+03 0.  0.
         24    2    3    3    0    0 -0.42747450970E+02 -0.79811338862E+02 -0.70895426371E+02  0.14048916848E+03  0.80708429570E+02 0.  0.
         -6    2    1    2    0  502 -0.76642736399E+01  0.78871991458E+02  0.85765906605E+02  0.20801501548E+03  0.17214797065E+03 0.  0.
        -24    2    5    5    0    0  0.59045820216E+02  0.70612514790E+02  0.43352392911E+02  0.12839434152E+03  0.78314371820E+02 0.  0.
          5    1    3    3  501    0  0.50411724610E+02  0.93934740399E+00 -0.11083545114E+03  0.12185569983E+03  0.47000000000E+01 0. -1.
        -13    1    4    4    0    0  0.58347226942E+01 -0.60586287353E+02 -0.63084624156E+02  0.87660778054E+02  0.00000000000E+00 0.  1.
         14    1    4    4    0    0 -0.48582173664E+02 -0.19225051509E+02 -0.78108022155E+01  0.52828390423E+02  0.00000000000E+00 0. -1.
         -5    1    5    5    0  502 -0.66710093856E+02  0.82594766686E+01  0.42413513695E+02  0.79620673955E+02  0.47000000000E+01 0.  1.
         11    1    6    6    0    0 -0.16719614362E+02  0.61126393293E+01  0.18834620351E+02  0.25916264927E+02  0.00000000000E+00 0. -1.
        -12    1    6    6    0    0  0.75765434578E+02  0.64499875460E+02  0.24517772560E+02  0.10247807659E+03  0.00000000000E+00 0.  1.
</event>
<event>
12    1  0.8494789E-002  0.2718824E+03  0.7818608E-02  0.1100248E+00
         21   -1    0    0  503  502  0.00000000000E+00  0.00000000000E+00  0.19085341847E+03  0.19085341847E+03  0.00000000000E+00 0. -1.
         21   -1    0    0  501  503 -0.00000000000E+00 -0.00000000000E+00 -0.40271966398E+03  0.40271966398E+03  0.00000000000E+00 0.  1.
          6    2    1    2  501    0  0.10098008986E+02 -0.21054755328E+03 -0.16469822146E+03  0.31762951033E+03  0.17126225416E+03 0.  0.
         24    2    3    3    0    0  0.23386078422E+01 -0.23895816450E+02 -0.33895602811E+02  0.89527572122E+02  0.79308228764E+02 0.  0.
         -6    2    1    2    0  502 -0.10098008986E+02  0.21054755328E+03 -0.47168024044E+02  0.27594357212E+03  0.17172009355E+03 0.  0.
        -24    2    5    5    0    0  0.25909907125E+02  0.97692271541E+02  0.35056272454E+02  0.13166672168E+03  0.76759886362E+02 0.  0.
          5    1    3    3  501    0  0.77594011433E+01 -0.18665173683E+03 -0.13080261865E+03  0.22810193820E+03  0.47000000000E+01 0. -1.
        -11    1    4    4    0    0  0.72364640539E+01 -0.22852989535E+02 -0.59128349052E+02  0.63802720979E+02  0.00000000000E+00 0.  1.
         12    1    4    4    0    0 -0.48978562117E+01 -0.10428269146E+01  0.25232746241E+02  0.25724851143E+02  0.00000000000E+00 0. -1.
         -5    1    5    5    0  502 -0.36007916111E+02  0.11285528174E+03 -0.82224296498E+02  0.14427685044E+03  0.47000000000E+01 0.  1.
         13    1    6    6    0    0  0.48644334086E+02  0.35055824757E+02  0.11946102997E+02  0.61138297858E+02  0.00000000000E+00 0. -1.
        -14    1    6    6    0    0 -0.22734426961E+02  0.62636446783E+02  0.23110169456E+02  0.70528423825E+02  0.00000000000E+00 0.  1.
</event>
<event>
12    1  0.8494789E-002  0.1870330E+03  0.7818608E-02  0.1161595E+00
         21   -1    0    0  503  502  0.00000000000E+00  0.00000000000E+00  0.75418302249E+02  0.75418302249E+02  0.00000000000E+00 0. -1.
         21   -1    0    0  501  503 -0.00000000000E+00 -0.00000000000E+00 -0.46557388330E+03  0.46557388330E+03  0.00000000000E+00 0. -1.
          6    2    1    2  501    0  0.72393159935E+02 -0.17954436478E+02 -0.16255112677E+03  0.24639905099E+03  0.16948891444E+03 0.  0.
         24    2    3    3    0    0  0.10509689197E+03 -0.14605438192E+02 -0.16584926344E+03  0.21302664346E+03  0.81336935733E+02 0.  0.
         -6    2    1    2    0  502 -0.72393159935E+02  0.17954436478E+02 -0.22760445428E+03  0.29459313456E+03  0.17151733419E+03 0.  0.
        -24    2    5    5    0    0 -0.41451474948E+02 -0.31744403908E+02 -0.51556346445E+02  0.10900652708E+03  0.80612865795E+02 0.  0.
          5    1    3    3  501    0 -0.32703732038E+02 -0.33489982858E+01  0.32981366646E+01  0.33372407528E+02  0.47000000000E+01 0. -1.
        -13    1    4    4    0    0  0.26601960391E+02 -0.15969402888E+02 -0.17046352316E+01  0.31073974747E+02  0.00000000000E+00 0.  1.
         14    1    4    4    0    0  0.78494931582E+02  0.13639646961E+01 -0.16414462820E+03  0.18195266871E+03  0.00000000000E+00 0. -1.
         -5    1    5    5    0  502 -0.30941684987E+02  0.49698840386E+02 -0.17604810783E+03  0.18558660748E+03  0.47000000000E+01 0.  1.
         13    1    6    6    0    0 -0.57559789442E+02 -0.12922074233E+02 -0.58701652846E+02  0.83222553493E+02  0.00000000000E+00 0. -1.
        -14    1    6    6    0    0  0.16108314494E+02 -0.18822329675E+02  0.71453064004E+01  0.25783973584E+02  0.00000000000E+00 0.  1.
</event>
<event>
12    1  0.8494789E-002  0.2518729E+03  0.7818608E-02  0.1112143E+00
         21   -1    0    0  501  502  0.00000000000E+00  0.00000000000E+00  0.11505602777E+03  0.11505602777E+03  0.00000000000E+00 0. -1.
         21   -1    0    0  502  503 -0.00000000000E+00 -0.00000000000E+00 -0.85222067545E+03  0.85222067545E+03  0.00000000000E+00 0.  1.
         -6    2    1    2    0  503  0.83935179644E+02  0.16202893714E+03 -0.65608688826E+03  0.70277304974E+03  0.17361297084E+03 0.  0.
        -24    2    3    3    0    0  0.42126148254E+02  0.71744822118E+02 -0.15555983473E+03  0.19243136239E+03  0.76870249010E+02 0.  0.
          6    2    1    2  501    0 -0.83935179644E+02 -0.16202893714E+03 -0.81077759416E+02  0.26450365348E+03  0.17346494972E+03 0.  0.
         24    2    5    5    0    0 -0.21661207623E+02 -0.15421377135E+03 -0.95751580494E+02  0.19987753312E+03  0.80818116100E+02 0.  0.
          5    1    5    5  501    0 -0.62273972021E+02 -0.78151657845E+01  0.14673821078E+02  0.64626120358E+02  0.47000000000E+01 0. -1.
        -11    1    6    6    0    0 -0.28539615330E+02 -0.32039507038E+02 -0.57352395508E+02  0.71626370318E+02  0.00000000000E+00 0.  1.
         12    1    6    6    0    0  0.68784077065E+01 -0.12217426431E+03 -0.38399184985E+02  0.12825116280E+03  0.00000000000E+00 0. -1.
         -5    1    3    3    0  503  0.41809031390E+02  0.90284115017E+02 -0.50052705353E+03  0.51034168735E+03  0.47000000000E+01 0.  1.
         13    1    4    4    0    0  0.23297901493E+02  0.10783539030E+02 -0.15391639261E+01  0.25718591594E+02  0.00000000000E+00 0. -1.
        -14    1    4    4    0    0  0.18828246761E+02  0.60961283088E+02 -0.15402067080E+03  0.16671277080E+03  0.00000000000E+00 0.  1.
</event>
<event>
12    1  0.8494789E-002  0.1926555E+03  0.7818608E-02  0.1157140E+00
         21   -1    0    0  503  502  0.00000000000E+00  0.00000000000E+00  0.63698587455E+02  0.63698587455E+02  0.00000000000E+00 0. -1.
         21   -1    0    0  501  503 -0.00000000000E+00 -0.00000000000E+00 -0.59983375085E+03  0.59983375085E+03  0.00000000000E+00 0.  1.
          6    2    1    2  501    0 -0.19791894185E+02  0.83601706831E+02 -0.34065795278E+03  0.38907381927E+03  0.16718143315E+03 0.  0.
         24    2    3    3    0    0 -0.48774715052E+02 -0.51251598565E+01 -0.15787382469E+03  0.18378234780E+03  0.80290514682E+02 0.  0.
         -6    2    1    2    0  502  0.19791894185E+02 -0.83601706831E+02 -0.19547721061E+03  0.27445851903E+03  0.17243890031E+03 0.  0.
        -24    2    5    5    0    0 -0.27291241371E+02 -0.10760121667E+03 -0.14140873660E+03  0.19870703054E+03  0.84647619675E+02 0.  0.
          5    1    3    3  501    0  0.28982820867E+02  0.88726866687E+02 -0.18278412809E+03  0.20529147147E+03  0.47000000000E+01 0. -1.
        -11    1    4    4    0    0  0.10191502947E+02 -0.90378979153E+01 -0.10049281573E+03  0.10141181561E+03  0.00000000000E+00 0.  1.
         12    1    4    4    0    0 -0.58966217999E+02  0.39127380588E+01 -0.57381008956E+02  0.82370532189E+02  0.00000000000E+00 0. -1.
         -5    1    5    5    0  502  0.47083135557E+02  0.23999509836E+02 -0.54068474010E+02  0.75751488487E+02  0.47000000000E+01 0.  1.
         11    1    6    6    0    0 -0.31853472031E+02 -0.81480474937E+02 -0.44337185899E+02  0.98079037158E+02  0.00000000000E+00 0. -1.
        -12    1    6    6    0    0  0.45622306595E+01 -0.26120741730E+02 -0.97071550703E+02  0.10062799339E+03  0.00000000000E+00 0.  1.
</event>
<event>
12    1  0.8494789E-002  0.1832005E+03  0.7818608E-02  0.1164746E+00
         21   -1    0    0  501  502  0.00000000000E+00  0.00000000000E+00  0.73808410762E+02  0.73808410762E+02  0.00000000000E+00 0.  1.
         21   -1    0    0  502  503 -0.00000000000E+00 -0.00000000000E+00 -0.57771049780E+03  0.57771049780E+03  0.00000000000E+00 0. -1.
         -6    2    1    2    0  503 -0.62535834411E+02 -0.44156174748E+01 -0.10160233084E+03  0.20946967431E+03  0.17211706064E+03 0.  0.
        -24    2    3    3    0    0 -0.57150341656E+02 -0.20626792109E+02  0.59275454619E+01  0.10048999726E+03  0.79821536248E+02 0.  0.
          6    2    1    2  501    0  0.62535834411E+02  0.44156174748E+01 -0.40229975620E+03  0.44204923425E+03  0.17214006912E+03 0.  0.
         24    2    5    5    0    0 -0.10216910903E+02 -0.34312288365E+02 -0.29114634941E+03  0.30359352839E+03  0.78237556897E+02 0.  0.
          5    1    5    5  501    0  0.72752745313E+02  0.38727905840E+02 -0.11115340680E+03  0.13845570586E+03  0.47000000000E+01 0. -1.
        -13    1    6    6    0    0 -0.28827777995E+02  0.10967798887E+02 -0.61667165288E+02  0.68950508854E+02  0.00000000000E+00 0.  1.
         14    1    6    6    0    0  0.18610867092E+02 -0.45280087252E+02 -0.22947918412E+03  0.23464301954E+03  0.00000000000E+00 0. -1.
         -5    1    3    3    0  503 -0.53854927543E+01  0.16211174634E+02 -0.10752987630E+03  0.10897967706E+03  0.47000000000E+01 0.  1.
         13    1    4    4    0    0  0.13557020392E+02 -0.16163013626E+02 -0.15831738933E+02  0.26375742057E+02  0.00000000000E+00 0. -1.
        -14    1    4    4    0    0 -0.70707362049E+02 -0.44637784828E+01  0.21759284395E+02  0.74114255198E+02  0.00000000000E+00 0.  1.
</event>
<event>
12    1  0.8494789E-002  0.2224534E+03  0.7818608E-02  0.1132144E+00
         21   -1    0    0  503  502  0.00000000000E+00  0.00000000000E+00  0.16510824960E+03  0.16510824960E+03  0.00000000000E+00 0.  1.
         21   -1    0    0  501  503 -0.00000000000E+00 -0.00000000000E+00 -0.31768259263E+03  0.31768259263E+03  0.00000000000E+00 0.  1.
          6    2    1    2  501    0  0.13718241509E+03  0.32089197914E+02 -0.13465641921E+03  0.26003434194E+03  0.17215335059E+03 0.  0.
         24    2    3    3    0    0  0.10187604152E+03  0.80812629704E+02 -0.12672431757E+03  0.19916135075E+03  0.81833868376E+02 0.  0.
         -6    2    1    2    0  502 -0.13718241509E+03 -0.32089197914E+02 -0.17917923816E+02  0.22275650029E+03  0.17161198908E+03 0.  0.
        -24    2    5    5    0    0 -0.47839301042E+02 -0.56846662597E+02 -0.58571665239E+02  0.12141578400E+03  0.76098691602E+02 0.  0.
          5    1    3    3  501    0  0.35306373576E+02 -0.48723431790E+02 -0.79321016471E+01  0.60872991195E+02  0.47000000000E+01 0. -1.
        -13    1    4    4    0    0  0.89181034461E+00  0.97031713687E+01 -0.55990386887E+02  0.56831947742E+02  0.00000000000E+00 0.  1.
         14    1    4    4    0    0  0.10098423117E+03  0.71109458335E+02 -0.70733930680E+02  0.14232940301E+03  0.00000000000E+00 0. -1.
         -5    1    5    5    0  502 -0.89343114053E+02  0.24757464684E+02  0.40653741423E+02  0.10134071629E+03  0.47000000000E+01 0.  1.
         11    1    6    6    0    0  0.14931746257E+02  0.89927466602E+00 -0.26233494373E+02  0.30198708056E+02  0.00000000000E+00 0. -1.
        -12    1    6    6    0    0 -0.62771047300E+02 -0.57745937263E+02 -0.32338170866E+02  0.91217075948E+02  0.00000000000E+00 0.  1.
</event>
<event>
12    1  0.8494789E-002  0.1738428E+03  0.7818608E-02  0.1173999E+00
         21   -1    0    0  501  502  0.00000000000E+00  0.00000000000E+00  0.10773494598E+03  0.10773494598E+03  0.00000000000E+00 0. -1.
         21   -1    0    0  502  503 -0.00000000000E+00 -0.00000000000E+00 -0.28199633039E+03  0.28199633039E+03  0.00000000000E+00 0. -1.
         -6    2    1    2    0  503 -0.22306742144E+01  0.15935737688E+02 -0.70332025150E+02  0.18753111500E+03  0.17309650976E+03 0.  0.
        -24    2    3    3    0    0  0.44873815776E+02  0.39201571495E+02 -0.98411142723E+00  0.10040273193E+03  0.80804192671E+02 0.  0.
          6    2    1    2  501    0  0.22306742144E+01 -0.15935737688E+02 -0.10392935926E+03  0.20220016137E+03  0.17269820468E+03 0.  0.
         24    2    5    5    0    0 -0.39969445772E+02 -0.43817076690E+02 -0.16048394274E+02  0.10069462852E+03  0.79776966914E+02 0.  0.
          5    1    5    5  501    0  0.42200119986E+02  0.27881339002E+02 -0.87880964986E+02  0.10150553285E+03  0.47000000000E+01 0. -1.
        -11    1    6    6    0    0 -0.42894616400E+02 -0.24001815380E+02 -0.44227594009E+02  0.66121973121E+02  0.00000000000E+00 0.  1.
         12    1    6    6    0    0  0.29251706279E+01 -0.19815261310E+02  0.28179199735E+02  0.34572655404E+02  0.00000000000E+00 0. -1.
         -5    1    3    3    0  503 -0.47104489991E+02 -0.23265833806E+02 -0.69347913723E+02  0.87128383077E+02  0.47000000000E+01 0.  1.
         11    1    4    4    0    0  0.58622952598E+01  0.41841328487E+02 -0.29910018673E+02  0.51765553144E+02  0.00000000000E+00 0. -1.
        -12    1    4    4    0    0  0.39011520517E+02 -0.26397569926E+01  0.28925907246E+02  0.48637178783E+02  0.00000000000E+00 0.  1.
</event>
<event>
12    1  0.8494789E-002  0.1884154E+03  0.7818608E-02  0.1160622E+00
         21   -1    0    0  501  502  0.00000000000E+00  0.00000000000E+00  0.10367289820E+04  0.10367289820E+04  0.00000000000E+00 0.  1.
         21   -1    0    0  502  503 -0.00000000000E+00 -0.00000000000E+00 -0.70559949709E+02  0.70559949709E+02  0.00000000000E+00 0.  1.
         -6    2    1    2    0  503  0.30444257549E+02  0.60935333364E+02  0.84731565528E+02  0.20659092097E+03  0.17567129179E+03 0.  0.
        -24    2    3    3    0    0  0.46523825477E+02  0.83610764705E+02  0.11186075939E+03  0.16746534300E+03  0.79853524046E+02 0.  0.
          6    2    1    2  501    0 -0.30444257549E+02 -0.60935333364E+02  0.88143746677E+03  0.90069801075E+03  0.17229315446E+03 0.  0.
         24    2    5    5    0    0 -0.36180686041E+02  0.20955478108E+02  0.63144005030E+03  0.63752542507E+03  0.77291373219E+02 0.  0.
          5    1    5    5  501    0  0.57364284921E+01 -0.81890811472E+02  0.24999741647E+03  0.26317258569E+03  0.47000000000E+01 0. -1.
        -13    1    6    6    0    0 -0.58118394653E+02  0.98633866159E+00  0.43103077057E+03  0.43493246124E+03  0.00000000000E+00 0.  1.
         14    1    6    6    0    0  0.21937708611E+02  0.19969139446E+02  0.20040927973E+03  0.20259296383E+03  0.00000000000E+00 0. -1.
         -5    1    3    3    0  503 -0.16079567927E+02 -0.22675431342E+02 -0.27129193866E+02  0.39125577965E+02  0.47000000000E+01 0.  1.
         11    1    4    4    0    0  0.28958458008E+02  0.93535570898E+02  0.68074311450E+02  0.11925438018E+03  0.00000000000E+00 0. -1.
        -12    1    4    4    0    0  0.17565367469E+02 -0.99248061927E+01  0.43786447944E+02  0.48210962818E+02  0.00000000000E+00 0.  1.
</event>
<event>
12    1  0.8494789E-002  0.1795049E+03  0.7818608E-02  0.1169541E+00
         21   -1    0    0  501  502  0.00000000000E+00  0.00000000000E+00  0.18022406967E+04  0.18022406967E+04  0.00000000000E+00 0. -1.
         21   -1    0    0  502  503 -0.00000000000E+00 -0.00000000000E+00 -0.17487951900E+02  0.17487951900E+02  0.00000000000E+00 0. -1.
         -6    2    1    2    0  503  0.25445818726E+02  0.27408557874E+02  0.97840355787E+03  0.99473390312E+03  0.17556564934E+03 0.  0.
        -24    2    3    3    0    0  0.60697640621E+02 -0.20032725005E+02  0.78987483755E+03  0.79710158123E+03  0.85925305739E+02 0.  0.
          6    2    1    2  501    0 -0.25445818726E+02 -0.27408557874E+02  0.80634918692E+03  0.82499474546E+03  0.17034846659E+03 0.  0.
         24    2    5    5    0    0  0.21813111462E+02  0.16078280312E+01  0.70121214271E+03  0.70603573909E+03  0.79432983351E+02 0.  0.
          5    1    5    5  501    0 -0.47258930189E+02 -0.29016385906E+02  0.10513704421E+03  0.11895900638E+03  0.47000000000E+01 0. -1.
        -13    1    6    6    0    0  0.51113894356E+02  0.42230904114E+01  0.37331313232E+03  0.37681979705E+03  0.00000000000E+00 0.  1.
         14    1    6    6    0    0 -0.29300782893E+02 -0.26152623802E+01  0.32789901039E+03  0.32921594204E+03  0.00000000000E+00 0. -1.
         -5    1    3    3    0  503 -0.35251821894E+02  0.47441282879E+02  0.18852872032E+03  0.19763232189E+03  0.47000000000E+01 0.  1.
         13    1    4    4    0    0  0.76022164533E+02  0.14242510203E+01  0.46674788850E+03  0.47290061262E+03  0.00000000000E+00 0. -1.
        -14    1    4    4    0    0 -0.15324523913E+02 -0.21456976025E+02  0.32312694904E+03  0.32420096862E+03  0.00000000000E+00 0.  1.
</event>
<event>
12    1  0.8494789E-002  0.2061380E+03  0.7818608E-02  0.1144740E+00
         21   -1    0    0  503  502  0.00000000000E+00  0.00000000000E+00  0.95734410872E+02  0.95734410872E+02  0.00000000000E+00 0. -1.
         21   -1    0    0  501  503 -0.00000000000E+00 -0.00000000000E+00 -0.64624067368E+03  0.64624067368E+03  0.00000000000E+00 0. -1.
          6    2    1    2  501    0 -0.10844691099E+03  0.29333400590E+02 -0.48311254779E+03  0.52510004386E+03  0.17236920065E+03 0.  0.
         24    2    3    3    0    0 -0.69840573735E+02 -0.50307023091E+02 -0.31322167748E+03  0.33348051412E+03  0.75451519175E+02 0.  0.
         -6    2    1    2    0  502  0.10844691099E+03 -0.29333400590E+02 -0.67393715024E+02  0.21687504070E+03  0.17283428352E+03 0.  0.
        -24    2    5    5    0    0  0.11451064666E+03  0.13449979302E+02 -0.90177080135E+02  0.16780001435E+03  0.82044798084E+02 0.  0.
          5    1    3    3  501    0 -0.38606337257E+02  0.79640423681E+02 -0.16989087031E+03  0.19161952974E+03  0.47000000000E+01 0. -1.
        -11    1    4    4    0    0 -0.19598286988E+02 -0.37700567142E+02 -0.24033382069E+03  0.24406099849E+03  0.00000000000E+00 0.  1.
         12    1    4    4    0    0 -0.50242286747E+02 -0.12606455949E+02 -0.72887856786E+02  0.89419515633E+02  0.00000000000E+00 0. -1.
         -5    1    5    5    0  502 -0.60637356683E+01 -0.42783379892E+02  0.22783365112E+02  0.49075026348E+02  0.47000000000E+01 0.  1.
         11    1    6    6    0    0  0.33762740884E+02 -0.14534936490E+02  0.80197966800E+01  0.37623186861E+02  0.00000000000E+00 0. -1.
        -12    1    6    6    0    0  0.80747905777E+02  0.27984915792E+02 -0.98196876815E+02  0.13017682749E+03  0.00000000000E+00 0.  1.
</event>
<event>
12    1  0.8494789E-002  0.2925059E+03  0.7818608E-02  0.1089645E+00
         21   -1    0    0  503  502  0.00000000000E+00  0.00000000000E+00  0.60277838689E+03  0.60277838689E+03  0.00000000000E+00 0. -1.
         21   -1    0    0  501  503 -0.00000000000E+00 -0.00000000000E+00 -0.15193681086E+03  0.15193681086E+03  0.00000000000E+00 0. -1.
          6    2    1    2  501    0 -0.61523612526E+02 -0.22333610299E+03  0.12008902424E+03  0.31619787572E+03  0.17859326156E+03 0.  0.
         24    2    3    3    0    0 -0.90952782039E+02 -0.81753530489E+02  0.69964679625E+02  0.16307622220E+03  0.82114246907E+02 0.  0.
         -6    2    1    2    0  502  0.61523612526E+02  0.22333610299E+03  0.33075255179E+03  0.43851732202E+03  0.17098544209E+03 0.  0.
        -24    2    5    5    0    0  0.52308683807E+02  0.24153300155E+03  0.32633041344E+03  0.41712369363E+03  0.80163880951E+02 0.  0.
          5    1    3    3  501    0  0.29429169513E+02 -0.14158257250E+03  0.50124344613E+02  0.15312165352E+03  0.47000000000E+01 0. -1.
        -11    1    4    4    0    0 -0.95158305320E+02 -0.90271009941E+02  0.76220575237E+02  0.15170212390E+03  0.00000000000E+00 0.  1.
         12    1    4    4    0    0  0.42055232805E+01  0.85174794512E+01 -0.62558956118E+01  0.11374098301E+02  0.00000000000E+00 0. -1.
         -5    1    5    5    0  502  0.92149287192E+01 -0.18196898559E+02  0.44221383426E+01  0.21393628397E+02  0.47000000000E+01 0.  1.
         13    1    6    6    0    0  0.38737643794E+02  0.10541099013E+03  0.20741345313E+03  0.23586526329E+03  0.00000000000E+00 0. -1.
        -14    1    6    6    0    0  0.13571040013E+02  0.13612201141E+03  0.11891696032E+03  0.18125843034E+03  0.00000000000E+00 0.  1.
</event>
<event>
12    1  0.8494789E-002  0.2312919E+03  0.7818608E-02  0.1127376E+00
         21   -1    0    0  501  502  0.00000000000E+00  0.00000000000E+00  0.88402722839E+03  0.88402722839E+03  0.00000000000E+00 0.  1.
         21   -1    0    0  502  503 -0.00000000000E+00 -0.00000000000E+00 -0.58991213981E+02  0.58991213981E+02  0.00000000000E+00 0. -1.
         -6    2    1    2    0  503 -0.10048638301E+03  0.11838901953E+03  0.46120657504E+03  0.51189456672E+03  0.15877994035E+03 0.  0.
        -24    2    3    3    0    0  0.62942878218E+01  0.16123968107E+02  0.18203896443E+03  0.19595644427E+03  0.70435382235E+02 0.  0.
          6    2    1    2  501    0  0.10048638301E+03 -0.11838901953E+03  0.36382943937E+03  0.43112387565E+03  0.17141313278E+03 0.  0.
         24    2    5    5    0    0  0.80624526480E+02 -0.70389127622E+02  0.35377701181E+03  0.37800491230E+03  0.79212347992E+02 0.  0.
          5    1    5    5  501    0  0.19861856529E+02 -0.47999891913E+02  0.10052427555E+02  0.53118963357E+02  0.47000000000E+01 0. -1.
        -11    1    6    6    0    0  0.45465106653E+02 -0.15390312233E+02  0.58860546178E+02  0.75950651939E+02  0.00000000000E+00 0.  1.
         12    1    6    6    0    0  0.35159419827E+02 -0.54998815389E+02  0.29491646563E+03  0.30205426036E+03  0.00000000000E+00 0. -1.
         -5    1    3    3    0  503 -0.10678067083E+03  0.10226505143E+03  0.27916761061E+03  0.31593812245E+03  0.47000000000E+01 0.  1.
         11    1    4    4    0    0 -0.25656556024E+02  0.24945979893E+02  0.63703496297E+02  0.73066382286E+02  0.00000000000E+00 0. -1.
        -12    1    4    4    0    0  0.31950843846E+02 -0.88220117864E+01  0.11833546814E+03  0.12289006198E+03  0.00000000000E+00 0.  1.
</event>
<event>
12    1  0.8494789E-002  0.2124660E+03  0.7818608E-02  0.1139669E+00
         21   -1    0    0  503  502  0.00000000000E+00  0.00000000000E+00  0.14010272518E+03  0.14010272518E+03  0.00000000000E+00 0.  1.
         21   -1    0    0  501  503 -0.00000000000E+00 -0.00000000000E+00 -0.35693888695E+03  0.35693888695E+03  0.00000000000E+00 0. -1.
          6    2    1    2  501    0 -0.12046337700E+03 -0.34837799658E+02 -0.18624881037E+03  0.28238514529E+03  0.17125318517E+03 0.  0.
         24    2    3    3    0    0 -0.13431031235E+03  0.12215654910E+02 -0.10834093840E+03  0.19020330478E+03  0.79063619880E+02 0.  0.
         -6    2    1    2    0  502  0.12046337700E+03  0.34837799658E+02 -0.30587351399E+02  0.21465646684E+03  0.17151301760E+03 0.  0.
        -24    2    5    5    0    0  0.10816754042E+03 -0.36372470106E+02 -0.94673004432E+01  0.13922280944E+03  0.79184515577E+02 0.  0.
          5    1    3    3  501    0  0.13846935342E+02 -0.47053454568E+02 -0.77907871965E+02  0.92181840507E+02  0.47000000000E+01 0. -1.
        -11    1    4    4    0    0 -0.92696506828E+02  0.81288594050E+01 -0.24048471681E+02  0.96109571446E+02  0.00000000000E+00 0.  1.
         12    1    4    4    0    0 -0.41613805519E+02  0.40867955050E+01 -0.84292466720E+02  0.94093733335E+02  0.00000000000E+00 0. -1.
         -5    1    5    5    0  502  0.12295836584E+02  0.71210269764E+02 -0.21120050956E+02  0.75433657406E+02  0.47000000000E+01 0.  1.
         13    1    6    6    0    0  0.94757253683E+02  0.45966246178E+01 -0.13923824946E+02  0.95885030033E+02  0.00000000000E+00 0. -1.
        -14    1    6    6    0    0  0.13410286738E+02 -0.40969094724E+02  0.44565245031E+01  0.43337779402E+02  0.00000000000E+00 0.  1.
</event>
<event>
12    1  0.8494789E-002  0.2079581E+03  0.7818608E-02  0.1143419E+00
         21   -1    0    0  501  502  0.00000000000E+00  0.00000000000E+00  0.41522773857E+02  0.41522773857E+02  0.00000000000E+00 0.  1.
         21   -1    0    0  502  503 -0.00000000000E+00 -0.00000000000E+00 -0.17670694683E+04  0.17670694683E+04  0.00000000000E+00 0. -1.
         -6    2    1    2    0  503 -0.44229652543E+01  0.11605643509E+03 -0.14458399465E+04  0.14607189127E+04  0.17250487586E+03 0.  0.
        -24    2    3    3    0    0  0.69245761331E+02  0.69256452211E+02 -0.80046563931E+03  0.80945291014E+03  0.69837972344E+02 0.  0.
          6    2    1    2  501    0  0.44229652543E+01 -0.11605643509E+03 -0.27970674786E+03  0.34787332941E+03  0.17114709978E+03 0.  0.
         24    2    5    5    0    0  0.18991503188E+02  0.63153142751E+01 -0.13678096067E+03  0.15909579370E+03  0.78752015753E+02 0.  0.
          5    1    5    5  501    0 -0.14568537933E+02 -0.12237174937E+03 -0.14292578720E+03  0.18877753570E+03  0.47000000000E+01 0. -1.
        -13    1    6    6    0    0 -0.15774468803E+02 -0.21900211915E+02 -0.18766609681E+02  0.32873070846E+02  0.00000000000E+00 0.  1.
         14    1    6    6    0    0  0.34765971991E+02  0.28215526190E+02 -0.11801435099E+03  0.12622272286E+03  0.00000000000E+00 0. -1.
         -5    1    3    3    0  503 -0.73668726585E+02  0.46799982881E+02 -0.64537430722E+03  0.65126600256E+03  0.47000000000E+01 0.  1.
         13    1    4    4    0    0  0.15036913753E+02  0.48507426192E+02 -0.55045630840E+03  0.55279401826E+03  0.00000000000E+00 0. -1.
        -14    1    4    4    0    0  0.54208847578E+02  0.20749026019E+02 -0.25000933091E+03  0.25665889188E+03  0.00000000000E+00 0.  1.
</event>
<event>
12    1  0.8494789E-002  0.2016995E+03  0.7818608E-02  0.1148666E+00
         21   -1    0    0  501  502  0.00000000000E+00  0.00000000000E+00  0.43305962545E+03  0.43305962545E+03  0.00000000000E+00 0.  1.
         21   -1    0    0  502  503 -0.00000000000E+00 -0.00000000000E+00 -0.26604084442E+03  0.26604084442E+03  0.00000000000E+00 0.  1.
         -6    2    1    2    0  503  0.10007484008E+03 -0.27735877372E+01 -0.19839131358E+03  0.28171909348E+03  0.17315850519E+03 0.  0.
        -24    2    3    3    0    0  0.11827079867E+03 -0.18762738673E+02 -0.88321540787E+02  0.16891753879E+03  0.79952599477E+02 0.  0.
          6    2    1    2  501    0 -0.10007484008E+03  0.27735877372E+01  0.36541009461E+03  0.41738137640E+03  0.17509999918E+03 0.  0.
         24    2    5    5    0    0 -0.95471251219E+02 -0.31189717912E+02  0.13828191868E+03  0.18763369423E+03  0.77440014612E+02 0.  0.
          5    1    5    5  501    0 -0.46035888643E+01  0.33963305649E+02  0.22712817593E+03  0.22974768217E+03  0.47000000000E+01 0. -1.
        -11    1    6    6    0    0 -0.53303530849E+02 -0.12198542703E+01  0.17298151748E+02  0.56053371881E+02  0.00000000000E+00 0.  1.
         12    1    6    6    0    0 -0.42167720371E+02 -0.29969863641E+02  0.12098376693E+03  0.13158032235E+03  0.00000000000E+00 0. -1.
         -5    1    3    3    0  503 -0.18195958588E+02  0.15989150936E+02 -0.11006977279E+03  0.11280155469E+03  0.47000000000E+01 0.  1.
         13    1    4    4    0    0  0.15364122241E+02 -0.13957905039E+02  0.12942884697E+02  0.24462167312E+02  0.00000000000E+00 0. -1.
        -14    1    4    4    0    0  0.10290667643E+03 -0.48048336341E+01 -0.10126442548E+03  0.14445537148E+03  0.00000000000E+00 0.  1.
</event>
<event>
12    1  0.8494789E-002  0.2873461E+03  0.7818608E-02  0.1093105E+00
         21   -1    0    0  501  502  0.00000000000E+00  0.00000000000E+00  0.20146982643E+03  0.20146982643E+03  0.00000000000E+00 0. -1.
         21   -1    0    0  502  503 -0.00000000000E+00 -0.00000000000E+00 -0.64757945217E+03  0.64757945217E+03  0.00000000000E+00 0.  1.
         -6    2    1    2    0  503  0.56561331445E+02  0.21314142366E+03 -0.49032268941E+03  0.56831689738E+03  0.18422623428E+03 0.  0.
        -24    2    3    3    0    0  0.10009756193E+03  0.15053385181E+03 -0.43021931851E+03  0.47110775886E+03  0.64605696294E+02 0.  0.
          6    2    1    2  501    0 -0.56561331445E+02 -0.21314142366E+03  0.44213063669E+02  0.28073238122E+03  0.16801019068E+03 0.  0.
         24    2    5    5    0    0 -0.20174425006E+02 -0.15148220920E+03 -0.34199195121E+02  0.17444767858E+03  0.76867031200E+02 0.  0.
          5    1    5    5  501    0 -0.36386906439E+02 -0.61659214459E+02  0.78412258791E+02  0.10628470265E+03  0.47000000000E+01 0. -1.
        -13    1    6    6    0    0 -0.84377076770E+01 -0.16606263433E+02 -0.34334745217E+02  0.39061971598E+02  0.00000000000E+00 0.  1.
         14    1    6    6    0    0 -0.11736717329E+02 -0.13487594577E+03  0.13555009529E+00  0.13538570698E+03  0.00000000000E+00 0. -1.
         -5    1    3    3    0  503 -0.43536230487E+02  0.62607571847E+02 -0.60103370904E+02  0.97209138519E+02  0.47000000000E+01 0.  1.
         13    1    4    4    0    0  0.46200438541E+02  0.94938994294E+02 -0.17483492634E+03  0.20424285698E+03  0.00000000000E+00 0. -1.
        -14    1    4    4    0    0  0.53897123390E+02  0.55594857518E+02 -0.25538439216E+03  0.26686490187E+03  0.00000000000E+00 0.  1.
</event>
<event>
12    1  0.8494789E-002  0.2678554E+03  0.7818608E-02  0.1102994E+00
         21   -1    0    0  503  502  0.00000000000E+00  0.00000000000E+00  0.81077415812E+03  0.81077415812E+03  0.00000000000E+00 0. -1.
         21   -1    0    0  501  503 -0.00000000000E+00 -0.00000000000E+00 -0.92868050291E+02  0.92868050291E+02  0.00000000000E+00 0. -1.
          6    2    1    2  501    0  0.41773491281E+02  0.20438481488E+03  0.25144587585E+03  0.36738474479E+03  0.16801293133E+03 0.  0.
         24    2    3    3    0    0  0.54550038786E+02  0.50720467019E+02  0.67568903988E+02  0.12736640643E+03  0.78156075858E+02 0.  0.
         -6    2    1    2    0  502 -0.41773491281E+02 -0.20438481488E+03  0.46646023198E+03  0.53625746362E+03  0.16269216989E+03 0.  0.
        -24    2    5    5    0    0 -0.23516963396E+02 -0.22259300233E+03  0.43979830870E+03  0.49887047319E+03  0.73133470011E+02 0.  0.
          5    1    3    3  501    0 -0.12776547505E+02  0.15366434786E+03  0.18387697186E+03  0.24001833837E+03  0.47000000000E+01 0. -1.
        -13    1    4    4    0    0  0.28586928375E+02  0.17661326323E+01  0.65982435905E+02  0.71930616196E+02  0.00000000000E+00 0.  1.
         14    1    4    4    0    0  0.25963110411E+02  0.48954334386E+02  0.15864680830E+01  0.55435790230E+02  0.00000000000E+00 0. -1.
         -5    1    5    5    0  502 -0.18256527885E+02  0.18208187443E+02  0.26661923280E+02  0.37386990429E+02  0.47000000000E+01 0.  1.
         11    1    6    6    0    0 -0.62196614910E+01 -0.10466643645E+02  0.79344043864E+02  0.80272735814E+02  0.00000000000E+00 0. -1.
        -12    1    6    6    0    0 -0.17297301905E+02 -0.21212635868E+03  0.36045426484E+03  0.41859773738E+03  0.00000000000E+00 0.  1.
</event>
<event>
12    1  0.8494789E-002  0.2773284E+03  0.7818608E-02  0.1097255E+00
         21   -1    0    0  501  502  0.00000000000E+00  0.00000000000E+00  0.18688085644E+03  0.18688085644E+03  0.00000000000E+00 0.  1.
         21   -1    0    0  502  503 -0.00000000000E+00 -0.00000000000E+00 -0.46219941819E+03  0.46219941819E+03  0.00000000000E+00 0. -1.
         -6    2    1    2    0  503  0.13363494933E+03  0.17160865300E+03 -0.24604664617E+03  0.37021135867E+03  0.17090836295E+03 0.  0.
        -24    2    3    3    0    0  0.15230269598E+03  0.15857328174E+03 -0.25358286170E+03  0.34577183712E+03  0.83140235259E+02 0.  0.
          6    2    1    2  501    0 -0.13363494933E+03 -0.17160865300E+03 -0.29271915570E+02  0.27886891596E+03  0.17205579845E+03 0.  0.
         24    2    5    5    0    0 -0.16652544220E+03 -0.14513816472E+03 -0.18530925278E+02  0.23505190849E+03  0.78167734623E+02 0.  0.
          5    1    5    5  501    0  0.32890492868E+02 -0.26470488289E+02 -0.10740990292E+02  0.43817007472E+02  0.47000000000E+01 0. -1.
        -11    1    6    6    0    0 -0.45069392251E+02 -0.89829580650E+02 -0.14430994450E+02  0.10153254295E+03  0.00000000000E+00 0.  1.
         12    1    6    6    0    0 -0.12145604995E+03 -0.55308584066E+02 -0.40999308280E+01  0.13351936554E+03  0.00000000000E+00 0. -1.
         -5    1    3    3    0  503 -0.18667746644E+02  0.13035371269E+02  0.75362155256E+01  0.24439521545E+02  0.47000000000E+01 0.  1.
         11    1    4    4    0    0  0.30342308126E+02  0.65089866049E+02 -0.13023604331E+03  0.14872381551E+03  0.00000000000E+00 0. -1.
        -12    1    4    4    0    0  0.12196038785E+03  0.93483415687E+02 -0.12334681839E+03  0.19704802161E+03  0.00000000000E+00 0.  1.
</event>
<event>
12    1  0.8494789E-002  0.2046760E+03  0.7818608E-02  0.1146012E+00
         21   -1    0    0  503  502  0.00000000000E+00  0.00000000000E+00  0.55123193242E+02  0.55123193242E+02  0.00000000000E+00 0. -1.
         21   -1    0    0  501  503 -0.00000000000E+00 -0.00000000000E+00 -0.78132558406E+03  0.78132558406E+03  0.00000000000E+00 0. -1.
          6    2    1    2  501    0  0.86579044034E+02  0.70949084181E+02 -0.43608025499E+03  0.48139511235E+03  0.17042758577E+03 0.  0.
         24    2    3    3    0    0  0.94089939938E+02  0.42357490766E+01 -0.35446497777E+03  0.37561124726E+03  0.81040300063E+02 0.  0.
         -6    2    1    2    0  502 -0.86579044034E+02 -0.70949084181E+02 -0.29012213582E+03  0.35505366495E+03  0.17135503461E+03 0.  0.
        -24    2    5    5    0    0 -0.89460140270E+01 -0.61487376343E+02 -0.69242844638E+02  0.12069035182E+03  0.76882123236E+02 0.  0.
          5    1    3    3  501    0 -0.75108959042E+01  0.66713335104E+02 -0.81615277221E+02  0.10578386509E+03  0.47000000000E+01 0. -1.
        -11    1    4    4    0    0  0.27120974156E+02 -0.16970217784E+01 -0.18234430843E+02  0.32724938353E+02  0.00000000000E+00 0.  1.
         12    1    4    4    0    0  0.66968965783E+02  0.59327708551E+01 -0.33623054693E+03  0.34288630891E+03  0.00000000000E+00 0. -1.
         -5    1    5    5    0  502 -0.77633030007E+02 -0.94617078380E+01 -0.22087929119E+03  0.23436331312E+03  0.47000000000E+01 0.  1.
         13    1    6    6    0    0 -0.37129320939E+01 -0.61905666917E+02 -0.84351224293E+02  0.10469587624E+03  0.00000000000E+00 0. -1.
        -14    1    6    6    0    0 -0.52330819330E+01  0.41829057405E+00  0.15108379655E+02  0.15994475587E+02  0.00000000000E+00 0.  1.
</event>
<event>
12    1  0.8494789E-002  0.2035110E+03  0.7818608E-02  0.1147050E+00
         21   -1    0    0  503  502  0.00000000000E+00  0.00000000000E+00  0.26847902494E+02  0.26847902494E+02  0.00000000000E+00 0.  1.
         21   -1    0    0  501  503 -0.00000000000E+00 -0.00000000000E+00 -0.19661820419E+04  0.19661820419E+04  0.00000000000E+00 0.  1.
          6    2    1    2  501    0  0.59603944873E+02 -0.90237651331E+02 -0.50455079161E+03  0.54404800367E+03  0.17239856444E+03 0.  0.
         24    2    3    3    0    0  0.82983706595E+02 -0.11387427480E+03 -0.32608146625E+03  0.36244763659E+03  0.72010559084E+02 0.  0.
         -6    2    1    2    0  502 -0.59603944873E+02  0.90237651331E+02 -0.14347833478E+04  0.14489819407E+04  0.17102615435E+03 0.  0.
        -24    2    5    5    0    0 -0.92735301283E+02  0.71580462146E+02 -0.13291283579E+04  0.13365949113E+04  0.78614035372E+02 0.  0.
          5    1    3    3  501    0 -0.23379761721E+02  0.23636623470E+02 -0.17846932536E+03  0.18160036708E+03  0.47000000000E+01 0. -1.
        -11    1    4    4    0    0  0.39057341499E+02 -0.90747944388E+02 -0.15087273449E+03  0.18034202879E+03  0.00000000000E+00 0.  1.
         12    1    4    4    0    0  0.43926365096E+02 -0.23126330413E+02 -0.17520873176E+03  0.18210560780E+03  0.00000000000E+00 0. -1.
         -5    1    5    5    0  502  0.33131356410E+02  0.18657189185E+02 -0.10565498988E+03  0.11238702938E+03  0.47000000000E+01 0.  1.
         11    1    6    6    0    0 -0.36401986045E+02  0.15258111475E+02 -0.84787882555E+03  0.84879704133E+03  0.00000000000E+00 0. -1.
        -12    1    6    6    0    0 -0.56333315239E+02  0.56322350672E+02 -0.48124953233E+03  0.48779786999E+03  0.00000000000E+00 0.  1.
</event>
<event>
12    1  0.8494789E-002  0.2244153E+03  0.7818608E-02  0.1130847E+00
         21   -1    0    0  501  502  0.00000000000E+00  0.00000000000E+00  0.19077306336E+03  0.19077306336E+03  0.00000000000E+00 0.  1.
         21   -1    0    0  502  503 -0.00000000000E+00 -0.00000000000E+00 -0.27358320424E+03  0.27358320424E+03  0.00000000000E+00 0. -1.
         -6    2    1    2    0  503 -0.41115739287E+02  0.13748370845E+03 -0.87793051732E+02  0.23988562654E+03  0.17101233810E+03 0.  0.
        -24    2    3    3    0    0 -0.80362343812E+02  0.14385127376E+03 -0.77676411593E+02  0.19859061156E+03  0.79077878169E+02 0.  0.
          6    2    1    2  501    0  0.41115739287E+02 -0.13748370845E+03  0.49829108544E+01  0.22447064106E+03  0.17253974961E+03 0.  0.
         24    2    5    5    0    0  0.78777180864E+02 -0.10298718605E+03 -0.39357580735E+02  0.15667268067E+03  0.78645438469E+02 0.  0.
          5    1    5    5  501    0 -0.37661441577E+02 -0.34496522400E+02  0.44340491590E+02  0.67797960395E+02  0.47000000000E+01 0. -1.
        -11    1    6    6    0    0  0.41291059012E+02 -0.10413596570E+03 -0.17841524283E+02  0.11343531591E+03  0.00000000000E+00 0.  1.
         12    1    6    6    0    0  0.37486121853E+02  0.11487796520E+01 -0.21516056452E+02  0.43237364762E+02  0.00000000000E+00 0. -1.
         -5    1    3    3    0  503  0.39246604525E+02 -0.63675653108E+01 -0.10116640139E+02  0.41295014982E+02  0.47000000000E+01 0.  1.
         13    1    4    4    0    0 -0.21827492779E+02 -0.46268503868E+01 -0.34613685158E+01  0.22579376819E+02  0.00000000000E+00 0. -1.
        -14    1    4    4    0    0 -0.58534851033E+02  0.14847812414E+03 -0.74215043077E+02  0.17601123474E+03  0.00000000000E+00 0.  1.
</event>
<event>
12    1  0.8494789E-002  0.2564745E+03  0.7818608E-02  0.1109556E+00
         21   -1    0    0  501  502  0.00000000000E+00  0.00000000000E+00  0.43643375117E+03  0.43643375117E+03  0.00000000000E+00 0.  1.
         21   -1    0    0  502  503 -0.00000000000E+00 -0.00000000000E+00 -0.14969721811E+03  0.14969721811E+03  0.00000000000E+00 0.  1.
         -6    2    1    2    0  503 -0.12354437571E+01  0.18749205350E+03  0.14716552352E+03  0.29413913675E+03  0.17235238323E+03 0.  0.
        -24    2    3    3    0    0  0.45515695767E+02  0.42484613203E+02  0.68089010566E+02  0.12241839924E+03  0.80458251239E+02 0.  0.
          6    2    1    2  501    0  0.12354437571E+01 -0.18749205350E+03  0.13957100954E+03  0.29199183253E+03  0.17499819174E+03 0.  0.
         24    2    5    5    0    0  0.36518986589E+02 -0.19731628709E+03  0.99585773456E+02  0.23756432969E+03  0.79070417562E+02 0.  0.
          5    1    5    5  501    0 -0.35283542832E+02  0.98242335925E+01  0.39985236081E+02  0.54427502835E+02  0.47000000000E+01 0. -1.
        -11    1    6    6    0    0  0.57679350572E+02 -0.98752231577E+02  0.61068327163E+02  0.12964664017E+03  0.00000000000E+00 0.  1.
         12    1    6    6    0    0 -0.21160363983E+02 -0.98564055517E+02  0.38517446293E+02  0.10791768953E+03  0.00000000000E+00 0. -1.
         -5    1    3    3    0  503 -0.46751139524E+02  0.14500744030E+03  0.79076512956E+02  0.17172073751E+03  0.47000000000E+01 0.  1.
         11    1    4    4    0    0  0.47826159438E+02  0.61309911833E+02  0.68234321451E+02  0.10345129018E+03  0.00000000000E+00 0. -1.
        -12    1    4    4    0    0 -0.23104636706E+01 -0.18825298630E+02 -0.14531088536E+00  0.18967109062E+02  0.00000000000E+00 0.  1.
</event>
<event>
12    1  0.8494789E-002  0.3321739E+03  0.7818608E-02  0.1070192E+00
         21   -1    0    0  501  502  0.00000000000E+00  0.00000000000E+00  0.15267677838E+04  0.15267677838E+04  0.00000000000E+00 0. -1.
         21   -1    0    0  502  503 -0.00000000000E+00 -0.00000000000E+00 -0.74366959360E+02  0.74366959360E+02  0.00000000000E+00 0.  1.
         -6    2    1    2    0  503 -0.96674606722E+02  0.26718928061E+03  0.59085076312E+03  0.67776697702E+03  0.17183526882E+03 0.  0.
        -24    2    3    3    0    0 -0.12084778441E+03  0.16087755185E+03  0.30373091313E+03  0.37060834626E+03  0.67913953238E+02 0.  0.
          6    2    1    2  501    0  0.96674606722E+02 -0.26718928061E+03  0.86155006128E+03  0.92336776610E+03  0.17205647944E+03 0.  0.
         24    2    5    5    0    0 -0.27286989100E+01 -0.59277701654E+02  0.21812243720E+03  0.23989908410E+03  0.80329827790E+02 0.  0.
          5    1    5    5  501    0  0.99403305632E+02 -0.20791157895E+03  0.64342762408E+03  0.68346868199E+03  0.47000000000E+01 0. -1.
        -11    1    6    6    0    0  0.33470805314E+02 -0.46940137585E+02  0.16227720811E+03  0.17221371489E+03  0.00000000000E+00 0.  1.
         12    1    6    6    0    0 -0.36199504224E+02 -0.12337564069E+02  0.55845229086E+02  0.67685369209E+02  0.00000000000E+00 0. -1.
         -5    1    3    3    0  503  0.24173177692E+02  0.10631172876E+03  0.28711984999E+03  0.30715863076E+03  0.47000000000E+01 0.  1.
         13    1    4    4    0    0 -0.64406886079E+02  0.10199757485E+03  0.23415669683E+03  0.26340294402E+03  0.00000000000E+00 0. -1.
        -14    1    4    4    0    0 -0.56440898335E+02  0.58879976999E+02  0.69574216300E+02  0.10720540224E+03  0.00000000000E+00 0.  1.
</event>
<event>
12    1  0.8494789E-002  0.2377327E+03  0.7818608E-02  0.1123247E+00
         21   -1    0    0  501  502  0.00000000000E+00  0.00000000000E+00  0.84350664178E+03  0.84350664178E+03  0.00000000000E+00 0.  1.
         21   -1    0    0  502  503 -0.00000000000E+00 -0.00000000000E+00 -0.96385004551E+02  0.96385004551E+02  0.00000000000E+00 0.  1.
         -6    2    1    2    0  503  0.15793025205E+03  0.40368710606E+02  0.94773749876E+02  0.24557573419E+03  0.15733334118E+03 0.  0.
        -24    2    3    3    0    0  0.26382376949E+02  0.35106814445E+02  0.54035625443E+02  0.10768369026E+03  0.82142620471E+02 0.  0.
          6    2    1    2  501    0 -0.15793025205E+03 -0.40368710606E+02  0.65234788736E+03  0.69431591215E+03  0.17304687924E+03 0.  0.
         24    2    5    5    0    0 -0.24502473525E+02 -0.66465640044E+01  0.37959750684E+03  0.38877538239E+03  0.80046753411E+02 0.  0.
          5    1    5    5  501    0 -0.13342777852E+03 -0.33722146602E+02  0.27275038052E+03  0.30554052976E+03  0.47000000000E+01 0. -1.
        -13    1    6    6    0    0 -0.42634190613E+02  0.28639675629E+01  0.10424575078E+03  0.11266345048E+03  0.00000000000E+00 0.  1.
         14    1    6    6    0    0  0.18131717088E+02 -0.95105315674E+01  0.27535175606E+03  0.27611193190E+03  0.00000000000E+00 0. -1.
         -5    1    3    3    0  503  0.13154787510E+03  0.52618961607E+01  0.40738124433E+02  0.13789204392E+03  0.47000000000E+01 0.  1.
         13    1    4    4    0    0 -0.25205364114E+02 -0.39615119673E+01  0.38747789294E+01  0.25807322003E+02  0.00000000000E+00 0. -1.
        -14    1    4    4    0    0  0.51587741063E+02  0.39068326413E+02  0.50160846513E+02  0.81876368261E+02  0.00000000000E+00 0.  1.
</event>
<event>
12    1  0.8494789E-002  0.1776460E+03  0.7818608E-02  0.1170590E+00
         21   -1    0    0  501  502  0.00000000000E+00  0.00000000000E+00  0.15619664303E+03  0.15619664303E+03  0.00000000000E+00 0. -1.
         21   -1    0    0  502  503 -0.00000000000E+00 -0.00000000000E+00 -0.21703705893E+03  0.21703705893E+03  0.00000000000E+00 0. -1.
         -6    2    1    2    0  503 -0.24497923540E+02 -0.43254695738E+02 -0.82854879431E+02  0.19422887575E+03  0.16848978654E+03 0.  0.
        -24    2    3    3    0    0 -0.59747530181E+02  0.17836538719E+02 -0.26310691608E+02  0.10370811088E+03  0.78582506279E+02 0.  0.
          6    2    1    2  501    0  0.24497923540E+02  0.43254695738E+02  0.22014463524E+02  0.17900482621E+03  0.17054903764E+03 0.  0.
         24    2    5    5    0    0  0.21597803128E+02  0.85191087586E+02 -0.17166931852E+02  0.12134770693E+03  0.81893686722E+02 0.  0.
          5    1    5    5  501    0  0.29001204117E+01 -0.41936391849E+02  0.39181395376E+02  0.57657119277E+02  0.47000000000E+01 0. -1.
        -13    1    6    6    0    0  0.31611517016E+02  0.55186871776E+02 -0.46044479616E+02  0.78517341572E+02  0.00000000000E+00 0.  1.
         14    1    6    6    0    0 -0.10013713888E+02  0.30004215810E+02  0.28877547764E+02  0.42830365362E+02  0.00000000000E+00 0. -1.
         -5    1    3    3    0  503  0.35249606641E+02 -0.61091234457E+02 -0.56544187822E+02  0.90520764868E+02  0.47000000000E+01 0.  1.
         11    1    4    4    0    0 -0.23701974784E+02 -0.31366156311E+02 -0.96976831392E+01  0.40492770079E+02  0.00000000000E+00 0. -1.
        -12    1    4    4    0    0 -0.36045555397E+02  0.49202695031E+02 -0.16613008469E+02  0.63215340801E+02  0.00000000000E+00 0.  1.
</event>
<event>
12    1  0.8494789E-002  0.1789394E+03  0.7818608E-02  0.1169076E+00
         21   -1    0    0  503  502  0.00000000000E+00  0.00000000000E+00  0.17777055739E+03  0.17777055739E+03  0.00000000000E+00 0. -1.
         21   -1    0    0  501  503 -0.00000000000E+00 -0.00000000000E+00 -0.18081401786E+03  0.18081401786E+03  0.00000000000E+00 0. -1.
          6    2    1    2  501    0 -0.23672812247E+02  0.41013921316E+02  0.15845990098E+02  0.17865096547E+03  0.17152996321E+03 0.  0.
         24    2    3    3    0    0 -0.53937287222E+02 -0.16994469195E+02  0.56461139824E+01  0.11226543023E+03  0.96817381118E+02 0.  0.
         -6    2    1    2    0  502  0.23672812247E+02 -0.41013921316E+02 -0.18889450569E+02  0.17993360979E+03  0.17255940660E+03 0.  0.
        -24    2    5    5    0    0  0.81547420963E+02 -0.27671192123E+02  0.53171838716E+01  0.11562536842E+03  0.76975818536E+02 0.  0.
          5    1    3    3  501    0  0.30264474975E+02  0.58008390511E+02  0.10199876116E+02  0.66385535231E+02  0.47000000000E+01 0. -1.
        -13    1    4    4    0    0 -0.44251975941E+02  0.35514138040E+02 -0.76140523043E+01  0.57249149932E+02  0.00000000000E+00 0.  1.
         14    1    4    4    0    0 -0.96853112809E+01 -0.52508607235E+02  0.13260166287E+02  0.55016280302E+02  0.00000000000E+00 0. -1.
         -5    1    5    5    0  502 -0.57874608716E+02 -0.13342729193E+02 -0.24206634441E+02  0.64308241364E+02  0.47000000000E+01 0.  1.
         13    1    6    6    0    0 -0.90149407454E+01 -0.20459134303E+02  0.10350581174E+02  0.24636961333E+02  0.00000000000E+00 0. -1.
        -14    1    6    6    0    0  0.90562361709E+02 -0.72120578192E+01 -0.50333973025E+01  0.90988407089E+02  0.00000000000E+00 0.  1.
</event>
<event>
12    1  0.8494789E-002  0.1946359E+03  0.7818608E-02  0.1154817E+00
         21   -1    0    0  501  502  0.00000000000E+00  0.00000000000E+00  0.95293703657E+02  0.95293703657E+02  0.00000000000E+00 0.  1.
         21   -1    0    0  502  503 -0.00000000000E+00 -0.00000000000E+00 -0.47585183343E+03  0.47585183343E+03  0.00000000000E+00 0. -1.
         -6    2    1    2    0  503 -0.45596261992E+02 -0.74032873771E+02 -0.30844335126E+03  0.36357949016E+03  0.17173485151E+03 0.  0.
        -24    2    3    3    0    0  0.22160755502E+02 -0.75209354569E+01 -0.77686982772E+02  0.11400897316E+03  0.80094413750E+02 0.  0.
          6    2    1    2  501    0  0.45596261992E+02  0.74032873771E+02 -0.72114778512E+02  0.20756604693E+03  0.17413568575E+03 0.  0.
         24    2    5    5    0    0  0.34303481382E+02  0.11026153204E+03 -0.21743081856E+02  0.14432491792E+03  0.83800871369E+02 0.  0.
          5    1    5    5  501    0  0.11292780610E+02 -0.36228658267E+02 -0.50371696656E+02  0.63241129004E+02  0.47000000000E+01 0. -1.
        -13    1    6    6    0    0 -0.22077594903E+02  0.10993299728E+02 -0.17207305930E+02  0.30072648919E+02  0.00000000000E+00 0.  1.
         14    1    6    6    0    0  0.56381076285E+02  0.99268232311E+02 -0.45357759261E+01  0.11425226900E+03  0.00000000000E+00 0. -1.
         -5    1    3    3    0  503 -0.67757017494E+02 -0.66511938315E+02 -0.23075636849E+03  0.24957051700E+03  0.47000000000E+01 0.  1.
         11    1    4    4    0    0 -0.95840258896E+01  0.26375871797E+02 -0.56245212344E+02  0.62857490221E+02  0.00000000000E+00 0. -1.
        -12    1    4    4    0    0  0.31744781392E+02 -0.33896807254E+02 -0.21441770428E+02  0.51151482937E+02  0.00000000000E+00 0.  1.
</event>
<event>
12    1  0.8494789E-002  0.1990189E+03  0.7818608E-02  0.1150728E+00
         21   -1    0    0  503  502  0.00000000000E+00  0.00000000000E+00  0.30985305285E+03  0.30985305285E+03  0.00000000000E+00 0.  1.
         21   -1    0    0  501  503 -0.00000000000E+00 -0.00000000000E+00 -0.14660799280E+03  0.14660799280E+03  0.00000000000E+00 0. -1.
          6    2    1    2  501    0  0.99547559194E+02 -0.23058809041E+01 -0.96045908987E+00  0.19902123029E+03  0.17231800253E+03 0.  0.
         24    2    3    3    0    0  0.57266204656E+02  0.55756920891E+02  0.37212610128E+02  0.11754561978E+03  0.77742793581E+02 0.  0.
         -6    2    1    2    0  502 -0.99547559194E+02  0.23058809041E+01  0.16420551914E+03  0.25743981536E+03  0.17145486984E+03 0.  0.
        -24    2    5    5    0    0 -0.12906324493E+03  0.25271584110E+02  0.98825285049E+02  0.18197284088E+03  0.77792696952E+02 0.  0.
          5    1    3    3  501    0  0.42281354538E+02 -0.58062801795E+02 -0.38173069218E+02  0.81475610506E+02  0.47000000000E+01 0. -1.
        -13    1    4    4    0    0  0.34546769815E+01  0.48069478398E+02  0.40694216539E+02  0.63076372805E+02  0.00000000000E+00 0.  1.
         14    1    4    4    0    0  0.53811527675E+02  0.76874424930E+01 -0.34816064109E+01  0.54469246974E+02  0.00000000000E+00 0. -1.
         -5    1    5    5    0  502  0.29515685732E+02 -0.22965703206E+02  0.65380234090E+02  0.75466974483E+02  0.47000000000E+01 0.  1.
         11    1    6    6    0    0 -0.38295954637E+02  0.21132040853E+02 -0.49759712100E+01  0.44021626295E+02  0.00000000000E+00 0. -1.
        -12    1    6    6    0    0 -0.90767290289E+02  0.41395432570E+01  0.10380125626E+03  0.13795121459E+03  0.00000000000E+00 0.  1.
</event>
<event>
12    1  0.8494789E-002  0.1722097E+03  0.7818608E-02  0.1175973E+00
         21   -1    0    0  501  502  0.00000000000E+00  0.00000000000E+00  0.81578635820E+02  0.81578635820E+02  0.00000000000E+00 0. -1.
         21   -1    0    0  502  503 -0.00000000000E+00 -0.00000000000E+00 -0.87677780766E+03  0.87677780766E+03  0.00000000000E+00 0. -1.
         -6    2    1    2    0  503 -0.81476179944E+01  0.49692352205E+01 -0.76617344737E+03  0.78528844245E+03  0.17194507672E+03 0.  0.
        -24    2    3    3    0    0 -0.33544187799E+02 -0.57240744853E+02 -0.52111100223E+03  0.53113738619E+03  0.78412568879E+02 0.  0.
          6    2    1    2  501    0  0.81476179944E+01 -0.49692352205E+01 -0.29025724472E+02  0.17306800104E+03  0.17034953280E+03 0.  0.
         24    2    5    5    0    0  0.46909152339E+02 -0.26455986309E+02 -0.65630867753E+02  0.11539509985E+03  0.78155169257E+02 0.  0.
          5    1    5    5  501    0 -0.38761534344E+02  0.21486751089E+02  0.36605143281E+02  0.57672901190E+02  0.47000000000E+01 0. -1.
        -11    1    6    6    0    0  0.14466666196E+02 -0.49769539027E+02 -0.22198561394E+02  0.56383220676E+02  0.00000000000E+00 0.  1.
         12    1    6    6    0    0  0.32442486142E+02  0.23313552718E+02 -0.43432306359E+02  0.59011879169E+02  0.00000000000E+00 0. -1.
         -5    1    3    3    0  503  0.25396569805E+02  0.62209980073E+02 -0.24506244514E+03  0.25415105626E+03  0.47000000000E+01 0.  1.
         11    1    4    4    0    0  0.14171418443E+02  0.28192995451E+01 -0.21774172302E+03  0.21822061198E+03  0.00000000000E+00 0. -1.
        -12    1    4    4    0    0 -0.47715606243E+02 -0.60060044398E+02 -0.30336927921E+03  0.31291677421E+03  0.00000000000E+00 0.  1.
</event>
<event>
12    1  0.8494789E-002  0.1870542E+03  0.7818608E-02  0.1162885E+00
         21   -1    0    0  503  502  0.00000000000E+00  0.00000000000E+00  0.42292409839E+02  0.42292409839E+02  0.00000000000E+00 0.  1.
         21   -1    0    0  501  503 -0.00000000000E+00 -0.00000000000E+00 -0.91896616863E+03  0.91896616863E+03  0.00000000000E+00 0.  1.
          6    2    1    2  501    0  0.27390107497E+01 -0.54419511918E+02 -0.26943626247E+03  0.32800181204E+03  0.17894217980E+03 0.  0.
         24    2    3    3    0    0  0.17685704479E+02 -0.84540304712E+02 -0.99151921513E+02  0.15436566204E+03  0.80856705434E+02 0.  0.
         -6    2    1    2    0  502 -0.27390107497E+01  0.54419511918E+02 -0.60723749633E+03  0.63325676644E+03  0.17119512211E+03 0.  0.
        -24    2    5    5    0    0 -0.18213880275E+02 -0.34963170949E+02 -0.31732304266E+03  0.32944561452E+03  0.79286384489E+02 0.  0.
          5    1    3    3  501    0 -0.14946693729E+02  0.30120792794E+02 -0.17028434095E+03  0.17363615000E+03  0.47000000000E+01 0. -1.
        -11    1    4    4    0    0  0.92177476251E+01 -0.60475313473E+02 -0.11060993653E+03  0.12639932147E+03  0.00000000000E+00 0.  1.
         12    1    4    4    0    0  0.84679568540E+01 -0.24064991239E+02  0.11458015013E+02  0.27966340566E+02  0.00000000000E+00 0. -1.
         -5    1    5    5    0  502  0.15474869526E+02  0.89382682867E+02 -0.28991445367E+03  0.30381115192E+03  0.47000000000E+01 0.  1.
         13    1    6    6    0    0  0.23045935642E+02  0.46517904402E+01 -0.40982461338E+02  0.47247396132E+02  0.00000000000E+00 0. -1.
        -14    1    6    6    0    0 -0.41259815918E+02 -0.39614961390E+02 -0.27634058132E+03  0.28219821838E+03  0.00000000000E+00 0.  1.
</event>
<event>
12    1  0.8494789E-002  0.1746048E+03  0.7818608E-02  0.1173401E+00
         21   -1    0    0  501  502  0.00000000000E+00  0.00000000000E+00  0.15424833726E+03  0.15424833726E+03  0.00000000000E+00 0. -1.
         21   -1    0    0  502  503 -0.00000000000E+00 -0.00000000000E+00 -0.44986640127E+03  0.44986640127E+03  0.00000000000E+00 0. -1.
         -6    2    1    2    0  503 -0.48007063339E+01 -0.29105605955E+02 -0.37472253101E+03  0.41340512155E+03  0.17209484652E+03 0.  0.
        -24    2    3    3    0    0 -0.30849314508E+02 -0.20486842388E+02 -0.37503685875E+03  0.38556626606E+03  0.81469682600E+02 0.  0.
          6    2    1    2  501    0  0.48007063339E+01  0.29105605955E+02  0.79104467011E+02  0.19070961698E+03  0.17100426377E+03 0.  0.
         24    2    5    5    0    0 -0.52393509197E+02  0.18369493923E+02  0.68258520385E+01  0.97797128183E+02  0.80219498326E+02 0.  0.
          5    1    5    5  501    0  0.57194215531E+02  0.10736112031E+02  0.72278614972E+02  0.92912488795E+02  0.47000000000E+01 0. -1.
        -11    1    6    6    0    0  0.56821806929E+01 -0.17974738270E+02 -0.16876800369E+02  0.25302268357E+02  0.00000000000E+00 0.  1.
         12    1    6    6    0    0 -0.58075689890E+02  0.36344232194E+02  0.23702652408E+02  0.72494859826E+02  0.00000000000E+00 0. -1.
         -5    1    3    3    0  503  0.26048608174E+02 -0.86187635667E+01  0.31432774066E+00  0.27838855493E+02  0.47000000000E+01 0.  1.
         11    1    4    4    0    0 -0.51523351555E+02 -0.36664390949E+02 -0.26358833113E+03  0.27106778050E+03  0.00000000000E+00 0. -1.
        -12    1    4    4    0    0  0.20674037047E+02  0.16177548561E+02 -0.11144852763E+03  0.11449848556E+03  0.00000000000E+00 0.  1.
</event>
<event>
12    1  0.8494789E-002  0.2708376E+03  0.7818608E-02  0.1100988E+00
         21   -1    0    0  501  502  0.00000000000E+00  0.00000000000E+00  0.37908767424E+03  0.37908767424E+03  0.00000000000E+00 0.  1.
         21   -1    0    0  502  503 -0.00000000000E+00 -0.00000000000E+00 -0.20257550511E+03  0.20257550511E+03  0.00000000000E+00 0. -1.
         -6    2    1    2    0  503 -0.19940384440E+03  0.56860991703E+02  0.23399288364E+02  0.27054170484E+03  0.17219239769E+03 0.  0.
        -24    2    3    3    0    0 -0.14378607762E+03 -0.33985442257E+02 -0.85297906733E+01  0.15924046211E+03  0.58781978890E+02 0.  0.
          6    2    1    2  501    0  0.19940384440E+03 -0.56860991703E+02  0.15311288076E+03  0.31112147451E+03  0.17423533542E+03 0.  0.
         24    2    5    5    0    0  0.17629537069E+03 -0.87350062421E+02  0.77410969382E+02  0.22617175775E+03  0.80318831504E+02 0.  0.
          5    1    5    5  501    0  0.23108473711E+02  0.30489070719E+02  0.75701911381E+02  0.84949716758E+02  0.47000000000E+01 0. -1.
        -11    1    6    6    0    0  0.27844868241E+02 -0.50170070548E+02  0.73045472884E+01  0.57842277594E+02  0.00000000000E+00 0.  1.
         12    1    6    6    0    0  0.14845050245E+03 -0.37179991873E+02  0.70106422093E+02  0.16832948016E+03  0.00000000000E+00 0. -1.
         -5    1    3    3    0  503 -0.55617766780E+02  0.90846433960E+02  0.31929079038E+02  0.11130124273E+03  0.47000000000E+01 0.  1.
         11    1    4    4    0    0 -0.23209224097E+02 -0.27687084215E+02 -0.13054809269E+02  0.38414460305E+02  0.00000000000E+00 0. -1.
        -12    1    4    4    0    0 -0.12057685352E+03 -0.62983580424E+01  0.45250185955E+01  0.12082600181E+03  0.00000000000E+00 0.  1.
</event>
<event>
12    1  0.8494789E-002  0.3185458E+03  0.7818608E-02  0.1076957E+00
         21   -1    0    0  501  502  0.00000000000E+00  0.00000000000E+00  0.32411348189E+03  0.32411348189E+03  0.00000000000E+00 0.  1.
         21   -1    0    0  502  503 -0.00000000000E+00 -0.00000000000E+00 -0.31368297500E+03  0.31368297500E+03  0.00000000000E+00 0.  1.
         -6    2    1    2    0  503  0.15902457146E+03  0.21621631750E+03  0.49056752262E+02  0.31691735436E+03  0.16121952200E+03 0.  0.
        -24    2    3    3    0    0  0.10484659392E+03  0.97024323611E+02  0.79685102457E+02  0.18237304756E+03  0.80645429469E+02 0.  0.
          6    2    1    2  501    0 -0.15902457146E+03 -0.21621631750E+03 -0.38626245371E+02  0.32087910253E+03  0.17156078028E+03 0.  0.
         24    2    5    5    0    0 -0.17526483970E+02 -0.39494326083E+02 -0.41754675208E+01  0.91834746333E+02  0.80927168935E+02 0.  0.
          5    1    5    5  501    0 -0.14149808749E+03 -0.17672199142E+03 -0.34450777850E+02  0.22904435620E+03  0.47000000000E+01 0. -1.
        -11    1    6    6    0    0 -0.45856762683E+02 -0.40697061946E+02  0.62364414795E+01  0.61627808148E+02  0.00000000000E+00 0.  1.
         12    1    6    6    0    0  0.28330278713E+02  0.12027358628E+01 -0.10411909000E+02  0.30206938185E+02  0.00000000000E+00 0. -1.
         -5    1    3    3    0  503  0.54177977541E+02  0.11919199389E+03 -0.30628350195E+02  0.13454430680E+03  0.47000000000E+01 0.  1.
         11    1    4    4    0    0 -0.60097328157E+00  0.38919862631E+02  0.39477878300E+02  0.55440235851E+02  0.00000000000E+00 0. -1.
        -12    1    4    4    0    0  0.10544756720E+03  0.58104460981E+02  0.40207224157E+02  0.12693281171E+03  0.00000000000E+00 0.  1.
</event>
<event>
12    1  0.8494789E-002  0.2510619E+03  0.7818608E-02  0.1112895E+00
         21   -1    0    0  501  502  0.00000000000E+00  0.00000000000E+00  0.31564785245E+03  0.31564785245E+03  0.00000000000E+00 0.  1.
         21   -1    0    0  502  503 -0.00000000000E+00 -0.00000000000E+00 -0.46609664437E+03  0.46609664437E+03  0.00000000000E+00 0. -1.
         -6    2    1    2    0  503 -0.54311887465E+02 -0.17316410829E+03 -0.37135056191E+03  0.44733509405E+03  0.17109020140E+03 0.  0.
        -24    2    3    3    0    0 -0.15073960409E+02 -0.39567457835E+02 -0.23559533688E+03  0.25281195647E+03  0.81338272477E+02 0.  0.
          6    2    1    2  501    0  0.54311887465E+02  0.17316410829E+03  0.22090176998E+03  0.33440940277E+03  0.17348333396E+03 0.  0.
         24    2    5    5    0    0 -0.24133243343E+02  0.84678472192E+02  0.16951404973E+03  0.20538950456E+03  0.75478330928E+02 0.  0.
          5    1    5    5  501    0  0.78445130808E+02  0.88485636095E+02  0.51387720254E+02  0.12901989822E+03  0.47000000000E+01 0. -1.
        -13    1    6    6    0    0 -0.11440651014E+02  0.86050096266E+02  0.17173835896E+03  0.19243069272E+03  0.00000000000E+00 0.  1.
         14    1    6    6    0    0 -0.12692592329E+02 -0.13716240738E+01 -0.22243092312E+01  0.12958811835E+02  0.00000000000E+00 0. -1.
         -5    1    3    3    0  503 -0.39237927056E+02 -0.13359665045E+03 -0.13575522503E+03  0.19452313758E+03  0.47000000000E+01 0.  1.
         13    1    4    4    0    0  0.29572301615E+02 -0.36454064633E+02 -0.11945489062E+03  0.12834675977E+03  0.00000000000E+00 0. -1.
        -14    1    4    4    0    0 -0.44646262024E+02 -0.31133932016E+01 -0.11614044627E+03  0.12446519670E+03  0.00000000000E+00 0.  1.
</event>
<event>
12    1  0.8494789E-002  0.1754820E+03  0.7818608E-02  0.1172449E+00
         21   -1    0    0  503  502  0.00000000000E+00  0.00000000000E+00  0.24665505366E+03  0.24665505366E+03  0.00000000000E+00 0.  1.
         21   -1    0    0  501  503 -0.00000000000E+00 -0.00000000000E+00 -0.25721347217E+03  0.25721347217E+03  0.00000000000E+00 0.  1.
          6    2    1    2  501    0 -0.17584616074E+02  0.27669870884E+02 -0.18638977774E+03  0.25545232699E+03  0.17158059810E+03 0.  0.
         24    2    3    3    0    0 -0.38257426399E+02 -0.20524651612E+02 -0.39638210014E+02  0.99541488002E+02  0.80327007550E+02 0.  0.
         -6    2    1    2    0  502  0.17584616074E+02 -0.27669870884E+02  0.17583135923E+03  0.24841619884E+03  0.17239228659E+03 0.  0.
        -24    2    5    5    0    0 -0.43673134615E+02  0.27990597966E+02  0.75988096023E+02  0.11864190623E+03  0.74905907083E+02 0.  0.
          5    1    3    3  501    0  0.20672810325E+02  0.48194522496E+02 -0.14675156772E+03  0.15591083899E+03  0.47000000000E+01 0. -1.
        -13    1    4    4    0    0 -0.44794446578E+02  0.12360349779E+02 -0.46032453443E+02  0.65408772048E+02  0.00000000000E+00 0.  1.
         14    1    4    4    0    0  0.65370201792E+01 -0.32885001391E+02  0.63942434286E+01  0.34132715953E+02  0.00000000000E+00 0. -1.
         -5    1    5    5    0  502  0.61257750690E+02 -0.55660468850E+02  0.99843263212E+02  0.12977429260E+03  0.47000000000E+01 0.  1.
         13    1    6    6    0    0 -0.50392742612E+02  0.18381599623E+02  0.87226691246E+02  0.10240023134E+03  0.00000000000E+00 0. -1.
        -14    1    6    6    0    0  0.67196079963E+01  0.96089983426E+01 -0.11238595223E+02  0.16241674894E+02  0.00000000000E+00 0.  1.
</event>
<event>
12    1  0.8494789E-002  0.2063505E+03  0.7818608E-02  0.1144841E+00
         21   -1    0    0  501  502  0.00000000000E+00  0.00000000000E+00  0.91012155005E+02  0.91012155005E+02  0.00000000000E+00 0. -1.
         21   -1    0    0  502  503 -0.00000000000E+00 -0.00000000000E+00 -0.49110224098E+03  0.49110224098E+03  0.00000000000E+00 0. -1.
         -6    2    1    2    0  503  0.17949152537E+02 -0.10959262678E+03 -0.13079601804E+03  0.24285073256E+03  0.17186088575E+03 0.  0.
        -24    2    3    3    0    0  0.61731080078E+02 -0.55055032374E+02 -0.12918721757E+03  0.17273736279E+03  0.79417104472E+02 0.  0.
          6    2    1    2  501    0 -0.17949152537E+02  0.10959262678E+03 -0.26929406794E+03  0.33926366342E+03  0.17391901095E+03 0.  0.
         24    2    5    5    0    0 -0.70490934241E+02  0.31575674342E+02 -0.12855492216E+03  0.16992116773E+03  0.79880161563E+02 0.  0.
          5    1    5    5  501    0  0.52541781704E+02  0.78016952436E+02 -0.14073914578E+03  0.16934249569E+03  0.47000000000E+01 0. -1.
        -11    1    6    6    0    0  0.37897974749E+01  0.27552917674E+01 -0.72146933515E+02  0.72298922629E+02  0.00000000000E+00 0.  1.
         12    1    6    6    0    0 -0.74280731716E+02  0.28820382575E+02 -0.56407988645E+02  0.97622245103E+02  0.00000000000E+00 0. -1.
         -5    1    3    3    0  503 -0.43781927541E+02 -0.54537594404E+02 -0.16088004704E+01  0.70113369777E+02  0.47000000000E+01 0.  1.
         13    1    4    4    0    0 -0.19406901886E+02 -0.11750109513E+02 -0.26500264129E+02  0.34884909535E+02  0.00000000000E+00 0. -1.
        -14    1    4    4    0    0  0.81137981964E+02 -0.43304922862E+02 -0.10268695344E+03  0.13785245325E+03  0.00000000000E+00 0.  1.
</event>
<event>
12    1  0.8494789E-002  0.4222283E+03  0.7818608E-02  0.1036421E+00
         21   -1    0    0  501  502  0.00000000000E+00  0.00000000000E+00  0.36874943839E+03  0.36874943839E+03  0.00000000000E+00 0.  1.
         21   -1    0    0  502  503 -0.00000000000E+00 -0.00000000000E+00 -0.11528844869E+04  0.11528844869E+04  0.00000000000E+00 0. -1.
         -6    2    1    2    0  503  0.21075696315E+03  0.32180896762E+03  0.18796605530E+03  0.46217747351E+03  0.17406110974E+03 0.  0.
        -24    2    3    3    0    0  0.17637960512E+03  0.16872884102E+03  0.16059016166E+03  0.30284493617E+03  0.79665980487E+02 0.  0.
          6    2    1    2  501    0 -0.21075696315E+03 -0.32180896762E+03 -0.97210110378E+03  0.10594564517E+04  0.17172043565E+03 0.  0.
         24    2    5    5    0    0 -0.23396740061E+03 -0.28984445248E+03 -0.89238521429E+03  0.97036566843E+03  0.80669750234E+02 0.  0.
          5    1    5    5  501    0  0.23210437456E+02 -0.31964515133E+02 -0.79715889498E+02  0.89090783322E+02  0.47000000000E+01 0. -1.
        -13    1    6    6    0    0 -0.13360436193E+03 -0.12233330020E+03 -0.35394444352E+03  0.39760813745E+03  0.00000000000E+00 0.  1.
         14    1    6    6    0    0 -0.10036303867E+03 -0.16751115229E+03 -0.53844077076E+03  0.57275753098E+03  0.00000000000E+00 0. -1.
         -5    1    3    3    0  503  0.34377358030E+02  0.15308012659E+03  0.27375893636E+02  0.15933253734E+03  0.47000000000E+01 0.  1.
         13    1    4    4    0    0  0.13403498492E+03  0.95035997353E+02  0.69916085302E+02  0.17856504966E+03  0.00000000000E+00 0. -1.
        -14    1    4    4    0    0  0.42344620201E+02  0.73692843670E+02  0.90674076363E+02  0.12427988652E+03  0.00000000000E+00 0.  1.
</event>
<event>
12    1  0.8494789E-002  0.1726521E+03  0.7818608E-02  0.1175718E+00
         21   -1    0    0  501  502  0.00000000000E+00  0.00000000000E+00  0.57202187478E+03  0.57202187478E+03  0.00000000000E+00 0. -1.
         21   -1    0    0  502  503 -0.00000000000E+00 -0.00000000000E+00 -0.16817414264E+03  0.16817414264E+03  0.00000000000E+00 0. -1.
         -6    2    1    2    0  503  0.25820534975E+02 -0.28735830431E+02 -0.10604514871E+03  0.20261862347E+03  0.16827443370E+03 0.  0.
        -24    2    3    3    0    0  0.79268622576E+02 -0.12469918271E+02 -0.92679981215E+02  0.14498186724E+03  0.77402516268E+02 0.  0.
          6    2    1    2  501    0 -0.25820534975E+02  0.28735830431E+02  0.50989288085E+03  0.53757739395E+03  0.16585010269E+03 0.  0.
         24    2    5    5    0    0  0.47264457750E+02  0.19937308650E+02  0.25070850483E+03  0.26810112241E+03  0.79950185747E+02 0.  0.
          5    1    5    5  501    0 -0.73084992725E+02  0.87985217819E+01  0.25918437602E+03  0.26947627154E+03  0.47000000000E+01 0. -1.
        -13    1    6    6    0    0  0.31600905580E+02 -0.17031733310E+02  0.40616555130E+02  0.54207026515E+02  0.00000000000E+00 0.  1.
         14    1    6    6    0    0  0.15663552170E+02  0.36969041959E+02  0.21009194970E+03  0.21389409589E+03  0.00000000000E+00 0. -1.
         -5    1    3    3    0  503 -0.53448087601E+02 -0.16265912160E+02 -0.13365167493E+02  0.57636756230E+02  0.47000000000E+01 0.  1.
         13    1    4    4    0    0  0.26347827567E+02  0.31582620963E+02 -0.46465429922E+02  0.62054058225E+02  0.00000000000E+00 0. -1.
        -14    1    4    4    0    0  0.52920795010E+02 -0.44052539234E+02 -0.46214551294E+02  0.82927809019E+02  0.00000000000E+00 0.  1.
</event>
<event>
12    1  0.8494789E-002  0.2272171E+03  0.7818608E-02  0.1128622E+00
         21   -1    0    0  503  502  0.00000000000E+00  0.00000000000E+00  0.12287504128E+03  0.12287504128E+03  0.00000000000E+00 0. -1.
         21   -1    0    0  501  503 -0.00000000000E+00 -0.00000000000E+00 -0.42237796755E+03  0.42237796755E+03  0.00000000000E+00 0. -1.
          6    2    1    2  501    0  0.14802265063E+03 -0.12170769214E+02 -0.16987554031E+03  0.28369929117E+03  0.17195568002E+03 0.  0.
         24    2    3    3    0    0  0.79880717188E+02 -0.59842063008E+02 -0.48201930503E+02  0.13624613702E+03  0.79231195024E+02 0.  0.
         -6    2    1    2    0  502 -0.14802265063E+03  0.12170769214E+02 -0.12962738596E+03  0.26155371767E+03  0.17189605962E+03 0.  0.
        -24    2    5    5    0    0 -0.38933120653E+02 -0.42702790910E+02 -0.22381055820E+02  0.98963747256E+02  0.77159544945E+02 0.  0.
          5    1    3    3  501    0  0.68141933438E+02  0.47671293794E+02 -0.12167360981E+03  0.14745315415E+03  0.47000000000E+01 0. -1.
        -11    1    4    4    0    0  0.67473391987E+02 -0.68456728776E+02 -0.63139617390E+02  0.11500258095E+03  0.00000000000E+00 0.  1.
         12    1    4    4    0    0  0.12407325201E+02  0.86146657684E+01  0.14937686887E+02  0.21243556069E+02  0.00000000000E+00 0. -1.
         -5    1    5    5    0  502 -0.10908952997E+03  0.54873560125E+02 -0.10724633014E+03  0.16258997041E+03  0.47000000000E+01 0.  1.
         11    1    6    6    0    0 -0.23668884260E+02 -0.10112512095E+02 -0.48220793940E+02  0.54660076392E+02  0.00000000000E+00 0. -1.
        -12    1    6    6    0    0 -0.15264236393E+02 -0.32590278816E+02  0.25839738120E+02  0.44303670864E+02  0.00000000000E+00 0.  1.
</event>
<event>
12    1  0.8494789E-002  0.2273293E+03  0.7818608E-02  0.1128641E+00
         21   -1    0    0  501  502  0.00000000000E+00  0.00000000000E+00  0.11282563939E+04  0.11282563939E+04  0.00000000000E+00 0. -1.
         21   -1    0    0  502  503 -0.00000000000E+00 -0.00000000000E+00 -0.11648563898E+03  0.11648563898E+03  0.00000000000E+00 0.  1.
         -6    2    1    2    0  503 -0.60453262528E+02 -0.13484872311E+03  0.20928595720E+02  0.22829060611E+03  0.17274206102E+03 0.  0.
        -24    2    3    3    0    0 -0.19500100822E+02 -0.11120091205E+03 -0.45163849913E+02  0.14688617263E+03  0.82400713576E+02 0.  0.
          6    2    1    2  501    0  0.60453262528E+02  0.13484872311E+03  0.99084215919E+03  0.10164514268E+04  0.17194924670E+03 0.  0.
         24    2    5    5    0    0 -0.24822326062E+02  0.30220926423E+02  0.32134622642E+03  0.33346841390E+03  0.80052067858E+02 0.  0.
          5    1    5    5  501    0  0.85275588590E+02  0.10462779668E+03  0.66949593277E+03  0.68298301285E+03  0.47000000000E+01 0. -1.
        -11    1    6    6    0    0  0.21396053589E+02 -0.13233094499E+02  0.76118882641E+02  0.80168511235E+02  0.00000000000E+00 0.  1.
         12    1    6    6    0    0 -0.46218379652E+02  0.43454020922E+02  0.24522734378E+03  0.25329990266E+03  0.00000000000E+00 0. -1.
         -5    1    3    3    0  503 -0.40953161707E+02 -0.23647811061E+02  0.66092445633E+02  0.81404433487E+02  0.47000000000E+01 0.  1.
         13    1    4    4    0    0  0.19076846431E+02 -0.96603452512E+02 -0.29944298806E+02  0.10292139786E+03  0.00000000000E+00 0. -1.
        -14    1    4    4    0    0 -0.38576947252E+02 -0.14597459535E+02 -0.15219551107E+02  0.43964774764E+02  0.00000000000E+00 0.  1.
</event>
<event>
12    1  0.8494789E-002  0.4134497E+03  0.7818608E-02  0.1039254E+00
         21   -1    0    0  503  502  0.00000000000E+00  0.00000000000E+00  0.27015992561E+03  0.27015992561E+03  0.00000000000E+00 0. -1.
         21   -1    0    0  501  503 -0.00000000000E+00 -0.00000000000E+00 -0.98257424563E+03  0.98257424563E+03  0.00000000000E+00 0. -1.
          6    2    1    2  501    0 -0.33068532510E+03  0.17816543288E+03 -0.73017672971E+03  0.83890313349E+03  0.17176933682E+03 0.  0.
         24    2    3    3    0    0 -0.10074813040E+03  0.21087975278E+02 -0.29253822910E+03  0.32016043388E+03  0.79556265964E+02 0.  0.
         -6    2    1    2    0  502  0.33068532510E+03 -0.17816543288E+03  0.17762409684E+02  0.41383103775E+03  0.17275682011E+03 0.  0.
        -24    2    5    5    0    0  0.26068795714E+03 -0.17546975098E+03  0.63366132731E+02  0.33011313179E+03  0.78813504524E+02 0.  0.
          5    1    3    3  501    0 -0.22993719470E+03  0.15707745760E+03 -0.43763850060E+03  0.51874269961E+03  0.47000000000E+01 0. -1.
        -13    1    4    4    0    0 -0.11849973973E+02  0.25521891741E+02 -0.14616446038E+03  0.14884837359E+03  0.00000000000E+00 0.  1.
         14    1    4    4    0    0 -0.88898156428E+02 -0.44339164632E+01 -0.14637376873E+03  0.17131206029E+03  0.00000000000E+00 0. -1.
         -5    1    5    5    0  502  0.69997367958E+02 -0.26956818980E+01 -0.45603723047E+02  0.83717905956E+02  0.47000000000E+01 0.  1.
         11    1    6    6    0    0  0.12844925024E+03 -0.98229831073E+02 -0.63900855620E+01  0.16183059907E+03  0.00000000000E+00 0. -1.
        -12    1    6    6    0    0  0.13223870690E+03 -0.77239919907E+02  0.69756218293E+02  0.16828253272E+03  0.00000000000E+00 0.  1.
</event>
<event>
12    1  0.8494789E-002  0.2898766E+03  0.7818608E-02  0.1090653E+00
         21   -1    0    0  503  502  0.00000000000E+00  0.00000000000E+00  0.27100008226E+03  0.27100008226E+03  0.00000000000E+00 0.  1.
         21   -1    0    0  501  503 -0.00000000000E+00 -0.00000000000E+00 -0.41112689913E+03  0.41112689913E+03  0.00000000000E+00 0.  1.
          6    2    1    2  501    0 -0.14738468603E+03  0.17838439268E+03 -0.24095358780E+03  0.37694442369E+03  0.17460020002E+03 0.  0.
         24    2    3    3    0    0 -0.28350007880E+02  0.91376877323E+02 -0.17582824204E+03  0.21569008114E+03  0.80331710709E+02 0.  0.
         -6    2    1    2    0  502  0.14738468603E+03 -0.17838439268E+03  0.10082677093E+03  0.30518255771E+03  0.17154334310E+03 0.  0.
        -24    2    5    5    0    0  0.70353471005E+02 -0.11092979892E+03 -0.10787750736E+02  0.15364437191E+03  0.78963195743E+02 0.  0.
          5    1    3    3  501    0 -0.11903467815E+03  0.87007515362E+02 -0.65125345764E+02  0.16125434255E+03  0.47000000000E+01 0. -1.
        -13    1    4    4    0    0 -0.20227600780E+02  0.61971065943E+02 -0.17320996245E+03  0.18507095920E+03  0.00000000000E+00 0.  1.
         14    1    4    4    0    0 -0.81224071005E+01  0.29405811380E+02 -0.26182795884E+01  0.30619121934E+02  0.00000000000E+00 0. -1.
         -5    1    5    5    0  502  0.77031215025E+02 -0.67454593765E+02  0.11161452167E+03  0.15153818580E+03  0.47000000000E+01 0.  1.
         13    1    6    6    0    0 -0.59419793448E-01 -0.46841711888E+02 -0.31184143750E+02  0.56272553920E+02  0.00000000000E+00 0. -1.
        -14    1    6    6    0    0  0.70412890799E+02 -0.64088087032E+02  0.20396393014E+02  0.97371817987E+02  0.00000000000E+00 0.  1.
</event>
<event>
12    1  0.8494789E-002  0.1961780E+03  0.7818608E-02  0.1153295E+00
         21   -1    0    0  501  502  0.00000000000E+00  0.00000000000E+00  0.46798186389E+02  0.46798186389E+02  0.00000000000E+00 0. -1.
         21   -1    0    0  502  503 -0.00000000000E+00 -0.00000000000E+00 -0.83646654512E+03  0.83646654512E+03  0.00000000000E+00 0. -1.
         -6    2    1    2    0  503  0.46986144449E+02 -0.79348721800E+02 -0.32839207065E+03  0.38252730893E+03  0.17315274351E+03 0.  0.
        -24    2    3    3    0    0 -0.19979378007E+02 -0.20709019320E+02 -0.24835919558E+03  0.26273437509E+03  0.80740465677E+02 0.  0.
          6    2    1    2  501    0 -0.46986144449E+02  0.79348721800E+02 -0.46127628808E+03  0.50073742258E+03  0.17163401473E+03 0.  0.
         24    2    5    5    0    0  0.13425980959E+02  0.90701428872E+02 -0.37855456491E+03  0.39757016839E+03  0.79696135502E+02 0.  0.
          5    1    5    5  501    0 -0.60412125407E+02 -0.11352707072E+02 -0.82721723162E+02  0.10316725419E+03  0.47000000000E+01 0. -1.
        -13    1    6    6    0    0 -0.13174791851E+02  0.12197796811E+02 -0.19898531800E+03  0.19979368901E+03  0.00000000000E+00 0.  1.
         14    1    6    6    0    0  0.26600772809E+02  0.78503632061E+02 -0.17956924691E+03  0.19777647938E+03  0.00000000000E+00 0. -1.
         -5    1    3    3    0  503  0.66965522456E+02 -0.58639702480E+02 -0.80032875070E+02  0.11979293383E+03  0.47000000000E+01 0.  1.
         13    1    4    4    0    0  0.46040181663E+01 -0.47656666725E+02 -0.11733367595E+03  0.12672626555E+03  0.00000000000E+00 0. -1.
        -14    1    4    4    0    0 -0.24583396173E+02  0.26947647405E+02 -0.13102551963E+03  0.13600810955E+03  0.00000000000E+00 0.  1.
</event>
<event>
12    1  0.8494789E-002  0.1775305E+03  0.7818608E-02  0.1170421E+00
         21   -1    0    0  501  502  0.00000000000E+00  0.00000000000E+00  0.58003572026E+03  0.58003572026E+03  0.00000000000E+00 0.  1.
         21   -1    0    0  502  503 -0.00000000000E+00 -0.00000000000E+00 -0.18547551031E+03  0.18547551031E+03  0.00000000000E+00 0.  1.
         -6    2    1    2    0  503 -0.29074496233E+02  0.26576103664E+02  0.51957272377E+03  0.54906546484E+03  0.17310532568E+03 0.  0.
        -24    2    3    3    0    0  0.21290861122E+02 -0.27601717405E+02  0.39465600518E+03  0.40381333198E+03  0.78081297953E+02 0.  0.
          6    2    1    2  501    0  0.29074496233E+02 -0.26576103664E+02 -0.12501251382E+03  0.21644576573E+03  0.17224698916E+03 0.  0.
         24    2    5    5    0    0  0.82974043046E+02  0.62734945189E+00 -0.92630643743E+02  0.14777361331E+03  0.79821796804E+02 0.  0.
          5    1    5    5  501    0 -0.53899546812E+02 -0.27203453116E+02 -0.32381870073E+02  0.68672152416E+02  0.47000000000E+01 0. -1.
        -11    1    6    6    0    0  0.16659725767E+02 -0.32913354670E+02 -0.13666264986E+02  0.39339575200E+02  0.00000000000E+00 0.  1.
         12    1    6    6    0    0  0.66314317279E+02  0.33540704122E+02 -0.78964378757E+02  0.10843403811E+03  0.00000000000E+00 0. -1.
         -5    1    3    3    0  503 -0.50365357356E+02  0.54177821069E+02  0.12491671859E+03  0.14525213286E+03  0.47000000000E+01 0.  1.
         11    1    4    4    0    0  0.43807546866E+02 -0.27610052901E+01  0.13390757762E+03  0.14091828716E+03  0.00000000000E+00 0. -1.
        -12    1    4    4    0    0 -0.22516685744E+02 -0.24840712115E+02  0.26074842757E+03  0.26289504482E+03  0.00000000000E+00 0.  1.
</event>
<event>
12    1  0.8494789E-002  0.2303663E+03  0.7818608E-02  0.1128493E+00
         21   -1    0    0  503  502  0.00000000000E+00  0.00000000000E+00  0.34896675568E+03  0.34896675568E+03  0.00000000000E+00 0. -1.
         21   -1    0    0  501  503 -0.00000000000E+00 -0.00000000000E+00 -0.26810701836E+03  0.26810701836E+03  0.00000000000E+00 0. -1.
          6    2    1    2  501    0 -0.13818944760E+02  0.14633260408E+03 -0.16849994573E+03  0.28541352930E+03  0.17738223346E+03 0.  0.
         24    2    3    3    0    0 -0.50204857190E+02  0.13911813285E+03 -0.62580849237E+02  0.17308842872E+03  0.64566701127E+02 0.  0.
         -6    2    1    2    0  502  0.13818944760E+02 -0.14633260408E+03  0.24935968305E+03  0.33166024474E+03  0.16190760377E+03 0.  0.
        -24    2    5    5    0    0 -0.38014020168E+00 -0.15123048977E+03  0.26072859172E+03  0.31224516343E+03  0.81528142395E+02 0.  0.
          5    1    3    3  501    0  0.36385912430E+02  0.72144712313E+01 -0.10591909649E+03  0.11232510058E+03  0.47000000000E+01 0. -1.
        -13    1    4    4    0    0 -0.36321369237E+02  0.23941849109E+02 -0.29120433095E+02  0.52349342170E+02  0.00000000000E+00 0.  1.
         14    1    4    4    0    0 -0.13883487953E+02  0.11517628374E+03 -0.33460416142E+02  0.12073908655E+03  0.00000000000E+00 0. -1.
         -5    1    5    5    0  502  0.14199084962E+02  0.48978856906E+01 -0.11368908669E+02  0.19415081311E+02  0.47000000000E+01 0.  1.
         13    1    6    6    0    0  0.33712833250E+02 -0.74938952756E+02  0.88211747704E+02  0.12055585510E+03  0.00000000000E+00 0. -1.
        -14    1    6    6    0    0 -0.34092973451E+02 -0.76291537013E+02  0.17251684402E+03  0.19168930833E+03  0.00000000000E+00 0.  1.
</event>
<event>
12    1  0.8494789E-002  0.3322065E+03  0.7818608E-02  0.1070467E+00
         21   -1    0    0  501  502  0.00000000000E+00  0.00000000000E+00  0.87861872602E+03  0.87861872602E+03  0.00000000000E+00 0.  1.
         21   -1    0    0  502  503 -0.00000000000E+00 -0.00000000000E+00 -0.17078365192E+03  0.17078365192E+03  0.00000000000E+00 0. -1.
         -6    2    1    2    0  503 -0.27989189559E+03 -0.34885102624E+02  0.82049426052E+02  0.34218890242E+03  0.17551265773E+03 0.  0.
        -24    2    3    3    0    0 -0.13213645187E+03  0.11738705544E+02 -0.20440248265E+02  0.15636190229E+03  0.80208488434E+02 0.  0.
          6    2    1    2  501    0  0.27989189559E+03  0.34885102624E+02  0.62578564806E+03  0.70721347552E+03  0.17025504117E+03 0.  0.
         24    2    5    5    0    0  0.98044398021E+02  0.60302877137E+02  0.33590676252E+03  0.36404233176E+03  0.80276554670E+02 0.  0.
          5    1    5    5  501    0  0.18184749757E+03 -0.25417774513E+02  0.28987888554E+03  0.34317114377E+03  0.47000000000E+01 0. -1.
        -11    1    6    6    0    0  0.91170104480E+02  0.73316241047E+02  0.32585282576E+03  0.34621860610E+03  0.00000000000E+00 0.  1.
         12    1    6    6    0    0  0.68742935407E+01 -0.13013363910E+02  0.10053936755E+02  0.17823725655E+02  0.00000000000E+00 0. -1.
         -5    1    3    3    0  503 -0.14775544372E+03 -0.46623808169E+02  0.10248967432E+03  0.18582700013E+03  0.47000000000E+01 0.  1.
         13    1    4    4    0    0 -0.10471975971E+03  0.41688176423E+02 -0.25155133598E+02  0.11548555266E+03  0.00000000000E+00 0. -1.
        -14    1    4    4    0    0 -0.27416692156E+02 -0.29949470878E+02  0.47148853337E+01  0.40876349622E+02  0.00000000000E+00 0.  1.
</event>
<event>
12    1  0.8494789E-002  0.2016559E+03  0.7818608E-02  0.1148402E+00
         21   -1    0    0  503  502  0.00000000000E+00  0.00000000000E+00  0.31915670088E+03  0.31915670088E+03  0.00000000000E+00 0. -1.
         21   -1    0    0  501  503 -0.00000000000E+00 -0.00000000000E+00 -0.16586553087E+03  0.16586553087E+03  0.00000000000E+00 0. -1.
          6    2    1    2  501    0  0.28713355574E+02  0.10100421881E+03 -0.40322817491E+02  0.20564787918E+03  0.17215926230E+03 0.  0.
         24    2    3    3    0    0 -0.24773849697E+02  0.54689565631E+02  0.28444738953E+02  0.10687037645E+03  0.83710704034E+02 0.  0.
         -6    2    1    2    0  502 -0.28713355574E+02 -0.10100421881E+03  0.19361398750E+03  0.27937435258E+03  0.17186431775E+03 0.  0.
        -24    2    5    5    0    0 -0.23385845706E+02 -0.24500355866E+02  0.18267791808E+03  0.20176693655E+03  0.78686146920E+02 0.  0.
          5    1    3    3  501    0  0.53487205271E+02  0.46314653180E+02 -0.68767556444E+02  0.98777502733E+02  0.47000000000E+01 0. -1.
        -13    1    4    4    0    0  0.66768506560E+01 -0.19254651849E+02  0.15217652224E+02  0.25434207118E+02  0.00000000000E+00 0.  1.
         14    1    4    4    0    0 -0.31450700353E+02  0.73944217480E+02  0.13227086728E+02  0.81436169328E+02  0.00000000000E+00 0. -1.
         -5    1    5    5    0  502 -0.53275098679E+01 -0.76503862945E+02  0.10936069423E+02  0.77607416020E+02  0.47000000000E+01 0.  1.
         13    1    6    6    0    0 -0.37259787456E+01 -0.45697772126E+02  0.58814515464E+02  0.74574234988E+02  0.00000000000E+00 0. -1.
        -14    1    6    6    0    0 -0.19659866961E+02  0.21197416260E+02  0.12386340261E+03  0.12719270157E+03  0.00000000000E+00 0.  1.
</event>
<event>
12    1  0.8494789E-002  0.1984134E+03  0.7818608E-02  0.1151155E+00
         21   -1    0    0  501  502  0.00000000000E+00  0.00000000000E+00  0.34182964724E+03  0.34182964724E+03  0.00000000000E+00 0. -1.
         21   -1    0    0  502  503 -0.00000000000E+00 -0.00000000000E+00 -0.19608911168E+03  0.19608911168E+03  0.00000000000E+00 0. -1.
         -6    2    1    2    0  503 -0.49754996930E+02 -0.83034713255E+02 -0.10014687764E+03  0.22196230540E+03  0.17282229195E+03 0.  0.
        -24    2    3    3    0    0 -0.85675796840E+02 -0.97136567788E+02 -0.10814548513E+03  0.18227308912E+03  0.68936043534E+02 0.  0.
          6    2    1    2  501    0  0.49754996930E+02  0.83034713255E+02  0.24588741320E+03  0.31595645351E+03  0.17319797118E+03 0.  0.
         24    2    5    5    0    0 -0.63538223880E+01  0.90326272498E+02  0.98133444072E+02  0.15766971422E+03  0.83847238328E+02 0.  0.
          5    1    5    5  501    0  0.56108819318E+02 -0.72915592430E+01  0.14775396913E+03  0.15828673929E+03  0.47000000000E+01 0. -1.
        -13    1    6    6    0    0  0.28826037265E+02  0.78366026515E+02  0.51739467388E+02  0.98230071881E+02  0.00000000000E+00 0.  1.
         14    1    6    6    0    0 -0.35179859653E+02  0.11960245983E+02  0.46393976685E+02  0.59439642342E+02  0.00000000000E+00 0. -1.
         -5    1    3    3    0  503  0.35920799910E+02  0.14101854533E+02  0.79986074854E+01  0.39689216283E+02  0.47000000000E+01 0.  1.
         11    1    4    4    0    0 -0.44508842996E+02 -0.95176548426E+01 -0.56493313504E+02  0.72547345431E+02  0.00000000000E+00 0. -1.
        -12    1    4    4    0    0 -0.41166953845E+02 -0.87618912946E+02 -0.51652171622E+02  0.10972574369E+03  0.00000000000E+00 0.  1.
</event>
<event>
12    1  0.8494789E-002  0.1983561E+03  0.7818608E-02  0.1151158E+00
         21   -1    0    0  501  502  0.00000000000E+00  0.00000000000E+00  0.99019789602E+02  0.99019789602E+02  0.00000000000E+00 0.  1.
         21   -1    0    0  502  503 -0.00000000000E+00 -0.00000000000E+00 -0.40585744638E+03  0.40585744638E+03  0.00000000000E+00 0.  1.
         -6    2    1    2    0  503 -0.85981629239E+02 -0.47166344701E+02 -0.19051821136E+03  0.27503154494E+03  0.17241710243E+03 0.  0.
        -24    2    3    3    0    0 -0.10158290295E+03 -0.85613894505E+02 -0.16385760402E+03  0.22548871689E+03  0.79668199070E+02 0.  0.
          6    2    1    2  501    0  0.85981629239E+02  0.47166344701E+02 -0.11631944541E+03  0.22984569105E+03  0.17228268535E+03 0.  0.
         24    2    5    5    0    0  0.12582458439E+03  0.28444048120E+02 -0.85491919285E+02  0.17589745816E+03  0.83607162441E+02 0.  0.
          5    1    5    5  501    0 -0.39842955155E+02  0.18722296581E+02 -0.30827526129E+02  0.53948232890E+02  0.47000000000E+01 0. -1.
        -13    1    6    6    0    0  0.79020986933E+02  0.27068817857E+02 -0.96669816817E+02  0.12775793815E+03  0.00000000000E+00 0.  1.
         14    1    6    6    0    0  0.46803597461E+02  0.13752302636E+01  0.11177897532E+02  0.48139520010E+02  0.00000000000E+00 0. -1.
         -5    1    3    3    0  503  0.15601273709E+02  0.38447549804E+02 -0.26660607341E+02  0.49542828049E+02  0.47000000000E+01 0.  1.
         11    1    4    4    0    0 -0.98561966837E+02 -0.65177944034E+02 -0.16701691006E+03  0.20459050306E+03  0.00000000000E+00 0. -1.
        -12    1    4    4    0    0 -0.30209361110E+01 -0.20435950471E+02  0.31593060361E+01  0.20898213829E+02  0.00000000000E+00 0.  1.
</event>
<event>
12    1  0.8494789E-002  0.2168111E+03  0.7818608E-02  0.1136315E+00
         21   -1    0    0  501  502  0.00000000000E+00  0.00000000000E+00  0.48616888809E+03  0.48616888809E+03  0.00000000000E+00 0. -1.
         21   -1    0    0  502  503 -0.00000000000E+00 -0.00000000000E+00 -0.21706881375E+03  0.21706881375E+03  0.00000000000E+00 0.  1.
         -6    2    1    2    0  503  0.86421757496E+02 -0.97513908858E+02 -0.12740451449E+03  0.25132737623E+03  0.17307760440E+03 0.  0.
        -24    2    3    3    0    0  0.12702689574E+03 -0.79307114091E+02 -0.11247008846E+03  0.20415331866E+03  0.81262575241E+02 0.  0.
          6    2    1    2  501    0 -0.86421757496E+02  0.97513908858E+02  0.39650458882E+03  0.45191032561E+03  0.17328984635E+03 0.  0.
         24    2    5    5    0    0 -0.32225646009E+02  0.60922105777E+02  0.90598354639E+02  0.13905749653E+03  0.79868205467E+02 0.  0.
          5    1    5    5  501    0 -0.54196111488E+02  0.36591803081E+02  0.30590623418E+03  0.31285282908E+03  0.47000000000E+01 0. -1.
        -13    1    6    6    0    0  0.12096013718E+02  0.45904820691E+02  0.14348860673E+02  0.49592901842E+02  0.00000000000E+00 0.  1.
         14    1    6    6    0    0 -0.44321659727E+02  0.15017285086E+02  0.76249493966E+02  0.89464594686E+02  0.00000000000E+00 0. -1.
         -5    1    3    3    0  503 -0.40605138242E+02 -0.18206794767E+02 -0.14934426028E+02  0.47174057575E+02  0.47000000000E+01 0.  1.
         11    1    4    4    0    0  0.28029569617E+02 -0.53023148748E+02 -0.12986670521E+02  0.61365826706E+02  0.00000000000E+00 0. -1.
        -12    1    4    4    0    0  0.98997326121E+02 -0.26283965342E+02 -0.99483417938E+02  0.14278749195E+03  0.00000000000E+00 0.  1.
</event>
<event>
12    1  0.8494789E-002  0.2110890E+03  0.7818608E-02  0.1141173E+00
         21   -1    0    0  503  502  0.00000000000E+00  0.00000000000E+00  0.24511661878E+03  0.24511661878E+03  0.00000000000E+00 0.  1.
         21   -1    0    0  501  503 -0.00000000000E+00 -0.00000000000E+00 -0.34423562821E+03  0.34423562821E+03  0.00000000000E+00 0. -1.
          6    2    1    2  501    0 -0.10476318266E+03  0.55536214001E+02 -0.25339177774E+03  0.32979687413E+03  0.17463959933E+03 0.  0.
         24    2    3    3    0    0 -0.12083820872E+03  0.69188910397E+02 -0.13401616397E+03  0.20848145984E+03  0.78199801044E+02 0.  0.
         -6    2    1    2    0  502  0.10476318266E+03 -0.55536214001E+02  0.15427276831E+03  0.25955537287E+03  0.17178273789E+03 0.  0.
        -24    2    5    5    0    0  0.53435376607E+02 -0.16597116428E+02  0.49487212428E+01  0.96857622341E+02  0.78905674174E+02 0.  0.
          5    1    3    3  501    0  0.16075026060E+02 -0.13652696396E+02 -0.11937561377E+03  0.12131541429E+03  0.47000000000E+01 0. -1.
        -13    1    4    4    0    0 -0.92114533345E+02  0.84376129589E+01 -0.77327636176E+02  0.12056468754E+03  0.00000000000E+00 0.  1.
         14    1    4    4    0    0 -0.28723675371E+02  0.60751297438E+02 -0.56688527796E+02  0.87916772296E+02  0.00000000000E+00 0. -1.
         -5    1    5    5    0  502  0.51327806049E+02 -0.38939097574E+02  0.14932404707E+03  0.16269775053E+03  0.47000000000E+01 0.  1.
         13    1    6    6    0    0  0.69483584758E+02  0.48998424702E+01  0.45704340412E+00  0.69657633435E+02  0.00000000000E+00 0. -1.
        -14    1    6    6    0    0 -0.16048208151E+02 -0.21496958898E+02  0.44916778387E+01  0.27199988907E+02  0.00000000000E+00 0.  1.
</event>
<event>
12    1  0.8494789E-002  0.1823224E+03  0.7818608E-02  0.1166860E+00
         21   -1    0    0  501  502  0.00000000000E+00  0.00000000000E+00  0.11563908300E+03  0.11563908300E+03  0.00000000000E+00 0.  1.
         21   -1    0    0  502  503 -0.00000000000E+00 -0.00000000000E+00 -0.46461109160E+03  0.46461109160E+03  0.00000000000E+00 0.  1.
         -6    2    1    2    0  503  0.45629865596E+02  0.82910757814E+01  0.72598932017E+01  0.18246690404E+03  0.17632537665E+03 0.  0.
        -24    2    3    3    0    0  0.81768537473E+02  0.41558151441E+02  0.30390006715E+02  0.12797108696E+03  0.83903950555E+02 0.  0.
          6    2    1    2  501    0 -0.45629865596E+02 -0.82910757814E+01 -0.35623190181E+03  0.39778327056E+03  0.17082018586E+03 0.  0.
         24    2    5    5    0    0 -0.19053993517E+02 -0.68516670065E+02 -0.16803613852E+03  0.19835124077E+03  0.77778416813E+02 0.  0.
          5    1    5    5  501    0 -0.26575872079E+02  0.60225594283E+02 -0.18819576329E+03  0.19943202979E+03  0.47000000000E+01 0. -1.
        -11    1    6    6    0    0  0.93890421659E+01  0.46538175504E+01 -0.78819142787E+02  0.79512699616E+02  0.00000000000E+00 0.  1.
         12    1    6    6    0    0 -0.28443035683E+02 -0.73170487615E+02 -0.89216995731E+02  0.11883854116E+03  0.00000000000E+00 0. -1.
         -5    1    3    3    0  503 -0.36138671878E+02 -0.33267075659E+02 -0.23130113513E+02  0.54495817079E+02  0.47000000000E+01 0.  1.
         13    1    4    4    0    0  0.34199935103E+02 -0.23013214110E+02 -0.24777416656E+01  0.41296280565E+02  0.00000000000E+00 0. -1.
        -14    1    4    4    0    0  0.47568602370E+02  0.64571365551E+02  0.32867748381E+02  0.86674806398E+02  0.00000000000E+00 0.  1.
</event>
<event>
12    1  0.8494789E-002  0.2083950E+03  0.7818608E-02  0.1143111E+00
         21   -1    0    0  503  502  0.00000000000E+00  0.00000000000E+00  0.10735004260E+03  0.10735004260E+03  0.00000000000E+00 0.  1.
         21   -1    0    0  501  503 -0.00000000000E+00 -0.00000000000E+00 -0.43941915517E+03  0.43941915517E+03  0.00000000000E+00 0. -1.
          6    2    1    2  501    0 -0.11230355451E+03 -0.18034871025E+02 -0.24536351455E+03  0.32105625309E+03  0.17302172827E+03 0.  0.
         24    2    3    3    0    0 -0.14189699061E+03 -0.77684884902E+00 -0.22882160377E+03  0.28272433947E+03  0.86245964191E+02 0.  0.
         -6    2    1    2    0  502  0.11230355451E+03  0.18034871025E+02 -0.86705598029E+02  0.22571294468E+03  0.17461708891E+03 0.  0.
        -24    2    5    5    0    0  0.11601257950E+03  0.15529186026E+02 -0.39135229778E+01  0.14266685498E+03  0.81476632387E+02 0.  0.
          5    1    3    3  501    0  0.29593436104E+02 -0.17258022176E+02 -0.16541910777E+02  0.38331913623E+02  0.47000000000E+01 0. -1.
        -11    1    4    4    0    0 -0.33759721018E+02  0.38906260184E+01 -0.53253666032E+01  0.34397896208E+02  0.00000000000E+00 0.  1.
         12    1    4    4    0    0 -0.10813726959E+03 -0.46674748674E+01 -0.22349623717E+03  0.24832644326E+03  0.00000000000E+00 0. -1.
         -5    1    5    5    0  502 -0.37090249961E+01  0.25056849985E+01 -0.82792075051E+02  0.83046089703E+02  0.47000000000E+01 0.  1.
         11    1    6    6    0    0 -0.28662513273E+01  0.11313031290E+02 -0.19470580976E+02  0.22700299496E+02  0.00000000000E+00 0. -1.
        -12    1    6    6    0    0  0.11887883083E+03  0.42161547363E+01  0.15557057998E+02  0.11996655548E+03  0.00000000000E+00 0.  1.
</event>
<event>
12    1  0.8494789E-002  0.2160373E+03  0.7818608E-02  0.1136957E+00
         21   -1    0    0  501  502  0.00000000000E+00  0.00000000000E+00  0.62730994678E+03  0.62730994678E+03  0.00000000000E+00 0.  1.
         21   -1    0    0  502  503 -0.00000000000E+00 -0.00000000000E+00 -0.74270600778E+02  0.74270600778E+02  0.00000000000E+00 0.  1.
         -6    2    1    2    0  503 -0.35317051649E+02  0.12561849219E+03  0.28226066989E+03  0.35518020890E+03  0.17162341131E+03 0.  0.
        -24    2    3    3    0    0  0.21328947931E+02  0.51076546718E+02  0.22567448713E+03  0.24568428668E+03  0.79800106120E+02 0.  0.
          6    2    1    2  501    0  0.35317051649E+02 -0.12561849219E+03  0.27077867612E+03  0.34640033866E+03  0.17217666354E+03 0.  0.
         24    2    5    5    0    0 -0.86125046512E+01  0.16512499394E+01  0.11971755648E+03  0.14399247062E+03  0.79527582659E+02 0.  0.
          5    1    5    5  501    0  0.43929556300E+02 -0.12726974213E+03  0.15106111964E+03  0.20240786804E+03  0.47000000000E+01 0. -1.
        -13    1    6    6    0    0  0.12485997068E+02 -0.35093741472E+02  0.63124666585E+02  0.73295254586E+02  0.00000000000E+00 0.  1.
         14    1    6    6    0    0 -0.21098501719E+02  0.36744991412E+02  0.56592889892E+02  0.70697216034E+02  0.00000000000E+00 0. -1.
         -5    1    3    3    0  503 -0.56645999581E+02  0.74541945472E+02  0.56586182761E+02  0.10949592222E+03  0.47000000000E+01 0.  1.
         11    1    4    4    0    0  0.11899588469E+02 -0.12474489691E+02  0.12549387446E+03  0.12667251330E+03  0.00000000000E+00 0. -1.
        -12    1    4    4    0    0  0.94293594627E+01  0.63551036409E+02  0.10018061266E+03  0.11901177338E+03  0.00000000000E+00 0.  1.
</event>
<event>
12    1  0.8494789E-002  0.2076533E+03  0.7818608E-02  0.1143554E+00
         21   -1    0    0  501  502  0.00000000000E+00  0.00000000000E+00  0.51451729860E+02  0.51451729860E+02  0.00000000000E+00 0.  1.
         21   -1    0    0  502  503 -0.00000000000E+00 -0.00000000000E+00 -0.83721320723E+03  0.83721320723E+03  0.00000000000E+00 0. -1.
         -6    2    1    2    0  503  0.11282023912E+03 -0.26606501871E+02 -0.41210092837E+03  0.46146186220E+03  0.17228918366E+03 0.  0.
        -24    2    3    3    0    0  0.14149686827E+01  0.32932869340E+02 -0.18723834739E+03  0.20350577809E+03  0.72593573842E+02 0.  0.
          6    2    1    2  501    0 -0.11282023912E+03  0.26606501871E+02 -0.37366054901E+03  0.42720307489E+03  0.17159239207E+03 0.  0.
         24    2    5    5    0    0 -0.94714628512E+01 -0.11172996100E+02 -0.13674554320E+03  0.16593870687E+03  0.92853467364E+02 0.  0.
          5    1    5    5  501    0 -0.10334877627E+03  0.37779497971E+02 -0.23691500580E+03  0.26126436802E+03  0.47000000000E+01 0. -1.
        -13    1    6    6    0    0 -0.48058832697E+02 -0.13480738754E+02 -0.48493107132E+02  0.69591401458E+02  0.00000000000E+00 0.  1.
         14    1    6    6    0    0  0.38587369846E+02  0.23077426543E+01 -0.88252436069E+02  0.96347305411E+02  0.00000000000E+00 0. -1.
         -5    1    3    3    0  503  0.11140527044E+03 -0.59539371211E+02 -0.22486258098E+03  0.25795608411E+03  0.47000000000E+01 0.  1.
         13    1    4    4    0    0 -0.18526248076E+02 -0.12568590810E+02 -0.10554207877E+03  0.10789032271E+03  0.00000000000E+00 0. -1.
        -14    1    4    4    0    0  0.19941216759E+02  0.45501460150E+02 -0.81696268619E+02  0.95615455382E+02  0.00000000000E+00 0.  1.
</event>
<event>
12    1  0.8494789E-002  0.2127408E+03  0.7818608E-02  0.1139527E+00
         21   -1    0    0  501  502  0.00000000000E+00  0.00000000000E+00  0.44582900784E+03  0.44582900784E+03  0.00000000000E+00 0.  1.
         21   -1    0    0  502  503 -0.00000000000E+00 -0.00000000000E+00 -0.12866985260E+03  0.12866985260E+03  0.00000000000E+00 0. -1.
         -6    2    1    2    0  503  0.75167343470E+02 -0.97932583698E+02  0.25779978407E+02  0.21372126216E+03  0.17254347318E+03 0.  0.
        -24    2    3    3    0    0  0.36112840251E+02 -0.80195758961E+02 -0.48107552578E+02  0.12815662923E+03  0.79839138359E+02 0.  0.
          6    2    1    2  501    0 -0.75167343470E+02  0.97932583698E+02  0.29137917684E+03  0.36077759829E+03  0.17325625604E+03 0.  0.
         24    2    5    5    0    0 -0.10308091655E+03  0.92120020452E+02  0.15408127930E+03  0.22047166071E+03  0.75861314373E+02 0.  0.
          5    1    5    5  501    0  0.27913573080E+02  0.58125632461E+01  0.13729789753E+03  0.14030593758E+03  0.47000000000E+01 0. -1.
        -11    1    6    6    0    0 -0.93745016937E+02  0.35409337417E+02  0.96829305087E+02  0.13934799496E+03  0.00000000000E+00 0.  1.
         12    1    6    6    0    0 -0.93358996124E+01  0.56710683036E+02  0.57251974216E+02  0.81123665743E+02  0.00000000000E+00 0. -1.
         -5    1    3    3    0  503  0.39054503219E+02 -0.17736824737E+02  0.73887530985E+02  0.85564632930E+02  0.47000000000E+01 0.  1.
         13    1    4    4    0    0 -0.15708226161E+02 -0.24832019697E+02  0.11650005602E+02  0.31608546342E+02  0.00000000000E+00 0. -1.
        -14    1    4    4    0    0  0.51821066412E+02 -0.55363739264E+02 -0.59757558180E+02  0.96548082886E+02  0.00000000000E+00 0.  1.
</event>
<event>
12    1  0.8494789E-002  0.1881518E+03  0.7818608E-02  0.1160553E+00
         21   -1    0    0  503  502  0.00000000000E+00  0.00000000000E+00  0.11960977908E+02  0.11960977908E+02  0.00000000000E+00 0.  1.
         21   -1    0    0  501  503 -0.00000000000E+00 -0.00000000000E+00 -0.29804368036E+04  0.29804368036E+04  0.00000000000E+00 0.  1.
          6    2    1    2  501    0  0.10294980805E+02  0.74263293376E+02 -0.16691503965E+04  0.16795201540E+04  0.17059858711E+03 0.  0.
         24    2    3    3    0    0 -0.17787149730E+01  0.73662935741E+02 -0.16600770259E+04  0.16636913633E+04  0.81140794447E+02 0.  0.
         -6    2    1    2    0  502 -0.10294980805E+02 -0.74263293376E+02 -0.12993254292E+04  0.13128776276E+04  0.17256903169E+03 0.  0.
        -24    2    5    5    0    0  0.42443433065E+02 -0.48833862492E+01 -0.43409924052E+03  0.44326083878E+03  0.78820860840E+02 0.  0.
          5    1    3    3  501    0  0.12073695778E+02  0.60035763586E+00 -0.90733706763E+01  0.15828790682E+02  0.47000000000E+01 0. -1.
        -13    1    4    4    0    0 -0.36791328391E+02  0.36327139931E+02 -0.54700676463E+03  0.54944486848E+03  0.00000000000E+00 0.  1.
         14    1    4    4    0    0  0.35012613418E+02  0.37335795810E+02 -0.11130702612E+04  0.11142464948E+04  0.00000000000E+00 0. -1.
         -5    1    5    5    0  502 -0.52738413870E+02 -0.69379907127E+02 -0.86522618864E+03  0.86961678878E+03  0.47000000000E+01 0.  1.
         13    1    6    6    0    0 -0.64568216304E+01  0.28338958189E+02 -0.18316480282E+03  0.18545655041E+03  0.00000000000E+00 0. -1.
        -14    1    6    6    0    0  0.48900254695E+02 -0.33222344438E+02 -0.25093443770E+03  0.25780428837E+03  0.00000000000E+00 0.  1.
</event>
<event>
12    1  0.8494789E-002  0.1807733E+03  0.7818608E-02  0.1168851E+00
         21   -1    0    0  503  502  0.00000000000E+00  0.00000000000E+00  0.49330391797E+02  0.49330391797E+02  0.00000000000E+00 0. -1.
         21   -1    0    0  501  503 -0.00000000000E+00 -0.00000000000E+00 -0.10301954485E+04  0.10301954485E+04  0.00000000000E+00 0. -1.
          6    2    1    2  501    0  0.16773059223E+02 -0.42993512703E+02 -0.81804535602E+03  0.83623744237E+03  0.16722762293E+03 0.  0.
         24    2    3    3    0    0 -0.78312308875E+01  0.20467716057E+02 -0.64484169680E+03  0.65008079808E+03  0.79397572508E+02 0.  0.
         -6    2    1    2    0  502 -0.16773059223E+02  0.42993512703E+02 -0.16281970073E+03  0.24328839797E+03  0.17478332870E+03 0.  0.
        -24    2    5    5    0    0 -0.34359471640E+02  0.89682333441E+02 -0.13108947747E+03  0.18397545713E+03  0.86249773905E+02 0.  0.
          5    1    3    3  501    0  0.24604290111E+02 -0.63461228760E+02 -0.17320365921E+03  0.18615664429E+03  0.47000000000E+01 0. -1.
        -13    1    4    4    0    0 -0.41503332156E+02 -0.22129568931E+01 -0.30322157376E+03  0.30605677015E+03  0.00000000000E+00 0.  1.
         14    1    4    4    0    0  0.33672101268E+02  0.22680672951E+02 -0.34162012304E+03  0.34402402793E+03  0.00000000000E+00 0. -1.
         -5    1    5    5    0  502  0.17586412417E+02 -0.46688820739E+02 -0.31730223259E+02  0.59312940845E+02  0.47000000000E+01 0.  1.
         13    1    6    6    0    0 -0.37758331441E+02 -0.80462123091E+00 -0.29771787917E+02  0.48090522604E+02  0.00000000000E+00 0. -1.
        -14    1    6    6    0    0  0.33988598010E+01  0.90486954672E+02 -0.10131768956E+03  0.13588493453E+03  0.00000000000E+00 0.  1.
</event>
<event>
12    1  0.8494789E-002  0.3527230E+03  0.7818608E-02  0.1061663E+00
         21   -1    0    0  501  502  0.00000000000E+00  0.00000000000E+00  0.17755444316E+03  0.17755444316E+03  0.00000000000E+00 0.  1.
         21   -1    0    0  502  503 -0.00000000000E+00 -0.00000000000E+00 -0.86037658541E+03  0.86037658541E+03  0.00000000000E+00 0. -1.
         -6    2    1    2    0  503  0.28223007852E+02 -0.30628578661E+03 -0.11628701200E+03  0.37139763996E+03  0.17264419063E+03 0.  0.
        -24    2    3    3    0    0  0.49811049804E+02 -0.31375101412E+03 -0.11783929367E+03  0.34802516138E+03  0.79464295604E+02 0.  0.
          6    2    1    2  501    0 -0.28223007852E+02  0.30628578661E+03 -0.56653513025E+03  0.66653338860E+03  0.16940242932E+03 0.  0.
         24    2    5    5    0    0 -0.58770099014E+02  0.13149153817E+03 -0.20406637395E+03  0.26293477195E+03  0.82144142675E+02 0.  0.
          5    1    5    5  501    0  0.30547091162E+02  0.17479424845E+03 -0.36246875630E+03  0.40359861665E+03  0.47000000000E+01 0. -1.
        -11    1    6    6    0    0 -0.27883199821E+02  0.14673346470E+02 -0.95250663074E+02  0.10032680970E+03  0.00000000000E+00 0.  1.
         12    1    6    6    0    0 -0.30886899193E+02  0.11681819170E+03 -0.10881571087E+03  0.16260796225E+03  0.00000000000E+00 0. -1.
         -5    1    3    3    0  503 -0.21588041952E+02  0.74652275028E+01  0.15522816701E+01  0.23372478588E+02  0.47000000000E+01 0.  1.
         13    1    4    4    0    0 -0.20974932083E+02 -0.72297642378E+02 -0.18571158219E+02  0.77535700080E+02  0.00000000000E+00 0. -1.
        -14    1    4    4    0    0  0.70785981887E+02 -0.24145337174E+03 -0.99268135456E+02  0.27048946130E+03  0.00000000000E+00 0.  1.
</event>
<event>
12    1  0.8494789E-002  0.2068570E+03  0.7818608E-02  0.1144157E+00
         21   -1    0    0  501  502  0.00000000000E+00  0.00000000000E+00  0.41218535781E+03  0.41218535781E+03  0.00000000000E+00 0.  1.
         21   -1    0    0  502  503 -0.00000000000E+00 -0.00000000000E+00 -0.10583947806E+03  0.10583947806E+03  0.00000000000E+00 0. -1.
         -6    2    1    2    0  503 -0.45918650063E+02 -0.10538618868E+03  0.11552853355E+03  0.23659796987E+03  0.17151380730E+03 0.  0.
        -24    2    3    3    0    0  0.28789516425E+02 -0.20146295569E+02  0.23971404144E+02  0.90817492910E+02  0.80240135348E+02 0.  0.
          6    2    1    2  501    0  0.45918650063E+02  0.10538618868E+03  0.19081734620E+03  0.28142686601E+03  0.17197398092E+03 0.  0.
         24    2    5    5    0    0 -0.37134185572E+02  0.86493680893E+02  0.11185028086E+03  0.16518320912E+03  0.76908404454E+02 0.  0.
          5    1    5    5  501    0  0.83052835635E+02  0.18892507788E+02  0.78967065340E+02  0.11624365688E+03  0.47000000000E+01 0. -1.
        -11    1    6    6    0    0 -0.21637777732E+01 -0.10788072419E+02 -0.22356916610E+01  0.11227767275E+02  0.00000000000E+00 0.  1.
         12    1    6    6    0    0 -0.34970407799E+02  0.97281753312E+02  0.11408597252E+03  0.15395544185E+03  0.00000000000E+00 0. -1.
         -5    1    3    3    0  503 -0.74708166488E+02 -0.85239893112E+02  0.91557129409E+02  0.14578047696E+03  0.47000000000E+01 0.  1.
         11    1    4    4    0    0  0.11735284426E+02 -0.47829980838E+02 -0.18702313466E+01  0.49284092086E+02  0.00000000000E+00 0. -1.
        -12    1    4    4    0    0  0.17054232000E+02  0.27683685269E+02  0.25841635491E+02  0.41533400824E+02  0.00000000000E+00 0.  1.
</event>
<event>
12    1  0.8494789E-002  0.1995163E+03  0.7818608E-02  0.1150149E+00
         21   -1    0    0  501  502  0.00000000000E+00  0.00000000000E+00  0.10634198074E+04  0.10634198074E+04  0.00000000000E+00 0. -1.
         21   -1    0    0  502  503 -0.00000000000E+00 -0.00000000000E+00 -0.48239116091E+02  0.48239116091E+02  0.00000000000E+00 0. -1.
         -6    2    1    2    0  503 -0.40612056558E+02  0.94549211953E+02  0.24450460668E+03  0.31557763307E+03  0.17093228831E+03 0.  0.
        -24    2    3    3    0    0 -0.58802130778E+02  0.62314754514E+02  0.25106981072E+03  0.27769451083E+03  0.82081497746E+02 0.  0.
          6    2    1    2  501    0  0.40612056558E+02 -0.94549211953E+02  0.77067608463E+03  0.79608129042E+03  0.17092366987E+03 0.  0.
         24    2    5    5    0    0  0.74415979401E+02 -0.11671046998E+03  0.59939811720E+03  0.62003567507E+03  0.77505249289E+02 0.  0.
          5    1    5    5  501    0 -0.33803922843E+02  0.22161258028E+02  0.17127796743E+03  0.17604561535E+03  0.47000000000E+01 0. -1.
        -13    1    6    6    0    0 -0.13986484754E+02 -0.12961896010E+02  0.12493609541E+03  0.12638299110E+03  0.00000000000E+00 0.  1.
         14    1    6    6    0    0  0.88402464155E+02 -0.10374857397E+03  0.47446202179E+03  0.49365268397E+03  0.00000000000E+00 0. -1.
         -5    1    3    3    0  503  0.18190074220E+02  0.32234457439E+02 -0.65652040460E+01  0.37883122240E+02  0.47000000000E+01 0.  1.
         13    1    4    4    0    0 -0.39080989618E+02  0.55219709912E+02  0.77536716820E+02  0.10290035261E+03  0.00000000000E+00 0. -1.
        -14    1    4    4    0    0 -0.19721141160E+02  0.70950446025E+01  0.17353309390E+03  0.17479415822E+03  0.00000000000E+00 0.  1.
</event>
<event>
12    1  0.8494789E-002  0.1697510E+03  0.7818608E-02  0.1178294E+00
         21   -1    0    0  503  502  0.00000000000E+00  0.00000000000E+00  0.83214331591E+02  0.83214331591E+02  0.00000000000E+00 0.  1.
         21   -1    0    0  501  503 -0.00000000000E+00 -0.00000000000E+00 -0.35878365635E+03  0.35878365635E+03  0.00000000000E+00 0.  1.
          6    2    1    2  501    0  0.24023586095E+02  0.93299493786E+01 -0.94478080058E+02  0.19427177076E+03  0.16778329076E+03 0.  0.
         24    2    3    3    0    0  0.50288599644E+02 -0.41970826315E+02 -0.89656088507E+02  0.13624624081E+03  0.78957776135E+02 0.  0.
         -6    2    1    2    0  502 -0.24023586095E+02 -0.93299493786E+01 -0.18109124470E+03  0.24772621718E+03  0.16706303938E+03 0.  0.
        -24    2    5    5    0    0 -0.61186430610E+02  0.38277935972E+02 -0.11984826578E+03  0.16158458830E+03  0.80851670925E+02 0.  0.
          5    1    3    3  501    0 -0.26265013549E+02  0.51300775694E+02 -0.48219915509E+01  0.58025529951E+02  0.47000000000E+01 0. -1.
        -11    1    4    4    0    0 -0.11720809792E+02  0.64141482171E+01 -0.42476374481E+02  0.44528205315E+02  0.00000000000E+00 0.  1.
         12    1    4    4    0    0  0.62009409436E+02 -0.48384974533E+02 -0.47179714026E+02  0.91718035493E+02  0.00000000000E+00 0. -1.
         -5    1    5    5    0  502  0.37162844515E+02 -0.47607885350E+02 -0.61242978923E+02  0.86141628887E+02  0.47000000000E+01 0.  1.
         13    1    6    6    0    0 -0.36065356313E+02 -0.20880470565E+02 -0.31058638143E+02  0.51974445455E+02  0.00000000000E+00 0. -1.
        -14    1    6    6    0    0 -0.25121074297E+02  0.59158406537E+02 -0.88789627636E+02  0.10961014284E+03  0.00000000000E+00 0.  1.
</event>
<event>
12    1  0.8494789E-002  0.1929273E+03  0.7818608E-02  0.1155918E+00
         21   -1    0    0  503  502  0.00000000000E+00  0.00000000000E+00  0.68494347152E+02  0.68494347152E+02  0.00000000000E+00 0.  1.
         21   -1    0    0  501  503 -0.00000000000E+00 -0.00000000000E+00 -0.54440820449E+03  0.54440820449E+03  0.00000000000E+00 0.  1.
          6    2    1    2  501    0  0.44215942560E+02 -0.75823420152E+02 -0.22006065367E+03  0.29265617180E+03  0.17180425775E+03 0.  0.
         24    2    3    3    0    0  0.47583781599E+02  0.69027144413E+01 -0.64748773223E+02  0.11659133746E+03  0.84197818254E+02 0.  0.
         -6    2    1    2    0  502 -0.44215942560E+02  0.75823420152E+02 -0.25585320367E+03  0.32024637984E+03  0.17144282240E+03 0.  0.
        -24    2    5    5    0    0  0.37968566252E+02  0.18944021686E+02 -0.14350230884E+03  0.16979913651E+03  0.80239305421E+02 0.  0.
          5    1    3    3  501    0 -0.33678390387E+01 -0.82726134593E+02 -0.15531188045E+03  0.17606483434E+03  0.47000000000E+01 0. -1.
        -13    1    4    4    0    0  0.16590971713E+02 -0.38536708155E+02 -0.27855050425E+02  0.50361116469E+02  0.00000000000E+00 0.  1.
         14    1    4    4    0    0  0.30992809886E+02  0.45439422597E+02 -0.36893722798E+02  0.66230220991E+02  0.00000000000E+00 0. -1.
         -5    1    5    5    0  502 -0.82184508812E+02  0.56879398466E+02 -0.11235089483E+03  0.15044724334E+03  0.47000000000E+01 0.  1.
         13    1    6    6    0    0  0.30488764340E+01 -0.45684686889E+00 -0.12624676391E+03  0.12628440028E+03  0.00000000000E+00 0. -1.
        -14    1    6    6    0    0  0.34919689818E+02  0.19400868555E+02 -0.17255544928E+02  0.43514736221E+02  0.00000000000E+00 0.  1.
</event>
<event>
12    1  0.8494789E-002  0.3268634E+03  0.7818608E-02  0.1072551E+00
         21   -1    0    0  503  502  0.00000000000E+00  0.00000000000E+00  0.32228213271E+03  0.32228213271E+03  0.00000000000E+00 0. -1.
         21   -1    0    0  501  503 -0.00000000000E+00 -0.00000000000E+00 -0.34062730835E+03  0.34062730835E+03  0.00000000000E+00 0.  1.
          6    2    1    2  501    0  0.14532246189E+03 -0.23656608214E+03  0.45541539873E+02  0.33002078492E+03  0.17250378974E+03 0.  0.
         24    2    3    3    0    0  0.13241772321E+03 -0.87019115532E+02  0.27975450582E+02  0.17882063612E+03  0.78021882695E+02 0.  0.
         -6    2    1    2    0  502 -0.14532246189E+03  0.23656608214E+03 -0.63886715517E+02  0.33288865614E+03  0.17219528396E+03 0.  0.
        -24    2    5    5    0    0 -0.13931812412E+03  0.11354220142E+03 -0.59682834092E+01  0.19669922161E+03  0.79709423308E+02 0.  0.
          5    1    3    3  501    0  0.12904738677E+02 -0.14954696661E+03  0.17566089291E+02  0.15120014879E+03  0.47000000000E+01 0. -1.
        -11    1    4    4    0    0  0.34285496722E+02  0.67425754514E+01  0.25175703327E+02  0.43067083105E+02  0.00000000000E+00 0.  1.
         12    1    4    4    0    0  0.98132226490E+02 -0.93761690983E+02  0.27997472547E+01  0.13575355302E+03  0.00000000000E+00 0. -1.
         -5    1    5    5    0  502 -0.60043377701E+01  0.12302388072E+03 -0.57918432108E+02  0.13618943453E+03  0.47000000000E+01 0.  1.
         11    1    6    6    0    0 -0.12434054641E+03  0.81399902223E+02 -0.32848156491E+02  0.15220222386E+03  0.00000000000E+00 0. -1.
        -12    1    6    6    0    0 -0.14977577705E+02  0.32142299199E+02  0.26879873081E+02  0.44496997748E+02  0.00000000000E+00 0.  1.
</event>
<event>
12    1  0.8494789E-002  0.5959357E+03  0.7818608E-02  0.9913901E-01
         21   -1    0    0  503  502  0.00000000000E+00  0.00000000000E+00  0.34672116474E+04  0.34672116474E+04  0.00000000000E+00 0. -1.
         21   -1    0    0  501  503 -0.00000000000E+00 -0.00000000000E+00 -0.12189207502E+03  0.12189207502E+03  0.00000000000E+00 0.  1.
          6    2    1    2  501    0  0.84310396676E+02 -0.56432506235E+03  0.95544854385E+03  0.11260645134E+04  0.17195449780E+03 0.  0.
         24    2    3    3    0    0  0.62122642588E+02 -0.16841814243E+03  0.27318442607E+03  0.33692510737E+03  0.81638862726E+02 0.  0.
         -6    2    1    2    0  502 -0.84310396676E+02  0.56432506235E+03  0.23898710285E+04  0.24630392091E+04  0.17177774429E+03 0.  0.
        -24    2    5    5    0    0 -0.10331637805E+03  0.24382034547E+03  0.10331900843E+04  0.10688764585E+04  0.69946395388E+02 0.  0.
          5    1    3    3  501    0  0.22187754088E+02 -0.39590691991E+03  0.68226411778E+03  0.78913940599E+03  0.47000000000E+01 0. -1.
        -11    1    4    4    0    0  0.60259917534E+02 -0.15450458489E+03  0.18842782117E+03  0.25101388050E+03  0.00000000000E+00 0.  1.
         12    1    4    4    0    0  0.18627250548E+01 -0.13913557541E+02  0.84756604899E+02  0.85911226869E+02  0.00000000000E+00 0. -1.
         -5    1    5    5    0  502  0.19005981377E+02  0.32050471687E+03  0.13566809442E+04  0.13941627506E+04  0.47000000000E+01 0.  1.
         13    1    6    6    0    0 -0.37260097719E+02  0.17073900556E+03  0.69463142914E+03  0.71627714277E+03  0.00000000000E+00 0. -1.
        -14    1    6    6    0    0 -0.66056280334E+02  0.73081339906E+02  0.33855865520E+03  0.35259931569E+03  0.00000000000E+00 0.  1.
</event>
<event>
12    1  0.8494789E-002  0.1915151E+03  0.7818608E-02  0.1157231E+00
         21   -1    0    0  503  502  0.00000000000E+00  0.00000000000E+00  0.44410592263E+03  0.44410592263E+03  0.00000000000E+00 0. -1.
         21   -1    0    0  501  503 -0.00000000000E+00 -0.00000000000E+00 -0.86200244086E+02  0.86200244086E+02  0.00000000000E+00 0. -1.
          6    2    1    2  501    0 -0.91767670166E+01  0.82563741204E+02  0.23481157755E+03  0.30264373957E+03  0.17191792150E+03 0.  0.
         24    2    3    3    0    0 -0.28536840741E+02  0.62835849540E+02  0.52052864748E+02  0.11774690544E+03  0.79950845810E+02 0.  0.
         -6    2    1    2    0  502  0.91767670166E+01 -0.82563741204E+02  0.12309410099E+03  0.22766242715E+03  0.17256024635E+03 0.  0.
        -24    2    5    5    0    0 -0.25793033146E+02 -0.87956958633E+02  0.26453987500E+02  0.12464119024E+03  0.80211630826E+02 0.  0.
          5    1    3    3  501    0  0.19360073724E+02  0.19727891664E+02  0.18275871281E+03  0.18489683413E+03  0.47000000000E+01 0. -1.
        -11    1    4    4    0    0  0.21369641964E+02  0.49524701857E+02  0.27916014432E+02  0.60734352334E+02  0.00000000000E+00 0.  1.
         12    1    4    4    0    0 -0.49906482705E+02  0.13311147683E+02  0.24136850315E+02  0.57012553107E+02  0.00000000000E+00 0. -1.
         -5    1    5    5    0  502  0.34969800163E+02  0.53932174288E+01  0.96640113490E+02  0.10302123690E+03  0.47000000000E+01 0.  1.
         13    1    6    6    0    0 -0.64979789118E+01 -0.29524687285E+02 -0.28936424932E+02  0.41847910068E+02  0.00000000000E+00 0. -1.
        -14    1    6    6    0    0 -0.19295054234E+02 -0.58432271348E+02  0.55390412432E+02  0.82793280175E+02  0.00000000000E+00 0.  1.
</event>
<event>
12    1  0.8494789E-002  0.1760436E+03  0.7818608E-02  0.1172142E+00
         21   -1    0    0  503  502  0.00000000000E+00  0.00000000000E+00  0.27110597908E+03  0.27110597908E+03  0.00000000000E+00 0.  1.
         21   -1    0    0  501  503 -0.00000000000E+00 -0.00000000000E+00 -0.13879562354E+03  0.13879562354E+03  0.00000000000E+00 0.  1.
          6    2    1    2  501    0 -0.22479468497E+02 -0.27255356108E+02 -0.22237235628E+02  0.17564468457E+03  0.17061178045E+03 0.  0.
         24    2    3    3    0    0  0.14397780281E+02 -0.63989817006E+02 -0.51979427399E+02  0.11551116591E+03  0.79617685348E+02 0.  0.
         -6    2    1    2    0  502  0.22479468497E+02  0.27255356108E+02  0.15454759117E+03  0.23425691805E+03  0.17246206764E+03 0.  0.
        -24    2    5    5    0    0  0.26025038028E+02  0.79336465257E+02  0.11676099818E+03  0.16964322288E+03  0.90410812676E+02 0.  0.
          5    1    3    3  501    0 -0.36877248778E+02  0.36734460898E+02  0.29742191771E+02  0.60133518659E+02  0.47000000000E+01 0. -1.
        -11    1    4    4    0    0  0.33135530431E+02 -0.12782522895E+02 -0.49505195413E+02  0.60927174900E+02  0.00000000000E+00 0.  1.
         12    1    4    4    0    0 -0.18737750149E+02 -0.51207294111E+02 -0.24742319860E+01  0.54583991012E+02  0.00000000000E+00 0. -1.
         -5    1    5    5    0  502 -0.35455695314E+01 -0.52081109149E+02  0.37786592991E+02  0.64613695169E+02  0.47000000000E+01 0.  1.
         11    1    6    6    0    0 -0.17622065946E+02 -0.12331253040E+02  0.21882447345E+02  0.30682870002E+02  0.00000000000E+00 0. -1.
        -12    1    6    6    0    0  0.43647103974E+02  0.91667718297E+02  0.94878550832E+02  0.13896035287E+03  0.00000000000E+00 0.  1.
</event>
<event>
12    1  0.8494789E-002  0.2053696E+03  0.7818608E-02  0.1145789E+00
         21   -1    0    0  501  502  0.00000000000E+00  0.00000000000E+00  0.83868571448E+02  0.83868571448E+02  0.00000000000E+00 0.  1.
         21   -1    0    0  502  503 -0.00000000000E+00 -0.00000000000E+00 -0.52097467313E+03  0.52097467313E+03  0.00000000000E+00 0.  1.
         -6    2    1    2    0  503  0.99676623107E+02  0.42974748767E+02 -0.28230447995E+03  0.34766581546E+03  0.17144515628E+03 0.  0.
        -24    2    3    3    0    0  0.88342129005E+02 -0.81172819475E+00 -0.27868718806E+03  0.30204892032E+03  0.75907910138E+02 0.  0.
          6    2    1    2  501    0 -0.99676623107E+02 -0.42974748767E+02 -0.15480162173E+03  0.25717742912E+03  0.17433998317E+03 0.  0.
         24    2    5    5    0    0 -0.29667398474E+02 -0.86926772505E+02 -0.10608632339E+03  0.16111316825E+03  0.79162659517E+02 0.  0.
          5    1    5    5  501    0 -0.70009224633E+02  0.43952023738E+02 -0.48715298339E+02  0.96064260871E+02  0.47000000000E+01 0. -1.
        -11    1    6    6    0    0 -0.50660820049E+02 -0.42603331414E+02 -0.35358924640E+02  0.75045426825E+02  0.00000000000E+00 0.  1.
         12    1    6    6    0    0  0.20993421574E+02 -0.44323441091E+02 -0.70727398752E+02  0.86067741423E+02  0.00000000000E+00 0. -1.
         -5    1    3    3    0  503  0.11334494102E+02  0.43786476962E+02 -0.36172918951E+01  0.45616895137E+02  0.47000000000E+01 0.  1.
         11    1    4    4    0    0  0.20952690509E+02 -0.11935673367E+02 -0.18245548568E+03  0.18404205985E+03  0.00000000000E+00 0. -1.
        -12    1    4    4    0    0  0.67389438496E+02  0.11123945172E+02 -0.96231702378E+02  0.11800686048E+03  0.00000000000E+00 0.  1.
</event>
<event>
12    1  0.8494789E-002  0.1993549E+03  0.7818608E-02  0.1150356E+00
         21   -1    0    0  503  502  0.00000000000E+00  0.00000000000E+00  0.13427177662E+04  0.13427177662E+04  0.00000000000E+00 0.  1.
         21   -1    0    0  501  503 -0.00000000000E+00 -0.00000000000E+00 -0.30488580390E+02  0.30488580390E+02  0.00000000000E+00 0. -1.
          6    2    1    2  501    0  0.59752397249E+02 -0.83099465776E+02  0.53606556185E+03  0.57193412768E+03  0.17107451481E+03 0.  0.
         24    2    3    3    0    0  0.60768548550E+02 -0.14018561360E+02  0.45080152590E+03  0.46209219696E+03  0.80111460997E+02 0.  0.
         -6    2    1    2    0  502 -0.59752397249E+02  0.83099465776E+02  0.77616362396E+03  0.80127221891E+03  0.17067901876E+03 0.  0.
        -24    2    5    5    0    0 -0.75127756675E+01  0.34030494252E+01  0.54659234724E+03  0.55266498262E+03  0.81285708485E+02 0.  0.
          5    1    3    3  501    0 -0.10161513011E+01 -0.69080904415E+02  0.85264035949E+02  0.10984193072E+03  0.47000000000E+01 0. -1.
        -11    1    4    4    0    0  0.33370380756E+02  0.26763724026E+02  0.11467148016E+03  0.12239047184E+03  0.00000000000E+00 0.  1.
         12    1    4    4    0    0  0.27398167793E+02 -0.40782285387E+02  0.33613004574E+03  0.33970172512E+03  0.00000000000E+00 0. -1.
         -5    1    5    5    0  502 -0.52239621581E+02  0.79696416350E+02  0.22957127672E+03  0.24860723629E+03  0.47000000000E+01 0.  1.
         11    1    6    6    0    0  0.42191432194E+01 -0.14531171094E+01 -0.12825113950E+01  0.46430113415E+01  0.00000000000E+00 0. -1.
        -12    1    6    6    0    0 -0.11731918887E+02  0.48561665345E+01  0.54787485864E+03  0.54802197128E+03  0.00000000000E+00 0.  1.
</event>
<event>
12    1  0.8494789E-002  0.1937892E+03  0.7818608E-02  0.1155507E+00
         21   -1    0    0  501  502  0.00000000000E+00  0.00000000000E+00  0.20087805265E+04  0.20087805265E+04  0.00000000000E+00 0.  1.
         21   -1    0    0  502  503 -0.00000000000E+00 -0.00000000000E+00 -0.57607324674E+02  0.57607324674E+02  0.00000000000E+00 0.  1.
         -6    2    1    2    0  503  0.72219348257E+02 -0.42927271756E+02  0.12598817634E+03  0.23114340251E+03  0.17463065888E+03 0.  0.
        -24    2    3    3    0    0  0.91962450910E+02  0.18569111782E+02  0.49106045687E+02  0.13062202516E+03  0.76477483245E+02 0.  0.
          6    2    1    2  501    0 -0.72219348257E+02  0.42927271756E+02  0.18251850255E+04  0.18352444487E+04  0.17252079348E+03 0.  0.
         24    2    5    5    0    0 -0.70660277742E+02  0.34867889175E+02  0.65684030179E+03  0.66686143453E+03  0.84002061013E+02 0.  0.
          5    1    5    5  501    0 -0.15590705150E+01  0.80593825810E+01  0.11683447237E+04  0.11683830142E+04  0.47000000000E+01 0. -1.
        -13    1    6    6    0    0 -0.24941835268E+02  0.50615293645E+02  0.48743386538E+03  0.49068908304E+03  0.00000000000E+00 0.  1.
         14    1    6    6    0    0 -0.45718442474E+02 -0.15747404470E+02  0.16940643641E+03  0.17617235149E+03  0.00000000000E+00 0. -1.
         -5    1    3    3    0  503 -0.19743102653E+02 -0.61496383538E+02  0.76882130655E+02  0.10052137735E+03  0.47000000000E+01 0.  1.
         11    1    4    4    0    0  0.22956359435E+02  0.26208832507E+02  0.50295144886E+02  0.61184139603E+02  0.00000000000E+00 0. -1.
        -12    1    4    4    0    0  0.69006091475E+02 -0.76397207242E+01 -0.11890991988E+01  0.69437885554E+02  0.00000000000E+00 0.  1.
</event>
<event>
12    1  0.8494789E-002  0.1882745E+03  0.7818608E-02  0.1160125E+00
         21   -1    0    0  501  502  0.00000000000E+00  0.00000000000E+00  0.10112768269E+03  0.10112768269E+03  0.00000000000E+00 0.  1.
         21   -1    0    0  502  503 -0.00000000000E+00 -0.00000000000E+00 -0.61131216704E+03  0.61131216704E+03  0.00000000000E+00 0.  1.
         -6    2    1    2    0  503 -0.36502574998E+02  0.66156834614E+02 -0.48794913471E+03  0.52285692944E+03  0.17197629444E+03 0.  0.
        -24    2    3    3    0    0  0.16976474222E+02 -0.90858339757E+00 -0.35648030528E+03  0.36580941399E+03  0.80307490971E+02 0.  0.
          6    2    1    2  501    0  0.36502574998E+02 -0.66156834614E+02 -0.22235349639E+02  0.18958292029E+03  0.17244740689E+03 0.  0.
         24    2    5    5    0    0 -0.37111457241E+02 -0.62762458639E+02  0.11033999825E+02  0.10859225944E+03  0.79712879671E+02 0.  0.
          5    1    5    5  501    0  0.73614032239E+02 -0.33943759746E+01 -0.33269349464E+02  0.80990660847E+02  0.47000000000E+01 0. -1.
        -13    1    6    6    0    0 -0.60535399188E+02 -0.30497762459E+02  0.25682612425E+01  0.67832470364E+02  0.00000000000E+00 0.  1.
         14    1    6    6    0    0  0.23423941947E+02 -0.32264696180E+02  0.84657385823E+01  0.40759789077E+02  0.00000000000E+00 0. -1.
         -5    1    3    3    0  503 -0.53479049219E+02  0.67065418011E+02 -0.13146882943E+03  0.15704751545E+03  0.47000000000E+01 0.  1.
         13    1    4    4    0    0 -0.33148475259E+01 -0.38127789032E+02 -0.20333476621E+03  0.20690515619E+03  0.00000000000E+00 0. -1.
        -14    1    4    4    0    0  0.20291321748E+02  0.37219205635E+02 -0.15314553908E+03  0.15890425779E+03  0.00000000000E+00 0.  1.
</event>
<event>
12    1  0.8494789E-002  0.2229966E+03  0.7818608E-02  0.1131674E+00
         21   -1    0    0  503  502  0.00000000000E+00  0.00000000000E+00  0.10326710189E+03  0.10326710189E+03  0.00000000000E+00 0.  1.
         21   -1    0    0  501  503 -0.00000000000E+00 -0.00000000000E+00 -0.55526355443E+03  0.55526355443E+03  0.00000000000E+00 0.  1.
          6    2    1    2  501    0  0.97211801628E+02 -0.10566347525E+03 -0.34601256387E+03  0.41162973598E+03  0.17058558207E+03 0.  0.
         24    2    3    3    0    0  0.92681220609E+02 -0.80921009731E+02 -0.35536708312E+03  0.38438431811E+03  0.79545721285E+02 0.  0.
         -6    2    1    2    0  502 -0.97211801628E+02  0.10566347525E+03 -0.10598388866E+03  0.24690092034E+03  0.17062407635E+03 0.  0.
        -24    2    5    5    0    0 -0.21899279029E+02  0.74180666961E+02  0.29750410795E+01  0.11067580647E+03  0.79107101426E+02 0.  0.
          5    1    3    3  501    0  0.45305810194E+01 -0.24742465516E+02  0.93545192556E+01  0.27245417866E+02  0.47000000000E+01 0. -1.
        -11    1    4    4    0    0  0.79399386495E+01 -0.14776460248E+02 -0.16428284155E+03  0.16513702925E+03  0.00000000000E+00 0.  1.
         12    1    4    4    0    0  0.84741281959E+02 -0.66144549484E+02 -0.19108424157E+03  0.21924728886E+03  0.00000000000E+00 0. -1.
         -5    1    5    5    0  502 -0.75312522599E+02  0.31482808287E+02 -0.10895892974E+03  0.13622511387E+03  0.47000000000E+01 0.  1.
         13    1    6    6    0    0  0.22881085675E+02  0.12835679591E+02 -0.18078612542E+02  0.31861183024E+02  0.00000000000E+00 0. -1.
        -14    1    6    6    0    0 -0.44780364704E+02  0.61344987370E+02  0.21053653621E+02  0.78814623448E+02  0.00000000000E+00 0.  1.
</event>
<event>
12    1  0.8494789E-002  0.2757317E+03  0.7818608E-02  0.1100009E+00
         21   -1    0    0  503  502  0.00000000000E+00  0.00000000000E+00  0.14701326906E+03  0.14701326906E+03  0.00000000000E+00 0.  1.
         21   -1    0    0  501  503 -0.00000000000E+00 -0.00000000000E+00 -0.59582522813E+03  0.59582522813E+03  0.00000000000E+00 0.  1.
          6    2    1    2  501    0  0.14239125281E+03  0.14947776581E+03 -0.38435577469E+03  0.47302993050E+03  0.18278151510E+03 0.  0.
         24    2    3    3    0    0  0.35646002459E+02 -0.18452516452E-01 -0.85370349860E+02  0.12209112953E+03  0.79671258574E+02 0.  0.
         -6    2    1    2    0  502 -0.14239125281E+03 -0.14947776581E+03 -0.64456184375E+02  0.26980856669E+03  0.16131705306E+03 0.  0.
        -24    2    5    5    0    0 -0.93589624416E+02 -0.30976880602E+02 -0.62336006389E+02  0.14154850321E+03  0.80197357435E+02 0.  0.
          5    1    3    3  501    0  0.10674525035E+03  0.14949621833E+03 -0.29898542483E+03  0.35093880097E+03  0.47000000000E+01 0. -1.
        -11    1    4    4    0    0  0.45221571435E+02 -0.28987582692E+02 -0.69073052286E+02  0.87500611572E+02  0.00000000000E+00 0.  1.
         12    1    4    4    0    0 -0.95755689758E+01  0.28969130176E+02 -0.16297297574E+02  0.34590517958E+02  0.00000000000E+00 0. -1.
         -5    1    5    5    0  502 -0.48801628392E+02 -0.11850088521E+03 -0.21201779861E+01  0.12826006348E+03  0.47000000000E+01 0.  1.
         13    1    6    6    0    0 -0.10669701496E+03 -0.31446230346E+02 -0.45436566516E+02  0.12015656445E+03  0.00000000000E+00 0. -1.
        -14    1    6    6    0    0  0.13107390542E+02  0.46934974397E+00 -0.16899439873E+02  0.21391938763E+02  0.00000000000E+00 0.  1.
</event>
<event>
12    1  0.8494789E-002  0.1810173E+03  0.7818608E-02  0.1167153E+00
         21   -1    0    0  503  502  0.00000000000E+00  0.00000000000E+00  0.53240801285E+03  0.53240801285E+03  0.00000000000E+00 0.  1.
         21   -1    0    0  501  503 -0.00000000000E+00 -0.00000000000E+00 -0.11420481577E+03  0.11420481577E+03  0.00000000000E+00 0.  1.
          6    2    1    2  501    0  0.53332729285E+02 -0.77648172439E+01 -0.11828505687E+02  0.18003537376E+03  0.17137137993E+03 0.  0.
         24    2    3    3    0    0  0.94136615093E+02 -0.79724620942E+01 -0.40796718723E+02  0.12977358331E+03  0.79066732656E+02 0.  0.
         -6    2    1    2    0  502 -0.53332729285E+02  0.77648172439E+01  0.43003170277E+03  0.46657745486E+03  0.17280793845E+03 0.  0.
        -24    2    5    5    0    0 -0.56657732234E+02  0.57014061266E+01  0.12357917728E+03  0.16006390916E+03  0.84297314943E+02 0.  0.
          5    1    3    3  501    0 -0.40803885808E+02  0.20764485030E+00  0.28968213036E+02  0.50261790456E+02  0.47000000000E+01 0. -1.
        -11    1    4    4    0    0  0.98689744551E+02 -0.57144082677E+00 -0.11670778090E+02  0.99379068648E+02  0.00000000000E+00 0.  1.
         12    1    4    4    0    0 -0.45531294577E+01 -0.74010212674E+01 -0.29125940632E+02  0.30394514659E+02  0.00000000000E+00 0. -1.
         -5    1    5    5    0  502  0.33250029481E+01  0.20634111173E+01  0.30645252550E+03  0.30651354569E+03  0.47000000000E+01 0.  1.
         11    1    6    6    0    0  0.86551452862E+00  0.29524008506E+02  0.76508750045E+02  0.82012224864E+02  0.00000000000E+00 0. -1.
        -12    1    6    6    0    0 -0.57523246762E+02 -0.23822602380E+02  0.47070427232E+02  0.78051684300E+02  0.00000000000E+00 0.  1.
</event>
<event>
12    1  0.8494789E-002  0.2484696E+03  0.7818608E-02  0.1114555E+00
         21   -1    0    0  503  502  0.00000000000E+00  0.00000000000E+00  0.82710786384E+02  0.82710786384E+02  0.00000000000E+00 0.  1.
         21   -1    0    0  501  503 -0.00000000000E+00 -0.00000000000E+00 -0.95565121102E+03  0.95565121102E+03  0.00000000000E+00 0.  1.
          6    2    1    2  501    0  0.17029841938E+03 -0.47376499484E+02 -0.68122553468E+03  0.72452807047E+03  0.17212382590E+03 0.  0.
         24    2    3    3    0    0  0.18517410045E+03 -0.84577329758E+01 -0.51155205576E+03  0.54975068142E+03  0.78608684241E+02 0.  0.
         -6    2    1    2    0  502 -0.17029841938E+03  0.47376499484E+02 -0.19171488995E+03  0.31383392694E+03  0.17461686723E+03 0.  0.
        -24    2    5    5    0    0 -0.56114414514E+02  0.30304888713E+02 -0.16506480215E+03  0.19525170212E+03  0.82520448851E+02 0.  0.
          5    1    3    3  501    0 -0.14875681074E+02 -0.38918766508E+02 -0.16967347892E+03  0.17477738905E+03  0.47000000000E+01 0. -1.
        -11    1    4    4    0    0  0.58664567208E+02  0.11993528318E+02 -0.26726114342E+03  0.27388664617E+03  0.00000000000E+00 0.  1.
         12    1    4    4    0    0  0.12650953324E+03 -0.20451261294E+02 -0.24429091234E+03  0.27586403524E+03  0.00000000000E+00 0. -1.
         -5    1    5    5    0  502 -0.11418400486E+03  0.17071610770E+02 -0.26650087805E+02  0.11858222481E+03  0.47000000000E+01 0.  1.
         13    1    6    6    0    0 -0.17498581133E+02  0.44413529392E+02 -0.35977912013E+02  0.59776015989E+02  0.00000000000E+00 0. -1.
        -14    1    6    6    0    0 -0.38615833380E+02 -0.14108640678E+02 -0.12908689013E+03  0.13547568613E+03  0.00000000000E+00 0.  1.
</event>
<event>
12    1  0.8494789E-002  0.1795409E+03  0.7818608E-02  0.1168576E+00
         21   -1    0    0  501  502  0.00000000000E+00  0.00000000000E+00  0.60710868652E+02  0.60710868652E+02  0.00000000000E+00 0. -1.
         21   -1    0    0  502  503 -0.00000000000E+00 -0.00000000000E+00 -0.10172450035E+04  0.10172450035E+04  0.00000000000E+00 0. -1.
         -6    2    1    2    0  503 -0.51227690109E+02  0.10538462382E+02 -0.10502882358E+03  0.20800478508E+03  0.17175448003E+03 0.  0.
        -24    2    3    3    0    0  0.19933688504E+02 -0.25196062550E+02 -0.14845187610E+02  0.87605132777E+02  0.80137919790E+02 0.  0.
          6    2    1    2  501    0  0.51227690109E+02 -0.10538462382E+02 -0.85150531128E+03  0.86995108709E+03  0.17034747828E+03 0.  0.
         24    2    5    5    0    0  0.32133118817E+02 -0.61959155612E+02 -0.36231401526E+03  0.37767179192E+03  0.80579541254E+02 0.  0.
          5    1    5    5  501    0  0.19094571292E+02  0.51420693230E+02 -0.48919129602E+03  0.49227929516E+03  0.47000000000E+01 0. -1.
        -13    1    6    6    0    0  0.34543657140E+02 -0.47208194616E+02 -0.10721185924E+03  0.12213214421E+03  0.00000000000E+00 0.  1.
         14    1    6    6    0    0 -0.24105383230E+01 -0.14750960996E+02 -0.25510215603E+03  0.25553964772E+03  0.00000000000E+00 0. -1.
         -5    1    3    3    0  503 -0.71161378613E+02  0.35734524932E+02 -0.90183635967E+02  0.12039965230E+03  0.47000000000E+01 0.  1.
         11    1    4    4    0    0  0.40542790481E+01  0.17416060455E+02  0.22514704208E+02  0.28751839001E+02  0.00000000000E+00 0. -1.
        -12    1    4    4    0    0  0.15879409456E+02 -0.42612123005E+02 -0.37359891818E+02  0.58853293776E+02  0.00000000000E+00 0.  1.
</event>
<event>
12    1  0.8494789E-002  0.1734354E+03  0.7818608E-02  0.1174520E+00
         21   -1    0    0  501  502  0.00000000000E+00  0.00000000000E+00  0.13450449491E+03  0.13450449491E+03  0.00000000000E+00 0. -1.
         21   -1    0    0  502  503 -0.00000000000E+00 -0.00000000000E+00 -0.25793190595E+03  0.25793190595E+03  0.00000000000E+00 0. -1.
         -6    2    1    2    0  503 -0.65580525952E+01  0.20743581654E+02  0.10801135098E+02  0.17377141965E+03  0.17206550361E+03 0.  0.
        -24    2    3    3    0    0 -0.56521605803E+02 -0.18648353340E+02  0.34575495230E+02  0.10568771094E+03  0.80199590822E+02 0.  0.
          6    2    1    2  501    0  0.65580525952E+01 -0.20743581654E+02 -0.13422854613E+03  0.21866498122E+03  0.17124183829E+03 0.  0.
         24    2    5    5    0    0 -0.40161124208E+02  0.22434022368E+02 -0.12323160639E+03  0.15393469732E+03  0.79960371225E+02 0.  0.
          5    1    5    5  501    0  0.46719176803E+02 -0.43177604023E+02 -0.10996939740E+02  0.64730283902E+02  0.47000000000E+01 0. -1.
        -13    1    6    6    0    0 -0.37477579276E+02 -0.22037998871E+02 -0.37921019726E+02  0.57690953188E+02  0.00000000000E+00 0.  1.
         14    1    6    6    0    0 -0.26835449323E+01  0.44472021239E+02 -0.85310586667E+02  0.96243744129E+02  0.00000000000E+00 0. -1.
         -5    1    3    3    0  503  0.49963553208E+02  0.39391934994E+02 -0.23774360132E+02  0.68083708708E+02  0.47000000000E+01 0.  1.
         11    1    4    4    0    0 -0.89001260336E+01  0.31437463102E+00  0.51070314913E+02  0.51840988996E+02  0.00000000000E+00 0. -1.
        -12    1    4    4    0    0 -0.47621479769E+02 -0.18962727971E+02 -0.16494819682E+02  0.53846721942E+02  0.00000000000E+00 0.  1.
</event>
<event>
12    1  0.8494789E-002  0.2271005E+03  0.7818608E-02  0.1128729E+00
         21   -1    0    0  503  502  0.00000000000E+00  0.00000000000E+00  0.89353701123E+03  0.89353701123E+03  0.00000000000E+00 0.  1.
         21   -1    0    0  501  503 -0.00000000000E+00 -0.00000000000E+00 -0.12171934197E+03  0.12171934197E+03  0.00000000000E+00 0.  1.
          6    2    1    2  501    0  0.11355735526E+03  0.94246587194E+02  0.17760726793E+02  0.22779394086E+03  0.17261791316E+03 0.  0.
         24    2    3    3    0    0  0.43029551763E+02  0.24876370170E+02 -0.51536777354E+02  0.10691949295E+03  0.79406312315E+02 0.  0.
         -6    2    1    2    0  502 -0.11355735526E+03 -0.94246587194E+02  0.75405694247E+03  0.78746241234E+03  0.17238760461E+03 0.  0.
        -24    2    5    5    0    0 -0.32857270888E+02 -0.51774516302E+02  0.60210038129E+03  0.61017939874E+03  0.77677723391E+02 0.  0.
          5    1    3    3  501    0  0.70527803496E+02  0.69370217023E+02  0.69297504147E+02  0.12087444791E+03  0.47000000000E+01 0. -1.
        -13    1    4    4    0    0 -0.20326207296E+02  0.39175823947E+01  0.27663366771E+01  0.20884318841E+02  0.00000000000E+00 0.  1.
         14    1    4    4    0    0  0.63355759059E+02  0.20958787776E+02 -0.54303114031E+02  0.86035174112E+02  0.00000000000E+00 0. -1.
         -5    1    5    5    0  502 -0.80700084371E+02 -0.42472070892E+02  0.15195656118E+03  0.17728301359E+03  0.47000000000E+01 0.  1.
         11    1    6    6    0    0  0.11036306256E+02  0.15991648823E+01  0.13383147129E+02  0.17420275864E+02  0.00000000000E+00 0. -1.
        -12    1    6    6    0    0 -0.43893577144E+02 -0.53373681184E+02  0.58871723416E+03  0.59275912288E+03  0.00000000000E+00 0.  1.
</event>
<event>
12    1  0.8494789E-002  0.1907579E+03  0.7818608E-02  0.1157968E+00
         21   -1    0    0  503  502  0.00000000000E+00  0.00000000000E+00  0.68018864129E+02  0.68018864129E+02  0.00000000000E+00 0. -1.
         21   -1    0    0  501  503 -0.00000000000E+00 -0.00000000000E+00 -0.55904697994E+03  0.55904697994E+03  0.00000000000E+00 0. -1.
          6    2    1    2  501    0  0.61761289780E+02 -0.56023123944E+02 -0.17787640180E+03  0.26082291358E+03  0.17156786004E+03 0.  0.
         24    2    3    3    0    0  0.25326148416E+02 -0.49081284744E+02 -0.19625180059E+03  0.21916413373E+03  0.80422397216E+02 0.  0.
         -6    2    1    2    0  502 -0.61761289780E+02  0.56023123944E+02 -0.31315171400E+03  0.36624293049E+03  0.17063657526E+03 0.  0.
        -24    2    5    5    0    0  0.14867734850E+02  0.55963077971E+02 -0.24280440848E+03  0.26211395077E+03  0.79980164903E+02 0.  0.
          5    1    3    3  501    0  0.36435141364E+02 -0.69418391997E+01  0.18375398789E+02  0.41658779847E+02  0.47000000000E+01 0. -1.
        -13    1    4    4    0    0  0.54479599256E+02 -0.33821424669E+02 -0.11853653869E+03  0.13476953108E+03  0.00000000000E+00 0.  1.
         14    1    4    4    0    0 -0.29153450840E+02 -0.15259860075E+02 -0.77715261902E+02  0.84394602659E+02  0.00000000000E+00 0. -1.
         -5    1    5    5    0  502 -0.76629024630E+02  0.60045972154E-01 -0.70347305529E+02  0.10412897971E+03  0.47000000000E+01 0.  1.
         11    1    6    6    0    0 -0.11131446810E+02  0.46607639456E+02 -0.22307105710E+03  0.22815976350E+03  0.00000000000E+00 0. -1.
        -12    1    6    6    0    0  0.25999181661E+02  0.93554385159E+01 -0.19733351375E+02  0.33954187273E+02  0.00000000000E+00 0.  1.
</event>
<event>
12    1  0.8494789E-002  0.1878940E+03  0.7818608E-02  0.1160382E+00
         21   -1    0    0  501  502  0.00000000000E+00  0.00000000000E+00  0.62908679930E+02  0.62908679930E+02  0.00000000000E+00 0. -1.
         21   -1    0    0  502  503 -0.00000000000E+00 -0.00000000000E+00 -0.71227392119E+03  0.71227392119E+03  0.00000000000E+00 0. -1.
         -6    2    1    2    0  503 -0.72518087069E+02  0.36839567170E+01 -0.50326811364E+03  0.53719917390E+03  0.17329660627E+03 0.  0.
        -24    2    3    3    0    0 -0.11568119990E+03  0.89351057266E+01 -0.33356714239E+03  0.36195323667E+03  0.79253586193E+02 0.  0.
          6    2    1    2  501    0  0.72518087069E+02 -0.36839567170E+01 -0.14609712762E+03  0.23798342722E+03  0.17326077583E+03 0.  0.
         24    2    5    5    0    0  0.45567087971E+02 -0.34695525626E+02 -0.16613308020E+03  0.19203124388E+03  0.77431642656E+02 0.  0.
          5    1    5    5  501    0  0.26950999098E+02  0.31011568909E+02  0.20035952573E+02  0.45952183344E+02  0.47000000000E+01 0. -1.
        -13    1    6    6    0    0 -0.46468857255E+01 -0.44723052271E+02 -0.82886971697E+02  0.94297375512E+02  0.00000000000E+00 0.  1.
         14    1    6    6    0    0  0.50213973697E+02  0.10027526646E+02 -0.83246108499E+02  0.97733868363E+02  0.00000000000E+00 0. -1.
         -5    1    3    3    0  503  0.43163112833E+02 -0.52511490096E+01 -0.16970097124E+03  0.17524593723E+03  0.47000000000E+01 0.  1.
         11    1    4    4    0    0 -0.23261344344E+02  0.88313110674E+01 -0.18722443941E+03  0.18887051889E+03  0.00000000000E+00 0. -1.
        -12    1    4    4    0    0 -0.92419855559E+02  0.10379465926E+00 -0.14634270299E+03  0.17308271778E+03  0.00000000000E+00 0.  1.
</event>
<event>
12    1  0.8494789E-002  0.2462260E+03  0.7818608E-02  0.1115912E+00
         21   -1    0    0  501  502  0.00000000000E+00  0.00000000000E+00  0.18095614965E+03  0.18095614965E+03  0.00000000000E+00 0.  1.
         21   -1    0    0  502  503 -0.00000000000E+00 -0.00000000000E+00 -0.46841998695E+03  0.46841998695E+03  0.00000000000E+00 0.  1.
         -6    2    1    2    0  503 -0.11581123545E+03 -0.13157909898E+03 -0.31832685548E+03  0.40244161350E+03  0.17292184307E+03 0.  0.
        -24    2    3    3    0    0 -0.21340357624E+02 -0.26630672467E+02 -0.53082818674E+02  0.10191639318E+03  0.80028507304E+02 0.  0.
          6    2    1    2  501    0  0.11581123545E+03  0.13157909898E+03  0.30863018187E+02  0.24693452310E+03  0.17116901374E+03 0.  0.
         24    2    5    5    0    0  0.14941303809E+03  0.11563385057E+03  0.11400665415E+02  0.20469466914E+03  0.77939008558E+02 0.  0.
          5    1    5    5  501    0 -0.33601802636E+02  0.15945248410E+02  0.19462352771E+02  0.42239853961E+02  0.47000000000E+01 0. -1.
        -13    1    6    6    0    0  0.98950942334E+02  0.41240799397E+02 -0.20815067379E+02  0.10920329461E+03  0.00000000000E+00 0.  1.
         14    1    6    6    0    0  0.50462095756E+02  0.74393051172E+02  0.32215732794E+02  0.95491374533E+02  0.00000000000E+00 0. -1.
         -5    1    3    3    0  503 -0.94470877830E+02 -0.10494842651E+03 -0.26524403680E+03  0.30052522031E+03  0.47000000000E+01 0.  1.
         11    1    4    4    0    0  0.84272200431E+01  0.14369825237E+01 -0.59841066439E+02  0.60448624376E+02  0.00000000000E+00 0. -1.
        -12    1    4    4    0    0 -0.29767577668E+02 -0.28067654991E+02  0.67582477649E+01  0.41467768806E+02  0.00000000000E+00 0.  1.
</event>
<event>
12    1  0.8494789E-002  0.1929359E+03  0.7818608E-02  0.1155938E+00
         21   -1    0    0  503  502  0.00000000000E+00  0.00000000000E+00  0.11294438105E+03  0.11294438105E+03  0.00000000000E+00 0. -1.
         21   -1    0    0  501  503 -0.00000000000E+00 -0.00000000000E+00 -0.65443887639E+03  0.65443887639E+03  0.00000000000E+00 0. -1.
          6    2    1    2  501    0  0.33953587554E+02 -0.77691289895E+02 -0.54123567700E+03  0.57444715402E+03  0.17281403897E+03 0.  0.
         24    2    3    3    0    0  0.85732700991E+02 -0.63644070984E+02 -0.43846520900E+03  0.45842017422E+03  0.80601816591E+02 0.  0.
         -6    2    1    2    0  502 -0.33953587554E+02  0.77691289895E+02 -0.25881833023E+00  0.19293610342E+03  0.17330750239E+03 0.  0.
        -24    2    5    5    0    0 -0.83514573234E+02  0.17329673046E+02  0.56462106207E+01  0.11447098087E+03  0.76136221711E+02 0.  0.
          5    1    3    3  501    0 -0.51779113437E+02 -0.14047218911E+02 -0.10277046800E+03  0.11602697979E+03  0.47000000000E+01 0. -1.
        -11    1    4    4    0    0 -0.70759813558E+01  0.81560750827E+01 -0.91837002311E+02  0.92469595361E+02  0.00000000000E+00 0.  1.
         12    1    4    4    0    0  0.92808682347E+02 -0.71800146067E+02 -0.34662820669E+03  0.36595057886E+03  0.00000000000E+00 0. -1.
         -5    1    5    5    0  502  0.49560985681E+02  0.60361616850E+02 -0.59050289509E+01  0.78465122553E+02  0.47000000000E+01 0.  1.
         11    1    6    6    0    0 -0.46185198801E+02  0.46184897893E+02 -0.68189455935E+01  0.65670506323E+02  0.00000000000E+00 0. -1.
        -12    1    6    6    0    0 -0.37329374433E+02 -0.28855224847E+02  0.12465156214E+02  0.48800474547E+02  0.00000000000E+00 0.  1.
</event>
<event>
12    1  0.8494789E-002  0.1957711E+03  0.7818608E-02  0.1154052E+00
         21   -1    0    0  501  502  0.00000000000E+00  0.00000000000E+00  0.21045458532E+03  0.21045458532E+03  0.00000000000E+00 0. -1.
         21   -1    0    0  502  503 -0.00000000000E+00 -0.00000000000E+00 -0.17942411612E+03  0.17942411612E+03  0.00000000000E+00 0. -1.
         -6    2    1    2    0  503 -0.27604021950E+02 -0.82696237167E+02  0.22976466517E+02  0.19711480636E+03  0.17528741884E+03 0.  0.
        -24    2    3    3    0    0 -0.52546342959E+02 -0.11586459430E+03  0.22943183505E+00  0.14955666427E+03  0.78622012310E+02 0.  0.
          6    2    1    2  501    0  0.27604021950E+02  0.82696237167E+02  0.80540026816E+01  0.19276389508E+03  0.17173352211E+03 0.  0.
         24    2    5    5    0    0  0.73324368868E+02  0.90569629629E+02  0.23888566838E+02  0.14351794242E+03  0.80295798701E+02 0.  0.
          5    1    5    5  501    0 -0.45720346919E+02 -0.78733924626E+01 -0.15834564156E+02  0.49245952659E+02  0.47000000000E+01 0. -1.
        -13    1    6    6    0    0  0.49246742439E+01 -0.13249272443E+02  0.12150248990E+02  0.18639318313E+02  0.00000000000E+00 0.  1.
         14    1    6    6    0    0  0.68399694624E+02  0.10381890207E+03  0.11738317848E+02  0.12487862410E+03  0.00000000000E+00 0. -1.
         -5    1    3    3    0  503  0.24942321010E+02  0.33168357129E+02  0.22747034682E+02  0.47558142087E+02  0.47000000000E+01 0.  1.
         13    1    4    4    0    0 -0.16813226006E+00 -0.88045166125E+02 -0.12414343643E+02  0.88916227285E+02  0.00000000000E+00 0. -1.
        -14    1    4    4    0    0 -0.52378210699E+02 -0.27819428170E+02  0.12643775478E+02  0.60640436988E+02  0.00000000000E+00 0.  1.
</event>
<event>
12    1  0.8494789E-002  0.1783756E+03  0.7818608E-02  0.1169943E+00
         21   -1    0    0  501  502  0.00000000000E+00  0.00000000000E+00  0.39099438805E+03  0.39099438805E+03  0.00000000000E+00 0.  1.
         21   -1    0    0  502  503 -0.00000000000E+00 -0.00000000000E+00 -0.22527466984E+03  0.22527466984E+03  0.00000000000E+00 0.  1.
         -6    2    1    2    0  503  0.24068747573E+02 -0.40029223244E+02 -0.16447659222E+03  0.24097258107E+03  0.16980457036E+03 0.  0.
        -24    2    3    3    0    0 -0.77419577192E+01 -0.28631575500E+02 -0.18286939520E+03  0.20221419428E+03  0.81053436944E+02 0.  0.
          6    2    1    2  501    0 -0.24068747573E+02  0.40029223244E+02  0.33019631044E+03  0.37529647682E+03  0.17215167373E+03 0.  0.
         24    2    5    5    0    0 -0.11053851431E+02 -0.33488385086E+02  0.25197525639E+03  0.26706131825E+03  0.81157613962E+02 0.  0.
          5    1    5    5  501    0 -0.13014896143E+02  0.73517608330E+02  0.78221054044E+02  0.10823515858E+03  0.47000000000E+01 0. -1.
        -13    1    6    6    0    0 -0.20744341254E+02 -0.17693075645E+02  0.24612247235E+03  0.24762803560E+03  0.00000000000E+00 0.  1.
         14    1    6    6    0    0  0.96904898238E+01 -0.15795309441E+02  0.58527840385E+01  0.19433282645E+02  0.00000000000E+00 0. -1.
         -5    1    3    3    0  503  0.31810705293E+02 -0.11397647744E+02  0.18392802982E+02  0.38758386794E+02  0.47000000000E+01 0.  1.
         11    1    4    4    0    0 -0.38514659267E+02  0.41948477426E+01 -0.10944492850E+03  0.11609981955E+03  0.00000000000E+00 0. -1.
        -12    1    4    4    0    0  0.30772701548E+02 -0.32826423242E+02 -0.73424466704E+02  0.86114374725E+02  0.00000000000E+00 0.  1.
</event>
<event>
12    1  0.8494789E-002  0.1759446E+03  0.7818608E-02  0.1172042E+00
         21   -1    0    0  503  502  0.00000000000E+00  0.00000000000E+00  0.19410061821E+04  0.19410061821E+04  0.00000000000E+00 0. -1.
         21   -1    0    0  501  503 -0.00000000000E+00 -0.00000000000E+00 -0.94724941534E+02  0.94724941534E+02  0.00000000000E+00 0. -1.
          6    2    1    2  501    0 -0.29503396622E+01 -0.31837450319E+02 -0.51839958804E+01  0.17602094522E+03  0.17301494617E+03 0.  0.
         24    2    3    3    0    0 -0.31380753147E+02 -0.80811197014E+02 -0.12952731928E+02  0.11866975050E+03  0.79997094875E+02 0.  0.
         -6    2    1    2    0  502  0.29503396622E+01  0.31837450319E+02  0.18514652364E+04  0.18597101784E+04  0.17197702801E+03 0.  0.
        -24    2    5    5    0    0  0.30085019231E+02 -0.39113158265E+02  0.11816487297E+04  0.11855836900E+04  0.82945873989E+02 0.  0.
          5    1    3    3  501    0  0.28430413485E+02  0.48973746696E+02  0.77687360476E+01  0.57351194723E+02  0.47000000000E+01 0. -1.
        -11    1    4    4    0    0 -0.40944613774E+02 -0.46773469670E+02  0.24817401665E+02  0.66933715626E+02  0.00000000000E+00 0.  1.
         12    1    4    4    0    0  0.95638606274E+01 -0.34037727344E+02 -0.37770133593E+02  0.51736034874E+02  0.00000000000E+00 0. -1.
         -5    1    5    5    0  502 -0.27134679569E+02  0.70950608583E+02  0.66981650673E+03  0.67412648841E+03  0.47000000000E+01 0.  1.
         13    1    6    6    0    0  0.60594037521E+00 -0.22000988372E+02  0.10264510601E+04  0.10266869968E+04  0.00000000000E+00 0. -1.
        -14    1    6    6    0    0  0.29479078856E+02 -0.17112169893E+02  0.15519766960E+03  0.15889669316E+03  0.00000000000E+00 0.  1.
</event>
<event>
12    1  0.8494789E-002  0.2091363E+03  0.7818608E-02  0.1142324E+00
         21   -1    0    0  503  502  0.00000000000E+00  0.00000000000E+00  0.10567092865E+03  0.10567092865E+03  0.00000000000E+00 0.  1.
         21   -1    0    0  501  503 -0.00000000000E+00 -0.00000000000E+00 -0.46635291368E+03  0.46635291368E+03  0.00000000000E+00 0. -1.
          6    2    1    2  501    0 -0.65611217130E+02  0.98396744710E+02 -0.83636231147E+02  0.22490375431E+03  0.17204629714E+03 0.  0.
         24    2    3    3    0    0  0.18725070927E+02  0.81306802007E+02 -0.18854893970E+02  0.11709194016E+03  0.79959934275E+02 0.  0.
         -6    2    1    2    0  502  0.65611217130E+02 -0.98396744710E+02 -0.27704575389E+03  0.34712008801E+03  0.17248551989E+03 0.  0.
        -24    2    5    5    0    0  0.19623448243E+01  0.12260804265E+02 -0.76849090983E+02  0.10963942369E+03  0.77206491457E+02 0.  0.
          5    1    3    3  501    0 -0.84336288057E+02  0.17089942703E+02 -0.64781337177E+02  0.10781181415E+03  0.47000000000E+01 0. -1.
        -11    1    4    4    0    0 -0.29845472871E+02  0.20194354493E+02  0.26148762130E+01  0.36130344337E+02  0.00000000000E+00 0.  1.
         12    1    4    4    0    0  0.48570543799E+02  0.61112447514E+02 -0.21469770183E+02  0.80961595820E+02  0.00000000000E+00 0. -1.
         -5    1    5    5    0  502  0.63648872305E+02 -0.11065754898E+03 -0.20019666290E+03  0.23748066433E+03  0.47000000000E+01 0.  1.
         11    1    6    6    0    0 -0.32041859300E+02 -0.89227747392E+01 -0.54270968766E+02  0.63652452484E+02  0.00000000000E+00 0. -1.
        -12    1    6    6    0    0  0.34004204124E+02  0.21183579004E+02 -0.22578122217E+02  0.45986971203E+02  0.00000000000E+00 0.  1.
</event>
<event>
12    1  0.8494789E-002  0.1891840E+03  0.7818608E-02  0.1159670E+00
         21   -1    0    0  501  502  0.00000000000E+00  0.00000000000E+00  0.30854362622E+02  0.30854362622E+02  0.00000000000E+00 0.  1.
         21   -1    0    0  502  503 -0.00000000000E+00 -0.00000000000E+00 -0.17925296730E+04  0.17925296730E+04  0.00000000000E+00 0.  1.
         -6    2    1    2    0  503 -0.45390288481E+02 -0.61760506827E+02 -0.14308769187E+04  0.14433292553E+04  0.17296226229E+03 0.  0.
        -24    2    3    3    0    0  0.27331008424E+02  0.27045939846E+01 -0.87024218272E+03  0.87431472696E+03  0.79689938799E+02 0.  0.
          6    2    1    2  501    0  0.45390288481E+02  0.61760506827E+02 -0.33079839163E+03  0.38005478029E+03  0.17070272883E+03 0.  0.
         24    2    5    5    0    0  0.57623882948E+02  0.99165106851E+02 -0.22486551705E+03  0.26695027617E+03  0.86854584724E+02 0.  0.
          5    1    5    5  501    0 -0.12233594467E+02 -0.37404600024E+02 -0.10593287458E+03  0.11310450412E+03  0.47000000000E+01 0. -1.
        -11    1    6    6    0    0  0.26836000068E+01  0.84273025245E+02 -0.15838568652E+03  0.17943012620E+03  0.00000000000E+00 0.  1.
         12    1    6    6    0    0  0.54940282941E+02  0.14892081606E+02 -0.66479830527E+02  0.87520149972E+02  0.00000000000E+00 0. -1.
         -5    1    3    3    0  503 -0.72721296906E+02 -0.64465100812E+02 -0.56063473601E+03  0.56901452834E+03  0.47000000000E+01 0.  1.
         13    1    4    4    0    0  0.45960145363E+02 -0.22464524756E+02 -0.44753056944E+03  0.45044489165E+03  0.00000000000E+00 0. -1.
        -14    1    4    4    0    0 -0.18629136938E+02  0.25169118740E+02 -0.42271161328E+03  0.42386983531E+03  0.00000000000E+00 0.  1.
</event>
<event>
12    1  0.8494789E-002  0.3783704E+03  0.7818608E-02  0.1051634E+00
         21   -1    0    0  503  502  0.00000000000E+00  0.00000000000E+00  0.11568633535E+04  0.11568633535E+04  0.00000000000E+00 0.  1.
         21   -1    0    0  501  503 -0.00000000000E+00 -0.00000000000E+00 -0.20760159311E+03  0.20760159311E+03  0.00000000000E+00 0. -1.
          6    2    1    2  501    0 -0.99380474889E+02  0.32154693724E+03  0.40565054578E+02  0.38053872068E+03  0.17290252353E+03 0.  0.
         24    2    3    3    0    0 -0.88033199671E+01  0.11610704058E+03  0.63672613617E+02  0.15478261019E+03  0.79656207416E+02 0.  0.
         -6    2    1    2    0  502  0.99380474889E+02 -0.32154693724E+03  0.90869670584E+03  0.98392622595E+03  0.17062298580E+03 0.  0.
        -24    2    5    5    0    0  0.88493326730E+01 -0.87387824531E+02  0.19813733824E+03  0.23030624038E+03  0.77894909899E+02 0.  0.
          5    1    3    3  501    0 -0.90577154922E+02  0.20543989667E+03 -0.23107559039E+02  0.22575611048E+03  0.47000000000E+01 0. -1.
        -11    1    4    4    0    0  0.17531195346E+02  0.14009797178E+02  0.41289622564E+02  0.46994150261E+02  0.00000000000E+00 0.  1.
         12    1    4    4    0    0 -0.26334515313E+02  0.10209724340E+03  0.22382991053E+02  0.10778845993E+03  0.00000000000E+00 0. -1.
         -5    1    5    5    0  502  0.90531142216E+02 -0.23415911271E+03  0.71055936760E+03  0.75361998558E+03  0.47000000000E+01 0.  1.
         11    1    6    6    0    0  0.95564303997E+01 -0.40699201325E+01 -0.44148035364E+01  0.11286279375E+02  0.00000000000E+00 0. -1.
        -12    1    6    6    0    0 -0.70709772672E+00 -0.83317904398E+02  0.20255214177E+03  0.21901996100E+03  0.00000000000E+00 0.  1.
</event>
<event>
12    1  0.8494789E-002  0.1927659E+03  0.7818608E-02  0.1156906E+00
         21   -1    0    0  501  502  0.00000000000E+00  0.00000000000E+00  0.61345349199E+02  0.61345349199E+02  0.00000000000E+00 0.  1.
         21   -1    0    0  502  503 -0.00000000000E+00 -0.00000000000E+00 -0.59356715232E+03  0.59356715232E+03  0.00000000000E+00 0. -1.
         -6    2    1    2    0  503  0.18988283248E+02 -0.86468463554E+02 -0.27395415451E+03  0.33263797759E+03  0.16661271042E+03 0.  0.
        -24    2    3    3    0    0  0.35179308321E+02 -0.12200565189E+03 -0.22352354420E+03  0.26868191842E+03  0.78129608019E+02 0.  0.
          6    2    1    2  501    0 -0.18988283248E+02  0.86468463554E+02 -0.25826764861E+03  0.32227452392E+03  0.17123475221E+03 0.  0.
         24    2    5    5    0    0  0.52093641743E+02  0.73075649450E+02 -0.14164810055E+03  0.18496386695E+03  0.78061832128E+02 0.  0.
          5    1    5    5  501    0 -0.71081924991E+02  0.13392814104E+02 -0.11661954805E+03  0.13731065697E+03  0.47000000000E+01 0. -1.
        -11    1    6    6    0    0  0.56931254486E+02  0.87106719896E+02 -0.12234233729E+03  0.16061256452E+03  0.00000000000E+00 0.  1.
         12    1    6    6    0    0 -0.48376127435E+01 -0.14031070446E+02 -0.19305763265E+02  0.24351302433E+02  0.00000000000E+00 0. -1.
         -5    1    3    3    0  503 -0.16191025073E+02  0.35537188337E+02 -0.50430610312E+02  0.63956059167E+02  0.47000000000E+01 0.  1.
         13    1    4    4    0    0 -0.22307828610E+02 -0.30791137913E+02 -0.85217747714E+02  0.93315582390E+02  0.00000000000E+00 0. -1.
        -14    1    4    4    0    0  0.57487136930E+02 -0.91214513977E+02 -0.13830579648E+03  0.17536633603E+03  0.00000000000E+00 0.  1.
</event>
<event>
12    1  0.8494789E-002  0.3097899E+03  0.7818608E-02  0.1080452E+00
         21   -1    0    0  501  502  0.00000000000E+00  0.00000000000E+00  0.45993559821E+02  0.45993559821E+02  0.00000000000E+00 0. -1.
         21   -1    0    0  502  503 -0.00000000000E+00 -0.00000000000E+00 -0.26581006792E+04  0.26581006792E+04  0.00000000000E+00 0.  1.
         -6    2    1    2    0  503  0.16463348879E+02  0.25647089998E+03 -0.19330746946E+04  0.19577331897E+04  0.17289622047E+03 0.  0.
        -24    2    3    3    0    0 -0.18852824579E+02  0.22947892815E+03 -0.18178198823E+04  0.18341145811E+04  0.80567764485E+02 0.  0.
          6    2    1    2  501    0 -0.16463348879E+02 -0.25647089998E+03 -0.67903242479E+03  0.74636104926E+03  0.17297808398E+03 0.  0.
         24    2    5    5    0    0 -0.77374661505E+01 -0.19016251156E+03 -0.32463591407E+03  0.38567847383E+03  0.84485260764E+02 0.  0.
          5    1    5    5  501    0 -0.87258827284E+01 -0.66308388421E+02 -0.35439651073E+03  0.36068257543E+03  0.47000000000E+01 0. -1.
        -13    1    6    6    0    0 -0.15657383073E+02  0.16577264914E+01 -0.32385202470E+02  0.36009763132E+02  0.00000000000E+00 0.  1.
         14    1    6    6    0    0  0.79199169223E+01 -0.19182023805E+03 -0.29225071160E+03  0.34966871070E+03  0.00000000000E+00 0. -1.
         -5    1    3    3    0  503  0.35316173457E+02  0.26991971833E+02 -0.11525481227E+03  0.12361860864E+03  0.47000000000E+01 0.  1.
         13    1    4    4    0    0 -0.29988732194E+02  0.51639560657E+02 -0.30116807055E+03  0.30703122805E+03  0.00000000000E+00 0. -1.
        -14    1    4    4    0    0  0.11135907615E+02  0.17783936749E+03 -0.15166518117E+04  0.15270833530E+04  0.00000000000E+00 0.  1.
</event>
<event>
12    1  0.8494789E-002  0.1757023E+03  0.7818608E-02  0.1172210E+00
         21   -1    0    0  501  502  0.00000000000E+00  0.00000000000E+00  0.10085298595E+03  0.10085298595E+03  0.00000000000E+00 0.  1.
         21   -1    0    0  502  503 -0.00000000000E+00 -0.00000000000E+00 -0.69149982592E+03  0.69149982592E+03  0.00000000000E+00 0.  1.
         -6    2    1    2    0  503  0.34387962327E+02  0.40711826807E+01 -0.59184065766E+03  0.61737076216E+03  0.17225616803E+03 0.  0.
        -24    2    3    3    0    0 -0.43948916745E+02  0.12781536694E+02 -0.25671584219E+03  0.27306963112E+03  0.81050137843E+02 0.  0.
          6    2    1    2  501    0 -0.34387962327E+02 -0.40711826807E+01  0.11938177000E+01  0.17498204971E+03  0.17151730536E+03 0.  0.
         24    2    5    5    0    0  0.56148578243E+02  0.94353021073E+01  0.38786638135E+01  0.83283692534E+02  0.60658401269E+02 0.  0.
          5    1    5    5  501    0 -0.90536540570E+02 -0.13506484788E+02 -0.26848461135E+01  0.91698357174E+02  0.47000000000E+01 0. -1.
        -11    1    6    6    0    0  0.10627180049E+02  0.25809024178E+02  0.17602205943E+02  0.32998186903E+02  0.00000000000E+00 0.  1.
         12    1    6    6    0    0  0.45521398194E+02 -0.16373722071E+02 -0.13723542130E+02  0.50285505631E+02  0.00000000000E+00 0. -1.
         -5    1    3    3    0  503  0.78336879072E+02 -0.87103540134E+01 -0.33512481547E+03  0.34430113104E+03  0.47000000000E+01 0.  1.
         11    1    4    4    0    0 -0.44687518959E+02 -0.26349823624E+02 -0.17386429396E+03  0.18143891608E+03  0.00000000000E+00 0. -1.
        -12    1    4    4    0    0  0.73860221340E+00  0.39131360318E+02 -0.82851548237E+02  0.91630715040E+02  0.00000000000E+00 0.  1.
</event>
<event>
12    1  0.8494789E-002  0.2294433E+03  0.7818608E-02  0.1127074E+00
         21   -1    0    0  503  502  0.00000000000E+00  0.00000000000E+00  0.96483055193E+02  0.96483055193E+02  0.00000000000E+00 0. -1.
         21   -1    0    0  501  503 -0.00000000000E+00 -0.00000000000E+00 -0.67881366301E+03  0.67881366301E+03  0.00000000000E+00 0. -1.
          6    2    1    2  501    0  0.14747931389E+03 -0.37902418013E+02 -0.46311512611E+03  0.51673032828E+03  0.17131220278E+03 0.  0.
         24    2    3    3    0    0  0.84815789118E+02 -0.81039521390E+02 -0.22237269523E+03  0.26420996267E+03  0.81216788161E+02 0.  0.
         -6    2    1    2    0  502 -0.14747931389E+03  0.37902418013E+02 -0.11921548171E+03  0.25856638992E+03  0.17163188982E+03 0.  0.
        -24    2    5    5    0    0 -0.11439500341E+03  0.53703518929E+02 -0.14084287045E+02  0.14712625137E+03  0.74010012486E+02 0.  0.
          5    1    3    3  501    0  0.62663524767E+02  0.43137103377E+02 -0.24074243087E+03  0.25252036561E+03  0.47000000000E+01 0. -1.
        -11    1    4    4    0    0  0.17599883793E+02 -0.42500884586E+02 -0.15450933126E+03  0.16121170722E+03  0.00000000000E+00 0.  1.
         12    1    4    4    0    0  0.67215905325E+02 -0.38538636805E+02 -0.67863363973E+02  0.10299825545E+03  0.00000000000E+00 0. -1.
         -5    1    5    5    0  502 -0.33084310472E+02 -0.15801100916E+02 -0.10513119466E+03  0.11144013855E+03  0.47000000000E+01 0.  1.
         11    1    6    6    0    0 -0.10784425137E+03  0.26167720926E+02  0.79477978163E+01  0.11125780719E+03  0.00000000000E+00 0. -1.
        -12    1    6    6    0    0 -0.65507520464E+01  0.27535798002E+02 -0.22032084862E+02  0.35868444172E+02  0.00000000000E+00 0.  1.
</event>
<event>
12    1  0.8494789E-002  0.1785801E+03  0.7818608E-02  0.1169333E+00
         21   -1    0    0  503  502  0.00000000000E+00  0.00000000000E+00  0.62316102517E+02  0.62316102517E+02  0.00000000000E+00 0. -1.
         21   -1    0    0  501  503 -0.00000000000E+00 -0.00000000000E+00 -0.75573380001E+03  0.75573380001E+03  0.00000000000E+00 0. -1.
          6    2    1    2  501    0 -0.45434263026E+02  0.59171418640E+01 -0.58033182301E+03  0.60718684289E+03  0.17260229593E+03 0.  0.
         24    2    3    3    0    0 -0.63095164559E+02 -0.15488939433E+02 -0.56657713224E+03  0.57585939043E+03  0.79896706674E+02 0.  0.
         -6    2    1    2    0  502  0.45434263026E+02 -0.59171418640E+01 -0.11308587449E+03  0.21086305964E+03  0.17197537640E+03 0.  0.
        -24    2    5    5    0    0  0.46215558847E+02 -0.68102580813E+02 -0.64388235097E+02  0.13173538229E+03  0.80215501836E+02 0.  0.
          5    1    3    3  501    0  0.17660901533E+02  0.21406081297E+02 -0.13754690768E+02  0.31327452459E+02  0.47000000000E+01 0. -1.
        -11    1    4    4    0    0  0.87240616010E+01 -0.28229538065E+02 -0.13903359392E+03  0.14213851100E+03  0.00000000000E+00 0.  1.
         12    1    4    4    0    0 -0.71819226160E+02  0.12740598631E+02 -0.42754353832E+03  0.43372087943E+03  0.00000000000E+00 0. -1.
         -5    1    5    5    0  502 -0.78129582104E+00  0.62185438949E+02 -0.48697639389E+02  0.79127677348E+02  0.47000000000E+01 0.  1.
         13    1    6    6    0    0 -0.17475824907E+02 -0.34780579588E+02 -0.65450287356E+01  0.39470629255E+02  0.00000000000E+00 0. -1.
        -14    1    6    6    0    0  0.63691383754E+02 -0.33322001225E+02 -0.57843206361E+02  0.92264753033E+02  0.00000000000E+00 0.  1.
</event>
<event>
12    1  0.8494789E-002  0.2582916E+03  0.7818608E-02  0.1108657E+00
         21   -1    0    0  503  502  0.00000000000E+00  0.00000000000E+00  0.33404507336E+03  0.33404507336E+03  0.00000000000E+00 0.  1.
         21   -1    0    0  501  503 -0.00000000000E+00 -0.00000000000E+00 -0.27780882630E+03  0.27780882630E+03  0.00000000000E+00 0. -1.
          6    2    1    2  501    0  0.72195351812E+02 -0.17098426664E+03 -0.13671975593E+03  0.28944645048E+03  0.17504047467E+03 0.  0.
         24    2    3    3    0    0 -0.29884562735E+02 -0.89237163375E+02 -0.62830237635E+02  0.13916455283E+03  0.81010959672E+02 0.  0.
         -6    2    1    2    0  502 -0.72195351812E+02  0.17098426664E+03  0.19295600299E+03  0.32240744918E+03  0.17962949629E+03 0.  0.
        -24    2    5    5    0    0 -0.48702473175E+02  0.20202852492E+02  0.11838451071E+03  0.15249586141E+03  0.80374182600E+02 0.  0.
          5    1    3    3  501    0  0.10207991455E+03 -0.81747103266E+02 -0.73889518294E+02  0.15028189765E+03  0.47000000000E+01 0. -1.
        -11    1    4    4    0    0 -0.43312254889E+01 -0.96515948135E+02 -0.41750028575E+02  0.10524805293E+03  0.00000000000E+00 0.  1.
         12    1    4    4    0    0 -0.25553337246E+02  0.72787847600E+01 -0.21080209060E+02  0.33916499908E+02  0.00000000000E+00 0. -1.
         -5    1    5    5    0  502 -0.23492878637E+02  0.15078141415E+03  0.74571492285E+02  0.16991158778E+03  0.47000000000E+01 0.  1.
         11    1    6    6    0    0 -0.23792684444E+02  0.40376259455E+02  0.23668011567E+02  0.52502465963E+02  0.00000000000E+00 0. -1.
        -12    1    6    6    0    0 -0.24909788731E+02 -0.20173406963E+02  0.94716499139E+02  0.99993395443E+02  0.00000000000E+00 0.  1.
</event>
<event>
12    1  0.8494789E-002  0.2087088E+03  0.7818608E-02  0.1143185E+00
         21   -1    0    0  503  502  0.00000000000E+00  0.00000000000E+00  0.62671825614E+02  0.62671825614E+02  0.00000000000E+00 0. -1.
         21   -1    0    0  501  503 -0.00000000000E+00 -0.00000000000E+00 -0.73677881720E+03  0.73677881720E+03  0.00000000000E+00 0. -1.
          6    2    1    2  501    0  0.71525379148E+02 -0.92226958842E+02 -0.44496735248E+03  0.49148275800E+03  0.17302504107E+03 0.  0.
         24    2    3    3    0    0 -0.26174445120E+02 -0.21608059390E+02 -0.16171352137E+03  0.18360760886E+03  0.80052990126E+02 0.  0.
         -6    2    1    2    0  502 -0.71525379148E+02  0.92226958842E+02 -0.22913963911E+03  0.30796788481E+03  0.16946253883E+03 0.  0.
        -24    2    5    5    0    0 -0.23788789431E+02  0.94317402925E+02 -0.78233757009E+02  0.14960808182E+03  0.82464406937E+02 0.  0.
          5    1    3    3  501    0  0.97699824268E+02 -0.70618899452E+02 -0.28325383111E+03  0.30787514915E+03  0.47000000000E+01 0. -1.
        -11    1    4    4    0    0 -0.35708973353E+02 -0.24572810995E+02 -0.32927351034E+02  0.54434954433E+02  0.00000000000E+00 0.  1.
         12    1    4    4    0    0  0.95345282327E+01  0.29647516044E+01 -0.12878617034E+03  0.12917265442E+03  0.00000000000E+00 0. -1.
         -5    1    5    5    0  502 -0.47736589718E+02 -0.20904440826E+01 -0.15090588210E+03  0.15835980300E+03  0.47000000000E+01 0.  1.
         11    1    6    6    0    0  0.65833716488E+01  0.74403467726E+02 -0.84469920905E+02  0.11275807878E+03  0.00000000000E+00 0. -1.
        -12    1    6    6    0    0 -0.30372161079E+02  0.19913935199E+02  0.62361638954E+01  0.36850003038E+02  0.00000000000E+00 0.  1.
</event>
<event>
12    1  0.8494789E-002  0.1984138E+03  0.7818608E-02  0.1151409E+00
         21   -1    0    0  503  502  0.00000000000E+00  0.00000000000E+00  0.27396728338E+03  0.27396728338E+03  0.00000000000E+00 0. -1.
         21   -1    0    0  501  503 -0.00000000000E+00 -0.00000000000E+00 -0.14266021710E+03  0.14266021710E+03  0.00000000000E+00 0. -1.
          6    2    1    2  501    0 -0.63277048099E+02 -0.73473772535E+02  0.70211022831E+02  0.21047005371E+03  0.17310596672E+03 0.  0.
         24    2    3    3    0    0  0.33801599258E+02 -0.59904444619E+02  0.39209641834E+02  0.10755471930E+03  0.72797877949E+02 0.  0.
         -6    2    1    2    0  502  0.63277048099E+02  0.73473772535E+02  0.61096043454E+02  0.20615744677E+03  0.17136448368E+03 0.  0.
        -24    2    5    5    0    0  0.23087047731E+02  0.70137714301E+02 -0.31174568239E+02  0.10534910785E+03  0.68368633737E+02 0.  0.
          5    1    3    3  501    0 -0.97078647357E+02 -0.13569327916E+02  0.31001380998E+02  0.10291533441E+03  0.47000000000E+01 0. -1.
        -13    1    4    4    0    0 -0.59072771315E+01  0.13864437980E+02  0.34532000733E-01  0.15070492894E+02  0.00000000000E+00 0.  1.
         14    1    4    4    0    0  0.39708876389E+02 -0.73768882598E+02  0.39175109833E+02  0.92484226408E+02  0.00000000000E+00 0. -1.
         -5    1    5    5    0  502  0.40190000368E+02  0.33360582342E+01  0.92270611693E+02  0.10080833892E+03  0.47000000000E+01 0.  1.
         13    1    6    6    0    0  0.17010207760E+01  0.43198542851E+02 -0.50032297975E+02  0.66122903874E+02  0.00000000000E+00 0. -1.
        -14    1    6    6    0    0  0.21386026955E+02  0.26939171450E+02  0.18857729736E+02  0.39226203973E+02  0.00000000000E+00 0.  1.
</event>
<event>
12    1  0.8494789E-002  0.2718098E+03  0.7818608E-02  0.1100464E+00
         21   -1    0    0  503  502  0.00000000000E+00  0.00000000000E+00  0.44126255711E+03  0.44126255711E+03  0.00000000000E+00 0.  1.
         21   -1    0    0  501  503 -0.00000000000E+00 -0.00000000000E+00 -0.18607201394E+03  0.18607201394E+03  0.00000000000E+00 0. -1.
          6    2    1    2  501    0  0.20965753139E+03  0.23568172318E+02  0.22964787956E+03  0.35583521028E+03  0.17137330327E+03 0.  0.
         24    2    3    3    0    0  0.96467158384E+02  0.59446664074E+02  0.17914411071E+03  0.22671492768E+03  0.80419074301E+02 0.  0.
         -6    2    1    2    0  502 -0.20965753139E+03 -0.23568172318E+02  0.25542663616E+02  0.27149936076E+03  0.16896075288E+03 0.  0.
        -24    2    5    5    0    0 -0.15979588801E+03 -0.70878510894E+02 -0.10905398284E+02  0.19355705625E+03  0.82382748072E+02 0.  0.
          5    1    3    3  501    0  0.11319037301E+03 -0.35878491756E+02  0.50503768842E+02  0.12912028260E+03  0.47000000000E+01 0. -1.
        -11    1    4    4    0    0  0.71880298302E+02 -0.27870505383E+01  0.97124116679E+02  0.12086206591E+03  0.00000000000E+00 0.  1.
         12    1    4    4    0    0  0.24586860082E+02  0.62233714612E+02  0.82019994035E+02  0.10585286177E+03  0.00000000000E+00 0. -1.
         -5    1    5    5    0  502 -0.49861643381E+02  0.47310338577E+02  0.36448061900E+02  0.77942304516E+02  0.47000000000E+01 0.  1.
         13    1    6    6    0    0 -0.67466877137E+02  0.14541527521E+01 -0.31502452726E+02  0.74473475806E+02  0.00000000000E+00 0. -1.
        -14    1    6    6    0    0 -0.92329010874E+02 -0.72332663647E+02  0.20597054442E+02  0.11908358044E+03  0.00000000000E+00 0.  1.
</event>
<event>
12    1  0.8494789E-002  0.1759828E+03  0.7818608E-02  0.1174690E+00
         21   -1    0    0  501  502  0.00000000000E+00  0.00000000000E+00  0.10512343097E+03  0.10512343097E+03  0.00000000000E+00 0. -1.
         21   -1    0    0  502  503 -0.00000000000E+00 -0.00000000000E+00 -0.50938468378E+03  0.50938468378E+03  0.00000000000E+00 0. -1.
         -6    2    1    2    0  503  0.22657546136E+02 -0.25533841076E+02 -0.40644907627E+03  0.43851170050E+03  0.16101651605E+03 0.  0.
        -24    2    3    3    0    0  0.31749324825E+02 -0.71814760692E+02 -0.33274196153E+03  0.35087944204E+03  0.78954356455E+02 0.  0.
          6    2    1    2  501    0 -0.22657546136E+02  0.25533841076E+02  0.21878234612E+01  0.17599641425E+03  0.17264011648E+03 0.  0.
         24    2    5    5    0    0  0.52844421046E+02  0.17712310620E+02  0.15562072674E+02  0.98777997216E+02  0.80054080751E+02 0.  0.
          5    1    5    5  501    0 -0.75501967182E+02  0.78215304554E+01 -0.13374249213E+02  0.77218417033E+02  0.47000000000E+01 0. -1.
        -13    1    6    6    0    0  0.62747401420E+02  0.14803331054E-01 -0.12673264766E+02  0.64014437777E+02  0.00000000000E+00 0.  1.
         14    1    6    6    0    0 -0.99029803738E+01  0.17697507289E+02  0.28235337440E+02  0.34763559439E+02  0.00000000000E+00 0. -1.
         -5    1    3    3    0  503 -0.90917786888E+01  0.46280919616E+02 -0.73707114742E+02  0.87632258466E+02  0.47000000000E+01 0.  1.
         11    1    4    4    0    0  0.47613392373E+02 -0.68700584524E+02 -0.31865718992E+03  0.32943771814E+03  0.00000000000E+00 0. -1.
        -12    1    4    4    0    0 -0.15864067548E+02 -0.31141761675E+01 -0.14084771610E+02  0.21441723897E+02  0.00000000000E+00 0.  1.
</event>
<event>
12    1  0.8494789E-002  0.4004909E+03  0.7818608E-02  0.1043624E+00
         21   -1    0    0  501  502  0.00000000000E+00  0.00000000000E+00  0.45084031916E+03  0.45084031916E+03  0.00000000000E+00 0. -1.
         21   -1    0    0  502  503 -0.00000000000E+00 -0.00000000000E+00 -0.65237324566E+03  0.65237324566E+03  0.00000000000E+00 0.  1.
         -6    2    1    2    0  503  0.34237363027E+03 -0.11503575774E+03 -0.47278962299E+03  0.61950584756E+03  0.17263991219E+03 0.  0.
        -24    2    3    3    0    0  0.29534670767E+03 -0.37493600423E+02 -0.35968182097E+03  0.47445488241E+03  0.84267284882E+02 0.  0.
          6    2    1    2  501    0 -0.34237363027E+03  0.11503575774E+03  0.27125669650E+03  0.48370771726E+03  0.17303188169E+03 0.  0.
         24    2    5    5    0    0 -0.29228907719E+03  0.15106992815E+03  0.22411591564E+03  0.40591782644E+03  0.79286255708E+02 0.  0.
          5    1    5    5  501    0 -0.50084553082E+02 -0.36034170406E+02  0.47140780862E+02  0.77789890824E+02  0.47000000000E+01 0. -1.
        -13    1    6    6    0    0 -0.13260408556E+03  0.10500087262E+03  0.85618096025E+02  0.18957712184E+03  0.00000000000E+00 0.  1.
         14    1    6    6    0    0 -0.15968499163E+03  0.46069055528E+02  0.13849781961E+03  0.21634070460E+03  0.00000000000E+00 0. -1.
         -5    1    3    3    0  503  0.47026922599E+02 -0.77542157320E+02 -0.11310780203E+03  0.14505096515E+03  0.47000000000E+01 0.  1.
         13    1    4    4    0    0  0.13897810535E+02  0.12142835406E+02 -0.48782740693E+02  0.52157006997E+02  0.00000000000E+00 0. -1.
        -14    1    4    4    0    0  0.28144889713E+03 -0.49636435829E+02 -0.31089908027E+03  0.42229787541E+03  0.00000000000E+00 0.  1.
</event>
<event>
12    1  0.8494789E-002  0.2500630E+03  0.7818608E-02  0.1113508E+00
         21   -1    0    0  501  502  0.00000000000E+00  0.00000000000E+00  0.50406097935E+03  0.50406097935E+03  0.00000000000E+00 0. -1.
         21   -1    0    0  502  503 -0.00000000000E+00 -0.00000000000E+00 -0.15988676355E+03  0.15988676355E+03  0.00000000000E+00 0.  1.
         -6    2    1    2    0  503  0.16316569845E+03  0.71982213297E+02  0.13681556017E+02  0.25043704373E+03  0.17529131101E+03 0.  0.
        -24    2    3    3    0    0  0.37192515601E+02  0.68450303529E+02 -0.30407570689E+02  0.11684191553E+03  0.81600769607E+02 0.  0.
          6    2    1    2  501    0 -0.16316569845E+03 -0.71982213297E+02  0.33049265978E+03  0.41351069917E+03  0.17309308471E+03 0.  0.
         24    2    5    5    0    0 -0.17421715795E+03 -0.31923894123E+02  0.20869518220E+03  0.28473368554E+03  0.78414536110E+02 0.  0.
          5    1    5    5  501    0  0.11051459494E+02 -0.40058319173E+02  0.12179747759E+03  0.12877701363E+03  0.47000000000E+01 0. -1.
        -13    1    6    6    0    0 -0.64183221832E+02 -0.26882643951E+02  0.32171231951E+02  0.76662576761E+02  0.00000000000E+00 0.  1.
         14    1    6    6    0    0 -0.11003393611E+03 -0.50412501726E+01  0.17652395024E+03  0.20807110878E+03  0.00000000000E+00 0. -1.
         -5    1    3    3    0  503  0.12597318285E+03  0.35319097671E+01  0.44089126706E+02  0.13359512820E+03  0.47000000000E+01 0.  1.
         11    1    4    4    0    0 -0.19108879024E+02  0.49501779172E+02 -0.97649344272E+01  0.53953029045E+02  0.00000000000E+00 0. -1.
        -12    1    4    4    0    0  0.56301394625E+02  0.18948524357E+02 -0.20642636262E+02  0.62888886489E+02  0.00000000000E+00 0.  1.
</event>
<event>
12    1  0.8494789E-002  0.1900607E+03  0.7818608E-02  0.1158472E+00
         21   -1    0    0  501  502  0.00000000000E+00  0.00000000000E+00  0.11833727419E+04  0.11833727419E+04  0.00000000000E+00 0.  1.
         21   -1    0    0  502  503 -0.00000000000E+00 -0.00000000000E+00 -0.29187935654E+03  0.29187935654E+03  0.00000000000E+00 0.  1.
         -6    2    1    2    0  503 -0.71085018959E+02 -0.41470954715E+02 -0.25226974047E+03  0.31585293909E+03  0.17131881734E+03 0.  0.
        -24    2    3    3    0    0  0.44481703047E+01  0.29423015103E+02 -0.80984642621E+02  0.11562333993E+03  0.76972361009E+02 0.  0.
          6    2    1    2  501    0  0.71085018959E+02  0.41470954715E+02  0.11437631258E+04  0.11593991593E+04  0.17099532941E+03 0.  0.
         24    2    5    5    0    0  0.10528898206E+03 -0.26923312248E+00  0.65964354515E+03  0.67225850946E+03  0.75604594157E+02 0.  0.
          5    1    5    5  501    0 -0.34203963098E+02  0.41740187837E+02  0.48411958065E+03  0.48714064985E+03  0.47000000000E+01 0. -1.
        -11    1    6    6    0    0  0.20162118006E+02  0.45290166443E+01  0.36346242633E+03  0.36404938998E+03  0.00000000000E+00 0.  1.
         12    1    6    6    0    0  0.85126864052E+02 -0.47982497668E+01  0.29618111882E+03  0.30820911947E+03  0.00000000000E+00 0. -1.
         -5    1    3    3    0  503 -0.75533189264E+02 -0.70893969818E+02 -0.17128509785E+03  0.20022959916E+03  0.47000000000E+01 0.  1.
         11    1    4    4    0    0 -0.26103144988E+02  0.32066049075E+02 -0.73063054650E+02  0.83951269415E+02  0.00000000000E+00 0. -1.
        -12    1    4    4    0    0  0.30551315293E+02 -0.26430339720E+01 -0.79215879704E+01  0.31672070515E+02  0.00000000000E+00 0.  1.
</event>
<event>
12    1  0.8494789E-002  0.2316928E+03  0.7818608E-02  0.1126010E+00
         21   -1    0    0  503  502  0.00000000000E+00  0.00000000000E+00  0.97819413363E+02  0.97819413363E+02  0.00000000000E+00 0.  1.
         21   -1    0    0  501  503 -0.00000000000E+00 -0.00000000000E+00 -0.94418088316E+03  0.94418088316E+03  0.00000000000E+00 0. -1.
          6    2    1    2  501    0 -0.87966440361E+02  0.12826169670E+03 -0.76183296198E+03  0.79536971430E+03  0.16743465288E+03 0.  0.
         24    2    3    3    0    0 -0.66096408041E+02  0.13744725820E+03 -0.44229872419E+03  0.47492175912E+03  0.81621271273E+02 0.  0.
         -6    2    1    2    0  502  0.87966440361E+02 -0.12826169670E+03 -0.84528507810E+02  0.24663058222E+03  0.17173356686E+03 0.  0.
        -24    2    5    5    0    0  0.12398237277E+03 -0.12427320632E+03 -0.58454291778E+02  0.20174171741E+03  0.80419884059E+02 0.  0.
          5    1    3    3  501    0 -0.21870032321E+02 -0.91855615006E+01 -0.31953423779E+03  0.32044795517E+03  0.47000000000E+01 0. -1.
        -11    1    4    4    0    0 -0.58555667482E+02  0.10251246309E+03 -0.21912313255E+03  0.24890262856E+03  0.00000000000E+00 0.  1.
         12    1    4    4    0    0 -0.75407405589E+01  0.34934795105E+02 -0.22317559164E+03  0.22601913057E+03  0.00000000000E+00 0. -1.
         -5    1    5    5    0  502 -0.36015932404E+02 -0.39884903808E+01 -0.26074216032E+02  0.44888864812E+02  0.47000000000E+01 0.  1.
         13    1    6    6    0    0  0.82242048779E+02 -0.76464534479E+02 -0.76358857044E+02  0.13579858125E+03  0.00000000000E+00 0. -1.
        -14    1    6    6    0    0  0.41740323986E+02 -0.47808671840E+02  0.17904565266E+02  0.65943136162E+02  0.00000000000E+00 0.  1.
</event>
<event>
12    1  0.8494789E-002  0.2806608E+03  0.7818608E-02  0.1095726E+00
         21   -1    0    0  501  502  0.00000000000E+00  0.00000000000E+00  0.50298060565E+03  0.50298060565E+03  0.00000000000E+00 0.  1.
         21   -1    0    0  502  503 -0.00000000000E+00 -0.00000000000E+00 -0.17854150527E+03  0.17854150527E+03  0.00000000000E+00 0. -1.
         -6    2    1    2    0  503 -0.21932152077E+03 -0.32646551190E+02  0.39194792371E+02  0.28338440219E+03  0.17205452879E+03 0.  0.
        -24    2    3    3    0    0 -0.19387173094E+03 -0.79804850557E+02  0.47171593198E+02  0.22900318895E+03  0.79134310610E+02 0.  0.
          6    2    1    2  501    0  0.21932152077E+03  0.32646551190E+02  0.28524430801E+03  0.39813770874E+03  0.16727699510E+03 0.  0.
         24    2    5    5    0    0  0.17566159742E+03  0.33713901527E+02  0.29403809561E+03  0.35334095837E+03  0.79986294005E+02 0.  0.
          5    1    5    5  501    0  0.43659923345E+02 -0.10673503369E+01 -0.87937875962E+01  0.44796750368E+02  0.47000000000E+01 0. -1.
        -11    1    6    6    0    0  0.50500290073E+02 -0.26488960917E+02  0.83090846636E+02  0.10077714593E+03  0.00000000000E+00 0.  1.
         12    1    6    6    0    0  0.12516130735E+03  0.60202862444E+02  0.21094724897E+03  0.25256381244E+03  0.00000000000E+00 0. -1.
         -5    1    3    3    0  503 -0.25449789833E+02  0.47158299366E+02 -0.79768008272E+01  0.54381213237E+02  0.47000000000E+01 0.  1.
         11    1    4    4    0    0 -0.37473320894E+02  0.15580802234E+02  0.13300861993E+02  0.42707424493E+02  0.00000000000E+00 0. -1.
        -12    1    4    4    0    0 -0.15639841004E+03 -0.95385652791E+02  0.33870731206E+02  0.18629576446E+03  0.00000000000E+00 0.  1.
</event>
<event>
12    1  0.8494789E-002  0.2308908E+03  0.7818608E-02  0.1126089E+00
         21   -1    0    0  503  502  0.00000000000E+00  0.00000000000E+00  0.18712068288E+03  0.18712068288E+03  0.00000000000E+00 0. -1.
         21   -1    0    0  501  503 -0.00000000000E+00 -0.00000000000E+00 -0.32181539158E+03  0.32181539158E+03  0.00000000000E+00 0.  1.
          6    2    1    2  501    0 -0.95801460955E+02  0.11994160051E+03  0.19397954048E+02  0.23170420573E+03  0.17247217421E+03 0.  0.
         24    2    3    3    0    0 -0.10431026023E+03  0.78315406769E+02 -0.40426331848E+02  0.15817751089E+03  0.79824202598E+02 0.  0.
         -6    2    1    2    0  502  0.95801460955E+02 -0.11994160051E+03 -0.15409266275E+03  0.27723186873E+03  0.17189837950E+03 0.  0.
        -24    2    5    5    0    0  0.81505739270E+02 -0.15431508466E+03 -0.11728347362E+03  0.22466847391E+03  0.79146567178E+02 0.  0.
          5    1    3    3  501    0  0.85087992712E+01  0.41626193738E+02  0.59824285897E+02  0.73526694834E+02  0.47000000000E+01 0. -1.
        -13    1    4    4    0    0 -0.67944856255E+01  0.20795972070E+02 -0.39273302537E+02  0.44955864817E+02  0.00000000000E+00 0.  1.
         14    1    4    4    0    0 -0.97515774601E+02  0.57519434699E+02 -0.11530293113E+01  0.11322164608E+03  0.00000000000E+00 0. -1.
         -5    1    5    5    0  502  0.14295721685E+02  0.34373484151E+02 -0.36809189126E+02  0.52563394822E+02  0.47000000000E+01 0.  1.
         13    1    6    6    0    0  0.53852509364E+02 -0.10759142773E+03 -0.12049575434E+03  0.17027987227E+03  0.00000000000E+00 0. -1.
        -14    1    6    6    0    0  0.27653229906E+02 -0.46723656926E+02  0.32122807165E+01  0.54388601638E+02  0.00000000000E+00 0.  1.
</event>
<event>
12    1  0.8494789E-002  0.1909321E+03  0.7818608E-02  0.1157754E+00
         21   -1    0    0  503  502  0.00000000000E+00  0.00000000000E+00  0.27695866856E+03  0.27695866856E+03  0.00000000000E+00 0. -1.
         21   -1    0    0  501  503 -0.00000000000E+00 -0.00000000000E+00 -0.30365395504E+03  0.30365395504E+03  0.00000000000E+00 0. -1.
          6    2    1    2  501    0  0.42982217555E+02  0.69327362922E+02 -0.23211755277E+03  0.30055554517E+03  0.17263059737E+03 0.  0.
         24    2    3    3    0    0  0.15244708023E+01  0.39560529157E+02 -0.22091840909E+02  0.84366510286E+02  0.71149835873E+02 0.  0.
         -6    2    1    2    0  502 -0.42982217555E+02 -0.69327362922E+02  0.20542226629E+03  0.28005707843E+03  0.17198809672E+03 0.  0.
        -24    2    5    5    0    0  0.15614242443E+02  0.16226554707E+02  0.57891835861E+02  0.99667677826E+02  0.77942771950E+02 0.  0.
          5    1    3    3  501    0  0.41457746753E+02  0.29766833765E+02 -0.21002571186E+03  0.21618903488E+03  0.47000000000E+01 0. -1.
        -11    1    4    4    0    0  0.21346415492E+01 -0.20180894844E+02  0.99152804560E+00  0.20317685377E+02  0.00000000000E+00 0.  1.
         12    1    4    4    0    0 -0.61017074681E+00  0.59741424000E+02 -0.23083368955E+02  0.64048824909E+02  0.00000000000E+00 0. -1.
         -5    1    5    5    0  502 -0.58596459998E+02 -0.85553917629E+02  0.14753043043E+03  0.18038940060E+03  0.47000000000E+01 0.  1.
         11    1    6    6    0    0  0.30452089024E+02 -0.14087059413E+02  0.56715388289E+02  0.65896966832E+02  0.00000000000E+00 0. -1.
        -12    1    6    6    0    0 -0.14837846582E+02  0.30313614120E+02  0.11764475716E+01  0.33770710994E+02  0.00000000000E+00 0.  1.
</event>
<event>
12    1  0.8494789E-002  0.1812493E+03  0.7818608E-02  0.1167175E+00
         21   -1    0    0  501  502  0.00000000000E+00  0.00000000000E+00  0.25189248029E+02  0.25189248029E+02  0.00000000000E+00 0.  1.
         21   -1    0    0  502  503 -0.00000000000E+00 -0.00000000000E+00 -0.14904414176E+04  0.14904414176E+04  0.00000000000E+00 0.  1.
         -6    2    1    2    0  503  0.31978654931E+02  0.33881120638E+02 -0.10167301386E+04  0.10327591681E+04  0.17515924139E+03 0.  0.
        -24    2    3    3    0    0  0.35937830839E+01 -0.28436032276E+02 -0.81218705750E+03  0.81700678568E+03  0.83849557273E+02 0.  0.
          6    2    1    2  501    0 -0.31978654931E+02 -0.33881120638E+02 -0.44852203096E+03  0.48287149752E+03  0.17269136098E+03 0.  0.
         24    2    5    5    0    0 -0.64750587463E+02 -0.75567289787E+02 -0.38087291255E+03  0.39678880773E+03  0.49740612823E+02 0.  0.
          5    1    5    5  501    0  0.32771932531E+02  0.41686169149E+02 -0.67649118416E+02  0.86082689797E+02  0.47000000000E+01 0. -1.
        -13    1    6    6    0    0  0.11648199733E+01 -0.26815616025E+02 -0.62309817530E+02  0.67845025086E+02  0.00000000000E+00 0.  1.
         14    1    6    6    0    0 -0.65915407436E+02 -0.48751673763E+02 -0.31856309502E+03  0.32894378264E+03  0.00000000000E+00 0. -1.
         -5    1    3    3    0  503  0.28384871847E+02  0.62317152914E+02 -0.20454308114E+03  0.21575238247E+03  0.47000000000E+01 0.  1.
         13    1    4    4    0    0 -0.28987823960E+02 -0.19014960669E+02 -0.66742121964E+03  0.66832099106E+03  0.00000000000E+00 0. -1.
        -14    1    4    4    0    0  0.32581607043E+02 -0.94210716073E+01 -0.14476583786E+03  0.14868579462E+03  0.00000000000E+00 0.  1.
</event>
<event>
12    1  0.8494789E-002  0.2576268E+03  0.7818608E-02  0.1108589E+00
         21   -1    0    0  503  502  0.00000000000E+00  0.00000000000E+00  0.13481872443E+03  0.13481872443E+03  0.00000000000E+00 0.  1.
         21   -1    0    0  501  503 -0.00000000000E+00 -0.00000000000E+00 -0.49407701651E+03  0.49407701651E+03  0.00000000000E+00 0.  1.
          6    2    1    2  501    0  0.13324576779E+03  0.13774055041E+03 -0.19920754578E+03  0.32560081314E+03  0.17206205090E+03 0.  0.
         24    2    3    3    0    0  0.12652777857E+03  0.43827384816E+02 -0.86785101607E+02  0.17888438596E+03  0.80856980336E+02 0.  0.
         -6    2    1    2    0  502 -0.13324576779E+03 -0.13774055041E+03 -0.16005074630E+03  0.30329492779E+03  0.17217629910E+03 0.  0.
        -24    2    5    5    0    0 -0.83339531733E+02 -0.60516493113E+02 -0.16539522451E+03  0.21107323365E+03  0.81170229671E+02 0.  0.
          5    1    3    3  501    0  0.67179892252E+01  0.93913165598E+02 -0.11242244417E+03  0.14671642719E+03  0.47000000000E+01 0. -1.
        -11    1    4    4    0    0  0.17797520723E+02  0.37076805589E+02 -0.48087105420E+02  0.63275674349E+02  0.00000000000E+00 0.  1.
         12    1    4    4    0    0  0.10873025784E+03  0.67505792273E+01 -0.38697996186E+02  0.11560871161E+03  0.00000000000E+00 0. -1.
         -5    1    5    5    0  502 -0.49906236059E+02 -0.77224057301E+02  0.53444782072E+01  0.92221694145E+02  0.47000000000E+01 0.  1.
         11    1    6    6    0    0 -0.13186021972E+02 -0.59205924730E+02 -0.69452538941E+02  0.92210996437E+02  0.00000000000E+00 0. -1.
        -12    1    6    6    0    0 -0.70153509761E+02 -0.13105683831E+01 -0.95942685565E+02  0.11886223721E+03  0.00000000000E+00 0.  1.
</event>
<event>
12    1  0.8494789E-002  0.1753593E+03  0.7818608E-02  0.1172618E+00
         21   -1    0    0  503  502  0.00000000000E+00  0.00000000000E+00  0.96839804141E+02  0.96839804141E+02  0.00000000000E+00 0. -1.
         21   -1    0    0  501  503 -0.00000000000E+00 -0.00000000000E+00 -0.38787633814E+03  0.38787633814E+03  0.00000000000E+00 0. -1.
          6    2    1    2  501    0  0.23753865845E+02 -0.23492927653E+02 -0.25035070423E+03  0.30565727853E+03  0.17214741652E+03 0.  0.
         24    2    3    3    0    0 -0.12961985036E+02  0.48671257349E+02 -0.14189785858E+03  0.17023263885E+03  0.79418163609E+02 0.  0.
         -6    2    1    2    0  502 -0.23753865845E+02  0.23492927653E+02 -0.40685829768E+02  0.17905886375E+03  0.17114489812E+03 0.  0.
        -24    2    5    5    0    0 -0.56131226525E+02 -0.20253110314E+02 -0.64097368677E+02  0.11962655371E+03  0.81493169124E+02 0.  0.
          5    1    3    3  501    0  0.36715850881E+02 -0.72164185002E+02 -0.10845284565E+03  0.13542463968E+03  0.47000000000E+01 0. -1.
        -13    1    4    4    0    0 -0.27788643545E+02  0.26699628841E+02 -0.16255702817E+02  0.41824953848E+02  0.00000000000E+00 0.  1.
         14    1    4    4    0    0  0.14826658509E+02  0.21971628508E+02 -0.12564215576E+03  0.12840768500E+03  0.00000000000E+00 0. -1.
         -5    1    5    5    0  502  0.32377360680E+02  0.43746037967E+02  0.23411538909E+02  0.59432310038E+02  0.47000000000E+01 0.  1.
         13    1    6    6    0    0 -0.31156424231E+02  0.27469770641E+02 -0.88529332195E+01  0.42469818654E+02  0.00000000000E+00 0. -1.
        -14    1    6    6    0    0 -0.24974802293E+02 -0.47722880954E+02 -0.55244435458E+02  0.77156735061E+02  0.00000000000E+00 0.  1.
</event>
<event>
12    1  0.8494789E-002  0.1797619E+03  0.7818608E-02  0.1168110E+00
         21   -1    0    0  503  502  0.00000000000E+00  0.00000000000E+00  0.37891685808E+03  0.37891685808E+03  0.00000000000E+00 0. -1.
         21   -1    0    0  501  503 -0.00000000000E+00 -0.00000000000E+00 -0.85526618082E+02  0.85526618082E+02  0.00000000000E+00 0. -1.
          6    2    1    2  501    0 -0.45098835575E+02 -0.38516200703E+01  0.16259269182E+03  0.24238551859E+03  0.17397015905E+03 0.  0.
         24    2    3    3    0    0 -0.16820744148E+02 -0.38971489022E+02  0.22569521616E+02  0.95206600791E+02  0.82177850653E+02 0.  0.
         -6    2    1    2    0  502  0.45098835575E+02  0.38516200703E+01  0.13079754818E+03  0.22205795757E+03  0.17364618615E+03 0.  0.
        -24    2    5    5    0    0  0.92362673628E+02 -0.12129802542E+02  0.61949882913E+02  0.13690299724E+03  0.78909106393E+02 0.  0.
          5    1    3    3  501    0 -0.28278091426E+02  0.35119868952E+02  0.14002317020E+03  0.14717891779E+03  0.47000000000E+01 0. -1.
        -13    1    4    4    0    0  0.25986799382E+02 -0.42027770811E+02  0.14895965383E+02  0.51609466633E+02  0.00000000000E+00 0.  1.
         14    1    4    4    0    0 -0.42807543530E+02  0.30562817897E+01  0.76735562333E+01  0.43597134158E+02  0.00000000000E+00 0. -1.
         -5    1    5    5    0  502 -0.47263838054E+02  0.15981422613E+02  0.68847665264E+02  0.85154960329E+02  0.47000000000E+01 0.  1.
         13    1    6    6    0    0  0.10143233292E+03  0.32521118512E+01  0.41203208691E+02  0.10952989911E+03  0.00000000000E+00 0. -1.
        -14    1    6    6    0    0 -0.90696592910E+01 -0.15381914393E+02  0.20746674222E+02  0.27373098132E+02  0.00000000000E+00 0.  1.
</event>
<event>
12    1  0.8494789E-002  0.2859719E+03  0.7818608E-02  0.1093157E+00
         21   -1    0    0  501  502  0.00000000000E+00  0.00000000000E+00  0.31277909829E+04  0.31277909829E+04  0.00000000000E+00 0.  1.
         21   -1    0    0  502  503 -0.00000000000E+00 -0.00000000000E+00 -0.28149101320E+02  0.28149101320E+02  0.00000000000E+00 0. -1.
         -6    2    1    2    0  503  0.20265454233E+03 -0.99295984996E+02  0.10698127904E+04  0.11060654309E+04  0.16719083357E+03 0.  0.
        -24    2    3    3    0    0  0.99493106469E+02 -0.11169281229E+03  0.52702806560E+03  0.55340521828E+03  0.78259767000E+02 0.  0.
          6    2    1    2  501    0 -0.20265454233E+03  0.99295984996E+02  0.20298290912E+04  0.20498746533E+04  0.17564566217E+03 0.  0.
         24    2    5    5    0    0 -0.77609137557E+02  0.83048318150E+02  0.14302744672E+04  0.14371853543E+04  0.83045106907E+02 0.  0.
          5    1    5    5  501    0 -0.12504540477E+03  0.16247666846E+02  0.59955462400E+03  0.61268929898E+03  0.47000000000E+01 0. -1.
        -13    1    6    6    0    0 -0.90968691851E+02  0.57694735609E+02  0.12516123834E+04  0.12562394452E+04  0.00000000000E+00 0.  1.
         14    1    6    6    0    0  0.13359554294E+02  0.25353582541E+02  0.17866208379E+03  0.18094590911E+03  0.00000000000E+00 0. -1.
         -5    1    3    3    0  503  0.10316143586E+03  0.12396827295E+02  0.54278472480E+03  0.55266021266E+03  0.47000000000E+01 0.  1.
         11    1    4    4    0    0 -0.87391656713E+01 -0.72689573127E+01  0.10046392731E+03  0.10110495264E+03  0.00000000000E+00 0. -1.
        -12    1    4    4    0    0  0.10823227214E+03 -0.10442385498E+03  0.42656413829E+03  0.45230026564E+03  0.00000000000E+00 0.  1.
</event>
<event>
12    1  0.8494789E-002  0.2193208E+03  0.7818608E-02  0.1134529E+00
         21   -1    0    0  501  502  0.00000000000E+00  0.00000000000E+00  0.53471268378E+03  0.53471268378E+03  0.00000000000E+00 0.  1.
         21   -1    0    0  502  503 -0.00000000000E+00 -0.00000000000E+00 -0.10188186382E+03  0.10188186382E+03  0.00000000000E+00 0.  1.
         -6    2    1    2    0  503  0.10350555301E+03 -0.86145716384E+02  0.10582643791E+03  0.24285162294E+03  0.17217198335E+03 0.  0.
        -24    2    3    3    0    0  0.87204547570E+02 -0.12231457086E+03  0.10985395255E+03  0.20269916739E+03  0.80334140996E+02 0.  0.
          6    2    1    2  501    0 -0.10350555301E+03  0.86145716384E+02  0.32700438205E+03  0.39374292465E+03  0.17311019866E+03 0.  0.
         24    2    5    5    0    0 -0.14104433943E+03  0.64592872399E+02  0.27792466607E+03  0.32813351915E+03  0.79773062678E+02 0.  0.
          5    1    5    5  501    0  0.37538786423E+02  0.21552843985E+02  0.49079715972E+02  0.65609405498E+02  0.47000000000E+01 0. -1.
        -11    1    6    6    0    0 -0.11273215219E+03  0.66348130254E+02  0.15909810328E+03  0.20596800478E+03  0.00000000000E+00 0.  1.
         12    1    6    6    0    0 -0.28312187240E+02 -0.17552578546E+01  0.11882656279E+03  0.12216551437E+03  0.00000000000E+00 0. -1.
         -5    1    3    3    0  503  0.16301005441E+02  0.36168854477E+02 -0.40275146389E+01  0.40152455550E+02  0.47000000000E+01 0.  1.
         11    1    4    4    0    0  0.37164554356E+00  0.60807179955E+01  0.25527756938E+02  0.26244611371E+02  0.00000000000E+00 0. -1.
        -12    1    4    4    0    0  0.86832902027E+02 -0.12839528886E+03  0.84326195613E+02  0.17645455602E+03  0.00000000000E+00 0.  1.
</event>
<event>
12    1  0.8494789E-002  0.1768663E+03  0.7818608E-02  0.1171623E+00
         21   -1    0    0  503  502  0.00000000000E+00  0.00000000000E+00  0.42678273565E+03  0.42678273565E+03  0.00000000000E+00 0. -1.
         21   -1    0    0  501  503 -0.00000000000E+00 -0.00000000000E+00 -0.29493929067E+03  0.29493929067E+03  0.00000000000E+00 0. -1.
          6    2    1    2  501    0 -0.20821235656E+02 -0.29859976047E+02 -0.24763714333E+03  0.30431206046E+03  0.17307955790E+03 0.  0.
         24    2    3    3    0    0  0.31785635292E+02  0.13099086178E+02 -0.63714534180E+02  0.10819326979E+03  0.80401051561E+02 0.  0.
         -6    2    1    2    0  502  0.20821235656E+02  0.29859976047E+02  0.37948058831E+03  0.41740996585E+03  0.17000123724E+03 0.  0.
        -24    2    5    5    0    0 -0.49526996442E+01 -0.27207460105E+02  0.10178191105E+03  0.13270023058E+03  0.80529613551E+02 0.  0.
          5    1    3    3  501    0 -0.52606870948E+02 -0.42959062225E+02 -0.18392260915E+03  0.19611879068E+03  0.47000000000E+01 0. -1.
        -13    1    4    4    0    0  0.56565140142E+02  0.84399516385E+01 -0.59679226484E+02  0.82658683372E+02  0.00000000000E+00 0.  1.
         14    1    4    4    0    0 -0.24779504850E+02  0.46591345397E+01 -0.40353076963E+01  0.25534586417E+02  0.00000000000E+00 0. -1.
         -5    1    5    5    0  502  0.25773935300E+02  0.57067436152E+02  0.27769867726E+03  0.28470973527E+03  0.47000000000E+01 0.  1.
         13    1    6    6    0    0  0.95136260470E+01 -0.51652978151E+01  0.10551768086E+03  0.10607153415E+03  0.00000000000E+00 0. -1.
        -14    1    6    6    0    0 -0.14466325691E+02 -0.22042162290E+02 -0.37357698097E+01  0.26628696429E+02  0.00000000000E+00 0.  1.
</event>
<event>
12    1  0.8494789E-002  0.1768683E+03  0.7818608E-02  0.1171474E+00
         21   -1    0    0  503  502  0.00000000000E+00  0.00000000000E+00  0.16082039778E+03  0.16082039778E+03  0.00000000000E+00 0. -1.
         21   -1    0    0  501  503 -0.00000000000E+00 -0.00000000000E+00 -0.20712914347E+03  0.20712914347E+03  0.00000000000E+00 0. -1.
          6    2    1    2  501    0 -0.16839657987E+02 -0.17196133941E+02 -0.73258853752E+02  0.19143996012E+03  0.17522305092E+03 0.  0.
         24    2    3    3    0    0 -0.47349454204E+02 -0.60005968258E+02 -0.13304975062E+02  0.11156451240E+03  0.80168142206E+02 0.  0.
         -6    2    1    2    0  502  0.16839657987E+02  0.17196133941E+02  0.26950108067E+02  0.17650958112E+03  0.17277164930E+03 0.  0.
        -24    2    5    5    0    0 -0.13439045816E+02 -0.86577665405E+01 -0.45555446109E+02  0.93658090731E+02  0.80255681514E+02 0.  0.
          5    1    3    3  501    0  0.30509796217E+02  0.42809834317E+02 -0.59953878690E+02  0.79875447726E+02  0.47000000000E+01 0. -1.
        -11    1    4    4    0    0 -0.18901255965E+02  0.15608909784E+02  0.11467019350E+02  0.27062669389E+02  0.00000000000E+00 0.  1.
         12    1    4    4    0    0 -0.28448198239E+02 -0.75614878042E+02 -0.24771994413E+02  0.84501843007E+02  0.00000000000E+00 0. -1.
         -5    1    5    5    0  502  0.30278703802E+02  0.25853900482E+02  0.72505554176E+02  0.82851490394E+02  0.47000000000E+01 0.  1.
         11    1    6    6    0    0 -0.18486456748E+02 -0.17833026286E+02  0.16628486286E+02  0.30598569668E+02  0.00000000000E+00 0. -1.
        -12    1    6    6    0    0  0.50474109320E+01  0.91752597452E+01 -0.62183932395E+02  0.63059521062E+02  0.00000000000E+00 0.  1.
</event>
<event>
12    1  0.8494789E-002  0.2202994E+03  0.7818608E-02  0.1133819E+00
         21   -1    0    0  503  502  0.00000000000E+00  0.00000000000E+00  0.21544347518E+03  0.21544347518E+03  0.00000000000E+00 0. -1.
         21   -1    0    0  501  503 -0.00000000000E+00 -0.00000000000E+00 -0.37126774126E+03  0.37126774126E+03  0.00000000000E+00 0. -1.
          6    2    1    2  501    0 -0.81124282453E+01 -0.13625135009E+03 -0.26233341745E+03  0.34201541529E+03  0.17182980094E+03 0.  0.
         24    2    3    3    0    0 -0.38112827438E+02  0.14442760631E+01 -0.13168468625E+03  0.14978823100E+03  0.60340566843E+02 0.  0.
         -6    2    1    2    0  502  0.81124282453E+01  0.13625135009E+03  0.10650915138E+03  0.24469580115E+03  0.17292077342E+03 0.  0.
        -24    2    5    5    0    0 -0.37773756557E+02  0.57591569670E+02 -0.13023633882E+00  0.10438560186E+03  0.78439093140E+02 0.  0.
          5    1    3    3  501    0  0.30000399192E+02 -0.13769562615E+03 -0.13064873121E+03  0.19222718429E+03  0.47000000000E+01 0. -1.
        -11    1    4    4    0    0 -0.81058301918E+01  0.22188371795E+02 -0.16109627494E+02  0.28592803710E+02  0.00000000000E+00 0.  1.
         12    1    4    4    0    0 -0.30006997246E+02 -0.20744095731E+02 -0.11557505875E+03  0.12119542729E+03  0.00000000000E+00 0. -1.
         -5    1    5    5    0  502  0.45886184803E+02  0.78659780420E+02  0.10663938772E+03  0.14031019929E+03  0.47000000000E+01 0.  1.
         13    1    6    6    0    0  0.19637034063E+02  0.39531447338E+02  0.17074439590E+01  0.44173111734E+02  0.00000000000E+00 0. -1.
        -14    1    6    6    0    0 -0.57410790620E+02  0.18060122332E+02 -0.18376802978E+01  0.60212490126E+02  0.00000000000E+00 0.  1.
</event>
<event>
12    1  0.8494789E-002  0.2022963E+03  0.7818608E-02  0.1148856E+00
         21   -1    0    0  503  502  0.00000000000E+00  0.00000000000E+00  0.77078374510E+03  0.77078374510E+03  0.00000000000E+00 0. -1.
         21   -1    0    0  501  503 -0.00000000000E+00 -0.00000000000E+00 -0.51859684239E+02  0.51859684239E+02  0.00000000000E+00 0. -1.
          6    2    1    2  501    0 -0.63169630113E+02 -0.72966996271E+02  0.34175713710E+03  0.39464965170E+03  0.17215057978E+03 0.  0.
         24    2    3    3    0    0  0.21369948332E+02 -0.58827300541E+02  0.24690367478E+03  0.26671943388E+03  0.79123358165E+02 0.  0.
         -6    2    1    2    0  502  0.63169630113E+02  0.72966996271E+02  0.37716692377E+03  0.42799377764E+03  0.17778976517E+03 0.  0.
        -24    2    5    5    0    0  0.10814069596E+03  0.45988035503E+02  0.21662096195E+03  0.25903414653E+03  0.79779310497E+02 0.  0.
          5    1    3    3  501    0 -0.84539578445E+02 -0.14139695729E+02  0.94853462314E+02  0.12793021782E+03  0.47000000000E+01 0. -1.
        -13    1    4    4    0    0 -0.72133604939E+01 -0.63407695587E+02  0.21187536069E+03  0.22127751105E+03  0.00000000000E+00 0.  1.
         14    1    4    4    0    0  0.28583308826E+02  0.45803950458E+01  0.35028314091E+02  0.45441922827E+02  0.00000000000E+00 0. -1.
         -5    1    5    5    0  502 -0.44971065844E+02  0.26978960767E+02  0.16054596182E+03  0.16895963111E+03  0.47000000000E+01 0.  1.
         13    1    6    6    0    0  0.14491212475E+02  0.13458235377E+02  0.11638410065E+03  0.11805243845E+03  0.00000000000E+00 0. -1.
        -14    1    6    6    0    0  0.93649483481E+02  0.32529800126E+02  0.10023686129E+03  0.14098170808E+03  0.00000000000E+00 0.  1.
</event>
<event>
12    1  0.8494789E-002  0.1773463E+03  0.7818608E-02  0.1170875E+00
         21   -1    0    0  503  502  0.00000000000E+00  0.00000000000E+00  0.25161533440E+03  0.25161533440E+03  0.00000000000E+00 0.  1.
         21   -1    0    0  501  503 -0.00000000000E+00 -0.00000000000E+00 -0.34983412614E+03  0.34983412614E+03  0.00000000000E+00 0.  1.
          6    2    1    2  501    0  0.34389889604E+02  0.80079818234E+01 -0.29101397293E+03  0.34079442021E+03  0.17379560446E+03 0.  0.
         24    2    3    3    0    0  0.20743805815E+02  0.12475381239E+02 -0.50228170066E+02  0.99535086464E+02  0.82452554554E+02 0.  0.
         -6    2    1    2    0  502 -0.34389889604E+02 -0.80079818234E+01  0.19279518119E+03  0.26065504033E+03  0.17182629566E+03 0.  0.
        -24    2    5    5    0    0 -0.41382314849E+02 -0.13656105026E+02  0.29030928198E+02  0.96576961770E+02  0.81150043536E+02 0.  0.
          5    1    3    3  501    0  0.13646083789E+02 -0.44673994161E+01 -0.24078580286E+03  0.24125933375E+03  0.47000000000E+01 0. -1.
        -11    1    4    4    0    0 -0.46900798882E+01 -0.31242436373E+02 -0.34012423631E+02  0.46421241271E+02  0.00000000000E+00 0.  1.
         12    1    4    4    0    0  0.25433885703E+02  0.43717817612E+02 -0.16215746435E+02  0.53113845193E+02  0.00000000000E+00 0. -1.
         -5    1    5    5    0  502  0.69924252452E+01  0.56481232024E+01  0.16376425299E+03  0.16407807856E+03  0.47000000000E+01 0.  1.
         11    1    6    6    0    0 -0.32322959901E+02 -0.47259483954E+02  0.16488332154E+02  0.59582695958E+02  0.00000000000E+00 0. -1.
        -12    1    6    6    0    0 -0.90593549482E+01  0.33603378928E+02  0.12542596044E+02  0.36994265812E+02  0.00000000000E+00 0.  1.
</event>
<event>
12    1  0.8494789E-002  0.1902572E+03  0.7818608E-02  0.1159247E+00
         21   -1    0    0  503  502  0.00000000000E+00  0.00000000000E+00  0.16035549675E+03  0.16035549675E+03  0.00000000000E+00 0. -1.
         21   -1    0    0  501  503 -0.00000000000E+00 -0.00000000000E+00 -0.22263511208E+03  0.22263511208E+03  0.00000000000E+00 0.  1.
          6    2    1    2  501    0 -0.75597806183E+02  0.20599069116E+02 -0.49659552043E+02  0.19231527998E+03  0.16846289163E+03 0.  0.
         24    2    3    3    0    0 -0.42344592772E+02  0.74147975567E+02 -0.47666651614E+02  0.12907507729E+03  0.84245350519E+02 0.  0.
         -6    2    1    2    0  502  0.75597806183E+02 -0.20599069116E+02 -0.12620063294E+02  0.19067532885E+03  0.17337377277E+03 0.  0.
        -24    2    5    5    0    0  0.10308658192E+03 -0.24171645966E+02 -0.49239358729E+02  0.14450760316E+03  0.85128262528E+02 0.  0.
          5    1    3    3  501    0 -0.33253213412E+02 -0.53548906451E+02 -0.19929004289E+01  0.63240202691E+02  0.47000000000E+01 0. -1.
        -11    1    4    4    0    0  0.32714049759E+01  0.54240832987E+02 -0.56652090712E+02  0.78499869017E+02  0.00000000000E+00 0.  1.
         12    1    4    4    0    0 -0.45615997748E+02  0.19907142580E+02  0.89854390983E+01  0.50575208274E+02  0.00000000000E+00 0. -1.
         -5    1    5    5    0  502 -0.27488775741E+02  0.35725768498E+01  0.36619295434E+02  0.46167725688E+02  0.47000000000E+01 0.  1.
         13    1    6    6    0    0  0.27155769619E+01 -0.31325030613E+02 -0.27021603608E+02  0.41458400388E+02  0.00000000000E+00 0. -1.
        -14    1    6    6    0    0  0.10037100496E+03  0.71533846472E+01 -0.22217755120E+02  0.10304920277E+03  0.00000000000E+00 0.  1.
</event>
<event>
12    1  0.8494789E-002  0.2437433E+03  0.7818608E-02  0.1117461E+00
         21   -1    0    0  503  502  0.00000000000E+00  0.00000000000E+00  0.14721200050E+04  0.14721200050E+04  0.00000000000E+00 0.  1.
         21   -1    0    0  501  503 -0.00000000000E+00 -0.00000000000E+00 -0.43185003654E+02  0.43185003654E+02  0.00000000000E+00 0.  1.
          6    2    1    2  501    0 -0.15880884925E+03  0.62779711447E+02  0.51703304202E+03  0.57160646089E+03  0.17392307731E+03 0.  0.
         24    2    3    3    0    0 -0.15920527235E+03  0.44445827436E+02  0.52077808452E+03  0.55230869425E+03  0.80705204907E+02 0.  0.
         -6    2    1    2    0  502  0.15880884925E+03 -0.62779711447E+02  0.91190195935E+03  0.94369854779E+03  0.17274322812E+03 0.  0.
        -24    2    5    5    0    0  0.12077736851E+03  0.15669926542E+02  0.43133658044E+03  0.45526645155E+03  0.79897289947E+02 0.  0.
          5    1    3    3  501    0  0.39642310075E+00  0.18333884011E+02 -0.37450424995E+01  0.19297766646E+02  0.47000000000E+01 0. -1.
        -13    1    4    4    0    0 -0.97756830266E+02  0.56602664375E+02  0.24930813985E+03  0.27370569609E+03  0.00000000000E+00 0.  1.
         14    1    4    4    0    0 -0.61448442087E+02 -0.12156836940E+02  0.27146994468E+03  0.27860299816E+03  0.00000000000E+00 0. -1.
         -5    1    5    5    0  502  0.38031480746E+02 -0.78449637988E+02  0.48056537891E+03  0.48843209624E+03  0.47000000000E+01 0.  1.
         11    1    6    6    0    0 -0.73336834279E+00 -0.19221011307E+02  0.56103839254E+02  0.59309576662E+02  0.00000000000E+00 0. -1.
        -12    1    6    6    0    0  0.12151073685E+03  0.34890937849E+02  0.37523274119E+03  0.39595687489E+03  0.00000000000E+00 0.  1.
</event>
<event>
12    1  0.8494789E-002  0.2093224E+03  0.7818608E-02  0.1142940E+00
         21   -1    0    0  503  502  0.00000000000E+00  0.00000000000E+00  0.11462247396E+03  0.11462247396E+03  0.00000000000E+00 0. -1.
         21   -1    0    0  501  503 -0.00000000000E+00 -0.00000000000E+00 -0.12719499835E+04  0.12719499835E+04  0.00000000000E+00 0. -1.
          6    2    1    2  501    0  0.91143925368E+02  0.78599860723E+02 -0.11626484618E+04  0.11813413148E+04  0.17126208839E+03 0.  0.
         24    2    3    3    0    0 -0.16526671337E+02  0.57194701713E+02 -0.54969738385E+03  0.55861966569E+03  0.79651442597E+02 0.  0.
         -6    2    1    2    0  502 -0.91143925368E+02 -0.78599860723E+02  0.53209522775E+01  0.20523114271E+03  0.16615160597E+03 0.  0.
        -24    2    5    5    0    0 -0.23229662982E+02 -0.93531772554E+02  0.36226326925E+02  0.12899111905E+03  0.77708122554E+02 0.  0.
          5    1    3    3  501    0  0.10767059670E+03  0.21405159010E+02 -0.61295107797E+03  0.62272164906E+03  0.47000000000E+01 0. -1.
        -13    1    4    4    0    0 -0.11237283912E+02  0.46395018997E+02 -0.12581395290E+03  0.13456569058E+03  0.00000000000E+00 0.  1.
         14    1    4    4    0    0 -0.52893874251E+01  0.10799682716E+02 -0.42388343095E+03  0.42405397510E+03  0.00000000000E+00 0. -1.
         -5    1    5    5    0  502 -0.67914262386E+02  0.14931911831E+02 -0.30905374647E+02  0.76240023665E+02  0.47000000000E+01 0.  1.
         11    1    6    6    0    0 -0.64719788832E+01 -0.95774710759E+02  0.83074127247E+01  0.96351932195E+02  0.00000000000E+00 0. -1.
        -12    1    6    6    0    0 -0.16757684099E+02  0.22429382047E+01  0.27918914200E+02  0.32639186850E+02  0.00000000000E+00 0.  1.
</event>
<event>
12    1  0.8494789E-002  0.2354172E+03  0.7818608E-02  0.1123217E+00
         21   -1    0    0  503  502  0.00000000000E+00  0.00000000000E+00  0.72551692780E+02  0.72551692780E+02  0.00000000000E+00 0. -1.
         21   -1    0    0  501  503 -0.00000000000E+00 -0.00000000000E+00 -0.11789286911E+04  0.11789286911E+04  0.00000000000E+00 0. -1.
          6    2    1    2  501    0 -0.13976734149E+03 -0.73354800468E+02 -0.92874261572E+03  0.95811488082E+03  0.17465807199E+03 0.  0.
         24    2    3    3    0    0 -0.11493912530E+03 -0.85261596464E+02 -0.44307826421E+03  0.47164785786E+03  0.75185179731E+02 0.  0.
         -6    2    1    2    0  502  0.13976734149E+03  0.73354800468E+02 -0.17763438264E+03  0.29336550309E+03  0.17202763734E+03 0.  0.
        -24    2    5    5    0    0  0.12933323187E+03 -0.22598518924E+01 -0.14501242452E+03  0.21022268352E+03  0.80204623336E+02 0.  0.
          5    1    3    3  501    0 -0.24828216196E+02  0.11906795996E+02 -0.48566435151E+03  0.48646702297E+03  0.47000000000E+01 0. -1.
        -13    1    4    4    0    0  0.42018488439E+01 -0.98502567861E+01 -0.10218380942E+03  0.10274343775E+03  0.00000000000E+00 0.  1.
         14    1    4    4    0    0 -0.11914097414E+03 -0.75411339678E+02 -0.34089445479E+03  0.36890442011E+03  0.00000000000E+00 0. -1.
         -5    1    5    5    0  502  0.10434109623E+02  0.75614652360E+02 -0.32621958120E+02  0.83142819575E+02  0.47000000000E+01 0.  1.
         11    1    6    6    0    0  0.25289998798E+02 -0.27608669714E+02 -0.11700244014E+02  0.39226501151E+02  0.00000000000E+00 0. -1.
        -12    1    6    6    0    0  0.10404323307E+03  0.25348817822E+02 -0.13331218051E+03  0.17099618237E+03  0.00000000000E+00 0.  1.
</event>
<event>
12    1  0.8494789E-002  0.2037660E+03  0.7818608E-02  0.1146620E+00
         21   -1    0    0  501  502  0.00000000000E+00  0.00000000000E+00  0.46146493557E+03  0.46146493557E+03  0.00000000000E+00 0. -1.
         21   -1    0    0  502  503 -0.00000000000E+00 -0.00000000000E+00 -0.18106505324E+03  0.18106505324E+03  0.00000000000E+00 0. -1.
         -6    2    1    2    0  503  0.10700689481E+03  0.17445239500E+02 -0.87704367949E+02  0.22183920826E+03  0.17252758112E+03 0.  0.
        -24    2    3    3    0    0  0.95459134727E+02 -0.50220307877E+02 -0.66053728746E+02  0.14970865134E+03  0.80094066433E+02 0.  0.
          6    2    1    2  501    0 -0.10700689481E+03 -0.17445239500E+02  0.36810425027E+03  0.42069078054E+03  0.17240992386E+03 0.  0.
         24    2    5    5    0    0 -0.11527345476E+02 -0.21533343365E+01  0.66914301998E+02  0.10432443965E+03  0.79174164693E+02 0.  0.
          5    1    5    5  501    0 -0.95479549334E+02 -0.15291905163E+02  0.30118994828E+03  0.31636634089E+03  0.47000000000E+01 0. -1.
        -13    1    6    6    0    0 -0.15290690823E+02  0.28966747913E+02  0.65158975144E+02  0.72928524956E+02  0.00000000000E+00 0.  1.
         14    1    6    6    0    0  0.37633453466E+01 -0.31120082249E+02  0.17553268546E+01  0.31395914699E+02  0.00000000000E+00 0. -1.
         -5    1    3    3    0  503  0.11547760083E+02  0.67665547377E+02 -0.21650639203E+02  0.72130556927E+02  0.47000000000E+01 0.  1.
         13    1    4    4    0    0  0.10975286226E+03 -0.43309337405E+02 -0.62160042316E+02  0.13336138999E+03  0.00000000000E+00 0. -1.
        -14    1    4    4    0    0 -0.14293727528E+02 -0.69109704719E+01 -0.38936864296E+01  0.16347261346E+02  0.00000000000E+00 0.  1.
</event>
<event>
12    1  0.8494789E-002  0.1806238E+03  0.7818608E-02  0.1168273E+00
         21   -1    0    0  501  502  0.00000000000E+00  0.00000000000E+00  0.33026896549E+02  0.33026896549E+02  0.00000000000E+00 0.  1.
         21   -1    0    0  502  503 -0.00000000000E+00 -0.00000000000E+00 -0.12512247060E+04  0.12512247060E+04  0.00000000000E+00 0.  1.
         -6    2    1    2    0  503 -0.32980630878E+02 -0.25721721683E+02 -0.91098453526E+03  0.92787407273E+03  0.17119621022E+03 0.  0.
        -24    2    3    3    0    0  0.35123075209E+02 -0.38958961888E+02 -0.66873932069E+03  0.67584595269E+03  0.82486614721E+02 0.  0.
          6    2    1    2  501    0  0.32980630878E+02  0.25721721683E+02 -0.30721327418E+03  0.35637752980E+03  0.17571459511E+03 0.  0.
         24    2    5    5    0    0  0.88769964138E+02  0.56708801967E+00 -0.18621687750E+03  0.22070357022E+03  0.78440501773E+02 0.  0.
          5    1    5    5  501    0 -0.55789333260E+02  0.25154633663E+02 -0.12099639667E+03  0.13567395958E+03  0.47000000000E+01 0. -1.
        -11    1    6    6    0    0  0.35568920137E+02 -0.38530878238E+02 -0.81908346870E+02  0.97256125486E+02  0.00000000000E+00 0.  1.
         12    1    6    6    0    0  0.53201044001E+02  0.39097966258E+02 -0.10430853063E+03  0.12344744473E+03  0.00000000000E+00 0. -1.
         -5    1    3    3    0  503 -0.68103706087E+02  0.13237240205E+02 -0.24224521457E+03  0.25202812004E+03  0.47000000000E+01 0.  1.
         11    1    4    4    0    0  0.44745819198E+01 -0.58134041256E+02 -0.32287960732E+03  0.32810185836E+03  0.00000000000E+00 0. -1.
        -12    1    4    4    0    0  0.30648493289E+02  0.19175079368E+02 -0.34585971336E+03  0.34774409432E+03  0.00000000000E+00 0.  1.
</event>
<event>
12    1  0.8494789E-002  0.1938239E+03  0.7818608E-02  0.1155769E+00
         21   -1    0    0  503  502  0.00000000000E+00  0.00000000000E+00  0.20167993216E+03  0.20167993216E+03  0.00000000000E+00 0.  1.
         21   -1    0    0  501  503 -0.00000000000E+00 -0.00000000000E+00 -0.22283013491E+03  0.22283013491E+03  0.00000000000E+00 0.  1.
          6    2    1    2  501    0 -0.21850383000E+01  0.81611192789E+02  0.79007812563E+02  0.20633736796E+03  0.17224318213E+03 0.  0.
         24    2    3    3    0    0 -0.16000414992E+02  0.11206334773E+03  0.95843117539E+02  0.16860520837E+03  0.80172351371E+02 0.  0.
         -6    2    1    2    0  502  0.21850383000E+01 -0.81611192789E+02 -0.10015801531E+03  0.21817269911E+03  0.17579117562E+03 0.  0.
        -24    2    5    5    0    0 -0.38578053764E+01  0.26832603988E+02 -0.32597860453E+02  0.90176458763E+02  0.79588327724E+02 0.  0.
          5    1    3    3  501    0  0.13815376692E+02 -0.30452154942E+02 -0.16835304977E+02  0.37732159591E+02  0.47000000000E+01 0. -1.
        -11    1    4    4    0    0  0.14459016138E+02  0.14297880608E+01 -0.54751977875E+01  0.15526919604E+02  0.00000000000E+00 0.  1.
         12    1    4    4    0    0 -0.30459431130E+02  0.11063355967E+03  0.10131831533E+03  0.15307828876E+03  0.00000000000E+00 0. -1.
         -5    1    5    5    0  502  0.60428436764E+01 -0.10844379678E+03 -0.67560154858E+02  0.12799624035E+03  0.47000000000E+01 0.  1.
         11    1    6    6    0    0  0.27881928874E+02  0.15756847323E+02  0.12110663100E+02  0.34239572953E+02  0.00000000000E+00 0. -1.
        -12    1    6    6    0    0 -0.31739734250E+02  0.11075756665E+02 -0.44708523552E+02  0.55936885810E+02  0.00000000000E+00 0.  1.
</event>
<event>
12    1  0.8494789E-002  0.2325741E+03  0.7818608E-02  0.1125443E+00
         21   -1    0    0  501  502  0.00000000000E+00  0.00000000000E+00  0.54862476355E+03  0.54862476355E+03  0.00000000000E+00 0. -1.
         21   -1    0    0  502  503 -0.00000000000E+00 -0.00000000000E+00 -0.12427405882E+03  0.12427405882E+03  0.00000000000E+00 0. -1.
         -6    2    1    2    0  503 -0.13907497562E+03 -0.68350221151E+02  0.36814830238E+03  0.43363031537E+03  0.16878529643E+03 0.  0.
        -24    2    3    3    0    0 -0.15267498055E+03 -0.95421607650E+02  0.31452525086E+03  0.37186186262E+03  0.83307734036E+02 0.  0.
          6    2    1    2  501    0  0.13907497562E+03  0.68350221151E+02  0.56202402356E+02  0.23926850700E+03  0.17342752617E+03 0.  0.
         24    2    5    5    0    0  0.62087731843E+02 -0.77536318880E+01 -0.24281498408E+02  0.10429228526E+03  0.79826589224E+02 0.  0.
          5    1    5    5  501    0  0.76987243776E+02  0.76103853039E+02  0.80483900764E+02  0.13497622173E+03  0.47000000000E+01 0. -1.
        -13    1    6    6    0    0  0.33906893817E+02  0.15227376952E+02  0.23704627154E+02  0.44084689016E+02  0.00000000000E+00 0.  1.
         14    1    6    6    0    0  0.28180838026E+02 -0.22981008840E+02 -0.47986125562E+02  0.60207596245E+02  0.00000000000E+00 0. -1.
         -5    1    3    3    0  503  0.13600004930E+02  0.27071386499E+02  0.53623051519E+02  0.61768452752E+02  0.47000000000E+01 0.  1.
         13    1    4    4    0    0 -0.42872649421E+02 -0.32012785933E+02  0.17652156835E+03  0.18445255928E+03  0.00000000000E+00 0. -1.
        -14    1    4    4    0    0 -0.10980233113E+03 -0.63408821717E+02  0.13800368251E+03  0.18740930334E+03  0.00000000000E+00 0.  1.
</event>
<event>
12    1  0.8494789E-002  0.2063572E+03  0.7818608E-02  0.1144727E+00
         21   -1    0    0  501  502  0.00000000000E+00  0.00000000000E+00  0.19499970250E+03  0.19499970250E+03  0.00000000000E+00 0. -1.
         21   -1    0    0  502  503 -0.00000000000E+00 -0.00000000000E+00 -0.22371454474E+03  0.22371454474E+03  0.00000000000E+00 0. -1.
         -6    2    1    2    0  503  0.11038865126E+03  0.23076588362E+02 -0.50294708182E+02  0.21123174157E+03  0.17138000968E+03 0.  0.
        -24    2    3    3    0    0  0.11646426412E+03  0.66023432943E+02 -0.19516686017E+02  0.15783959627E+03  0.81298330884E+02 0.  0.
          6    2    1    2  501    0 -0.11038865126E+03 -0.23076588362E+02  0.21579865940E+02  0.20748250567E+03  0.17281526636E+03 0.  0.
         24    2    5    5    0    0 -0.71181490857E+01  0.88971770334E+01  0.51480462040E+02  0.95218290801E+02  0.79287181345E+02 0.  0.
          5    1    5    5  501    0 -0.10327050218E+03 -0.31973765395E+02 -0.29900596100E+02  0.11226421487E+03  0.47000000000E+01 0. -1.
        -11    1    6    6    0    0  0.59110925235E+01 -0.18277395629E+02 -0.13574649448E+02  0.23521805064E+02  0.00000000000E+00 0.  1.
         12    1    6    6    0    0 -0.13029241609E+02  0.27174572663E+02  0.65055111488E+02  0.71696485737E+02  0.00000000000E+00 0. -1.
         -5    1    3    3    0  503 -0.60756128567E+01 -0.42946844581E+02 -0.30778022166E+02  0.53392145298E+02  0.47000000000E+01 0.  1.
         13    1    4    4    0    0  0.47072928369E+02  0.57007168266E+02 -0.41132482012E+02  0.84602357505E+02  0.00000000000E+00 0. -1.
        -14    1    4    4    0    0  0.69391335751E+02  0.90162646769E+01  0.21615795996E+02  0.73237238769E+02  0.00000000000E+00 0.  1.
</event>
<event>
12    1  0.8494789E-002  0.1822287E+03  0.7818608E-02  0.1165942E+00
         21   -1    0    0  503  502  0.00000000000E+00  0.00000000000E+00  0.11308333647E+03  0.11308333647E+03  0.00000000000E+00 0. -1.
         21   -1    0    0  501  503 -0.00000000000E+00 -0.00000000000E+00 -0.31078001070E+03  0.31078001070E+03  0.00000000000E+00 0. -1.
          6    2    1    2  501    0 -0.44633939926E+02  0.41257465555E+02 -0.46143055586E+02  0.18684899333E+03  0.17055496965E+03 0.  0.
         24    2    3    3    0    0 -0.81943567746E+02 -0.80102679505E+01 -0.12125910859E+02  0.11614839908E+03  0.81021603331E+02 0.  0.
         -6    2    1    2    0  502  0.44633939926E+02 -0.41257465555E+02 -0.15155361865E+03  0.23701435384E+03  0.17179329888E+03 0.  0.
        -24    2    5    5    0    0 -0.12439326576E+02  0.27890803053E+02 -0.43407495960E+02  0.96456484424E+02  0.80541970061E+02 0.  0.
          5    1    3    3  501    0  0.37309627819E+02  0.49267733505E+02 -0.34017144728E+02  0.70700594257E+02  0.47000000000E+01 0. -1.
        -11    1    4    4    0    0 -0.14813045987E+02  0.45179613416E+01 -0.39614415503E+02  0.42533989017E+02  0.00000000000E+00 0.  1.
         12    1    4    4    0    0 -0.67130521758E+02 -0.12528229292E+02  0.27488504644E+02  0.73614410059E+02  0.00000000000E+00 0. -1.
         -5    1    5    5    0  502  0.57073266502E+02 -0.69148268608E+02 -0.10814612269E+03  0.14055786941E+03  0.47000000000E+01 0.  1.
         13    1    6    6    0    0  0.27000133222E+02  0.30073689076E+01 -0.41728869440E+02  0.49793071872E+02  0.00000000000E+00 0. -1.
        -14    1    6    6    0    0 -0.39439459798E+02  0.24883434145E+02 -0.16786265202E+01  0.46663412552E+02  0.00000000000E+00 0.  1.
</event>
<event>
12    1  0.8494789E-002  0.2505416E+03  0.7818608E-02  0.1113080E+00
         21   -1    0    0  501  502  0.00000000000E+00  0.00000000000E+00  0.12505894564E+03  0.12505894564E+03  0.00000000000E+00 0. -1.
         21   -1    0    0  502  503 -0.00000000000E+00 -0.00000000000E+00 -0.50485427929E+03  0.50485427929E+03  0.00000000000E+00 0. -1.
         -6    2    1    2    0  503 -0.10361662324E+03 -0.15158319336E+03 -0.16074754462E+03  0.29767575565E+03  0.17046176485E+03 0.  0.
        -24    2    3    3    0    0 -0.22144936029E+02 -0.64991367488E+02 -0.98419183307E+01  0.10550297357E+03  0.79496780037E+02 0.  0.
          6    2    1    2  501    0  0.10361662324E+03  0.15158319336E+03 -0.21904778903E+03  0.33223746928E+03  0.16936922090E+03 0.  0.
         24    2    5    5    0    0  0.90956938525E+02  0.28774986112E+02 -0.13021225438E+03  0.18006662581E+03  0.79797205765E+02 0.  0.
          5    1    5    5  501    0  0.12659684719E+02  0.12280820725E+03 -0.88835534651E+02  0.15217084347E+03  0.47000000000E+01 0. -1.
        -11    1    6    6    0    0  0.81023360966E+02  0.53303644898E+02 -0.11077466769E+03  0.14723141846E+03  0.00000000000E+00 0.  1.
         12    1    6    6    0    0  0.99335775596E+01 -0.24528658786E+02 -0.19437586692E+02  0.32835207345E+02  0.00000000000E+00 0. -1.
         -5    1    3    3    0  503 -0.81471687216E+02 -0.86591825873E+02 -0.15090562629E+03  0.19217278208E+03  0.47000000000E+01 0.  1.
         13    1    4    4    0    0 -0.39711042684E+02 -0.62826596818E+02 -0.28669609830E+02  0.79662379493E+02  0.00000000000E+00 0. -1.
        -14    1    4    4    0    0  0.17566106655E+02 -0.21647706699E+01  0.18827691499E+02  0.25840594077E+02  0.00000000000E+00 0.  1.
</event>
<event>
12    1  0.8494789E-002  0.2283953E+03  0.7818608E-02  0.1128058E+00
         21   -1    0    0  503  502  0.00000000000E+00  0.00000000000E+00  0.19898143182E+04  0.19898143182E+04  0.00000000000E+00 0.  1.
         21   -1    0    0  501  503 -0.00000000000E+00 -0.00000000000E+00 -0.73995853550E+02  0.73995853550E+02  0.00000000000E+00 0.  1.
          6    2    1    2  501    0 -0.23011500726E+01  0.14990492656E+03  0.12595206164E+03  0.25943045425E+03  0.17018653430E+03 0.  0.
         24    2    3    3    0    0  0.38650467195E+02  0.15121364480E+03  0.12611911875E+03  0.21818890228E+03  0.85679285582E+02 0.  0.
         -6    2    1    2    0  502  0.23011500726E+01 -0.14990492656E+03  0.17898664031E+04  0.18043797175E+04  0.17230102154E+03 0.  0.
        -24    2    5    5    0    0  0.61319532528E+02 -0.13236513942E+03  0.12593315778E+04  0.12702635276E+04  0.79829765152E+02 0.  0.
          5    1    3    3  501    0 -0.40951617268E+02 -0.13087182312E+01 -0.16705710881E+00  0.41241551963E+02  0.47000000000E+01 0. -1.
        -13    1    4    4    0    0  0.61269419875E+02  0.10812631456E+03  0.11255121649E+03  0.16766937122E+03  0.00000000000E+00 0.  1.
         14    1    4    4    0    0 -0.22618952680E+02  0.43087330232E+02  0.13567902264E+02  0.50519531062E+02  0.00000000000E+00 0. -1.
         -5    1    5    5    0  502 -0.59018382455E+02 -0.17539787142E+02  0.53053482523E+03  0.53411618996E+03  0.47000000000E+01 0.  1.
         11    1    6    6    0    0  0.19040408791E+02 -0.27217167868E+02  0.99278022404E+02  0.10468733030E+03  0.00000000000E+00 0. -1.
        -12    1    6    6    0    0  0.42279123737E+02 -0.10514797155E+03  0.11600535554E+04  0.11655761973E+04  0.00000000000E+00 0.  1.
</event>
<event>
12    1  0.8494789E-002  0.2157888E+03  0.7818608E-02  0.1137197E+00
         21   -1    0    0  501  502  0.00000000000E+00  0.00000000000E+00  0.18176939507E+02  0.18176939507E+02  0.00000000000E+00 0.  1.
         21   -1    0    0  502  503 -0.00000000000E+00 -0.00000000000E+00 -0.25535931710E+04  0.25535931710E+04  0.00000000000E+00 0.  1.
         -6    2    1    2    0  503 -0.11405048892E+03  0.63615750921E+02 -0.12539718588E+04  0.12722838653E+04  0.17089860552E+03 0.  0.
        -24    2    3    3    0    0 -0.78840579295E+02  0.69358432622E+02 -0.49545544785E+03  0.51291442170E+03  0.81109025843E+02 0.  0.
          6    2    1    2  501    0  0.11405048892E+03 -0.63615750921E+02 -0.12814443726E+04  0.12994862452E+04  0.17178574874E+03 0.  0.
         24    2    5    5    0    0  0.95237636857E+02  0.18510548408E+02 -0.90626743651E+03  0.91493653988E+03  0.79845836842E+02 0.  0.
          5    1    5    5  501    0  0.18812852066E+02 -0.82126299329E+02 -0.37517693614E+03  0.38454970531E+03  0.47000000000E+01 0. -1.
        -13    1    6    6    0    0  0.46794365740E+02 -0.30689172026E+02 -0.45222143187E+03  0.45567067207E+03  0.00000000000E+00 0.  1.
         14    1    6    6    0    0  0.48443271117E+02  0.49199720435E+02 -0.45404600464E+03  0.45926586781E+03  0.00000000000E+00 0. -1.
         -5    1    3    3    0  503 -0.35209909628E+02 -0.57426817009E+01 -0.75851641099E+03  0.75936944360E+03  0.47000000000E+01 0.  1.
         13    1    4    4    0    0 -0.67471618629E+02  0.67133808569E+01 -0.28993497157E+03  0.29775791600E+03  0.00000000000E+00 0. -1.
        -14    1    4    4    0    0 -0.11368960666E+02  0.62645051765E+02 -0.20552047628E+03  0.21515650571E+03  0.00000000000E+00 0.  1.
</event>
<event>
12    1  0.8494789E-002  0.3012263E+03  0.7818608E-02  0.1084919E+00
         21   -1    0    0  503  502  0.00000000000E+00  0.00000000000E+00  0.21461842455E+04  0.21461842455E+04  0.00000000000E+00 0.  1.
         21   -1    0    0  501  503 -0.00000000000E+00 -0.00000000000E+00 -0.85110644618E+02  0.85110644618E+02  0.00000000000E+00 0. -1.
          6    2    1    2  501    0 -0.19053951289E+03  0.15537409754E+03  0.23413030800E+03  0.37968503328E+03  0.16999207986E+03 0.  0.
         24    2    3    3    0    0 -0.10959893375E+03  0.19027604929E+02  0.77266884778E+02  0.15659319806E+03  0.78595687958E+02 0.  0.
         -6    2    1    2    0  502  0.19053951289E+03 -0.15537409754E+03  0.18269432929E+04  0.18516098568E+04  0.17404266824E+03 0.  0.
        -24    2    5    5    0    0  0.18897534095E+03 -0.77303878216E+02  0.14709614816E+04  0.14871341433E+04  0.78439217269E+02 0.  0.
          5    1    3    3  501    0 -0.80940579139E+02  0.13634649261E+03  0.15686342322E+03  0.22309183522E+03  0.47000000000E+01 0. -1.
        -13    1    4    4    0    0 -0.11555335977E+03  0.24242036641E+02  0.85034895658E+02  0.14550322599E+03  0.00000000000E+00 0.  1.
         14    1    4    4    0    0  0.59544260205E+01 -0.52144317118E+01 -0.77680108804E+01  0.11089972063E+02  0.00000000000E+00 0. -1.
         -5    1    5    5    0  502  0.15641719443E+01 -0.78070219325E+02  0.35598181127E+03  0.36447571351E+03  0.47000000000E+01 0.  1.
         13    1    6    6    0    0  0.57581642602E+02 -0.20279995555E+02  0.72360699342E+03  0.72617766745E+03  0.00000000000E+00 0. -1.
        -14    1    6    6    0    0  0.13139369834E+03 -0.57023882661E+02  0.74735448817E+03  0.76095647585E+03  0.00000000000E+00 0.  1.
</event>
<event>
12    1  0.8494789E-002  0.1845993E+03  0.7818608E-02  0.1163711E+00
         21   -1    0    0  501  502  0.00000000000E+00  0.00000000000E+00  0.38486599407E+03  0.38486599407E+03  0.00000000000E+00 0.  1.
         21   -1    0    0  502  503 -0.00000000000E+00 -0.00000000000E+00 -0.21001770468E+03  0.21001770468E+03  0.00000000000E+00 0.  1.
         -6    2    1    2    0  503 -0.64852411239E+02 -0.74454247971E+01 -0.13920961231E+03  0.23120597324E+03  0.17267199052E+03 0.  0.
        -24    2    3    3    0    0 -0.25530653406E+02 -0.23954909175E+02 -0.20977938760E+01  0.87537937595E+02  0.80204973925E+02 0.  0.
          6    2    1    2  501    0  0.64852411239E+02  0.74454247971E+01  0.31405790170E+03  0.36367772552E+03  0.17137051328E+03 0.  0.
         24    2    5    5    0    0  0.60474709244E+02  0.68158246472E+02  0.20381449889E+03  0.23765824744E+03  0.81476104475E+02 0.  0.
          5    1    5    5  501    0  0.43777019953E+01 -0.60712821675E+02  0.11024340281E+03  0.12601947807E+03  0.47000000000E+01 0. -1.
        -13    1    6    6    0    0  0.48596152219E+02 -0.34797702707E+01  0.96223969517E+02  0.10785521370E+03  0.00000000000E+00 0.  1.
         14    1    6    6    0    0  0.11878557025E+02  0.71638016743E+02  0.10759052937E+03  0.12980303375E+03  0.00000000000E+00 0. -1.
         -5    1    3    3    0  503 -0.39321757833E+02  0.16509484378E+02 -0.13711181843E+03  0.14366803565E+03  0.47000000000E+01 0.  1.
         11    1    4    4    0    0  0.22678262692E+02 -0.31215398677E+02 -0.36867028101E+01  0.38759469694E+02  0.00000000000E+00 0. -1.
        -12    1    4    4    0    0 -0.48208916098E+02  0.72604895027E+01  0.15889089342E+01  0.48778467901E+02  0.00000000000E+00 0.  1.
</event>
<event>
12    1  0.8494789E-002  0.1763037E+03  0.7818608E-02  0.1171926E+00
         21   -1    0    0  501  502  0.00000000000E+00  0.00000000000E+00  0.43051473473E+03  0.43051473473E+03  0.00000000000E+00 0.  1.
         21   -1    0    0  502  503 -0.00000000000E+00 -0.00000000000E+00 -0.85351359882E+02  0.85351359882E+02  0.00000000000E+00 0.  1.
         -6    2    1    2    0  503  0.10578786981E+02 -0.33815915884E+02  0.69074095837E+02  0.18935212952E+03  0.17270660479E+03 0.  0.
        -24    2    3    3    0    0 -0.50979576394E+02 -0.53890663586E+02  0.27113571011E+02  0.11205269071E+03  0.79482947425E+02 0.  0.
          6    2    1    2  501    0 -0.10578786981E+02  0.33815915884E+02  0.27608927901E+03  0.32651396509E+03  0.17067704156E+03 0.  0.
         24    2    5    5    0    0 -0.19545341189E+02  0.78697669670E+02  0.13436011126E+03  0.17750383823E+03  0.82943532078E+02 0.  0.
          5    1    5    5  501    0  0.89665542077E+01 -0.44881753786E+02  0.14172916775E+03  0.14901012686E+03  0.47000000000E+01 0. -1.
        -11    1    6    6    0    0 -0.43436301275E+02  0.60875139909E+02  0.55290686921E+02  0.93002983756E+02  0.00000000000E+00 0.  1.
         12    1    6    6    0    0  0.23890960086E+02  0.17822529762E+02  0.79069424340E+02  0.84500854472E+02  0.00000000000E+00 0. -1.
         -5    1    3    3    0  503  0.61558363375E+02  0.20074747701E+02  0.41960524826E+02  0.77299438811E+02  0.47000000000E+01 0.  1.
         13    1    4    4    0    0 -0.27875976345E+00  0.16584919545E+02 -0.79838041955E+01  0.18408649944E+02  0.00000000000E+00 0. -1.
        -14    1    4    4    0    0 -0.50700816631E+02 -0.70475583131E+02  0.35097375206E+02  0.93644040766E+02  0.00000000000E+00 0.  1.
</event>
<event>
12    1  0.8494789E-002  0.2447858E+03  0.7818608E-02  0.1116742E+00
         21   -1    0    0  501  502  0.00000000000E+00  0.00000000000E+00  0.31867635895E+03  0.31867635895E+03  0.00000000000E+00 0. -1.
         21   -1    0    0  502  503 -0.00000000000E+00 -0.00000000000E+00 -0.22521530170E+03  0.22521530170E+03  0.00000000000E+00 0. -1.
         -6    2    1    2    0  503  0.12285817708E+03 -0.12099734227E+03  0.15786794895E+03  0.29077439260E+03  0.17289583447E+03 0.  0.
        -24    2    3    3    0    0  0.74889611163E+01 -0.99752448980E+02  0.83317521020E+02  0.15170154196E+03  0.77877550725E+02 0.  0.
          6    2    1    2  501    0 -0.12285817708E+03  0.12099734227E+03 -0.64406891697E+02  0.25311726804E+03  0.17374007934E+03 0.  0.
         24    2    5    5    0    0 -0.96283329453E+02  0.11127298571E+02 -0.68977232734E+02  0.13988906022E+03  0.73598873833E+02 0.  0.
          5    1    5    5  501    0 -0.26574847624E+02  0.10987004370E+03  0.45703410372E+01  0.11322820782E+03  0.47000000000E+01 0. -1.
        -13    1    6    6    0    0  0.89497689418E+01  0.13644709386E+02 -0.11423642335E+02  0.19919238503E+02  0.00000000000E+00 0.  1.
         14    1    6    6    0    0 -0.10523309839E+03 -0.25174108153E+01 -0.57553590399E+02  0.11996982172E+03  0.00000000000E+00 0. -1.
         -5    1    3    3    0  503  0.11536921596E+03 -0.21244893291E+02  0.74550427926E+02  0.13907285064E+03  0.47000000000E+01 0.  1.
         11    1    4    4    0    0  0.20557981541E+01 -0.10860702424E+03  0.88479506496E+02  0.14010116020E+03  0.00000000000E+00 0. -1.
        -12    1    4    4    0    0  0.54331629622E+01  0.88545752593E+01 -0.51619854759E+01  0.11600381755E+02  0.00000000000E+00 0.  1.
</event>
<event>
12    1  0.8494789E-002  0.1911196E+03  0.7818608E-02  0.1158498E+00
         21   -1    0    0  503  502  0.00000000000E+00  0.00000000000E+00  0.16262639186E+03  0.16262639186E+03  0.00000000000E+00 0.  1.
         21   -1    0    0  501  503 -0.00000000000E+00 -0.00000000000E+00 -0.47967812726E+03  0.47967812726E+03  0.00000000000E+00 0.  1.
          6    2    1    2  501    0 -0.45435689664E+02  0.74335300352E+02 -0.39427842829E+03  0.43617185061E+03  0.16492502986E+03 0.  0.
         24    2    3    3    0    0 -0.25411756689E+02 -0.18875932998E+02 -0.24146019598E+03  0.25599195706E+03  0.78910060260E+02 0.  0.
         -6    2    1    2    0  502  0.45435689664E+02 -0.74335300352E+02  0.77226692897E+02  0.20613266851E+03  0.17010754292E+03 0.  0.
        -24    2    5    5    0    0  0.46172721819E+02 -0.38573561786E+02  0.11607371224E+03  0.15311733042E+03  0.79699249014E+02 0.  0.
          5    1    3    3  501    0 -0.20023932974E+02  0.93211233349E+02 -0.15281823231E+03  0.18017989355E+03  0.47000000000E+01 0. -1.
        -11    1    4    4    0    0 -0.32189724633E+02  0.16742320626E+02 -0.18752352208E+03  0.19100145289E+03  0.00000000000E+00 0.  1.
         12    1    4    4    0    0  0.67779679432E+01 -0.35618253624E+02 -0.53936673897E+02  0.64990504166E+02  0.00000000000E+00 0. -1.
         -5    1    5    5    0  502 -0.73703215525E+00 -0.35761738566E+02 -0.38847019339E+02  0.53015338094E+02  0.47000000000E+01 0.  1.
         13    1    6    6    0    0 -0.11015981439E+02 -0.15468817364E+02  0.78786696890E+02  0.81043073514E+02  0.00000000000E+00 0. -1.
        -14    1    6    6    0    0  0.57188703258E+02 -0.23104744422E+02  0.37287015346E+02  0.72074256906E+02  0.00000000000E+00 0.  1.
</event>
<event>
12    1  0.8494789E-002  0.2024596E+03  0.7818608E-02  0.1148730E+00
         21   -1    0    0  503  502  0.00000000000E+00  0.00000000000E+00  0.29205915168E+03  0.29205915168E+03  0.00000000000E+00 0. -1.
         21   -1    0    0  501  503 -0.00000000000E+00 -0.00000000000E+00 -0.34863848826E+03  0.34863848826E+03  0.00000000000E+00 0.  1.
          6    2    1    2  501    0  0.88428258852E+02  0.36787775907E+02 -0.27778860816E+03  0.34082526177E+03  0.17269177983E+03 0.  0.
         24    2    3    3    0    0  0.92750557964E+02  0.47984020704E+02 -0.29321946751E+03  0.32071955145E+03  0.77319094067E+02 0.  0.
         -6    2    1    2    0  502 -0.88428258852E+02 -0.36787775907E+02  0.22120927157E+03  0.29987237817E+03  0.17837321531E+03 0.  0.
        -24    2    5    5    0    0 -0.11885396570E+03 -0.62004957803E+02  0.14000532112E+03  0.20944118073E+03  0.79329933134E+02 0.  0.
          5    1    3    3  501    0 -0.43222991112E+01 -0.11196244797E+02  0.15430859356E+02  0.20105710324E+02  0.47000000000E+01 0. -1.
        -11    1    4    4    0    0  0.29063567189E+02 -0.56801679049E+01 -0.16629693636E+03  0.16891307317E+03  0.00000000000E+00 0.  1.
         12    1    4    4    0    0  0.63686990775E+02  0.53664188609E+02 -0.12692253116E+03  0.15180647828E+03  0.00000000000E+00 0. -1.
         -5    1    5    5    0  502  0.30425706849E+02  0.25217181895E+02  0.81203950456E+02  0.90431197435E+02  0.47000000000E+01 0.  1.
         11    1    6    6    0    0 -0.87584690469E+02 -0.23099538594E+02  0.13014361914E+03  0.15856237981E+03  0.00000000000E+00 0. -1.
        -12    1    6    6    0    0 -0.31269275232E+02 -0.38905419209E+02  0.98617019718E+01  0.50878800920E+02  0.00000000000E+00 0.  1.
</event>
<event>
12    1  0.8494789E-002  0.1714126E+03  0.7818608E-02  0.1179237E+00
         21   -1    0    0  503  502  0.00000000000E+00  0.00000000000E+00  0.80477113261E+02  0.80477113261E+02  0.00000000000E+00 0.  1.
         21   -1    0    0  501  503 -0.00000000000E+00 -0.00000000000E+00 -0.50612059553E+03  0.50612059553E+03  0.00000000000E+00 0.  1.
          6    2    1    2  501    0  0.43109042499E+01 -0.42206067083E+00 -0.38407384401E+03  0.42058888132E+03  0.17135789274E+03 0.  0.
         24    2    3    3    0    0 -0.64195275885E+01 -0.41283907081E+02 -0.36147811112E+03  0.37244856760E+03  0.79409945064E+02 0.  0.
         -6    2    1    2    0  502 -0.43109042499E+01  0.42206067083E+00 -0.41569638264E+02  0.16600882748E+03  0.16066155092E+03 0.  0.
        -24    2    5    5    0    0  0.19179017781E+02 -0.54988697802E+02 -0.18518106117E+02  0.10139000881E+03  0.80903782502E+02 0.  0.
          5    1    3    3  501    0  0.10730431838E+02  0.40861846410E+02 -0.22595732891E+02  0.48140313713E+02  0.47000000000E+01 0. -1.
        -11    1    4    4    0    0  0.24051414049E+02  0.13053515498E+02 -0.10380740484E+03  0.10735381728E+03  0.00000000000E+00 0.  1.
         12    1    4    4    0    0 -0.30470941638E+02 -0.54337422579E+02 -0.25767070627E+03  0.26509475032E+03  0.00000000000E+00 0. -1.
         -5    1    5    5    0  502 -0.23489922031E+02  0.55410758473E+02 -0.23051532147E+02  0.64618818667E+02  0.47000000000E+01 0.  1.
         11    1    6    6    0    0  0.42706467285E+02 -0.25862224990E+02  0.13941433797E+02  0.51836865315E+02  0.00000000000E+00 0. -1.
        -12    1    6    6    0    0 -0.23527449504E+02 -0.29126472813E+02 -0.32459539914E+02  0.49553143494E+02  0.00000000000E+00 0.  1.
</event>
<event>
12    1  0.8494789E-002  0.2035038E+03  0.7818608E-02  0.1146884E+00
         21   -1    0    0  501  502  0.00000000000E+00  0.00000000000E+00  0.12296330853E+03  0.12296330853E+03  0.00000000000E+00 0. -1.
         21   -1    0    0  502  503 -0.00000000000E+00 -0.00000000000E+00 -0.48520633813E+03  0.48520633813E+03  0.00000000000E+00 0. -1.
         -6    2    1    2    0  503  0.11508790185E+02 -0.10796428194E+03 -0.34950248019E+03  0.40426742407E+03  0.17173068473E+03 0.  0.
        -24    2    3    3    0    0  0.39504624104E+02 -0.10842621462E+03 -0.34844380215E+03  0.37585631888E+03  0.80858084612E+02 0.  0.
          6    2    1    2  501    0 -0.11508790185E+02  0.10796428194E+03 -0.12740549417E+02  0.20390222259E+03  0.17211930848E+03 0.  0.
         24    2    5    5    0    0 -0.14362666113E+02  0.14004193782E+03 -0.36492186633E+02  0.16361139380E+03  0.74959842390E+02 0.  0.
          5    1    5    5  501    0  0.28538759278E+01 -0.32077655874E+02  0.23751637216E+02  0.40290828790E+02  0.47000000000E+01 0. -1.
        -11    1    6    6    0    0  0.21077259271E+02  0.56937590546E+02 -0.40823381493E+02  0.73162070447E+02  0.00000000000E+00 0.  1.
         12    1    6    6    0    0 -0.35439925383E+02  0.83104347271E+02  0.43311948603E+01  0.90449323355E+02  0.00000000000E+00 0. -1.
         -5    1    3    3    0  503 -0.27995833919E+02  0.46193267209E+00 -0.10586780393E+01  0.28411105185E+02  0.47000000000E+01 0.  1.
         11    1    4    4    0    0  0.15391230425E+02 -0.64047856497E+02 -0.29523319987E+03  0.30249241346E+03  0.00000000000E+00 0. -1.
        -12    1    4    4    0    0  0.24113393679E+02 -0.44378358119E+02 -0.53210602280E+02  0.73363905424E+02  0.00000000000E+00 0.  1.
</event>
<event>
12    1  0.8494789E-002  0.1782836E+03  0.7818608E-02  0.1169765E+00
         21   -1    0    0  501  502  0.00000000000E+00  0.00000000000E+00  0.42712390862E+02  0.42712390862E+02  0.00000000000E+00 0. -1.
         21   -1    0    0  502  503 -0.00000000000E+00 -0.00000000000E+00 -0.10586730294E+04  0.10586730294E+04  0.00000000000E+00 0. -1.
         -6    2    1    2    0  503 -0.26613453168E+01  0.45616977938E+02 -0.80929510307E+03  0.82844645584E+03  0.17110515744E+03 0.  0.
        -24    2    3    3    0    0  0.32757441175E+02  0.74225055027E+02 -0.71002727919E+03  0.71913450147E+03  0.80207763059E+02 0.  0.
          6    2    1    2  501    0  0.26613453168E+01 -0.45616977938E+02 -0.20666553551E+03  0.27293896447E+03  0.17232830099E+03 0.  0.
         24    2    5    5    0    0  0.61226643949E+02  0.52574283904E+01 -0.12844671358E+03  0.16267394949E+03  0.78663289602E+02 0.  0.
          5    1    5    5  501    0 -0.58565298632E+02 -0.50874406329E+02 -0.78218821926E+02  0.11026501497E+03  0.47000000000E+01 0. -1.
        -11    1    6    6    0    0  0.37889916612E+02 -0.35593342662E+02 -0.77567186869E+02  0.93376658226E+02  0.00000000000E+00 0.  1.
         12    1    6    6    0    0  0.23336727337E+02  0.40850771052E+02 -0.50879526716E+02  0.69297291269E+02  0.00000000000E+00 0. -1.
         -5    1    3    3    0  503 -0.35418786492E+02 -0.28608077089E+02 -0.99267823875E+02  0.10931195437E+03  0.47000000000E+01 0.  1.
         11    1    4    4    0    0 -0.69194734173E+00  0.48173986134E+02 -0.15095665965E+03  0.15845859025E+03  0.00000000000E+00 0. -1.
        -12    1    4    4    0    0  0.33449388517E+02  0.26051068893E+02 -0.55907061954E+03  0.56067591122E+03  0.00000000000E+00 0.  1.
</event>
<event>
12    1  0.8494789E-002  0.1832562E+03  0.7818608E-02  0.1166538E+00
         21   -1    0    0  501  502  0.00000000000E+00  0.00000000000E+00  0.11611838122E+03  0.11611838122E+03  0.00000000000E+00 0.  1.
         21   -1    0    0  502  503 -0.00000000000E+00 -0.00000000000E+00 -0.30247630510E+03  0.30247630510E+03  0.00000000000E+00 0.  1.
         -6    2    1    2    0  503  0.52487895632E+01 -0.33779588879E+02 -0.15541293632E+03  0.24028320933E+03  0.18003952203E+03 0.  0.
        -24    2    3    3    0    0 -0.47640914183E+00 -0.27944958014E+02  0.42138762915E+01  0.80378143364E+02  0.75244544874E+02 0.  0.
          6    2    1    2  501    0 -0.52487895632E+01  0.33779588879E+02 -0.30944987559E+02  0.17831147699E+03  0.17224627762E+03 0.  0.
         24    2    5    5    0    0 -0.51017442178E+02  0.69537737557E+02 -0.23236729476E+02  0.11953289244E+03  0.79434818730E+02 0.  0.
          5    1    5    5  501    0  0.45768652615E+02 -0.35758148678E+02 -0.77082580833E+01  0.58778584550E+02  0.47000000000E+01 0. -1.
        -11    1    6    6    0    0 -0.50408432440E+02  0.73057620109E+02  0.70464479683E+01  0.89039757109E+02  0.00000000000E+00 0.  1.
         12    1    6    6    0    0 -0.60900973819E+00 -0.35198825519E+01 -0.30283177444E+02  0.30493135329E+02  0.00000000000E+00 0. -1.
         -5    1    3    3    0  503  0.57251987050E+01 -0.58346308647E+01 -0.15962681261E+03  0.15990506596E+03  0.47000000000E+01 0.  1.
         11    1    4    4    0    0  0.75283064306E+01  0.16934746482E+02  0.24300591886E+02  0.30561083130E+02  0.00000000000E+00 0. -1.
        -12    1    4    4    0    0 -0.80047155724E+01 -0.44879704495E+02 -0.20086715594E+02  0.49817060234E+02  0.00000000000E+00 0.  1.
</event>
<event>
12    1  0.8494789E-002  0.1910825E+03  0.7818608E-02  0.1157500E+00
         21   -1    0    0  501  502  0.00000000000E+00  0.00000000000E+00  0.86830167647E+02  0.86830167647E+02  0.00000000000E+00 0. -1.
         21   -1    0    0  502  503 -0.00000000000E+00 -0.00000000000E+00 -0.59306623751E+03  0.59306623751E+03  0.00000000000E+00 0.  1.
         -6    2    1    2    0  503 -0.83353642885E+02  0.72663888133E+00 -0.69710770037E+02  0.20340136445E+03  0.17194233282E+03 0.  0.
        -24    2    3    3    0    0 -0.66169809362E+02 -0.22672300238E+02  0.21663500885E+02  0.10741104268E+03  0.78583382153E+02 0.  0.
          6    2    1    2  501    0  0.83353642885E+02 -0.72663888133E+00 -0.43652529983E+03  0.47649504071E+03  0.17188609206E+03 0.  0.
         24    2    5    5    0    0 -0.32392534215E+01  0.45004926439E+02 -0.20858461910E+03  0.22836453132E+03  0.81282714490E+02 0.  0.
          5    1    5    5  501    0  0.86592896306E+02 -0.45731565320E+02 -0.22794068073E+03  0.24813050939E+03  0.47000000000E+01 0. -1.
        -13    1    6    6    0    0  0.38682137958E+01  0.90793082653E+01 -0.18398060105E+03  0.18424510436E+03  0.00000000000E+00 0.  1.
         14    1    6    6    0    0 -0.71074672173E+01  0.35925618174E+02 -0.24604018042E+02  0.44119426959E+02  0.00000000000E+00 0. -1.
         -5    1    3    3    0  503 -0.17183833522E+02  0.23398939119E+02 -0.91374270923E+02  0.95990321768E+02  0.47000000000E+01 0.  1.
         11    1    4    4    0    0 -0.76924581035E+02 -0.99076918661E+01 -0.30142678039E+01  0.77618550205E+02  0.00000000000E+00 0. -1.
        -12    1    4    4    0    0  0.10754771672E+02 -0.12764608372E+02  0.24677768689E+02  0.29792492478E+02  0.00000000000E+00 0.  1.
</event>
<event>
12    1  0.8494789E-002  0.2030832E+03  0.7818608E-02  0.1147373E+00
         21   -1    0    0  503  502  0.00000000000E+00  0.00000000000E+00  0.76307140289E+03  0.76307140289E+03  0.00000000000E+00 0. -1.
         21   -1    0    0  501  503 -0.00000000000E+00 -0.00000000000E+00 -0.11189125669E+03  0.11189125669E+03  0.00000000000E+00 0. -1.
          6    2    1    2  501    0  0.56677367428E+02 -0.89851538831E+02  0.10704317224E+02  0.20336508896E+03  0.17308135079E+03 0.  0.
         24    2    3    3    0    0  0.90968201421E+02 -0.60466267219E+02  0.49155843883E+02  0.14386748072E+03  0.79687965723E+02 0.  0.
         -6    2    1    2    0  502 -0.56677367428E+02  0.89851538831E+02  0.64047582897E+03  0.67159757061E+03  0.17189644076E+03 0.  0.
        -24    2    5    5    0    0 -0.24081216518E+02  0.10842793613E+03  0.60312531762E+03  0.61844926594E+03  0.79892574571E+02 0.  0.
          5    1    3    3  501    0 -0.34290833993E+02 -0.29385271612E+02 -0.38451526659E+02  0.59497608238E+02  0.47000000000E+01 0. -1.
        -11    1    4    4    0    0 -0.43342973413E+01  0.54554172099E+01 -0.11215835108E+02  0.13203888349E+02  0.00000000000E+00 0.  1.
         12    1    4    4    0    0  0.95302498763E+02 -0.65921684429E+02  0.60371678991E+02  0.13066359238E+03  0.00000000000E+00 0. -1.
         -5    1    5    5    0  502 -0.32596150911E+02 -0.18576397302E+02  0.37350511357E+02  0.53148304673E+02  0.47000000000E+01 0.  1.
         11    1    6    6    0    0 -0.44448739814E+02  0.10559151678E+03  0.47099773598E+03  0.48473098332E+03  0.00000000000E+00 0. -1.
        -12    1    6    6    0    0  0.20367523297E+02  0.28364193566E+01  0.13212758163E+03  0.13371828262E+03  0.00000000000E+00 0.  1.
</event>
<event>
12    1  0.8494789E-002  0.1756273E+03  0.7818608E-02  0.1173320E+00
         21   -1    0    0  501  502  0.00000000000E+00  0.00000000000E+00  0.50986665290E+03  0.50986665290E+03  0.00000000000E+00 0. -1.
         21   -1    0    0  502  503 -0.00000000000E+00 -0.00000000000E+00 -0.60106729568E+02  0.60106729568E+02  0.00000000000E+00 0. -1.
         -6    2    1    2    0  503  0.64978224736E+00 -0.92245054756E+01  0.18069322053E+03  0.24866072199E+03  0.17057725815E+03 0.  0.
        -24    2    3    3    0    0  0.26369489407E+02  0.34752907555E+02  0.17575073157E+03  0.19725999835E+03  0.78230893814E+02 0.  0.
          6    2    1    2  501    0 -0.64978224736E+00  0.92245054756E+01  0.26906670281E+03  0.32131266048E+03  0.17538364094E+03 0.  0.
         24    2    5    5    0    0 -0.54271291682E+01 -0.59537939570E+02  0.11052438258E+03  0.14837089516E+03  0.78892733535E+02 0.  0.
          5    1    5    5  501    0  0.47773469208E+01  0.68762445046E+02  0.15854232022E+03  0.17294176533E+03  0.47000000000E+01 0. -1.
        -11    1    6    6    0    0 -0.34838772383E+02 -0.27510746006E+01  0.42066798301E+02  0.54689340752E+02  0.00000000000E+00 0.  1.
         12    1    6    6    0    0  0.29411643215E+02 -0.56786864970E+02  0.68457584282E+02  0.93681554403E+02  0.00000000000E+00 0. -1.
         -5    1    3    3    0  503 -0.25719707160E+02 -0.43977413031E+02  0.49424889564E+01  0.51400723636E+02  0.47000000000E+01 0.  1.
         13    1    4    4    0    0 -0.65981060932E+01  0.11349452287E+02 -0.34348076882E+01  0.13569929075E+02  0.00000000000E+00 0. -1.
        -14    1    4    4    0    0  0.32967595500E+02  0.23403455268E+02  0.17918553926E+03  0.18369006928E+03  0.00000000000E+00 0.  1.
</event>
<event>
12    1  0.8494789E-002  0.1801664E+03  0.7818608E-02  0.1167687E+00
         21   -1    0    0  501  502  0.00000000000E+00  0.00000000000E+00  0.10038885247E+03  0.10038885247E+03  0.00000000000E+00 0. -1.
         21   -1    0    0  502  503 -0.00000000000E+00 -0.00000000000E+00 -0.41428589346E+03  0.41428589346E+03  0.00000000000E+00 0. -1.
         -6    2    1    2    0  503 -0.52213600187E+02  0.51028090656E+01 -0.27780335490E+03  0.33111119010E+03  0.17235897862E+03 0.  0.
        -24    2    3    3    0    0  0.22123405419E+02  0.42552423462E+02 -0.17680644030E+03  0.20014962788E+03  0.80617630809E+02 0.  0.
          6    2    1    2  501    0  0.52213600187E+02 -0.51028090656E+01 -0.36093686082E+02  0.18356355583E+03  0.17216424179E+03 0.  0.
         24    2    5    5    0    0 -0.29014577391E+02 -0.13426705800E+02  0.16442123699E+02  0.86355503703E+02  0.78516287854E+02 0.  0.
          5    1    5    5  501    0  0.81228177578E+02  0.83238967347E+01 -0.52535809780E+02  0.97208052130E+02  0.47000000000E+01 0. -1.
        -11    1    6    6    0    0 -0.22801297338E+02  0.22269493463E+02 -0.17797026311E+02  0.36504296253E+02  0.00000000000E+00 0.  1.
         12    1    6    6    0    0 -0.62132800535E+01 -0.35696199263E+02  0.34239150010E+02  0.49851207451E+02  0.00000000000E+00 0. -1.
         -5    1    3    3    0  503 -0.74337005606E+02 -0.37449614396E+02 -0.10099691460E+03  0.13096156222E+03  0.47000000000E+01 0.  1.
         13    1    4    4    0    0 -0.37832983446E+01  0.48167035801E+02 -0.46092671340E+02  0.66775077952E+02  0.00000000000E+00 0. -1.
        -14    1    4    4    0    0  0.25906703764E+02 -0.56146123388E+01 -0.13071376896E+03  0.13337454993E+03  0.00000000000E+00 0.  1.
</event>
<event>
12    1  0.8494789E-002  0.2369974E+03  0.7818608E-02  0.1122038E+00
         21   -1    0    0  501  502  0.00000000000E+00  0.00000000000E+00  0.72531266521E+03  0.72531266521E+03  0.00000000000E+00 0. -1.
         21   -1    0    0  502  503 -0.00000000000E+00 -0.00000000000E+00 -0.13353629662E+03  0.13353629662E+03  0.00000000000E+00 0.  1.
         -6    2    1    2    0  503 -0.13357708111E+03  0.92639875584E+02  0.16959792471E+02  0.23760349327E+03  0.17246101677E+03 0.  0.
        -24    2    3    3    0    0 -0.16236103759E+03  0.10039843302E+03  0.96811991429E+01  0.20655869845E+03  0.78305928327E+02 0.  0.
          6    2    1    2  501    0  0.13357708111E+03 -0.92639875584E+02  0.57481657612E+03  0.62124546856E+03  0.17060730604E+03 0.  0.
         24    2    5    5    0    0  0.14622636157E+03 -0.84342101707E+02  0.36068964411E+03  0.40653335814E+03  0.81710543839E+02 0.  0.
          5    1    5    5  501    0 -0.12649280458E+02 -0.82977738775E+01  0.21412693202E+03  0.21471211042E+03  0.47000000000E+01 0. -1.
        -11    1    6    6    0    0  0.78331876886E+02 -0.40127556849E+02  0.98413685168E+02  0.13202786518E+03  0.00000000000E+00 0.  1.
         12    1    6    6    0    0  0.67894484681E+02 -0.44214544858E+02  0.26227595894E+03  0.27450549296E+03  0.00000000000E+00 0. -1.
         -5    1    3    3    0  503  0.28783956479E+02 -0.77585574352E+01  0.72785933284E+01  0.31044794811E+02  0.47000000000E+01 0.  1.
         13    1    4    4    0    0 -0.18119302562E+02  0.38034233185E+02  0.24465736233E+02  0.48718418167E+02  0.00000000000E+00 0. -1.
        -14    1    4    4    0    0 -0.14424173503E+03  0.62364199835E+02 -0.14784537091E+02  0.15784028029E+03  0.00000000000E+00 0.  1.
</event>
<event>
12    1  0.8494789E-002  0.1912846E+03  0.7818608E-02  0.1157646E+00
         21   -1    0    0  501  502  0.00000000000E+00  0.00000000000E+00  0.16393101681E+03  0.16393101681E+03  0.00000000000E+00 0.  1.
         21   -1    0    0  502  503 -0.00000000000E+00 -0.00000000000E+00 -0.22989715326E+03  0.22989715326E+03  0.00000000000E+00 0.  1.
         -6    2    1    2    0  503 -0.45978455595E+02  0.69399899663E+02 -0.70863647107E+02  0.20398889236E+03  0.17221918382E+03 0.  0.
        -24    2    3    3    0    0 -0.83624221874E+01  0.37027380791E+02  0.28045176320E+02  0.93227927672E+02  0.80398740974E+02 0.  0.
          6    2    1    2  501    0  0.45978455595E+02 -0.69399899663E+02  0.48975106593E+01  0.18983927771E+03  0.17054208073E+03 0.  0.
         24    2    5    5    0    0  0.47766668089E+02 -0.11487896840E+03  0.12596656912E+02  0.14343981382E+03  0.70267150670E+02 0.  0.
          5    1    5    5  501    0 -0.17882124940E+01  0.45479068732E+02 -0.76991462528E+01  0.46399463894E+02  0.47000000000E+01 0. -1.
        -13    1    6    6    0    0  0.50408868900E+02 -0.31693377264E+02  0.24331221552E+01  0.59593995583E+02  0.00000000000E+00 0.  1.
         14    1    6    6    0    0 -0.26422008109E+01 -0.83185591131E+02  0.10163534757E+02  0.83845818236E+02  0.00000000000E+00 0. -1.
         -5    1    3    3    0  503 -0.37616033407E+02  0.32372518872E+02 -0.98908823427E+02  0.11076096469E+03  0.47000000000E+01 0.  1.
         11    1    4    4    0    0  0.14557030795E+02 -0.19394787434E+02 -0.37330979059E+01  0.24535707553E+02  0.00000000000E+00 0. -1.
        -12    1    4    4    0    0 -0.22919452982E+02  0.56422168225E+02  0.31778274226E+02  0.68692220119E+02  0.00000000000E+00 0.  1.
</event>
<event>
12    1  0.8494789E-002  0.1784975E+03  0.7818608E-02  0.1170006E+00
         21   -1    0    0  503  502  0.00000000000E+00  0.00000000000E+00  0.24834957580E+03  0.24834957580E+03  0.00000000000E+00 0.  1.
         21   -1    0    0  501  503 -0.00000000000E+00 -0.00000000000E+00 -0.30673682910E+03  0.30673682910E+03  0.00000000000E+00 0.  1.
          6    2    1    2  501    0 -0.32252807976E+02 -0.96113714992E+01  0.18386536848E+03  0.25417495475E+03  0.17223766084E+03 0.  0.
         24    2    3    3    0    0  0.58092986152E+01  0.20456946159E+02  0.33169508231E+02  0.95795158117E+02  0.87317016932E+02 0.  0.
         -6    2    1    2    0  502  0.32252807976E+02  0.96113714992E+01 -0.24225262178E+03  0.30091145016E+03  0.17529616650E+03 0.  0.
        -24    2    5    5    0    0  0.53349036586E+02 -0.39177105110E+02 -0.22050085432E+03  0.24328683997E+03  0.78656814556E+02 0.  0.
          5    1    3    3  501    0 -0.38062106591E+02 -0.30068317658E+02  0.15069586025E+03  0.15837979663E+03  0.47000000000E+01 0. -1.
        -13    1    4    4    0    0  0.15579303899E+02  0.52414492713E+02  0.29624383893E+02  0.62190014290E+02  0.00000000000E+00 0.  1.
         14    1    4    4    0    0 -0.97700052838E+01 -0.31957546555E+02  0.35451243380E+01  0.33605143827E+02  0.00000000000E+00 0. -1.
         -5    1    5    5    0  502 -0.21096228610E+02  0.48788476609E+02 -0.21751767457E+02  0.57624610184E+02  0.47000000000E+01 0.  1.
         13    1    6    6    0    0  0.65275719627E+02 -0.52912685248E+02 -0.17053825968E+03  0.19011567492E+03  0.00000000000E+00 0. -1.
        -14    1    6    6    0    0 -0.11926683041E+02  0.13735580138E+02 -0.49962594641E+02  0.53171165055E+02  0.00000000000E+00 0.  1.
</event>
<event>
12    1  0.8494789E-002  0.3548625E+03  0.7818608E-02  0.1060681E+00
         21   -1    0    0  503  502  0.00000000000E+00  0.00000000000E+00  0.15829607636E+04  0.15829607636E+04  0.00000000000E+00 0. -1.
         21   -1    0    0  501  503 -0.00000000000E+00 -0.00000000000E+00 -0.80446842002E+02  0.80446842002E+02  0.00000000000E+00 0. -1.
          6    2    1    2  501    0 -0.31001884533E+03 -0.50833431705E+01  0.65929702417E+03  0.74873222213E+03  0.17259736247E+03 0.  0.
         24    2    3    3    0    0 -0.11974155377E+03 -0.58086291441E+02  0.33834132257E+03  0.37183779048E+03  0.77951490842E+02 0.  0.
         -6    2    1    2    0  502  0.31001884533E+03  0.50833431705E+01  0.84321689742E+03  0.91467538347E+03  0.17169390259E+03 0.  0.
        -24    2    5    5    0    0  0.22799355713E+03  0.26932103129E+02  0.75002427339E+03  0.78853073875E+03  0.80857374518E+02 0.  0.
          5    1    3    3  501    0 -0.19027729157E+03  0.53002948271E+02  0.32095570161E+03  0.37689443165E+03  0.47000000000E+01 0. -1.
        -11    1    4    4    0    0 -0.14326752750E+02  0.18739737626E+02  0.45192078303E+02  0.50978010475E+02  0.00000000000E+00 0.  1.
         12    1    4    4    0    0 -0.10541480102E+03 -0.76826029067E+02  0.29314924426E+03  0.32085978001E+03  0.00000000000E+00 0. -1.
         -5    1    5    5    0  502  0.82025288204E+02 -0.21848759958E+02  0.93192624035E+02  0.12614464472E+03  0.47000000000E+01 0.  1.
         11    1    6    6    0    0  0.72055683509E+02 -0.75010143554E+01  0.35747012274E+03  0.36473713191E+03  0.00000000000E+00 0. -1.
        -12    1    6    6    0    0  0.15593787362E+03  0.34433117484E+02  0.39255415065E+03  0.42379360684E+03  0.00000000000E+00 0.  1.
</event>
<event>
12    1  0.8494789E-002  0.2919684E+03  0.7818608E-02  0.1089408E+00
         21   -1    0    0  501  502  0.00000000000E+00  0.00000000000E+00  0.87516578728E+03  0.87516578728E+03  0.00000000000E+00 0.  1.
         21   -1    0    0  502  503 -0.00000000000E+00 -0.00000000000E+00 -0.13113710683E+03  0.13113710683E+03  0.00000000000E+00 0. -1.
         -6    2    1    2    0  503 -0.23068292014E+03  0.49768320890E+02  0.11633031755E+03  0.31429016775E+03  0.17191297611E+03 0.  0.
        -24    2    3    3    0    0 -0.23494835367E+03  0.80311180015E+02  0.10280335876E+03  0.28028827397E+03  0.79639006933E+02 0.  0.
          6    2    1    2  501    0  0.23068292014E+03 -0.49768320890E+02  0.62769836290E+03  0.69201272636E+03  0.17083583714E+03 0.  0.
         24    2    5    5    0    0  0.20856116422E+03  0.20339562785E+00  0.56992223294E+03  0.61234644912E+03  0.81602828130E+02 0.  0.
          5    1    5    5  501    0  0.22121755920E+02 -0.49971716518E+02  0.57776129964E+02  0.79666277247E+02  0.47000000000E+01 0. -1.
        -13    1    6    6    0    0  0.13809270273E+03 -0.19731293401E+02  0.45648709611E+03  0.47732524279E+03  0.00000000000E+00 0.  1.
         14    1    6    6    0    0  0.70468461493E+02  0.19934689029E+02  0.11343513682E+03  0.13502120633E+03  0.00000000000E+00 0. -1.
         -5    1    3    3    0  503  0.42654335267E+01 -0.30542859125E+02  0.13526958791E+02  0.34001893783E+02  0.47000000000E+01 0.  1.
         13    1    4    4    0    0 -0.15466548700E+02 -0.42271145294E+01 -0.10555028157E+02  0.19196125789E+02  0.00000000000E+00 0. -1.
        -14    1    4    4    0    0 -0.21948180497E+03  0.84538294544E+02  0.11335838692E+03  0.26109214818E+03  0.00000000000E+00 0.  1.
</event>
<event>
12    1  0.8494789E-002  0.2090080E+03  0.7818608E-02  0.1142729E+00
         21   -1    0    0  501  502  0.00000000000E+00  0.00000000000E+00  0.20845114746E+03  0.20845114746E+03  0.00000000000E+00 0. -1.
         21   -1    0    0  502  503 -0.00000000000E+00 -0.00000000000E+00 -0.22029302179E+03  0.22029302179E+03  0.00000000000E+00 0. -1.
         -6    2    1    2    0  503 -0.10772883354E+03  0.46245938706E+02  0.45379848286E+02  0.21204469740E+03  0.17076133825E+03 0.  0.
        -24    2    3    3    0    0 -0.11998383135E+03  0.32818415691E+02  0.81621131414E+02  0.17122798577E+03  0.84757570890E+02 0.  0.
          6    2    1    2  501    0  0.10772883354E+03 -0.46245938706E+02 -0.57221722617E+02  0.21669947185E+03  0.17303221416E+03 0.  0.
         24    2    5    5    0    0  0.68899961657E+01 -0.14437417388E+02 -0.73782592629E+02  0.10957055154E+03  0.79409846500E+02 0.  0.
          5    1    5    5  501    0  0.10083883738E+03 -0.31808521318E+02  0.16560870011E+02  0.10712892032E+03  0.47000000000E+01 0. -1.
        -11    1    6    6    0    0 -0.82754431740E+01 -0.10396349660E+02  0.14636981181E+02  0.19768871088E+02  0.00000000000E+00 0.  1.
         12    1    6    6    0    0  0.15165439340E+02 -0.40410677278E+01 -0.88419573810E+02  0.89801680449E+02  0.00000000000E+00 0. -1.
         -5    1    3    3    0  503  0.12254997807E+02  0.13427523014E+02 -0.36241283128E+02  0.40816711630E+02  0.47000000000E+01 0.  1.
         11    1    4    4    0    0 -0.39880553146E+02 -0.43148119820E+00  0.74126583677E+02  0.84174788998E+02  0.00000000000E+00 0. -1.
        -12    1    4    4    0    0 -0.80103278206E+02  0.33249896889E+02  0.74945477377E+01  0.87053196773E+02  0.00000000000E+00 0.  1.
</event>
<event>
12    1  0.8494789E-002  0.1833355E+03  0.7818608E-02  0.1170222E+00
         21   -1    0    0  503  502  0.00000000000E+00  0.00000000000E+00  0.10392601266E+03  0.10392601266E+03  0.00000000000E+00 0.  1.
         21   -1    0    0  501  503 -0.00000000000E+00 -0.00000000000E+00 -0.43834993419E+03  0.43834993419E+03  0.00000000000E+00 0.  1.
          6    2    1    2  501    0  0.22575701811E+02 -0.49053487222E+02 -0.32009722892E+03  0.35838152272E+03  0.15185247099E+03 0.  0.
         24    2    3    3    0    0  0.92841866618E+01 -0.48693573787E+02 -0.32855636364E+03  0.34193643613E+03  0.80709243673E+02 0.  0.
         -6    2    1    2    0  502 -0.22575701811E+02  0.49053487222E+02 -0.14326692622E+02  0.18389442413E+03  0.17520273453E+03 0.  0.
        -24    2    5    5    0    0 -0.44726655537E+02  0.85733537988E+02 -0.36869971397E+02  0.13524896912E+03  0.87075688955E+02 0.  0.
          5    1    3    3  501    0  0.13291515149E+02 -0.35991343505E+00  0.84591347239E+01  0.16445086589E+02  0.47000000000E+01 0. -1.
        -11    1    4    4    0    0  0.31266415669E+02 -0.61185809363E+02 -0.25773953535E+03  0.26674137306E+03  0.00000000000E+00 0.  1.
         12    1    4    4    0    0 -0.21982229008E+02  0.12492235576E+02 -0.70816828285E+02  0.75195063071E+02  0.00000000000E+00 0. -1.
         -5    1    5    5    0  502  0.22150953726E+02 -0.36680050766E+02  0.22543278775E+02  0.48645455009E+02  0.47000000000E+01 0.  1.
         11    1    6    6    0    0 -0.31395351870E+02  0.37122316045E+02 -0.62110749345E+02  0.78876356735E+02  0.00000000000E+00 0. -1.
        -12    1    6    6    0    0 -0.13331303667E+02  0.48611221942E+02  0.25240777948E+02  0.56372612390E+02  0.00000000000E+00 0.  1.
</event>
<event>
12    1  0.8494789E-002  0.1930463E+03  0.7818608E-02  0.1156564E+00
         21   -1    0    0  501  502  0.00000000000E+00  0.00000000000E+00  0.58241134906E+03  0.58241134906E+03  0.00000000000E+00 0.  1.
         21   -1    0    0  502  503 -0.00000000000E+00 -0.00000000000E+00 -0.76131846102E+02  0.76131846102E+02  0.00000000000E+00 0.  1.
         -6    2    1    2    0  503 -0.39089830485E+02  0.79346756573E+02  0.11320064014E+03  0.22061868182E+03  0.16743445050E+03 0.  0.
        -24    2    3    3    0    0 -0.26322776336E+02  0.26792618533E+02 -0.13662949251E+02  0.82628119062E+02  0.72318717602E+02 0.  0.
          6    2    1    2  501    0  0.39089830485E+02 -0.79346756573E+02  0.39307886282E+03  0.43792451335E+03  0.17158952289E+03 0.  0.
         24    2    5    5    0    0  0.85887480340E+02 -0.84229240061E+02  0.26113334662E+03  0.29776186525E+03  0.77461471180E+02 0.  0.
          5    1    5    5  501    0 -0.46797649855E+02  0.48824834879E+01  0.13194551620E+03  0.14016264810E+03  0.47000000000E+01 0. -1.
        -11    1    6    6    0    0  0.64992406638E+02 -0.97935574321E+02  0.20474836228E+03  0.23608744460E+03  0.00000000000E+00 0.  1.
         12    1    6    6    0    0  0.20895073701E+02  0.13706334260E+02  0.56384984337E+02  0.61674420650E+02  0.00000000000E+00 0. -1.
         -5    1    3    3    0  503 -0.12767054149E+02  0.52554138040E+02  0.12686358939E+03  0.13799056276E+03  0.47000000000E+01 0.  1.
         11    1    4    4    0    0 -0.13074875019E+02  0.40923912645E+01  0.29253582084E+02  0.32302818574E+02  0.00000000000E+00 0. -1.
        -12    1    4    4    0    0 -0.13247901317E+02  0.22700227269E+02 -0.42916531335E+02  0.50325300488E+02  0.00000000000E+00 0.  1.
</event>
<event>
12    1  0.8494789E-002  0.2654699E+03  0.7818608E-02  0.1104350E+00
         21   -1    0    0  501  502  0.00000000000E+00  0.00000000000E+00  0.18575447386E+03  0.18575447386E+03  0.00000000000E+00 0.  1.
         21   -1    0    0  502  503 -0.00000000000E+00 -0.00000000000E+00 -0.55572306071E+03  0.55572306071E+03  0.00000000000E+00 0. -1.
         -6    2    1    2    0  503  0.19583179616E+03 -0.48287041516E+02 -0.39565389522E+03  0.47476798517E+03  0.16787168961E+03 0.  0.
        -24    2    3    3    0    0  0.18900968959E+03 -0.31380997697E+02 -0.23658077603E+03  0.31458464426E+03  0.79269193518E+02 0.  0.
          6    2    1    2  501    0 -0.19583179616E+03  0.48287041516E+02  0.25685308377E+02  0.26670954940E+03  0.17260509237E+03 0.  0.
         24    2    5    5    0    0 -0.76802341647E+02 -0.23232721328E+02  0.52550056268E+02  0.12519314683E+03  0.80457793757E+02 0.  0.
          5    1    5    5  501    0 -0.11902945451E+03  0.71519762844E+02 -0.26864747891E+02  0.14151640257E+03  0.47000000000E+01 0. -1.
        -11    1    6    6    0    0 -0.39739292131E+02  0.27723947881E+02  0.35036586384E+02  0.59794573421E+02  0.00000000000E+00 0.  1.
         12    1    6    6    0    0 -0.37063049516E+02 -0.50956669209E+02  0.17513469884E+02  0.65398573407E+02  0.00000000000E+00 0. -1.
         -5    1    3    3    0  503  0.68221065658E+01 -0.16906043819E+02 -0.15907311919E+03  0.16018334091E+03  0.47000000000E+01 0.  1.
         11    1    4    4    0    0  0.11339427090E+03 -0.57269276082E+02 -0.13575313488E+03  0.18592187683E+03  0.00000000000E+00 0. -1.
        -12    1    4    4    0    0  0.75615418691E+02  0.25888278385E+02 -0.10082764115E+03  0.12866276742E+03  0.00000000000E+00 0.  1.
</event>
<event>
12    1  0.8494789E-002  0.2503041E+03  0.7818608E-02  0.1113190E+00
         21   -1    0    0  503  502  0.00000000000E+00  0.00000000000E+00  0.15985891546E+03  0.15985891546E+03  0.00000000000E+00 0. -1.
         21   -1    0    0  501  503 -0.00000000000E+00 -0.00000000000E+00 -0.11867072690E+04  0.11867072690E+04  0.00000000000E+00 0.  1.
          6    2    1    2  501    0 -0.31099768858E+02  0.17867024526E+03 -0.10648555754E+04  0.10938782036E+04  0.17251630543E+03 0.  0.
         24    2    3    3    0    0  0.27094092366E+02  0.17147559965E+03 -0.82026890752E+03  0.84231704499E+03  0.80740030378E+02 0.  0.
         -6    2    1    2    0  502  0.31099768858E+02 -0.17867024526E+03  0.38007221901E+02  0.25268798084E+03  0.17180341842E+03 0.  0.
        -24    2    5    5    0    0  0.47445124827E+02 -0.20112613597E+03  0.31462987210E+02  0.22376818318E+03  0.79871883676E+02 0.  0.
          5    1    3    3  501    0 -0.58193861224E+02  0.71946456084E+01 -0.24458666790E+03  0.25156115861E+03  0.47000000000E+01 0. -1.
        -13    1    4    4    0    0  0.46227887050E+02  0.67839139220E+02 -0.44605745839E+03  0.45354869919E+03  0.00000000000E+00 0.  1.
         14    1    4    4    0    0 -0.19133794684E+02  0.10363646043E+03 -0.37421144913E+03  0.38876834580E+03  0.00000000000E+00 0. -1.
         -5    1    5    5    0  502 -0.16345355969E+02  0.22455890704E+02  0.65442346909E+01  0.28919797661E+02  0.47000000000E+01 0.  1.
         11    1    6    6    0    0  0.23759841336E+02 -0.17438307975E+03  0.50756814560E+02  0.18316725359E+03  0.00000000000E+00 0. -1.
        -12    1    6    6    0    0  0.23685283491E+02 -0.26743056212E+02 -0.19293827350E+02  0.40600929589E+02  0.00000000000E+00 0.  1.
</event>
<event>
12    1  0.8494789E-002  0.2396901E+03  0.7818608E-02  0.1122071E+00
         21   -1    0    0  503  502  0.00000000000E+00  0.00000000000E+00  0.15129157803E+03  0.15129157803E+03  0.00000000000E+00 0.  1.
         21   -1    0    0  501  503 -0.00000000000E+00 -0.00000000000E+00 -0.71743221634E+03  0.71743221634E+03  0.00000000000E+00 0.  1.
          6    2    1    2  501    0  0.14616242319E+03  0.28278539713E+02 -0.59292829528E+03  0.63954305895E+03  0.18785162003E+03 0.  0.
         24    2    3    3    0    0  0.44600073930E+02  0.27046523670E+02 -0.47090114020E+03  0.48070620797E+03  0.81301251565E+02 0.  0.
         -6    2    1    2    0  502 -0.14616242319E+03 -0.28278539713E+02  0.26787656976E+02  0.22918073542E+03  0.17217171998E+03 0.  0.
        -24    2    5    5    0    0 -0.13303787816E+03 -0.54414148272E+02  0.68955862071E+02  0.17764850048E+03  0.78384324018E+02 0.  0.
          5    1    3    3  501    0  0.10156234926E+03  0.12320160432E+01 -0.12202715508E+03  0.15883685098E+03  0.47000000000E+01 0. -1.
        -13    1    4    4    0    0  0.32910386423E+02 -0.21568266692E+02 -0.30221226173E+03  0.30476307979E+03  0.00000000000E+00 0.  1.
         14    1    4    4    0    0  0.11689687507E+02  0.48614790362E+02 -0.16868887847E+03  0.17594312818E+03  0.00000000000E+00 0. -1.
         -5    1    5    5    0  502 -0.13124545038E+02  0.26135608560E+02 -0.42168205095E+02  0.51532234943E+02  0.47000000000E+01 0.  1.
         13    1    6    6    0    0 -0.13689111432E+02  0.16142332547E+02 -0.31105601274E+01  0.21392574790E+02  0.00000000000E+00 0. -1.
        -14    1    6    6    0    0 -0.11934876672E+03 -0.70556480819E+02  0.72066422198E+02  0.15625592569E+03  0.00000000000E+00 0.  1.
</event>
<event>
12    1  0.8494789E-002  0.4865082E+03  0.7818608E-02  0.1017378E+00
         21   -1    0    0  503  502  0.00000000000E+00  0.00000000000E+00  0.99190850329E+03  0.99190850329E+03  0.00000000000E+00 0.  1.
         21   -1    0    0  501  503 -0.00000000000E+00 -0.00000000000E+00 -0.26118921251E+03  0.26118921251E+03  0.00000000000E+00 0. -1.
          6    2    1    2  501    0 -0.45276815224E+03  0.46490151780E+02  0.18078967477E+03  0.51901363680E+03  0.17184270360E+03 0.  0.
         24    2    3    3    0    0 -0.28797776339E+03  0.36571943692E+02  0.48254713179E+02  0.30725469566E+03  0.88364197412E+02 0.  0.
         -6    2    1    2    0  502  0.45276815224E+03 -0.46490151780E+02  0.54992961601E+03  0.73408407900E+03  0.17116225804E+03 0.  0.
        -24    2    5    5    0    0  0.18994967451E+03  0.12636495812E+02  0.31482839450E+03  0.37650305734E+03  0.79981712493E+02 0.  0.
          5    1    3    3  501    0 -0.16479038885E+03  0.99182080876E+01  0.13253496159E+03  0.21175894114E+03  0.47000000000E+01 0. -1.
        -11    1    4    4    0    0 -0.65459374418E+02  0.40017731188E+02 -0.95775038995E+01  0.77318025645E+02  0.00000000000E+00 0.  1.
         12    1    4    4    0    0 -0.22251838898E+03 -0.34457874963E+01  0.57832217078E+02  0.22993667001E+03  0.00000000000E+00 0. -1.
         -5    1    5    5    0  502  0.26281847773E+03 -0.59126647592E+02  0.23510122151E+03  0.35758102166E+03  0.47000000000E+01 0.  1.
         13    1    6    6    0    0  0.17030830705E+03 -0.16445035848E+02  0.26852326126E+03  0.31840241910E+03  0.00000000000E+00 0. -1.
        -14    1    6    6    0    0  0.19641367460E+02  0.29081531660E+02  0.46305133241E+02  0.58100638239E+02  0.00000000000E+00 0.  1.
</event>
<event>
12    1  0.8494789E-002  0.2039294E+03  0.7818608E-02  0.1147588E+00
         21   -1    0    0  501  502  0.00000000000E+00  0.00000000000E+00  0.44396653312E+02  0.44396653312E+02  0.00000000000E+00 0. -1.
         21   -1    0    0  502  503 -0.00000000000E+00 -0.00000000000E+00 -0.11927463050E+04  0.11927463050E+04  0.00000000000E+00 0. -1.
         -6    2    1    2    0  503  0.64377759530E+02  0.78507686290E+02 -0.86830005439E+03  0.89071119713E+03  0.17062678424E+03 0.  0.
        -24    2    3    3    0    0  0.64868807088E+01  0.90250267011E+01 -0.18402215038E+03  0.20046665079E+03  0.78734970112E+02 0.  0.
          6    2    1    2  501    0 -0.64377759530E+02 -0.78507686290E+02 -0.28004959725E+03  0.34643176114E+03  0.17685936639E+03 0.  0.
         24    2    5    5    0    0 -0.62659759273E+02 -0.21035562646E+02 -0.66346306218E+02  0.12507868771E+03  0.82910225192E+02 0.  0.
          5    1    5    5  501    0 -0.17180002566E+01 -0.57472123644E+02 -0.21370329104E+03  0.22135307344E+03  0.47000000000E+01 0. -1.
        -11    1    6    6    0    0  0.90364805569E+01 -0.25937569947E+02 -0.40032209332E+02  0.48548875369E+02  0.00000000000E+00 0.  1.
         12    1    6    6    0    0 -0.71696239830E+02  0.49020073011E+01 -0.26314096886E+02  0.76529812337E+02  0.00000000000E+00 0. -1.
         -5    1    3    3    0  503  0.57890878821E+02  0.69482659589E+02 -0.68427790401E+03  0.69024454634E+03  0.47000000000E+01 0.  1.
         11    1    4    4    0    0  0.22455614219E+02  0.15991123191E+01 -0.18124537247E+03  0.18263815814E+03  0.00000000000E+00 0. -1.
        -12    1    4    4    0    0 -0.15968733510E+02  0.74259143820E+01 -0.27767779163E+01  0.17828492643E+02  0.00000000000E+00 0.  1.
</event>
<event>
12    1  0.8494789E-002  0.2205070E+03  0.7818608E-02  0.1133669E+00
         21   -1    0    0  501  502  0.00000000000E+00  0.00000000000E+00  0.23141592370E+02  0.23141592370E+02  0.00000000000E+00 0.  1.
         21   -1    0    0  502  503 -0.00000000000E+00 -0.00000000000E+00 -0.38164134277E+04  0.38164134277E+04  0.00000000000E+00 0.  1.
         -6    2    1    2    0  503 -0.90032708532E+02  0.10357838582E+03 -0.31847331596E+04  0.31922972290E+04  0.17146990994E+03 0.  0.
        -24    2    3    3    0    0 -0.24771051981E+02  0.12189227881E+03 -0.24504289610E+04  0.24548562289E+04  0.79029610609E+02 0.  0.
          6    2    1    2  501    0  0.90032708532E+02 -0.10357838582E+03 -0.60853867573E+03  0.64725779103E+03  0.17259477855E+03 0.  0.
         24    2    5    5    0    0  0.91666680394E+02 -0.14750700562E+02 -0.25628386536E+03  0.28394171795E+03  0.79505446908E+02 0.  0.
          5    1    5    5  501    0 -0.16339718623E+01 -0.88827685263E+02 -0.35225481037E+03  0.36331607308E+03  0.47000000000E+01 0. -1.
        -11    1    6    6    0    0  0.19825974891E+02 -0.40721458650E+02 -0.82640538965E+02  0.94237811708E+02  0.00000000000E+00 0.  1.
         12    1    6    6    0    0  0.71840705503E+02  0.25970758088E+02 -0.17364332639E+03  0.18970390624E+03  0.00000000000E+00 0. -1.
         -5    1    3    3    0  503 -0.65261656550E+02 -0.18313892983E+02 -0.73430419864E+03  0.73744100010E+03  0.47000000000E+01 0.  1.
         11    1    4    4    0    0 -0.41179649905E+02  0.40930499540E+02 -0.66967173175E+03  0.67218397606E+03  0.00000000000E+00 0. -1.
        -12    1    4    4    0    0  0.16408597923E+02  0.80961779268E+02 -0.17807572292E+04  0.17826722529E+04  0.00000000000E+00 0.  1.
</event>
<event>
12    1  0.8494789E-002  0.2756997E+03  0.7818608E-02  0.1098302E+00
         21   -1    0    0  501  502  0.00000000000E+00  0.00000000000E+00  0.79173049395E+03  0.79173049395E+03  0.00000000000E+00 0. -1.
         21   -1    0    0  502  503 -0.00000000000E+00 -0.00000000000E+00 -0.95417959985E+02  0.95417959985E+02  0.00000000000E+00 0.  1.
         -6    2    1    2    0  503 -0.19533018835E+03 -0.85885953908E+02  0.34437334213E+03  0.44113866842E+03  0.17458535576E+03 0.  0.
        -24    2    3    3    0    0 -0.40649565257E+02 -0.67877664472E+02  0.95656077277E+02  0.14765483329E+03  0.79950610895E+02 0.  0.
          6    2    1    2  501    0  0.19533018835E+03  0.85885953908E+02  0.35193919184E+03  0.44600978552E+03  0.17185242061E+03 0.  0.
         24    2    5    5    0    0  0.14385751934E+03  0.73435822689E+02  0.13983603123E+03  0.22734501432E+03  0.77742099164E+02 0.  0.
          5    1    5    5  501    0  0.51472669008E+02  0.12450131220E+02  0.21210316061E+03  0.21866477120E+03  0.47000000000E+01 0. -1.
        -11    1    6    6    0    0  0.10827636162E+03  0.36930007922E+02  0.13375585020E+03  0.17600631646E+03  0.00000000000E+00 0.  1.
         12    1    6    6    0    0  0.35581157722E+02  0.36505814766E+02  0.60801810226E+01  0.51338697859E+02  0.00000000000E+00 0. -1.
         -5    1    3    3    0  503 -0.15468062309E+03 -0.18008289436E+02  0.24871726486E+03  0.29348383514E+03  0.47000000000E+01 0.  1.
         13    1    4    4    0    0  0.18572978709E+02 -0.22895541466E+02  0.56210208259E+02  0.63472426058E+02  0.00000000000E+00 0. -1.
        -14    1    4    4    0    0 -0.59222543966E+02 -0.44982123007E+02  0.39445869018E+02  0.84182407228E+02  0.00000000000E+00 0.  1.
</event>
<event>
12    1  0.8494789E-002  0.2449048E+03  0.7818608E-02  0.1118552E+00
         21   -1    0    0  501  502  0.00000000000E+00  0.00000000000E+00  0.40416867243E+03  0.40416867243E+03  0.00000000000E+00 0.  1.
         21   -1    0    0  502  503 -0.00000000000E+00 -0.00000000000E+00 -0.15316858960E+03  0.15316858960E+03  0.00000000000E+00 0. -1.
         -6    2    1    2    0  503 -0.32147386413E+02  0.15703986778E+03  0.50746439672E+02  0.25010713252E+03  0.18515777616E+03 0.  0.
        -24    2    3    3    0    0 -0.16699728269E+02  0.17829900844E+03  0.36207617990E+01  0.19594533124E+03  0.79448383143E+02 0.  0.
          6    2    1    2  501    0  0.32147386413E+02 -0.15703986778E+03  0.20025364316E+03  0.30723012951E+03  0.16909718021E+03 0.  0.
         24    2    5    5    0    0  0.84429387140E+02 -0.12886632085E+03  0.15741252640E+03  0.23385024376E+03  0.78564514762E+02 0.  0.
          5    1    5    5  501    0 -0.52282000726E+02 -0.28173546934E+02  0.42841116762E+02  0.73379885747E+02  0.47000000000E+01 0. -1.
        -13    1    6    6    0    0  0.22524606651E+02 -0.83332931239E+02  0.12145439867E+03  0.14900639680E+03  0.00000000000E+00 0.  1.
         14    1    6    6    0    0  0.61904780489E+02 -0.45533389611E+02  0.35958127731E+02  0.84843846959E+02  0.00000000000E+00 0. -1.
         -5    1    3    3    0  503 -0.15447658144E+02 -0.21259140653E+02  0.47125677873E+02  0.54161801285E+02  0.47000000000E+01 0.  1.
         11    1    4    4    0    0 -0.81169233088E+01  0.16856541382E+03  0.25331974742E+02  0.17065137598E+03  0.00000000000E+00 0. -1.
        -12    1    4    4    0    0 -0.85828049602E+01  0.97335946211E+01 -0.21711212943E+02  0.25293955260E+02  0.00000000000E+00 0.  1.
</event>
<event>
12    1  0.8494789E-002  0.2175689E+03  0.7818608E-02  0.1137303E+00
         21   -1    0    0  501  502  0.00000000000E+00  0.00000000000E+00  0.21312596935E+04  0.21312596935E+04  0.00000000000E+00 0.  1.
         21   -1    0    0  502  503 -0.00000000000E+00 -0.00000000000E+00 -0.24661597905E+03  0.24661597905E+03  0.00000000000E+00 0.  1.
         -6    2    1    2    0  503 -0.33426827303E+02 -0.12195306841E+03 -0.19232436612E+03  0.29038746815E+03  0.17704890899E+03 0.  0.
        -24    2    3    3    0    0 -0.29311170291E+02 -0.10391515005E+03 -0.22092231421E+03  0.25600378355E+03  0.71230366841E+02 0.  0.
          6    2    1    2  501    0  0.33426827303E+02  0.12195306841E+03  0.20769680806E+04  0.20874882044E+04  0.16679536013E+03 0.  0.
         24    2    5    5    0    0 -0.42531633083E+02  0.82226381995E+02  0.13086688124E+04  0.13144075147E+04  0.80516684378E+02 0.  0.
          5    1    5    5  501    0  0.75958460385E+02  0.39726686414E+02  0.76829926816E+03  0.77308068969E+03  0.47000000000E+01 0. -1.
        -11    1    6    6    0    0  0.74878341678E+01  0.31310542605E+02  0.81183315387E+03  0.81247122254E+03  0.00000000000E+00 0.  1.
         12    1    6    6    0    0 -0.50019467251E+02  0.50915839391E+02  0.49683565854E+03  0.50193629218E+03  0.00000000000E+00 0. -1.
         -5    1    3    3    0  503 -0.41156570119E+01 -0.18037918357E+02  0.28597948091E+02  0.34383684595E+02  0.47000000000E+01 0.  1.
         13    1    4    4    0    0  0.18974012540E+02 -0.95658333654E+01 -0.21868724844E+02  0.30491957073E+02  0.00000000000E+00 0. -1.
        -14    1    4    4    0    0 -0.48285182830E+02 -0.94349316686E+02 -0.19905358937E+03  0.22551182648E+03  0.00000000000E+00 0.  1.
</event>
<event>
12    1  0.8494789E-002  0.1808582E+03  0.7818608E-02  0.1167332E+00
         21   -1    0    0  501  502  0.00000000000E+00  0.00000000000E+00  0.20918886401E+03  0.20918886401E+03  0.00000000000E+00 0.  1.
         21   -1    0    0  502  503 -0.00000000000E+00 -0.00000000000E+00 -0.19014946401E+03  0.19014946401E+03  0.00000000000E+00 0.  1.
         -6    2    1    2    0  503 -0.50051508324E+02 -0.49404198892E+01 -0.76183795052E+02  0.19624893701E+03  0.17372424532E+03 0.  0.
        -24    2    3    3    0    0 -0.56201685844E+02  0.41679894173E+02 -0.97752509066E+02  0.14430109979E+03  0.79821120658E+02 0.  0.
          6    2    1    2  501    0  0.50051508324E+02  0.49404198892E+01  0.95223195055E+02  0.20308939102E+03  0.17218676672E+03 0.  0.
         24    2    5    5    0    0  0.12719978530E+02 -0.86335091686E+01  0.12834049570E+03  0.15115924304E+03  0.78367713924E+02 0.  0.
          5    1    5    5  501    0  0.37331529794E+02  0.13573929058E+02 -0.33117300646E+02  0.51930147977E+02  0.47000000000E+01 0. -1.
        -13    1    6    6    0    0  0.18514706322E+02 -0.32621941310E+02  0.25396782892E+02  0.45298807780E+02  0.00000000000E+00 0.  1.
         14    1    6    6    0    0 -0.57947277930E+01  0.23988432142E+02  0.10294371281E+03  0.10586043526E+03  0.00000000000E+00 0. -1.
         -5    1    3    3    0  503  0.61501775207E+01 -0.46620314062E+02  0.21568714015E+02  0.51947837212E+02  0.47000000000E+01 0.  1.
         11    1    4    4    0    0 -0.36523436833E+02 -0.16292287127E+02 -0.18253653004E+02  0.43961300093E+02  0.00000000000E+00 0. -1.
        -12    1    4    4    0    0 -0.19678249012E+02  0.57972181300E+02 -0.79498856063E+02  0.10033979970E+03  0.00000000000E+00 0.  1.
</event>
<event>
12    1  0.8494789E-002  0.2600670E+03  0.7818608E-02  0.1107983E+00
         21   -1    0    0  503  502  0.00000000000E+00  0.00000000000E+00  0.16545981676E+04  0.16545981676E+04  0.00000000000E+00 0.  1.
         21   -1    0    0  501  503 -0.00000000000E+00 -0.00000000000E+00 -0.45836474171E+02  0.45836474171E+02  0.00000000000E+00 0. -1.
          6    2    1    2  501    0 -0.92976402766E-01 -0.18907103999E+03  0.50818033364E+03  0.57086082114E+03  0.17856919892E+03 0.  0.
         24    2    3    3    0    0 -0.31393500965E+02 -0.48210701232E+02  0.11169333929E+03  0.14890657651E+03  0.79924607408E+02 0.  0.
         -6    2    1    2    0  502  0.92976402766E-01  0.18907103999E+03  0.11005813598E+04  0.11295738206E+04  0.17002887970E+03 0.  0.
        -24    2    5    5    0    0 -0.48629310028E+02  0.15174505704E+03  0.63150317295E+03  0.65647390987E+03  0.82282226259E+02 0.  0.
          5    1    3    3  501    0  0.31300524562E+02 -0.14086033876E+03  0.39648699435E+03  0.42195424463E+03  0.47000000000E+01 0. -1.
        -11    1    4    4    0    0 -0.90347012484E+01  0.33589343975E+01  0.86968246856E+02  0.87500767015E+02  0.00000000000E+00 0.  1.
         12    1    4    4    0    0 -0.22358799716E+02 -0.51569635630E+02  0.24725092437E+02  0.61405809495E+02  0.00000000000E+00 0. -1.
         -5    1    5    5    0  502  0.48722286431E+02  0.37325982949E+02  0.46907818681E+03  0.47309991074E+03  0.47000000000E+01 0.  1.
         13    1    6    6    0    0 -0.41446077404E+02  0.78444152219E+02  0.47863319131E+03  0.48678639481E+03  0.00000000000E+00 0. -1.
        -14    1    6    6    0    0 -0.71832326245E+01  0.73300904824E+02  0.15286998164E+03  0.16968751505E+03  0.00000000000E+00 0.  1.
</event>
<event>
12    1  0.8494789E-002  0.1940515E+03  0.7818608E-02  0.1155044E+00
         21   -1    0    0  503  502  0.00000000000E+00  0.00000000000E+00  0.59153937078E+03  0.59153937078E+03  0.00000000000E+00 0.  1.
         21   -1    0    0  501  503 -0.00000000000E+00 -0.00000000000E+00 -0.64317178856E+02  0.64317178856E+02  0.00000000000E+00 0.  1.
          6    2    1    2  501    0  0.45641776143E+02  0.78019804911E+02  0.22456651517E+03  0.29679301106E+03  0.17171403551E+03 0.  0.
         24    2    3    3    0    0 -0.11797735001E+02  0.84654223488E+02  0.81981564376E+02  0.14285837837E+03  0.79887516337E+02 0.  0.
         -6    2    1    2    0  502 -0.45641776143E+02 -0.78019804911E+02  0.30265567676E+03  0.35906353857E+03  0.17075100109E+03 0.  0.
        -24    2    5    5    0    0 -0.82403322610E+02 -0.55004935607E+02  0.13747059710E+03  0.18821478661E+03  0.81919413526E+02 0.  0.
          5    1    3    3  501    0  0.57439511144E+02 -0.66344185773E+01  0.14258495079E+03  0.15393463269E+03  0.47000000000E+01 0. -1.
        -11    1    4    4    0    0  0.13976297710E+02 -0.66253909920E+01  0.32239486298E+02  0.35757756924E+02  0.00000000000E+00 0.  1.
         12    1    4    4    0    0 -0.25774032711E+02  0.91279614481E+02  0.49742078078E+02  0.10710062144E+03  0.00000000000E+00 0. -1.
         -5    1    5    5    0  502  0.36761546467E+02 -0.23014869304E+02  0.16518507966E+03  0.17084875197E+03  0.47000000000E+01 0.  1.
         13    1    6    6    0    0  0.88038349584E+00 -0.38609603922E+02  0.20594896216E+02  0.43767868811E+02  0.00000000000E+00 0. -1.
        -14    1    6    6    0    0 -0.83283706106E+02 -0.16395331685E+02  0.11687570088E+03  0.14444691780E+03  0.00000000000E+00 0.  1.
</event>
<event>
12    1  0.8494789E-002  0.2583008E+03  0.7818608E-02  0.1108391E+00
         21   -1    0    0  501  502  0.00000000000E+00  0.00000000000E+00  0.49374714658E+02  0.49374714658E+02  0.00000000000E+00 0. -1.
         21   -1    0    0  502  503 -0.00000000000E+00 -0.00000000000E+00 -0.16169374078E+04  0.16169374078E+04  0.00000000000E+00 0.  1.
         -6    2    1    2    0  503 -0.11416680028E+01 -0.19030080327E+03 -0.44309916325E+03  0.51289002825E+03  0.17465283700E+03 0.  0.
        -24    2    3    3    0    0 -0.16313922820E+02 -0.19668143058E+03 -0.29734637832E+03  0.36613555971E+03  0.81796394600E+02 0.  0.
          6    2    1    2  501    0  0.11416680028E+01  0.19030080327E+03 -0.11244635299E+04  0.11534220942E+04  0.17247781952E+03 0.  0.
         24    2    5    5    0    0 -0.85092626026E+01  0.17545735175E+02 -0.32971463771E+03  0.34004312618E+03  0.80853725751E+02 0.  0.
          5    1    5    5  501    0  0.96509306053E+01  0.17275506809E+03 -0.79474889216E+03  0.81337896801E+03  0.47000000000E+01 0. -1.
        -13    1    6    6    0    0  0.18071858212E+02  0.39281061170E+02 -0.24227947118E+03  0.24610756994E+03  0.00000000000E+00 0.  1.
         14    1    6    6    0    0 -0.26581120814E+02 -0.21735325995E+02 -0.87435166532E+02  0.93935556241E+02  0.00000000000E+00 0. -1.
         -5    1    3    3    0  503  0.15172254817E+02  0.63806273140E+01 -0.14575278493E+03  0.14675446854E+03  0.47000000000E+01 0.  1.
         13    1    4    4    0    0  0.32020673143E+02 -0.62837068531E+02 -0.83942453917E+02  0.10963647322E+03  0.00000000000E+00 0. -1.
        -14    1    4    4    0    0 -0.48334595963E+02 -0.13384436205E+03 -0.21340392440E+03  0.25649908649E+03  0.00000000000E+00 0.  1.
</event>
<event>
12    1  0.8494789E-002  0.3170799E+03  0.7818608E-02  0.1077158E+00
         21   -1    0    0  501  502  0.00000000000E+00  0.00000000000E+00  0.13340459597E+03  0.13340459597E+03  0.00000000000E+00 0. -1.
         21   -1    0    0  502  503 -0.00000000000E+00 -0.00000000000E+00 -0.79337642718E+03  0.79337642718E+03  0.00000000000E+00 0.  1.
         -6    2    1    2    0  503  0.25631036828E+03 -0.65520723723E+02 -0.22286792566E+03  0.38756906201E+03  0.17479043285E+03 0.  0.
        -24    2    3    3    0    0  0.70603424013E+02 -0.76703742892E+02 -0.99406999098E+02  0.16423787419E+03  0.78892459671E+02 0.  0.
          6    2    1    2  501    0 -0.25631036828E+03  0.65520723723E+02 -0.43710390556E+03  0.53921196113E+03  0.17234194106E+03 0.  0.
         24    2    5    5    0    0 -0.25957375440E+03  0.24118915413E+02 -0.35268614297E+03  0.44501425383E+03  0.75431522715E+02 0.  0.
          5    1    5    5  501    0  0.32633861130E+01  0.41401808310E+02 -0.84417762588E+02  0.94197707301E+02  0.47000000000E+01 0. -1.
        -11    1    6    6    0    0 -0.69037931441E+02  0.31704952422E+02 -0.14058042799E+03  0.15979454534E+03  0.00000000000E+00 0.  1.
         12    1    6    6    0    0 -0.19053582295E+03 -0.75860370091E+01 -0.21210571498E+03  0.28521970849E+03  0.00000000000E+00 0. -1.
         -5    1    3    3    0  503  0.18570694427E+03  0.11183019169E+02 -0.12346092656E+03  0.22333118782E+03  0.47000000000E+01 0.  1.
         13    1    4    4    0    0  0.75807074330E+02 -0.32521365790E+02 -0.45022981888E+02  0.93975638595E+02  0.00000000000E+00 0. -1.
        -14    1    4    4    0    0 -0.52036503169E+01 -0.44182377102E+02 -0.54384017209E+02  0.70262235595E+02  0.00000000000E+00 0.  1.
</event>
<event>
12    1  0.8494789E-002  0.1934293E+03  0.7818608E-02  0.1155640E+00
         21   -1    0    0  503  502  0.00000000000E+00  0.00000000000E+00  0.10084517019E+04  0.10084517019E+04  0.00000000000E+00 0. -1.
         21   -1    0    0  501  503 -0.00000000000E+00 -0.00000000000E+00 -0.37823710714E+02  0.37823710714E+02  0.00000000000E+00 0.  1.
          6    2    1    2  501    0  0.51654021386E+02 -0.71460968032E+02  0.56590742220E+03  0.59770700041E+03  0.17096093108E+03 0.  0.
         24    2    3    3    0    0  0.79371511146E+02 -0.24900910359E+02  0.22999529250E+03  0.25742014040E+03  0.80295715921E+02 0.  0.
         -6    2    1    2    0  502 -0.51654021386E+02  0.71460968032E+02  0.40472056895E+03  0.44856841217E+03  0.17216292746E+03 0.  0.
        -24    2    5    5    0    0 -0.26458512020E+02  0.11362328521E+03  0.33033767260E+03  0.35930823096E+03  0.79806786005E+02 0.  0.
          5    1    3    3  501    0 -0.27717489760E+02 -0.46560057673E+02  0.33591212971E+03  0.34028686001E+03  0.47000000000E+01 0. -1.
        -13    1    4    4    0    0  0.15817607828E+02  0.28457123846E+02  0.69082819865E+02  0.76370417149E+02  0.00000000000E+00 0.  1.
         14    1    4    4    0    0  0.63553903318E+02 -0.53358034206E+02  0.16091247263E+03  0.18104972325E+03  0.00000000000E+00 0. -1.
         -5    1    5    5    0  502 -0.25195509366E+02 -0.42162317177E+02  0.74382896345E+02  0.89260181215E+02  0.47000000000E+01 0.  1.
         11    1    6    6    0    0  0.31975825715E+01  0.10370079891E+03  0.20044256553E+03  0.22570179952E+03  0.00000000000E+00 0. -1.
        -12    1    6    6    0    0 -0.29656094591E+02  0.99224863006E+01  0.12989510707E+03  0.13360643144E+03  0.00000000000E+00 0.  1.
</event>
<event>
12    1  0.8494789E-002  0.2033753E+03  0.7818608E-02  0.1147455E+00
         21   -1    0    0  501  502  0.00000000000E+00  0.00000000000E+00  0.14628114524E+03  0.14628114524E+03  0.00000000000E+00 0.  1.
         21   -1    0    0  502  503 -0.00000000000E+00 -0.00000000000E+00 -0.62205124409E+03  0.62205124409E+03  0.00000000000E+00 0.  1.
         -6    2    1    2    0  503 -0.60221734411E+02  0.86339554758E+02 -0.52376718876E+03  0.56186616106E+03  0.17401246768E+03 0.  0.
        -24    2    3    3    0    0 -0.83758824318E+02  0.11611678999E+03 -0.43041261096E+03  0.46098085224E+03  0.82156441560E+02 0.  0.
          6    2    1    2  501    0  0.60221734411E+02 -0.86339554758E+02  0.47997089905E+02  0.20646622827E+03  0.17100703718E+03 0.  0.
         24    2    5    5    0    0 -0.11155239227E+02  0.72278947938E+01  0.36354746383E+02  0.88114320198E+02  0.79156705427E+02 0.  0.
          5    1    5    5  501    0  0.71376973638E+02 -0.93567449552E+02  0.11642343523E+02  0.11835190807E+03  0.47000000000E+01 0. -1.
        -11    1    6    6    0    0 -0.19904533948E+02 -0.49805480402E+01 -0.20681947877E+02  0.29133130598E+02  0.00000000000E+00 0.  1.
         12    1    6    6    0    0  0.87492947212E+01  0.12208442834E+02  0.57036694259E+02  0.58981189600E+02  0.00000000000E+00 0. -1.
         -5    1    3    3    0  503  0.23537089907E+02 -0.29777235227E+02 -0.93354577798E+02  0.10088530882E+03  0.47000000000E+01 0.  1.
         11    1    4    4    0    0 -0.31042779216E+02  0.53407620954E+02 -0.79754724452E+02  0.10088034590E+03  0.00000000000E+00 0. -1.
        -12    1    4    4    0    0 -0.52716045102E+02  0.62709169032E+02 -0.35065788651E+03  0.36010050634E+03  0.00000000000E+00 0.  1.
</event>
<event>
12    1  0.8494789E-002  0.2241246E+03  0.7818608E-02  0.1130864E+00
         21   -1    0    0  503  502  0.00000000000E+00  0.00000000000E+00  0.13809220321E+03  0.13809220321E+03  0.00000000000E+00 0.  1.
         21   -1    0    0  501  503 -0.00000000000E+00 -0.00000000000E+00 -0.39587791191E+03  0.39587791191E+03  0.00000000000E+00 0.  1.
          6    2    1    2  501    0 -0.87330762958E+02 -0.11377399961E+03 -0.20516999108E+03  0.30385287340E+03  0.17222269970E+03 0.  0.
         24    2    3    3    0    0 -0.11360411978E+03 -0.11980428008E+03 -0.19760887949E+03  0.27546424946E+03  0.97838243648E+02 0.  0.
         -6    2    1    2    0  502  0.87330762958E+02  0.11377399961E+03 -0.52615717622E+02  0.23011724171E+03  0.17208819264E+03 0.  0.
        -24    2    5    5    0    0  0.85162029648E+02  0.16495231196E+02 -0.52939092614E+02  0.13270031937E+03  0.85335592150E+02 0.  0.
          5    1    3    3  501    0  0.26273356819E+02  0.60302804719E+01 -0.75611115831E+01  0.28388623945E+02  0.47000000000E+01 0. -1.
        -13    1    4    4    0    0  0.36691384426E+01 -0.30861987653E+02 -0.83898971582E+02  0.89470454852E+02  0.00000000000E+00 0.  1.
         14    1    4    4    0    0 -0.11727325822E+03 -0.88942292424E+02 -0.11370990791E+03  0.18599379461E+03  0.00000000000E+00 0. -1.
         -5    1    5    5    0  502  0.21687333093E+01  0.97278768409E+02  0.32337499241E+00  0.97416922343E+02  0.47000000000E+01 0.  1.
         11    1    6    6    0    0  0.85166046113E+02 -0.73333583384E+01 -0.13384428697E+02  0.86522693477E+02  0.00000000000E+00 0. -1.
        -12    1    6    6    0    0 -0.40164647631E-02  0.23828589534E+02 -0.39554663917E+02  0.46177625891E+02  0.00000000000E+00 0.  1.
</event>
<event>
12    1  0.8494789E-002  0.2079634E+03  0.7818608E-02  0.1143290E+00
         21   -1    0    0  501  502  0.00000000000E+00  0.00000000000E+00  0.97978981644E+03  0.97978981644E+03  0.00000000000E+00 0. -1.
         21   -1    0    0  502  503 -0.00000000000E+00 -0.00000000000E+00 -0.18741132252E+03  0.18741132252E+03  0.00000000000E+00 0. -1.
         -6    2    1    2    0  503  0.11862234052E+02 -0.11662550572E+03 -0.11437816667E+03  0.23690204895E+03  0.17116656976E+03 0.  0.
        -24    2    3    3    0    0  0.37478565666E+01 -0.89115310684E+02 -0.14943935456E+03  0.19136052011E+03  0.79568479544E+02 0.  0.
          6    2    1    2  501    0 -0.11862234052E+02  0.11662550572E+03  0.90675666059E+03  0.93029909001E+03  0.17177466099E+03 0.  0.
         24    2    5    5    0    0  0.49947897887E+02  0.36691329632E+02  0.35645620091E+03  0.37077907173E+03  0.81086686319E+02 0.  0.
          5    1    5    5  501    0 -0.61810131939E+02  0.79934176090E+02  0.55030045969E+03  0.55952001827E+03  0.47000000000E+01 0. -1.
        -11    1    6    6    0    0 -0.17688992598E+02 -0.69080579088E+01  0.10676885292E+03  0.10844450045E+03  0.00000000000E+00 0.  1.
         12    1    6    6    0    0  0.67636890485E+02  0.43599387540E+02  0.24968734798E+03  0.26233457129E+03  0.00000000000E+00 0. -1.
         -5    1    3    3    0  503  0.81143774850E+01 -0.27510195038E+02  0.35061187890E+02  0.45541528842E+02  0.47000000000E+01 0.  1.
         11    1    4    4    0    0  0.93329527267E+01 -0.79637779066E+02 -0.57264989109E+02  0.98532019358E+02  0.00000000000E+00 0. -1.
        -12    1    4    4    0    0 -0.55850961601E+01 -0.94775316172E+01 -0.92174365452E+02  0.92828500748E+02  0.00000000000E+00 0.  1.
</event>
<event>
12    1  0.8494789E-002  0.1870117E+03  0.7818608E-02  0.1161243E+00
         21   -1    0    0  503  502  0.00000000000E+00  0.00000000000E+00  0.22022967706E+03  0.22022967706E+03  0.00000000000E+00 0. -1.
         21   -1    0    0  501  503 -0.00000000000E+00 -0.00000000000E+00 -0.20856566360E+03  0.20856566360E+03  0.00000000000E+00 0. -1.
          6    2    1    2  501    0  0.74099116060E+02 -0.32367913520E+01 -0.99113478427E+02  0.21165264274E+03  0.17167470331E+03 0.  0.
         24    2    3    3    0    0 -0.27358050142E+02 -0.80067526003E+00 -0.54119936209E+02  0.10054008685E+03  0.80188762184E+02 0.  0.
         -6    2    1    2    0  502 -0.74099116060E+02  0.32367913520E+01  0.11077749189E+03  0.21714269792E+03  0.17140053306E+03 0.  0.
        -24    2    5    5    0    0  0.22037382361E+02 -0.30685918281E+01  0.69911721671E+02  0.11238542915E+03  0.85133855664E+02 0.  0.
          5    1    3    3  501    0  0.10145716620E+03 -0.24361160920E+01 -0.44993542218E+02  0.11111255589E+03  0.47000000000E+01 0. -1.
        -13    1    4    4    0    0 -0.20622802105E+02  0.38228961563E+02 -0.18285669424E+02  0.47128751046E+02  0.00000000000E+00 0.  1.
         14    1    4    4    0    0 -0.67352480377E+01 -0.39029636823E+02 -0.35834266785E+02  0.53411335807E+02  0.00000000000E+00 0. -1.
         -5    1    5    5    0  502 -0.96136498421E+02  0.63053831802E+01  0.40865770215E+02  0.10475726877E+03  0.47000000000E+01 0.  1.
         13    1    6    6    0    0  0.24535003821E+02  0.38865187384E+02  0.35223591311E+02  0.57906567743E+02  0.00000000000E+00 0. -1.
        -14    1    6    6    0    0 -0.24976214605E+01 -0.41933779212E+02  0.34688130360E+02  0.54478861403E+02  0.00000000000E+00 0.  1.
</event>
<event>
12    1  0.8494789E-002  0.1902382E+03  0.7818608E-02  0.1159584E+00
         21   -1    0    0  503  502  0.00000000000E+00  0.00000000000E+00  0.80704904586E+02  0.80704904586E+02  0.00000000000E+00 0.  1.
         21   -1    0    0  501  503 -0.00000000000E+00 -0.00000000000E+00 -0.75031713714E+03  0.75031713714E+03  0.00000000000E+00 0. -1.
          6    2    1    2  501    0  0.79502719072E+02  0.21455395500E+01 -0.60727280696E+03  0.63637317392E+03  0.17281570744E+03 0.  0.
         24    2    3    3    0    0  0.93158921861E+02 -0.16680681506E+00 -0.24269585058E+03  0.27150294228E+03  0.78319596711E+02 0.  0.
         -6    2    1    2    0  502 -0.79502719072E+02 -0.21455395500E+01 -0.62339425596E+02  0.19464886780E+03  0.16636313316E+03 0.  0.
        -24    2    5    5    0    0 -0.99640786338E+02  0.40211303674E+02 -0.62303259051E+02  0.14751358135E+03  0.79582192409E+02 0.  0.
          5    1    3    3  501    0 -0.13656202789E+02  0.23123463650E+01 -0.36457695638E+03  0.36487023165E+03  0.47000000000E+01 0. -1.
        -11    1    4    4    0    0  0.26450243029E+02 -0.36998413818E+02 -0.93387635319E+02  0.10387371377E+03  0.00000000000E+00 0.  1.
         12    1    4    4    0    0  0.66708678832E+02  0.36831607003E+02 -0.14930821526E+03  0.16762922851E+03  0.00000000000E+00 0. -1.
         -5    1    5    5    0  502  0.20138067266E+02 -0.42356843224E+02 -0.36166544907E-01  0.47135286454E+02  0.47000000000E+01 0.  1.
         11    1    6    6    0    0 -0.68584475792E+02  0.53679749300E+02 -0.71221904841E+02  0.11250735769E+03  0.00000000000E+00 0. -1.
        -12    1    6    6    0    0 -0.31056310546E+02 -0.13468445626E+02  0.89186457897E+01  0.35006223662E+02  0.00000000000E+00 0.  1.
</event>
<event>
12    1  0.8494789E-002  0.5503378E+03  0.7818608E-02  0.1001425E+00
         21   -1    0    0  503  502  0.00000000000E+00  0.00000000000E+00  0.16451544806E+04  0.16451544806E+04  0.00000000000E+00 0.  1.
         21   -1    0    0  501  503 -0.00000000000E+00 -0.00000000000E+00 -0.23969348550E+03  0.23969348550E+03  0.00000000000E+00 0. -1.
          6    2    1    2  501    0 -0.23384947675E+03 -0.46806158790E+03  0.11569064638E+04  0.12811339592E+04  0.17060019819E+03 0.  0.
         24    2    3    3    0    0 -0.22344380614E+03 -0.35509323269E+03  0.80420668891E+03  0.91060818620E+03  0.80252924441E+02 0.  0.
         -6    2    1    2    0  502  0.23384947675E+03  0.46806158790E+03  0.24855453122E+03  0.60371400682E+03  0.17007063003E+03 0.  0.
        -24    2    5    5    0    0  0.20238744705E+03  0.26244649808E+03  0.14185219630E+03  0.36988735575E+03  0.82799560809E+02 0.  0.
          5    1    3    3  501    0 -0.10405670614E+02 -0.11296835521E+03  0.35269977491E+03  0.37052577303E+03  0.47000000000E+01 0. -1.
        -11    1    4    4    0    0 -0.13899804296E+03 -0.26547168082E+03  0.50753059827E+03  0.58939204054E+03  0.00000000000E+00 0.  1.
         12    1    4    4    0    0 -0.84445763178E+02 -0.89621551867E+02  0.29667609064E+03  0.32121614566E+03  0.00000000000E+00 0. -1.
         -5    1    5    5    0  502  0.31462029703E+02  0.20561508982E+03  0.10670233493E+03  0.23382665107E+03  0.47000000000E+01 0.  1.
         13    1    6    6    0    0  0.95691361284E+02  0.18834178960E+03  0.78649070414E+02  0.22542214313E+03  0.00000000000E+00 0. -1.
        -14    1    6    6    0    0  0.10669608576E+03  0.74104708477E+02  0.63203125882E+02  0.14446521262E+03  0.00000000000E+00 0.  1.
</event>
<event>
12    1  0.8494789E-002  0.2153091E+03  0.7818608E-02  0.1137632E+00
         21   -1    0    0  501  502  0.00000000000E+00  0.00000000000E+00  0.35733871968E+03  0.35733871968E+03  0.00000000000E+00 0.  1.
         21   -1    0    0  502  503 -0.00000000000E+00 -0.00000000000E+00 -0.16631658524E+03  0.16631658524E+03  0.00000000000E+00 0. -1.
         -6    2    1    2    0  503  0.10704947870E+03 -0.74513154386E+02 -0.28166310467E+02  0.21714360232E+03  0.17130733176E+03 0.  0.
        -24    2    3    3    0    0  0.16868932715E+01 -0.66819823018E+02  0.94389138034E+01  0.10490856034E+03  0.80305532691E+02 0.  0.
          6    2    1    2  501    0 -0.10704947870E+03  0.74513154386E+02  0.21918844491E+03  0.30651170260E+03  0.16998249434E+03 0.  0.
         24    2    5    5    0    0 -0.25576173976E+02  0.17335383739E+02  0.16473271136E+03  0.19295680946E+03  0.95607572514E+02 0.  0.
          5    1    5    5  501    0 -0.81473304729E+02  0.57177770648E+02  0.54455733552E+02  0.11355489314E+03  0.47000000000E+01 0. -1.
        -13    1    6    6    0    0  0.12426338910E+02  0.36451531823E+02  0.13667585993E+03  0.14199795336E+03  0.00000000000E+00 0.  1.
         14    1    6    6    0    0 -0.38002512886E+02 -0.19116148084E+02  0.28056851429E+02  0.50958856103E+02  0.00000000000E+00 0. -1.
         -5    1    3    3    0  503  0.10536258543E+03 -0.76933313688E+01 -0.37605224271E+02  0.11223504198E+03  0.47000000000E+01 0.  1.
         13    1    4    4    0    0 -0.32479227643E+02 -0.20670425536E+02 -0.16519254049E+02  0.41893346422E+02  0.00000000000E+00 0. -1.
        -14    1    4    4    0    0  0.34166120914E+02 -0.46149397482E+02  0.25958167853E+02  0.63015213913E+02  0.00000000000E+00 0.  1.
</event>
<event>
12    1  0.8494789E-002  0.2585177E+03  0.7818608E-02  0.1110522E+00
         21   -1    0    0  501  502  0.00000000000E+00  0.00000000000E+00  0.25262084246E+03  0.25262084246E+03  0.00000000000E+00 0.  1.
         21   -1    0    0  502  503 -0.00000000000E+00 -0.00000000000E+00 -0.33452491312E+03  0.33452491312E+03  0.00000000000E+00 0. -1.
         -6    2    1    2    0  503 -0.82339619647E+02 -0.14919567657E+03 -0.18875792985E+03  0.30741530448E+03  0.17272941405E+03 0.  0.
        -24    2    3    3    0    0  0.32187585488E+02 -0.59713898625E+02 -0.85320925476E+02  0.12896426589E+03  0.68922646527E+02 0.  0.
          6    2    1    2  501    0  0.82339619647E+02  0.14919567657E+03  0.10685385919E+03  0.27973045110E+03  0.19440219952E+03 0.  0.
         24    2    5    5    0    0  0.10105428672E+02  0.14253660855E+03  0.18649979245E+02  0.16543199979E+03  0.81247279114E+02 0.  0.
          5    1    5    5  501    0  0.72234190975E+02  0.66590680142E+01  0.88203879948E+02  0.11429845130E+03  0.47000000000E+01 0. -1.
        -13    1    6    6    0    0 -0.27516037532E+02  0.22934394571E+02  0.17913577812E+02  0.40050156627E+02  0.00000000000E+00 0.  1.
         14    1    6    6    0    0  0.37621466204E+02  0.11960221398E+03  0.73640143271E+00  0.12538184317E+03  0.00000000000E+00 0. -1.
         -5    1    3    3    0  503 -0.11452720514E+03 -0.89481777943E+02 -0.10343700438E+03  0.17845103859E+03  0.47000000000E+01 0.  1.
         13    1    4    4    0    0 -0.69673413680E+00  0.14366684271E+02 -0.21187476917E+02  0.25608518768E+02  0.00000000000E+00 0. -1.
        -14    1    4    4    0    0  0.32884319625E+02 -0.74080582896E+02 -0.64133448558E+02  0.10335574712E+03  0.00000000000E+00 0.  1.
</event>
<event>
12    1  0.8494789E-002  0.1920844E+03  0.7818608E-02  0.1157388E+00
         21   -1    0    0  503  502  0.00000000000E+00  0.00000000000E+00  0.55433462910E+03  0.55433462910E+03  0.00000000000E+00 0. -1.
         21   -1    0    0  501  503 -0.00000000000E+00 -0.00000000000E+00 -0.10834569305E+03  0.10834569305E+03  0.00000000000E+00 0. -1.
          6    2    1    2  501    0  0.80320193590E+02  0.97731696163E+01  0.13003311958E+02  0.18900007095E+03  0.17030881467E+03 0.  0.
         24    2    3    3    0    0  0.11028486138E+03  0.26378483747E+02 -0.21527938712E+02  0.14013172695E+03  0.79466179587E+02 0.  0.
         -6    2    1    2    0  502 -0.80320193590E+02 -0.97731696163E+01  0.43298562409E+03  0.47368025120E+03  0.17421131239E+03 0.  0.
        -24    2    5    5    0    0 -0.49909969389E+02 -0.47160104228E+02  0.13371349144E+03  0.17051616362E+03  0.80507041853E+02 0.  0.
          5    1    3    3  501    0 -0.29964667785E+02 -0.16605314130E+02  0.34531250670E+02  0.48868344004E+02  0.47000000000E+01 0. -1.
        -13    1    4    4    0    0  0.43802552709E+02  0.46183291791E+02 -0.29778734178E+02  0.70273274249E+02  0.00000000000E+00 0.  1.
         14    1    4    4    0    0  0.66482308667E+02 -0.19804808044E+02  0.82507954663E+01  0.69858452696E+02  0.00000000000E+00 0. -1.
         -5    1    5    5    0  502 -0.30410224201E+02  0.37386934612E+02  0.29927213265E+03  0.30316408758E+03  0.47000000000E+01 0.  1.
         13    1    6    6    0    0 -0.27279973919E+02 -0.64891706008E+01  0.11816230097E+03  0.12144396108E+03  0.00000000000E+00 0. -1.
        -14    1    6    6    0    0 -0.22629995470E+02 -0.40670933627E+02  0.15551190465E+02  0.49072202538E+02  0.00000000000E+00 0.  1.
</event>
<event>
12    1  0.8494789E-002  0.1819317E+03  0.7818608E-02  0.1166055E+00
         21   -1    0    0  501  502  0.00000000000E+00  0.00000000000E+00  0.42339797265E+03  0.42339797265E+03  0.00000000000E+00 0.  1.
         21   -1    0    0  502  503 -0.00000000000E+00 -0.00000000000E+00 -0.25289322355E+03  0.25289322355E+03  0.00000000000E+00 0.  1.
         -6    2    1    2    0  503  0.20628230601E+02  0.53217632499E+02 -0.19593499483E+03  0.26737548795E+03  0.17274689302E+03 0.  0.
        -24    2    3    3    0    0 -0.28902904067E+02  0.82275756167E+02 -0.87399672464E+02  0.14449459418E+03  0.75068682439E+02 0.  0.
          6    2    1    2  501    0 -0.20628230601E+02 -0.53217632499E+02  0.36643974393E+03  0.40891570825E+03  0.17226819270E+03 0.  0.
         24    2    5    5    0    0 -0.63749130682E+01 -0.58798590959E+02  0.37689092672E+03  0.38979447974E+03  0.79969068882E+02 0.  0.
          5    1    5    5  501    0 -0.14253317532E+02  0.55809584600E+01 -0.10451182789E+02  0.19121228509E+02  0.47000000000E+01 0. -1.
        -11    1    6    6    0    0  0.34939902782E+02 -0.18643109985E+02  0.11458114976E+03  0.12123201820E+03  0.00000000000E+00 0.  1.
         12    1    6    6    0    0 -0.41314815851E+02 -0.40155480974E+02  0.26230977696E+03  0.26856246154E+03  0.00000000000E+00 0. -1.
         -5    1    3    3    0  503  0.49531134668E+02 -0.29058123668E+02 -0.10853532237E+03  0.12288089377E+03  0.47000000000E+01 0.  1.
         11    1    4    4    0    0 -0.13284909006E+02 -0.35374827816E+00  0.93934330381E+01  0.16274228995E+02  0.00000000000E+00 0. -1.
        -12    1    4    4    0    0 -0.15617995061E+02  0.82629504445E+02 -0.96793105502E+02  0.12822036518E+03  0.00000000000E+00 0.  1.
</event>
<event>
12    1  0.8494789E-002  0.1868433E+03  0.7818608E-02  0.1164937E+00
         21   -1    0    0  501  502  0.00000000000E+00  0.00000000000E+00  0.81739230089E+02  0.81739230089E+02  0.00000000000E+00 0.  1.
         21   -1    0    0  502  503 -0.00000000000E+00 -0.00000000000E+00 -0.65339700005E+03  0.65339700005E+03  0.00000000000E+00 0.  1.
         -6    2    1    2    0  503  0.55223587311E+02  0.45973290217E+02 -0.47030530801E+02  0.17823033970E+03  0.15617616704E+03 0.  0.
        -24    2    3    3    0    0 -0.17894025631E+02  0.45542319619E+02 -0.45810006399E+02  0.10495039198E+03  0.80757222961E+02 0.  0.
          6    2    1    2  501    0 -0.55223587311E+02 -0.45973290217E+02 -0.52462723916E+03  0.55690589044E+03  0.17247389000E+03 0.  0.
         24    2    5    5    0    0 -0.61465678042E+02 -0.17834711202E+02 -0.51652669089E+03  0.52659991400E+03  0.80072095764E+02 0.  0.
          5    1    5    5  501    0  0.62420907315E+01 -0.28138579015E+02 -0.81005482627E+01  0.30305976438E+02  0.47000000000E+01 0. -1.
        -13    1    6    6    0    0 -0.10309428604E+02 -0.35242592927E+02 -0.34027884539E+03  0.34225431669E+03  0.00000000000E+00 0.  1.
         14    1    6    6    0    0 -0.51156249438E+02  0.17407881725E+02 -0.17624784551E+03  0.18434559731E+03  0.00000000000E+00 0. -1.
         -5    1    3    3    0  503  0.73117612942E+02  0.43097059790E+00 -0.12205244019E+01  0.73279947719E+02  0.47000000000E+01 0.  1.
         11    1    4    4    0    0 -0.47331124511E+02  0.11733314001E+02 -0.16904548465E+02  0.51610752404E+02  0.00000000000E+00 0. -1.
        -12    1    4    4    0    0  0.29437098880E+02  0.33809005618E+02 -0.28905457934E+02  0.53339639573E+02  0.00000000000E+00 0.  1.
</event>
<event>
12    1  0.8494789E-002  0.2208065E+03  0.7818608E-02  0.1133391E+00
         21   -1    0    0  501  502  0.00000000000E+00  0.00000000000E+00  0.19934724948E+03  0.19934724948E+03  0.00000000000E+00 0.  1.
         21   -1    0    0  502  503 -0.00000000000E+00 -0.00000000000E+00 -0.39743792490E+03  0.39743792490E+03  0.00000000000E+00 0.  1.
         -6    2    1    2    0  503  0.13813957217E+03  0.12593254419E+02 -0.28441024114E+03  0.35970592666E+03  0.17104980839E+03 0.  0.
        -24    2    3    3    0    0  0.32199086004E+02 -0.36984572842E+02 -0.74362338087E+02  0.11924062949E+03  0.79271247165E+02 0.  0.
          6    2    1    2  501    0 -0.13813957217E+03 -0.12593254419E+02  0.86319565727E+02  0.23707924771E+03  0.17179747033E+03 0.  0.
         24    2    5    5    0    0 -0.27236550224E+01 -0.10997936120E+02  0.62222469028E+01  0.79669952750E+02  0.78614325152E+02 0.  0.
          5    1    5    5  501    0 -0.13541591715E+03 -0.15953182988E+01  0.80097318824E+02  0.15740929496E+03  0.47000000000E+01 0. -1.
        -13    1    6    6    0    0 -0.37188181768E+02 -0.20468273203E+02  0.10344016775E+02  0.43691071790E+02  0.00000000000E+00 0.  1.
         14    1    6    6    0    0  0.34464526745E+02  0.94703370829E+01 -0.41217698723E+01  0.35978880960E+02  0.00000000000E+00 0. -1.
         -5    1    3    3    0  503  0.10594048617E+03  0.49577827261E+02 -0.21004790306E+03  0.24046529717E+03  0.47000000000E+01 0.  1.
         11    1    4    4    0    0 -0.23741410752E+02 -0.11853216479E+02 -0.42569968170E+02  0.50163288523E+02  0.00000000000E+00 0. -1.
        -12    1    4    4    0    0  0.55940496756E+02 -0.25131356362E+02 -0.31792369917E+02  0.69077340966E+02  0.00000000000E+00 0.  1.
</event>
<event>
12    1  0.8494789E-002  0.1993333E+03  0.7818608E-02  0.1150491E+00
         21   -1    0    0  501  502  0.00000000000E+00  0.00000000000E+00  0.33859119858E+03  0.33859119858E+03  0.00000000000E+00 0.  1.
         21   -1    0    0  502  503 -0.00000000000E+00 -0.00000000000E+00 -0.17489274058E+03  0.17489274058E+03  0.00000000000E+00 0. -1.
         -6    2    1    2    0  503 -0.10156674074E+03  0.55163089618E+01 -0.66205585105E+02  0.20919851669E+03  0.17039544418E+03 0.  0.
        -24    2    3    3    0    0  0.66922590212E+01  0.16279421957E+02 -0.59179187091E+02  0.10007786833E+03  0.78762920429E+02 0.  0.
          6    2    1    2  501    0  0.10156674074E+03 -0.55163089618E+01  0.22990404310E+03  0.30428542247E+03  0.17142787639E+03 0.  0.
         24    2    5    5    0    0  0.73242816701E+02  0.53842745587E+02  0.19279147731E+03  0.22862053914E+03  0.82675545009E+02 0.  0.
          5    1    5    5  501    0  0.28323924036E+02 -0.59359054549E+02  0.37112565791E+02  0.75664883330E+02  0.47000000000E+01 0. -1.
        -11    1    6    6    0    0  0.16980348071E+02 -0.44640431517E+01  0.11487854857E+03  0.11621248136E+03  0.00000000000E+00 0.  1.
         12    1    6    6    0    0  0.56262468630E+02  0.58306788739E+02  0.77912928740E+02  0.11240805778E+03  0.00000000000E+00 0. -1.
         -5    1    3    3    0  503 -0.10825899976E+03 -0.10763112995E+02 -0.70263980138E+01  0.10912064836E+03  0.47000000000E+01 0.  1.
         11    1    4    4    0    0 -0.22844524438E+02 -0.30602671673E+01 -0.60506627283E+02  0.64747891681E+02  0.00000000000E+00 0. -1.
        -12    1    4    4    0    0  0.29536783459E+02  0.19339689125E+02  0.13274401915E+01  0.35329976649E+02  0.00000000000E+00 0.  1.
</event>
<event>
12    1  0.8494789E-002  0.1977147E+03  0.7818608E-02  0.1152290E+00
         21   -1    0    0  501  502  0.00000000000E+00  0.00000000000E+00  0.27596121161E+03  0.27596121161E+03  0.00000000000E+00 0. -1.
         21   -1    0    0  502  503 -0.00000000000E+00 -0.00000000000E+00 -0.14054957516E+03  0.14054957516E+03  0.00000000000E+00 0. -1.
         -6    2    1    2    0  503 -0.89549116890E+02 -0.17672800097E+02  0.50488884753E+02  0.20132947785E+03  0.17220063579E+03 0.  0.
        -24    2    3    3    0    0 -0.60778161853E+02  0.15689416050E+02 -0.33273528451E+02  0.10657169618E+03  0.79437119771E+02 0.  0.
          6    2    1    2  501    0  0.89549116890E+02  0.17672800097E+02  0.84922751692E+02  0.21518130892E+03  0.17538457673E+03 0.  0.
         24    2    5    5    0    0  0.11549222134E+02 -0.36323787917E+02  0.81806933887E+02  0.12014756007E+03  0.79311157216E+02 0.  0.
          5    1    5    5  501    0  0.77999894756E+02  0.53996588014E+02  0.31158178054E+01  0.95033748846E+02  0.47000000000E+01 0. -1.
        -13    1    6    6    0    0  0.14810140680E+02 -0.60611000962E+02  0.66824876084E+02  0.91425367203E+02  0.00000000000E+00 0.  1.
         14    1    6    6    0    0 -0.32609185458E+01  0.24287213045E+02  0.14982057803E+02  0.28722192870E+02  0.00000000000E+00 0. -1.
         -5    1    3    3    0  503 -0.28770955037E+02 -0.33362216147E+02  0.83762413204E+02  0.94757781663E+02  0.47000000000E+01 0.  1.
         13    1    4    4    0    0 -0.28470124397E+02 -0.32512794398E+02 -0.14256875266E+02  0.45507013471E+02  0.00000000000E+00 0. -1.
        -14    1    4    4    0    0 -0.32308037456E+02  0.48202210447E+02 -0.19016653185E+02  0.61064682711E+02  0.00000000000E+00 0.  1.
</event>
<event>
12    1  0.8494789E-002  0.1806571E+03  0.7818608E-02  0.1167266E+00
         21   -1    0    0  501  502  0.00000000000E+00  0.00000000000E+00  0.22673474765E+03  0.22673474765E+03  0.00000000000E+00 0.  1.
         21   -1    0    0  502  503 -0.00000000000E+00 -0.00000000000E+00 -0.24160499456E+03  0.24160499456E+03  0.00000000000E+00 0.  1.
         -6    2    1    2    0  503  0.67381539744E+01 -0.51883923397E+02 -0.15656513521E+03  0.23905988947E+03  0.17291513804E+03 0.  0.
        -24    2    3    3    0    0 -0.22727336414E+02 -0.40051189557E+02 -0.12869918146E+02  0.91823229220E+02  0.78391587725E+02 0.  0.
          6    2    1    2  501    0 -0.67381539744E+01  0.51883923397E+02  0.14169488830E+03  0.22927985274E+03  0.17249482681E+03 0.  0.
         24    2    5    5    0    0 -0.14533716253E+02  0.92601955086E+02  0.58653896888E+02  0.13634640800E+03  0.79772879863E+02 0.  0.
          5    1    5    5  501    0  0.77955622784E+01 -0.40718031689E+02  0.83040991413E+02  0.92933444737E+02  0.47000000000E+01 0. -1.
        -13    1    6    6    0    0  0.16437738640E+02  0.59308355894E+02  0.66047769222E+02  0.90277284793E+02  0.00000000000E+00 0.  1.
         14    1    6    6    0    0 -0.30971454892E+02  0.33293599192E+02 -0.73938723344E+01  0.46069123211E+02  0.00000000000E+00 0. -1.
         -5    1    3    3    0  503  0.29465490388E+02 -0.11832733840E+02 -0.14369521706E+03  0.14723666025E+03  0.47000000000E+01 0.  1.
         13    1    4    4    0    0  0.27732019105E+02 -0.23730746087E+02 -0.13130718262E+02  0.38789546988E+02  0.00000000000E+00 0. -1.
        -14    1    4    4    0    0 -0.50459355519E+02 -0.16320443470E+02  0.26080011555E+00  0.53033682232E+02  0.00000000000E+00 0.  1.
</event>
<event>
12    1  0.8494789E-002  0.1737930E+03  0.7818608E-02  0.1174443E+00
         21   -1    0    0  503  502  0.00000000000E+00  0.00000000000E+00  0.10359578912E+04  0.10359578912E+04  0.00000000000E+00 0.  1.
         21   -1    0    0  501  503 -0.00000000000E+00 -0.00000000000E+00 -0.30114475650E+02  0.30114475650E+02  0.00000000000E+00 0.  1.
          6    2    1    2  501    0 -0.23046998059E+02  0.93416220506E+01  0.39019330028E+03  0.42636221426E+03  0.17004557080E+03 0.  0.
         24    2    3    3    0    0 -0.82211234966E+02  0.89960478226E+00  0.24708595581E+03  0.27120591686E+03  0.75773896141E+02 0.  0.
         -6    2    1    2    0  502  0.23046998059E+02 -0.93416220506E+01  0.61565011524E+03  0.63971015255E+03  0.17200460710E+03 0.  0.
        -24    2    5    5    0    0  0.31955540449E+02 -0.38165193321E+02  0.17878577922E+03  0.20178013706E+03  0.79203095347E+02 0.  0.
          5    1    3    3  501    0  0.59164236907E+02  0.84420172683E+01  0.14310734446E+03  0.15515629740E+03  0.47000000000E+01 0. -1.
        -11    1    4    4    0    0  0.11181493765E+02  0.11118014147E+02  0.20113479566E+02  0.25557544907E+02  0.00000000000E+00 0.  1.
         12    1    4    4    0    0 -0.93392728731E+02 -0.10218409365E+02  0.22697247625E+03  0.24564837195E+03  0.00000000000E+00 0. -1.
         -5    1    5    5    0  502 -0.89085423901E+01  0.28823571270E+02  0.43686433602E+03  0.43793001550E+03  0.47000000000E+01 0.  1.
         11    1    6    6    0    0 -0.35408670943E+01  0.20372438770E+02  0.72199934709E+02  0.75102626940E+02  0.00000000000E+00 0. -1.
        -12    1    6    6    0    0  0.35496407544E+02 -0.58537632091E+02  0.10658584451E+03  0.12667751012E+03  0.00000000000E+00 0.  1.
</event>
<event>
12    1  0.8494789E-002  0.2207902E+03  0.7818608E-02  0.1133346E+00
         21   -1    0    0  503  502  0.00000000000E+00  0.00000000000E+00  0.63397139480E+02  0.63397139480E+02  0.00000000000E+00 0. -1.
         21   -1    0    0  501  503 -0.00000000000E+00 -0.00000000000E+00 -0.89844213128E+03  0.89844213128E+03  0.00000000000E+00 0.  1.
          6    2    1    2  501    0  0.11360389212E+03  0.80794197919E+02 -0.60055767851E+03  0.63976381306E+03  0.17086446255E+03 0.  0.
         24    2    3    3    0    0  0.41486845460E+02  0.10541967317E+03 -0.44796825978E+03  0.46913877633E+03  0.81124372730E+02 0.  0.
         -6    2    1    2    0  502 -0.11360389212E+03 -0.80794197919E+02 -0.23448731330E+03  0.32207545771E+03  0.17121551810E+03 0.  0.
        -24    2    5    5    0    0  0.80644461507E+01 -0.48181802504E+02 -0.68785544452E+02  0.11387862999E+03  0.76487710513E+02 0.  0.
          5    1    3    3  501    0  0.72117046656E+02 -0.24625475253E+02 -0.15258941873E+03  0.17062503673E+03  0.47000000000E+01 0. -1.
        -11    1    4    4    0    0  0.34371512017E+02  0.59970971639E+02 -0.38500430729E+03  0.39116011416E+03  0.00000000000E+00 0.  1.
         12    1    4    4    0    0  0.71153334437E+01  0.45448701533E+02 -0.62963952486E+02  0.77978662169E+02  0.00000000000E+00 0. -1.
         -5    1    5    5    0  502 -0.12166833827E+03 -0.32612395415E+02 -0.16570176885E+03  0.20819682772E+03  0.47000000000E+01 0.  1.
         11    1    6    6    0    0  0.23202793257E+02 -0.63699744888E+02 -0.43399602806E+02  0.80495668439E+02  0.00000000000E+00 0. -1.
        -12    1    6    6    0    0 -0.15138347106E+02  0.15517942384E+02 -0.25385941646E+02  0.33382961555E+02  0.00000000000E+00 0.  1.
</event>
<event>
12    1  0.8494789E-002  0.1913679E+03  0.7818608E-02  0.1157261E+00
         21   -1    0    0  503  502  0.00000000000E+00  0.00000000000E+00  0.13274634274E+04  0.13274634274E+04  0.00000000000E+00 0.  1.
         21   -1    0    0  501  503 -0.00000000000E+00 -0.00000000000E+00 -0.35303679271E+02  0.35303679271E+02  0.00000000000E+00 0.  1.
          6    2    1    2  501    0 -0.49145124401E+02 -0.68476963371E+02  0.32732383976E+03  0.37916036266E+03  0.17180613135E+03 0.  0.
         24    2    3    3    0    0 -0.10160454405E+03 -0.62738562207E+02  0.25485018594E+03  0.28938597624E+03  0.67349947377E+02 0.  0.
         -6    2    1    2    0  502  0.49145124401E+02  0.68476963371E+02  0.96483590839E+03  0.98360674404E+03  0.17166700042E+03 0.  0.
        -24    2    5    5    0    0  0.20202514875E+02  0.22786901460E+02  0.21640800833E+03  0.23321240238E+03  0.81413844455E+02 0.  0.
          5    1    3    3  501    0  0.52459419649E+02 -0.57384011636E+01  0.72473653820E+02  0.89774386413E+02  0.47000000000E+01 0. -1.
        -13    1    4    4    0    0 -0.56382033264E+02  0.39326770507E+01  0.10731033786E+03  0.12128441052E+03  0.00000000000E+00 0.  1.
         14    1    4    4    0    0 -0.45222510787E+02 -0.66671239258E+02  0.14753984808E+03  0.16810156572E+03  0.00000000000E+00 0. -1.
         -5    1    5    5    0  502  0.28942609526E+02  0.45690061911E+02  0.74842790006E+03  0.75039434166E+03  0.47000000000E+01 0.  1.
         11    1    6    6    0    0 -0.18919906222E+02  0.36808584096E+02  0.14286743686E+03  0.14874118202E+03  0.00000000000E+00 0. -1.
        -12    1    6    6    0    0  0.39122421097E+02 -0.14021682636E+02  0.73540571472E+02  0.84471220358E+02  0.00000000000E+00 0.  1.
</event>
<event>
12    1  0.8494789E-002  0.2198353E+03  0.7818608E-02  0.1134248E+00
         21   -1    0    0  501  502  0.00000000000E+00  0.00000000000E+00  0.90834535962E+02  0.90834535962E+02  0.00000000000E+00 0.  1.
         21   -1    0    0  502  503 -0.00000000000E+00 -0.00000000000E+00 -0.69689070986E+03  0.69689070986E+03  0.00000000000E+00 0.  1.
         -6    2    1    2    0  503  0.85090283688E+02  0.10821777352E+03 -0.49571851704E+03  0.54175377705E+03  0.16973174107E+03 0.  0.
        -24    2    3    3    0    0 -0.10580129642E+02  0.87767344111E+02 -0.29035705097E+03  0.31423131707E+03  0.81357591797E+02 0.  0.
          6    2    1    2  501    0 -0.85090283688E+02 -0.10821777352E+03 -0.11033765686E+03  0.24597146877E+03  0.17139463832E+03 0.  0.
         24    2    5    5    0    0 -0.74247452507E+02 -0.64083859093E+02 -0.11761446305E+01  0.12763425931E+03  0.81668204549E+02 0.  0.
          5    1    5    5  501    0 -0.10842831181E+02 -0.44133914429E+02 -0.10916151223E+03  0.11833720946E+03  0.47000000000E+01 0. -1.
        -11    1    6    6    0    0 -0.28564582077E+02  0.80808974914E+01 -0.25169021745E+02  0.38919351345E+02  0.00000000000E+00 0.  1.
         12    1    6    6    0    0 -0.45682870429E+02 -0.72164756584E+02  0.23992877114E+02  0.88714907968E+02  0.00000000000E+00 0. -1.
         -5    1    3    3    0  503  0.95670413329E+02  0.20450429412E+02 -0.20536146607E+03  0.22752245998E+03  0.47000000000E+01 0.  1.
         13    1    4    4    0    0 -0.44532543655E+02  0.32473826781E+02 -0.12579828716E+03  0.13734229474E+03  0.00000000000E+00 0. -1.
        -14    1    4    4    0    0  0.33952414013E+02  0.55293517330E+02 -0.16455876381E+03  0.17688902233E+03  0.00000000000E+00 0.  1.
</event>
<event>
12    1  0.8494789E-002  0.2060723E+03  0.7818608E-02  0.1144945E+00
         21   -1    0    0  503  502  0.00000000000E+00  0.00000000000E+00  0.12676485951E+03  0.12676485951E+03  0.00000000000E+00 0.  1.
         21   -1    0    0  501  503 -0.00000000000E+00 -0.00000000000E+00 -0.35112759777E+03  0.35112759777E+03  0.00000000000E+00 0. -1.
          6    2    1    2  501    0 -0.81922663120E+01 -0.11160228046E+03 -0.16593946004E+03  0.26369846432E+03  0.17169389464E+03 0.  0.
         24    2    3    3    0    0 -0.42834564724E+02 -0.12170261503E+03 -0.81482090206E+02  0.17173519493E+03  0.78786545259E+02 0.  0.
         -6    2    1    2    0  502  0.81922663120E+01  0.11160228046E+03 -0.58423278223E+02  0.21419399295E+03  0.17304220568E+03 0.  0.
        -24    2    5    5    0    0 -0.49942444247E+02  0.87242507055E+02 -0.75297384536E+02  0.14877328831E+03  0.79738901561E+02 0.  0.
          5    1    3    3  501    0  0.34642298412E+02  0.10100334568E+02 -0.84457369836E+02  0.91963269392E+02  0.47000000000E+01 0. -1.
        -11    1    4    4    0    0 -0.22587500418E+02 -0.56118565102E+02  0.57163849643E+01  0.60763192652E+02  0.00000000000E+00 0.  1.
         12    1    4    4    0    0 -0.20247064307E+02 -0.65584049929E+02 -0.87198475171E+02  0.11097200228E+03  0.00000000000E+00 0. -1.
         -5    1    5    5    0  502  0.58134710559E+02  0.24359773407E+02  0.16874106313E+02  0.65420704644E+02  0.47000000000E+01 0.  1.
         13    1    6    6    0    0 -0.65471225475E+02  0.79988947628E+02 -0.42490989372E+02  0.11175955121E+03  0.00000000000E+00 0. -1.
        -14    1    6    6    0    0  0.15528781228E+02  0.72535594267E+01 -0.32806395164E+02  0.37013737104E+02  0.00000000000E+00 0.  1.
</event>
<event>
12    1  0.8494789E-002  0.2541080E+03  0.7818608E-02  0.1111016E+00
         21   -1    0    0  503  502  0.00000000000E+00  0.00000000000E+00  0.80794860493E+03  0.80794860493E+03  0.00000000000E+00 0. -1.
         21   -1    0    0  501  503 -0.00000000000E+00 -0.00000000000E+00 -0.79618568211E+02  0.79618568211E+02  0.00000000000E+00 0.  1.
          6    2    1    2  501    0 -0.14940150378E+03  0.10941369961E+03  0.33729410745E+03  0.42121966803E+03  0.17136664443E+03 0.  0.
         24    2    3    3    0    0 -0.29323949229E+02  0.88823722520E+02  0.19587588875E+03  0.23450124676E+03  0.88735129779E+02 0.  0.
         -6    2    1    2    0  502  0.14940150378E+03 -0.10941369961E+03  0.39103592927E+03  0.46634750511E+03  0.17400784623E+03 0.  0.
        -24    2    5    5    0    0  0.79290305077E+02 -0.13723291849E+03  0.25618911099E+03  0.31176664109E+03  0.80285437703E+02 0.  0.
          5    1    3    3  501    0 -0.12007755455E+03  0.20589977085E+02  0.14141821870E+03  0.18671842127E+03  0.47000000000E+01 0. -1.
        -13    1    4    4    0    0 -0.63328348957E+01  0.73082663161E+02  0.57111953283E+02  0.92967497870E+02  0.00000000000E+00 0.  1.
         14    1    4    4    0    0 -0.22991114334E+02  0.15741059359E+02  0.13876393546E+03  0.14153374889E+03  0.00000000000E+00 0. -1.
         -5    1    5    5    0  502  0.70111198702E+02  0.27819218881E+02  0.13484681827E+03  0.15458086402E+03  0.47000000000E+01 0.  1.
         11    1    6    6    0    0 -0.12109825371E+02 -0.44000296901E+02  0.84943673318E+02  0.96426664542E+02  0.00000000000E+00 0. -1.
        -12    1    6    6    0    0  0.91400130448E+02 -0.93232621586E+02  0.17124543768E+03  0.21533997655E+03  0.00000000000E+00 0.  1.
</event>
<event>
12    1  0.8494789E-002  0.1943365E+03  0.7818608E-02  0.1155836E+00
         21   -1    0    0  501  502  0.00000000000E+00  0.00000000000E+00  0.80315852417E+02  0.80315852417E+02  0.00000000000E+00 0. -1.
         21   -1    0    0  502  503 -0.00000000000E+00 -0.00000000000E+00 -0.51218907446E+03  0.51218907446E+03  0.00000000000E+00 0.  1.
         -6    2    1    2    0  503 -0.41354284999E+02  0.57833830291E+02 -0.31598998788E+03  0.37096679776E+03  0.18086393724E+03 0.  0.
        -24    2    3    3    0    0 -0.35417750936E+02  0.84888107900E+02 -0.10725097077E+03  0.16034570757E+03  0.75812711735E+02 0.  0.
          6    2    1    2  501    0  0.41354284999E+02 -0.57833830291E+02 -0.11588323417E+03  0.22153812911E+03  0.17491509333E+03 0.  0.
         24    2    5    5    0    0  0.25263877214E+02 -0.10722094279E+03 -0.88673023806E+02  0.16271233841E+03  0.80484817536E+02 0.  0.
          5    1    5    5  501    0  0.16090407785E+02  0.49387112503E+02 -0.27210210362E+02  0.58825790705E+02  0.47000000000E+01 0. -1.
        -11    1    6    6    0    0 -0.20746715920E+02 -0.39439898365E+02 -0.37585218906E+01  0.44722011262E+02  0.00000000000E+00 0.  1.
         12    1    6    6    0    0  0.46010593134E+02 -0.67781044429E+02 -0.84914501916E+02  0.11799032715E+03  0.00000000000E+00 0. -1.
         -5    1    3    3    0  503 -0.59365340635E+01 -0.27054277609E+02 -0.20873901710E+03  0.21062109019E+03  0.47000000000E+01 0.  1.
         11    1    4    4    0    0 -0.12058408473E+01  0.60550647099E+02 -0.10118463003E+03  0.11792440066E+03  0.00000000000E+00 0. -1.
        -12    1    4    4    0    0 -0.34211910089E+02  0.24337460801E+02 -0.60663407423E+01  0.42421306912E+02  0.00000000000E+00 0.  1.
</event>
<event>
12    1  0.8494789E-002  0.2565001E+03  0.7818608E-02  0.1109780E+00
         21   -1    0    0  501  502  0.00000000000E+00  0.00000000000E+00  0.15715589944E+03  0.15715589944E+03  0.00000000000E+00 0. -1.
         21   -1    0    0  502  503 -0.00000000000E+00 -0.00000000000E+00 -0.73472910974E+03  0.73472910974E+03  0.00000000000E+00 0.  1.
         -6    2    1    2    0  503  0.18733031280E+03  0.19521404138E+02 -0.58485577733E+03  0.63863024156E+03  0.17412229564E+03 0.  0.
        -24    2    3    3    0    0  0.20549718606E+03  0.53335379016E+01 -0.56896933182E+03  0.61024362528E+03  0.80085214261E+02 0.  0.
          6    2    1    2  501    0 -0.18733031280E+03 -0.19521404138E+02  0.72825670282E+01  0.25325476762E+03  0.16914848574E+03 0.  0.
         24    2    5    5    0    0 -0.13381542337E+03 -0.31729174952E+02 -0.56929677833E+02  0.16864876637E+03  0.79297604648E+02 0.  0.
          5    1    5    5  501    0 -0.53514889422E+02  0.12207770814E+02  0.64212244862E+02  0.84606001254E+02  0.47000000000E+01 0. -1.
        -13    1    6    6    0    0 -0.47728226134E+02 -0.34236035947E+02  0.99914962829E+01  0.59581202784E+02  0.00000000000E+00 0.  1.
         14    1    6    6    0    0 -0.86087197241E+02  0.25068609950E+01 -0.66921174116E+02  0.10906756358E+03  0.00000000000E+00 0. -1.
         -5    1    3    3    0  503 -0.18166873263E+02  0.14187866237E+02 -0.15886445518E+02  0.28386616278E+02  0.47000000000E+01 0.  1.
         11    1    4    4    0    0  0.16429916406E+01  0.14868055438E+02 -0.23592499937E+02  0.27935005769E+02  0.00000000000E+00 0. -1.
        -12    1    4    4    0    0  0.20385419442E+03 -0.95345175362E+01 -0.54537683188E+03  0.58230861951E+03  0.00000000000E+00 0.  1.
</event>
<event>
12    1  0.8494789E-002  0.1902153E+03  0.7818608E-02  0.1158635E+00
         21   -1    0    0  501  502  0.00000000000E+00  0.00000000000E+00  0.12802608104E+03  0.12802608104E+03  0.00000000000E+00 0.  1.
         21   -1    0    0  502  503 -0.00000000000E+00 -0.00000000000E+00 -0.28153877822E+03  0.28153877822E+03  0.00000000000E+00 0. -1.
         -6    2    1    2    0  503  0.80510690826E+02  0.11611100808E+02 -0.62314078704E+02  0.19861690486E+03  0.17014359081E+03 0.  0.
        -24    2    3    3    0    0  0.46986648195E+02  0.92741390835E+01  0.31288499489E+02  0.99053580947E+02  0.80863384383E+02 0.  0.
          6    2    1    2  501    0 -0.80510690826E+02 -0.11611100808E+02 -0.91198618479E+02  0.21094795439E+03  0.17194494017E+03 0.  0.
         24    2    5    5    0    0 -0.97678538170E+01 -0.63622228103E+02 -0.42991634641E+02  0.11066979306E+03  0.79096925155E+02 0.  0.
          5    1    5    5  501    0 -0.70742837009E+02  0.52011127296E+02 -0.48206983838E+02  0.10027816134E+03  0.47000000000E+01 0. -1.
        -11    1    6    6    0    0  0.17413670228E+02 -0.52648834188E+02  0.36586030900E+01  0.55574463819E+02  0.00000000000E+00 0.  1.
         12    1    6    6    0    0 -0.27181524045E+02 -0.10973393915E+02 -0.46650237731E+02  0.55095329237E+02  0.00000000000E+00 0. -1.
         -5    1    3    3    0  503  0.33524042631E+02  0.23369617242E+01 -0.93602578193E+02  0.99563323914E+02  0.47000000000E+01 0.  1.
         13    1    4    4    0    0 -0.14566650539E+02 -0.35894201171E+01 -0.14811866016E+02  0.21082282125E+02  0.00000000000E+00 0. -1.
        -14    1    4    4    0    0  0.61553298734E+02  0.12863559201E+02  0.46100365505E+02  0.77971298822E+02  0.00000000000E+00 0.  1.
</event>
<event>
12    1  0.8494789E-002  0.2677585E+03  0.7818608E-02  0.1102675E+00
         21   -1    0    0  501  502  0.00000000000E+00  0.00000000000E+00  0.20158819876E+03  0.20158819876E+03  0.00000000000E+00 0.  1.
         21   -1    0    0  502  503 -0.00000000000E+00 -0.00000000000E+00 -0.58789292846E+03  0.58789292846E+03  0.00000000000E+00 0.  1.
         -6    2    1    2    0  503  0.19388713076E+03  0.67351574562E+02 -0.44161541970E+03  0.51606959273E+03  0.17080746926E+03 0.  0.
        -24    2    3    3    0    0  0.13809498536E+03  0.71175549445E+02 -0.42152443048E+03  0.45646150503E+03  0.80858371603E+02 0.  0.
          6    2    1    2  501    0 -0.19388713076E+03 -0.67351574562E+02  0.55310690001E+02  0.27341153450E+03  0.17194807558E+03 0.  0.
         24    2    5    5    0    0 -0.41752790737E+02 -0.47734639886E+02 -0.46449066186E+01  0.10864975159E+03  0.88098251876E+02 0.  0.
          5    1    5    5  501    0 -0.15213434002E+03 -0.19616934676E+02  0.59955596619E+02  0.16476178291E+03  0.47000000000E+01 0. -1.
        -11    1    6    6    0    0 -0.40704610809E+02 -0.46067723495E+02  0.33800512999E+02  0.70153939078E+02  0.00000000000E+00 0.  1.
         12    1    6    6    0    0 -0.10481799276E+01 -0.16669163911E+01 -0.38445419617E+02  0.38495812512E+02  0.00000000000E+00 0. -1.
         -5    1    3    3    0  503  0.55792145398E+02 -0.38239748830E+01 -0.20090989217E+02  0.59608087704E+02  0.47000000000E+01 0.  1.
         13    1    4    4    0    0  0.17000548929E+02 -0.16187216026E+02 -0.35450398642E+02  0.42517941983E+02  0.00000000000E+00 0. -1.
        -14    1    4    4    0    0  0.12109443643E+03  0.87362765471E+02 -0.38607403184E+03  0.41394356305E+03  0.00000000000E+00 0.  1.
</event>
<event>
12    1  0.8494789E-002  0.1788116E+03  0.7818608E-02  0.1169563E+00
         21   -1    0    0  503  502  0.00000000000E+00  0.00000000000E+00  0.64277547062E+02  0.64277547062E+02  0.00000000000E+00 0. -1.
         21   -1    0    0  501  503 -0.00000000000E+00 -0.00000000000E+00 -0.49076270426E+03  0.49076270426E+03  0.00000000000E+00 0. -1.
          6    2    1    2  501    0 -0.18467800422E+02 -0.46565291357E+02 -0.20988479889E+03  0.27572671897E+03  0.17165141635E+03 0.  0.
         24    2    3    3    0    0 -0.46347858916E+02  0.27553991593E+02 -0.90748690530E+02  0.13259577164E+03  0.80243176315E+02 0.  0.
         -6    2    1    2    0  502  0.18467800422E+02  0.46565291357E+02 -0.21660035831E+03  0.27931353236E+03  0.16908858071E+03 0.  0.
        -24    2    5    5    0    0  0.55222955894E+02  0.73322968580E+02 -0.19327626401E+03  0.22800058936E+03  0.78757361185E+02 0.  0.
          5    1    3    3  501    0  0.27880058494E+02 -0.74119282950E+02 -0.11913610836E+03  0.14313094733E+03  0.47000000000E+01 0. -1.
        -11    1    4    4    0    0  0.20147782858E+02  0.21911616839E+02 -0.31740514981E+02  0.43514507901E+02  0.00000000000E+00 0.  1.
         12    1    4    4    0    0 -0.66495641774E+02  0.56423747541E+01 -0.59008175549E+02  0.89081263739E+02  0.00000000000E+00 0. -1.
         -5    1    5    5    0  502 -0.36755155472E+02 -0.26757677222E+02 -0.23324094299E+02  0.51312942997E+02  0.47000000000E+01 0.  1.
         13    1    6    6    0    0  0.24330381241E+02  0.53354199716E+01 -0.12286128008E+03  0.12536079252E+03  0.00000000000E+00 0. -1.
        -14    1    6    6    0    0  0.30892574654E+02  0.67987548608E+02 -0.70414983929E+02  0.10263979684E+03  0.00000000000E+00 0.  1.
</event>
<event>
12    1  0.8494789E-002  0.1928896E+03  0.7818608E-02  0.1155924E+00
         21   -1    0    0  503  502  0.00000000000E+00  0.00000000000E+00  0.28775426038E+02  0.28775426038E+02  0.00000000000E+00 0.  1.
         21   -1    0    0  501  503 -0.00000000000E+00 -0.00000000000E+00 -0.13196655722E+04  0.13196655722E+04  0.00000000000E+00 0. -1.
          6    2    1    2  501    0 -0.60982914778E+02 -0.62893942131E+02 -0.54693150154E+03  0.57988333998E+03  0.17162766898E+03 0.  0.
         24    2    3    3    0    0 -0.15556783843E+01 -0.79004625638E+02 -0.35176263731E+03  0.37517836663E+03  0.10381571545E+03 0.  0.
         -6    2    1    2    0  502  0.60982914778E+02  0.62893942131E+02 -0.74395864466E+03  0.76855765830E+03  0.17184832065E+03 0.  0.
        -24    2    5    5    0    0  0.13279689936E+02  0.85160319765E+02 -0.65333504689E+03  0.66364762205E+03  0.78440120630E+02 0.  0.
          5    1    3    3  501    0 -0.59427236394E+02  0.16110683507E+02 -0.19516886424E+03  0.20470497335E+03  0.47000000000E+01 0. -1.
        -13    1    4    4    0    0 -0.33892305565E+01 -0.20220874581E+02 -0.21068135670E+01  0.20610902842E+02  0.00000000000E+00 0.  1.
         14    1    4    4    0    0  0.18335521722E+01 -0.58783751057E+02 -0.34965582374E+03  0.35456746379E+03  0.00000000000E+00 0. -1.
         -5    1    5    5    0  502  0.47703224842E+02 -0.22266377634E+02 -0.90623597770E+02  0.10491003625E+03  0.47000000000E+01 0.  1.
         11    1    6    6    0    0 -0.28211805909E+02  0.14021176119E+02 -0.25107957760E+03  0.25304832278E+03  0.00000000000E+00 0. -1.
        -12    1    6    6    0    0  0.41491495845E+02  0.71139143645E+02 -0.40225546929E+03  0.41059929927E+03  0.00000000000E+00 0.  1.
</event>
<event>
12    1  0.8494789E-002  0.3166439E+03  0.7818608E-02  0.1077245E+00
         21   -1    0    0  501  502  0.00000000000E+00  0.00000000000E+00  0.81802914363E+03  0.81802914363E+03  0.00000000000E+00 0. -1.
         21   -1    0    0  502  503 -0.00000000000E+00 -0.00000000000E+00 -0.16443767669E+03  0.16443767669E+03  0.00000000000E+00 0.  1.
         -6    2    1    2    0  503  0.26321319732E+03  0.36024009773E+02  0.78386189721E+02  0.32586610803E+03  0.17165491283E+03 0.  0.
        -24    2    3    3    0    0  0.67636914366E+02  0.11074889676E+01  0.31603976941E+02  0.12170952275E+03  0.96116688731E+02 0.  0.
          6    2    1    2  501    0 -0.26321319732E+03 -0.36024009773E+02  0.57520527722E+03  0.65660071229E+03  0.17229181034E+03 0.  0.
         24    2    5    5    0    0 -0.23023908901E+03 -0.83602564840E+02  0.48644604887E+03  0.55052856072E+03  0.80327521736E+02 0.  0.
          5    1    5    5  501    0 -0.32974108316E+02  0.47578555068E+02  0.88759228348E+02  0.10607215157E+03  0.47000000000E+01 0. -1.
        -11    1    6    6    0    0 -0.14744950952E+03 -0.56876923262E+02  0.22476009690E+03  0.27476070210E+03  0.00000000000E+00 0.  1.
         12    1    6    6    0    0 -0.82789579486E+02 -0.26725641578E+02  0.26168595198E+03  0.27576785862E+03  0.00000000000E+00 0. -1.
         -5    1    3    3    0  503  0.19557628296E+03  0.34916520805E+02  0.46782212779E+02  0.20415658528E+03  0.47000000000E+01 0.  1.
         11    1    4    4    0    0  0.30567372829E+02 -0.28671260549E+02 -0.24200307519E+02  0.48394838022E+02  0.00000000000E+00 0. -1.
        -12    1    4    4    0    0  0.37069541537E+02  0.29778749517E+02  0.55804284460E+02  0.73314684727E+02  0.00000000000E+00 0.  1.
</event>
<event>
12    1  0.8494789E-002  0.2621099E+03  0.7818608E-02  0.1106510E+00
         21   -1    0    0  503  502  0.00000000000E+00  0.00000000000E+00  0.57026437354E+03  0.57026437354E+03  0.00000000000E+00 0.  1.
         21   -1    0    0  501  503 -0.00000000000E+00 -0.00000000000E+00 -0.11855950914E+03  0.11855950914E+03  0.00000000000E+00 0. -1.
          6    2    1    2  501    0  0.16345810506E+03  0.96674611474E+02  0.22951182200E+03  0.34839239559E+03  0.18065727843E+03 0.  0.
         24    2    3    3    0    0  0.13560666315E+02  0.24205776103E+02  0.34352791838E+02  0.91818602502E+02  0.80502982495E+02 0.  0.
         -6    2    1    2    0  502 -0.16345810506E+03 -0.96674611474E+02  0.22219304239E+03  0.34043148709E+03  0.17452597716E+03 0.  0.
        -24    2    5    5    0    0 -0.31084210706E+02 -0.16356117063E+02  0.12088367200E+03  0.15533803237E+03  0.91012589372E+02 0.  0.
          5    1    3    3  501    0  0.14989743875E+03  0.72468835371E+02  0.19515903017E+03  0.25657379309E+03  0.47000000000E+01 0. -1.
        -11    1    4    4    0    0 -0.22015059032E+02  0.32292807826E+02  0.38791770738E+02  0.55066230473E+02  0.00000000000E+00 0.  1.
         12    1    4    4    0    0  0.35575725348E+02 -0.80870317229E+01 -0.44389789001E+01  0.36752372029E+02  0.00000000000E+00 0. -1.
         -5    1    5    5    0  502 -0.13237389436E+03 -0.80318494411E+02  0.10130937039E+03  0.18509345472E+03  0.47000000000E+01 0.  1.
         13    1    6    6    0    0 -0.92495582462E+01 -0.27714027738E+02 -0.26870484927E+01  0.29340107205E+02  0.00000000000E+00 0. -1.
        -14    1    6    6    0    0 -0.21834652460E+02  0.11357910675E+02  0.12357072050E+03  0.12599792517E+03  0.00000000000E+00 0.  1.
</event>
<event>
12    1  0.8494789E-002  0.1895813E+03  0.7818608E-02  0.1159233E+00
         21   -1    0    0  503  502  0.00000000000E+00  0.00000000000E+00  0.18381576720E+03  0.18381576720E+03  0.00000000000E+00 0. -1.
         21   -1    0    0  501  503 -0.00000000000E+00 -0.00000000000E+00 -0.28623567282E+03  0.28623567282E+03  0.00000000000E+00 0. -1.
          6    2    1    2  501    0 -0.47058731975E+02 -0.58216238531E+02 -0.18496608033E+03  0.26486508216E+03  0.17417636519E+03 0.  0.
         24    2    3    3    0    0  0.12004293656E+02 -0.54346181909E+02 -0.17979839897E+03  0.20526463530E+03  0.81905406905E+02 0.  0.
         -6    2    1    2    0  502  0.47058731975E+02  0.58216238531E+02  0.82546174711E+02  0.20518635786E+03  0.17229020810E+03 0.  0.
        -24    2    5    5    0    0  0.18518803435E+01  0.73753520401E+02  0.10602034679E+03  0.15172428422E+03  0.79604856996E+02 0.  0.
          5    1    3    3  501    0 -0.59063025631E+02 -0.38700566224E+01 -0.51676813632E+01  0.59600446858E+02  0.47000000000E+01 0. -1.
        -11    1    4    4    0    0  0.29697247095E+02 -0.35533498337E+01 -0.12481413158E+03  0.12834765375E+03  0.00000000000E+00 0.  1.
         12    1    4    4    0    0 -0.17692953438E+02 -0.50792832075E+02 -0.54984267387E+02  0.76916981556E+02  0.00000000000E+00 0. -1.
         -5    1    5    5    0  502  0.45206851631E+02 -0.15537281870E+02 -0.23474172081E+02  0.53462073633E+02  0.47000000000E+01 0.  1.
         13    1    6    6    0    0 -0.30571066061E+02  0.64968745289E+02  0.54172402482E+02  0.89945411974E+02  0.00000000000E+00 0. -1.
        -14    1    6    6    0    0  0.32422946405E+02  0.87847751116E+01  0.51847944311E+02  0.61778872251E+02  0.00000000000E+00 0.  1.
</event>
<event>
12    1  0.8494789E-002  0.1871622E+03  0.7818608E-02  0.1161210E+00
         21   -1    0    0  501  502  0.00000000000E+00  0.00000000000E+00  0.19871768035E+04  0.19871768035E+04  0.00000000000E+00 0. -1.
         21   -1    0    0  502  503 -0.00000000000E+00 -0.00000000000E+00 -0.75181191833E+02  0.75181191833E+02  0.00000000000E+00 0. -1.
         -6    2    1    2    0  503  0.47913164632E+02  0.54153146094E+02  0.53674416058E+02  0.19470652220E+03  0.17263097136E+03 0.  0.
        -24    2    3    3    0    0  0.12728348183E+01 -0.50733110000E+01 -0.31261759154E+02  0.81043258814E+02  0.74587891918E+02 0.  0.
          6    2    1    2  501    0 -0.47913164632E+02 -0.54153146094E+02  0.18583211956E+04  0.18676514732E+04  0.17186077054E+03 0.  0.
         24    2    5    5    0    0 -0.74405491662E+02  0.16657219591E+02  0.11539863950E+04  0.11592550074E+04  0.79836910187E+02 0.  0.
          5    1    5    5  501    0  0.26492327030E+02 -0.70810365684E+02  0.70433480067E+03  0.70839646577E+03  0.47000000000E+01 0. -1.
        -13    1    6    6    0    0  0.15552442787E+02  0.12250975341E+02  0.25540827104E+03  0.25617445187E+03  0.00000000000E+00 0.  1.
         14    1    6    6    0    0 -0.89957934448E+02  0.44062442499E+01  0.89857812393E+03  0.90308055553E+03  0.00000000000E+00 0. -1.
         -5    1    3    3    0  503  0.46640329814E+02  0.59226457094E+02  0.84936175211E+02  0.11366326339E+03  0.47000000000E+01 0.  1.
         13    1    4    4    0    0  0.17874831946E+02 -0.26888567978E+02 -0.40788324955E+02  0.52021074168E+02  0.00000000000E+00 0. -1.
        -14    1    4    4    0    0 -0.16601997128E+02  0.21815256978E+02  0.95265658014E+01  0.29022184646E+02  0.00000000000E+00 0.  1.
</event>
<event>
12    1  0.8494789E-002  0.2077457E+03  0.7818608E-02  0.1143477E+00
         21   -1    0    0  503  502  0.00000000000E+00  0.00000000000E+00  0.13628329172E+03  0.13628329172E+03  0.00000000000E+00 0.  1.
         21   -1    0    0  501  503 -0.00000000000E+00 -0.00000000000E+00 -0.69039501919E+03  0.69039501919E+03  0.00000000000E+00 0. -1.
          6    2    1    2  501    0 -0.11646212314E+03  0.12077032241E+01 -0.58168659022E+03  0.61767108938E+03  0.17202732559E+03 0.  0.
         24    2    3    3    0    0 -0.45329284393E+01  0.97517805857E+00 -0.12307251872E+03  0.14557241827E+03  0.77607897048E+02 0.  0.
         -6    2    1    2    0  502  0.11646212314E+03 -0.12077032241E+01  0.27574862743E+02  0.20900722152E+03  0.17134398419E+03 0.  0.
        -24    2    5    5    0    0  0.13065948681E+03  0.36571433447E+02  0.64077467190E+01  0.16319275761E+03  0.90451344275E+02 0.  0.
          5    1    3    3  501    0 -0.11192919470E+03  0.23252516551E+00 -0.45861407150E+03  0.47209867112E+03  0.47000000000E+01 0. -1.
        -13    1    4    4    0    0 -0.18604671451E+02  0.34789309012E+02 -0.48732766351E+02  0.62700178130E+02  0.00000000000E+00 0.  1.
         14    1    4    4    0    0  0.14071743011E+02 -0.33814130953E+02 -0.74339752367E+02  0.82872240138E+02  0.00000000000E+00 0. -1.
         -5    1    5    5    0  502 -0.14197363669E+02 -0.37779136671E+02  0.21167116024E+02  0.45814463912E+02  0.47000000000E+01 0.  1.
         13    1    6    6    0    0  0.50598940736E+02  0.40923842366E+02 -0.33982278559E+02  0.73415318113E+02  0.00000000000E+00 0. -1.
        -14    1    6    6    0    0  0.80060546070E+02 -0.43524089188E+01  0.40390025278E+02  0.89777439495E+02  0.00000000000E+00 0.  1.
</event>
<event>
12    1  0.8494789E-002  0.2052206E+03  0.7818608E-02  0.1145445E+00
         21   -1    0    0  503  502  0.00000000000E+00  0.00000000000E+00  0.63196218316E+02  0.63196218316E+02  0.00000000000E+00 0.  1.
         21   -1    0    0  501  503 -0.00000000000E+00 -0.00000000000E+00 -0.69825119903E+03  0.69825119903E+03  0.00000000000E+00 0. -1.
          6    2    1    2  501    0 -0.30323733815E+02  0.10767272496E+03 -0.39970107981E+03  0.44930663092E+03  0.17205391844E+03 0.  0.
         24    2    3    3    0    0  0.49151653999E+02  0.76704885103E+02 -0.21244778858E+03  0.24348819284E+03  0.76504331203E+02 0.  0.
         -6    2    1    2    0  502  0.30323733815E+02 -0.10767272496E+03 -0.23535390091E+03  0.31214078643E+03  0.17183558232E+03 0.  0.
        -24    2    5    5    0    0 -0.61997033132E+01 -0.20379935490E+02 -0.19771568544E+03  0.21019610625E+03  0.68096495676E+02 0.  0.
          5    1    3    3  501    0 -0.79475387814E+02  0.30967839857E+02 -0.18725329123E+03  0.20581843807E+03  0.47000000000E+01 0. -1.
        -13    1    4    4    0    0  0.95256766699E+00  0.40286755083E+01  0.65597556163E+01  0.77568038042E+01  0.00000000000E+00 0.  1.
         14    1    4    4    0    0  0.48199086332E+02  0.72676209595E+02 -0.21900754419E+03  0.23573138904E+03  0.00000000000E+00 0. -1.
         -5    1    5    5    0  502  0.36523437128E+02 -0.87292789470E+02 -0.37638215464E+02  0.10194468018E+03  0.47000000000E+01 0.  1.
         13    1    6    6    0    0  0.19573507685E+02 -0.35276654724E+02 -0.93969791936E+02  0.10226380771E+03  0.00000000000E+00 0. -1.
        -14    1    6    6    0    0 -0.25773210998E+02  0.14896719234E+02 -0.10374589350E+03  0.10793229854E+03  0.00000000000E+00 0.  1.
</event>
<event>
12    1  0.8494789E-002  0.2884824E+03  0.7818608E-02  0.1091270E+00
         21   -1    0    0  501  502  0.00000000000E+00  0.00000000000E+00  0.30722943492E+03  0.30722943492E+03  0.00000000000E+00 0. -1.
         21   -1    0    0  502  503 -0.00000000000E+00 -0.00000000000E+00 -0.27183713323E+03  0.27183713323E+03  0.00000000000E+00 0. -1.
         -6    2    1    2    0  503 -0.22979527800E+03 -0.17565192651E+01 -0.62322518738E+01  0.28759664658E+03  0.17281213791E+03 0.  0.
        -24    2    3    3    0    0 -0.25025935281E+03  0.29939683673E+01  0.62128146174E+01  0.26273070259E+03  0.79687611982E+02 0.  0.
          6    2    1    2  501    0  0.22979527800E+03  0.17565192651E+01  0.41624553570E+02  0.29146992157E+03  0.17439368271E+03 0.  0.
         24    2    5    5    0    0  0.39769319994E+02 -0.35713242165E+02  0.14292137582E+02  0.95809504771E+02  0.78218677622E+02 0.  0.
          5    1    5    5  501    0  0.19002595801E+03  0.37469761430E+02  0.27332415988E+02  0.19566041680E+03  0.47000000000E+01 0. -1.
        -11    1    6    6    0    0  0.24080144134E+02  0.15770578540E+02 -0.17120929714E+02  0.33491651546E+02  0.00000000000E+00 0.  1.
         12    1    6    6    0    0  0.15689175861E+02 -0.51483820705E+02  0.31413067296E+02  0.62317853225E+02  0.00000000000E+00 0. -1.
         -5    1    3    3    0  503  0.20464074809E+02 -0.47504876324E+01 -0.12445066491E+02  0.24865943990E+02  0.47000000000E+01 0.  1.
         13    1    4    4    0    0 -0.21358121915E+03 -0.26966248938E+02  0.38108050509E+01  0.21531056173E+03  0.00000000000E+00 0. -1.
        -14    1    4    4    0    0 -0.36678133658E+02  0.29960217306E+02  0.24020095665E+01  0.47420140864E+02  0.00000000000E+00 0.  1.
</event>
<event>
12    1  0.8494789E-002  0.1904465E+03  0.7818608E-02  0.1159772E+00
         21   -1    0    0  503  502  0.00000000000E+00  0.00000000000E+00  0.20597834928E+02  0.20597834928E+02  0.00000000000E+00 0. -1.
         21   -1    0    0  501  503 -0.00000000000E+00 -0.00000000000E+00 -0.20789565789E+04  0.20789565789E+04  0.00000000000E+00 0.  1.
          6    2    1    2  501    0 -0.43909140859E+02  0.42227408253E+02 -0.59342009135E+03  0.62323130972E+03  0.18044027803E+03 0.  0.
         24    2    3    3    0    0 -0.26149501469E+02  0.15059971554E+02 -0.58268535028E+03  0.58872335304E+03  0.78500763141E+02 0.  0.
         -6    2    1    2    0  502  0.43909140859E+02 -0.42227408253E+02 -0.14649386526E+04  0.14763231041E+04  0.17254994965E+03 0.  0.
        -24    2    5    5    0    0 -0.99964180924E+01 -0.73372225348E+02 -0.11687145914E+04  0.11735912205E+04  0.77065847276E+02 0.  0.
          5    1    3    3  501    0 -0.17759639389E+02  0.27167436699E+02 -0.10734741066E+02  0.34507956674E+02  0.47000000000E+01 0. -1.
        -11    1    4    4    0    0 -0.51683058207E+02 -0.29508233972E+01 -0.31576109972E+03  0.31997643345E+03  0.00000000000E+00 0.  1.
         12    1    4    4    0    0  0.25533556738E+02  0.18010794951E+02 -0.26692425056E+03  0.26874691960E+03  0.00000000000E+00 0. -1.
         -5    1    5    5    0  502  0.53905558951E+02  0.31144817094E+02 -0.29622406124E+03  0.30273188364E+03  0.47000000000E+01 0.  1.
         13    1    6    6    0    0 -0.28945440571E+02 -0.12785202767E+02 -0.17405954173E+03  0.17691247556E+03  0.00000000000E+00 0. -1.
        -14    1    6    6    0    0  0.18949022478E+02 -0.60587022581E+02 -0.99465504965E+03  0.99667874491E+03  0.00000000000E+00 0.  1.
</event>
<event>
12    1  0.8494789E-002  0.1781594E+03  0.7818608E-02  0.1170110E+00
         21   -1    0    0  503  502  0.00000000000E+00  0.00000000000E+00  0.12297692720E+03  0.12297692720E+03  0.00000000000E+00 0. -1.
         21   -1    0    0  501  503 -0.00000000000E+00 -0.00000000000E+00 -0.32555138959E+03  0.32555138959E+03  0.00000000000E+00 0. -1.
          6    2    1    2  501    0 -0.31416149275E+02  0.25708754478E+02  0.25754740576E+01  0.17817799845E+03  0.17347291308E+03 0.  0.
         24    2    3    3    0    0 -0.46966587171E+02 -0.38996471454E+02  0.24312200624E+02  0.10801278154E+03  0.85726849822E+02 0.  0.
         -6    2    1    2    0  502  0.31416149275E+02 -0.25708754478E+02 -0.20514993645E+03  0.27035031834E+03  0.17133266971E+03 0.  0.
        -24    2    5    5    0    0  0.28499390322E+01 -0.40057192930E+02 -0.21081158540E+03  0.23754711236E+03  0.10185482412E+03 0.  0.
          5    1    3    3  501    0  0.15550437896E+02  0.64705225932E+02 -0.21736726566E+02  0.70165216906E+02  0.47000000000E+01 0. -1.
        -13    1    4    4    0    0  0.21287271020E+02 -0.27280946037E+02  0.16454405660E+02  0.38316385396E+02  0.00000000000E+00 0.  1.
         14    1    4    4    0    0 -0.68253858191E+02 -0.11715525417E+02  0.78577949634E+01  0.69696396144E+02  0.00000000000E+00 0. -1.
         -5    1    5    5    0  502  0.28566210243E+02  0.14348438452E+02  0.56616489428E+01  0.32803205978E+02  0.47000000000E+01 0.  1.
         11    1    6    6    0    0  0.39188550330E+02 -0.16932046291E+01 -0.30603083706E+02  0.49750961309E+02  0.00000000000E+00 0. -1.
        -12    1    6    6    0    0 -0.36338611298E+02 -0.38363988301E+02 -0.18020850169E+03  0.18779615105E+03  0.00000000000E+00 0.  1.
</event>
<event>
12    1  0.8494789E-002  0.1738639E+03  0.7818608E-02  0.1174170E+00
         21   -1    0    0  503  502  0.00000000000E+00  0.00000000000E+00  0.10084400778E+04  0.10084400778E+04  0.00000000000E+00 0.  1.
         21   -1    0    0  501  503 -0.00000000000E+00 -0.00000000000E+00 -0.30746267353E+02  0.30746267353E+02  0.00000000000E+00 0.  1.
          6    2    1    2  501    0  0.12787816147E+02 -0.33600800733E+01  0.57950676792E+03  0.60469633215E+03  0.17220552162E+03 0.  0.
         24    2    3    3    0    0 -0.48631011576E+02  0.63694981514E+01  0.46539427585E+03  0.47465523120E+03  0.79373866705E+02 0.  0.
         -6    2    1    2    0  502 -0.12787816147E+02  0.33600800733E+01  0.39818704252E+03  0.43449001300E+03  0.17336041122E+03 0.  0.
        -24    2    5    5    0    0  0.60038103921E+02 -0.76838335266E+01  0.22506369074E+03  0.24628967401E+03  0.79632426904E+02 0.  0.
          5    1    3    3  501    0  0.61418827724E+02 -0.97295782247E+01  0.11411249207E+03  0.13004110095E+03  0.47000000000E+01 0. -1.
        -11    1    4    4    0    0 -0.50906754417E+00 -0.31667721290E+02  0.14111577903E+03  0.14462630056E+03  0.00000000000E+00 0.  1.
         12    1    4    4    0    0 -0.48121944032E+02  0.38037219441E+02  0.32427849682E+03  0.33002893064E+03  0.00000000000E+00 0. -1.
         -5    1    5    5    0  502 -0.72825920069E+02  0.11043913600E+02  0.17312335179E+03  0.18820033899E+03  0.47000000000E+01 0.  1.
         13    1    6    6    0    0  0.18732512190E+02 -0.36825447234E+02  0.15149220143E+03  0.15702518165E+03  0.00000000000E+00 0. -1.
        -14    1    6    6    0    0  0.41305591731E+02  0.29141613708E+02  0.73571489308E+02  0.89264492363E+02  0.00000000000E+00 0.  1.
</event>
<event>
12    1  0.8494789E-002  0.2070233E+03  0.7818608E-02  0.1144374E+00
         21   -1    0    0  501  502  0.00000000000E+00  0.00000000000E+00  0.38189839509E+03  0.38189839509E+03  0.00000000000E+00 0.  1.
         21   -1    0    0  502  503 -0.00000000000E+00 -0.00000000000E+00 -0.11399050627E+03  0.11399050627E+03  0.00000000000E+00 0. -1.
         -6    2    1    2    0  503 -0.28913675199E+02 -0.11010493418E+03  0.95017344559E+02  0.22778705202E+03  0.17291485811E+03 0.  0.
        -24    2    3    3    0    0  0.34874156641E+02 -0.58251420048E+02  0.99964723727E+02  0.14529922880E+03  0.80681380509E+02 0.  0.
          6    2    1    2  501    0  0.28913675199E+02  0.11010493418E+03  0.17289054427E+03  0.26810184935E+03  0.17037712342E+03 0.  0.
         24    2    5    5    0    0 -0.25278535597E+02  0.50484847195E+01  0.80260033335E+02  0.11784821432E+03  0.82353124457E+02 0.  0.
          5    1    5    5  501    0  0.54192210795E+02  0.10505644946E+03  0.92630510931E+02  0.15025363503E+03  0.47000000000E+01 0. -1.
        -13    1    6    6    0    0  0.28247779326E+02 -0.20977389548E+01  0.45598021340E+02  0.53679764304E+02  0.00000000000E+00 0.  1.
         14    1    6    6    0    0 -0.53526314923E+02  0.71462236744E+01  0.34662011995E+02  0.64168450017E+02  0.00000000000E+00 0. -1.
         -5    1    3    3    0  503 -0.63787831839E+02 -0.51853514131E+02 -0.49473791686E+01  0.82487823217E+02  0.47000000000E+01 0.  1.
         13    1    4    4    0    0  0.37913750926E+02 -0.76513319400E+02  0.71651009628E+02  0.11147021008E+03  0.00000000000E+00 0. -1.
        -14    1    4    4    0    0 -0.30395942850E+01  0.18261899352E+02  0.28313714099E+02  0.33829018718E+02  0.00000000000E+00 0.  1.
</event>
<event>
12    1  0.8494789E-002  0.1778791E+03  0.7818608E-02  0.1170758E+00
         21   -1    0    0  503  502  0.00000000000E+00  0.00000000000E+00  0.25317440706E+03  0.25317440706E+03  0.00000000000E+00 0.  1.
         21   -1    0    0  501  503 -0.00000000000E+00 -0.00000000000E+00 -0.23219198240E+03  0.23219198240E+03  0.00000000000E+00 0.  1.
          6    2    1    2  501    0  0.19127237909E+02 -0.40863658859E+02 -0.15637629870E+03  0.23417505718E+03  0.16837078358E+03 0.  0.
         24    2    3    3    0    0  0.31504868992E+02 -0.65210264669E+02 -0.40887641902E+02  0.11540770975E+03  0.80013778941E+02 0.  0.
         -6    2    1    2    0  502 -0.19127237909E+02  0.40863658859E+02  0.17735872336E+03  0.25119133229E+03  0.17206184591E+03 0.  0.
        -24    2    5    5    0    0 -0.47897842112E+02 -0.17680916745E+02  0.43821143191E+02  0.10249839258E+03  0.77322763762E+02 0.  0.
          5    1    3    3  501    0 -0.12377631083E+02  0.24346605810E+02 -0.11548865680E+03  0.11876734743E+03  0.47000000000E+01 0. -1.
        -11    1    4    4    0    0  0.81641449000E+01  0.18695731852E+02 -0.11903619979E+02  0.23619479673E+02  0.00000000000E+00 0.  1.
         12    1    4    4    0    0  0.23340724092E+02 -0.83905996521E+02 -0.28984021923E+02  0.91788230074E+02  0.00000000000E+00 0. -1.
         -5    1    5    5    0  502  0.28770604202E+02  0.58544575603E+02  0.13353758017E+03  0.14869293970E+03  0.47000000000E+01 0.  1.
         11    1    6    6    0    0 -0.68935996270E+02 -0.18895664679E+02  0.35878923786E+02  0.79978215142E+02  0.00000000000E+00 0. -1.
        -12    1    6    6    0    0  0.21038154158E+02  0.12147479338E+01  0.79422194048E+01  0.22520177441E+02  0.00000000000E+00 0.  1.
</event>
<event>
12    1  0.8494789E-002  0.1744337E+03  0.7818608E-02  0.1174080E+00
         21   -1    0    0  503  502  0.00000000000E+00  0.00000000000E+00  0.66974781930E+02  0.66974781930E+02  0.00000000000E+00 0.  1.
         21   -1    0    0  501  503 -0.00000000000E+00 -0.00000000000E+00 -0.65652939065E+03  0.65652939065E+03  0.00000000000E+00 0.  1.
          6    2    1    2  501    0  0.20299731323E+02  0.61558366511E+01 -0.49766975542E+03  0.52634957234E+03  0.17005503057E+03 0.  0.
         24    2    3    3    0    0  0.67699897259E+02 -0.31243870746E+02 -0.35187413515E+03  0.36847631072E+03  0.79999556396E+02 0.  0.
         -6    2    1    2    0  502 -0.20299731323E+02 -0.61558366511E+01 -0.91884853303E+02  0.19715460025E+03  0.17313906756E+03 0.  0.
        -24    2    5    5    0    0 -0.23217280352E+02  0.25689323122E+02 -0.12395830678E+03  0.15161974864E+03  0.80149254072E+02 0.  0.
          5    1    3    3  501    0 -0.47400165935E+02  0.37399707397E+02 -0.14579562027E+03  0.15787326162E+03  0.47000000000E+01 0. -1.
        -11    1    4    4    0    0  0.29747999822E+02  0.11239871198E+02 -0.38354038467E+02  0.49822790615E+02  0.00000000000E+00 0.  1.
         12    1    4    4    0    0  0.37951897436E+02 -0.42483741944E+02 -0.31352009668E+03  0.31865352010E+03  0.00000000000E+00 0. -1.
         -5    1    5    5    0  502  0.29175490285E+01 -0.31845159773E+02  0.32073453476E+02  0.45534851610E+02  0.47000000000E+01 0.  1.
         11    1    6    6    0    0  0.32408238827E+01  0.42912144801E+02 -0.29892681304E+02  0.52397781503E+02  0.00000000000E+00 0. -1.
        -12    1    6    6    0    0 -0.26458104234E+02 -0.17222821680E+02 -0.94065625474E+02  0.99221967135E+02  0.00000000000E+00 0.  1.
</event>
<event>
12    1  0.8494789E-002  0.1785600E+03  0.7818608E-02  0.1169496E+00
         21   -1    0    0  503  502  0.00000000000E+00  0.00000000000E+00  0.98581319884E+02  0.98581319884E+02  0.00000000000E+00 0. -1.
         21   -1    0    0  501  503 -0.00000000000E+00 -0.00000000000E+00 -0.36808585319E+03  0.36808585319E+03  0.00000000000E+00 0. -1.
          6    2    1    2  501    0 -0.24194335692E+02  0.37327505864E+02 -0.21835983229E+03  0.28207216056E+03  0.17293056072E+03 0.  0.
         24    2    3    3    0    0  0.52190825973E+02  0.27543011225E+02 -0.13846273412E+03  0.17100431844E+03  0.81166793707E+02 0.  0.
         -6    2    1    2    0  502  0.24194335692E+02 -0.37327505864E+02 -0.51144701017E+02  0.18459501252E+03  0.17169982420E+03 0.  0.
        -24    2    5    5    0    0  0.32352054004E+02 -0.53846913160E+01  0.34192604102E+02  0.92990223260E+02  0.80014980772E+02 0.  0.
          5    1    3    3  501    0 -0.76385161665E+02  0.97844946389E+01 -0.79897098164E+02  0.11106784212E+03  0.47000000000E+01 0. -1.
        -13    1    4    4    0    0  0.37377205997E+02  0.49575953159E+02 -0.53393625977E+02  0.81888399390E+02  0.00000000000E+00 0.  1.
         14    1    4    4    0    0  0.14813619976E+02 -0.22032941933E+02 -0.85069108147E+02  0.89115919049E+02  0.00000000000E+00 0. -1.
         -5    1    5    5    0  502 -0.81577183120E+01 -0.31942814548E+02 -0.85337305119E+02  0.91604789255E+02  0.47000000000E+01 0.  1.
         13    1    6    6    0    0 -0.25239462276E+02  0.93070234648E+01  0.82327491280E+01  0.28132353260E+02  0.00000000000E+00 0. -1.
        -14    1    6    6    0    0  0.57591516280E+02 -0.14691714781E+02  0.25959854974E+02  0.64857870000E+02  0.00000000000E+00 0.  1.
</event>
<event>
12    1  0.8494789E-002  0.2049730E+03  0.7818608E-02  0.1145751E+00
         21   -1    0    0  501  502  0.00000000000E+00  0.00000000000E+00  0.12841781470E+03  0.12841781470E+03  0.00000000000E+00 0. -1.
         21   -1    0    0  502  503 -0.00000000000E+00 -0.00000000000E+00 -0.32683765050E+03  0.32683765050E+03  0.00000000000E+00 0. -1.
         -6    2    1    2    0  503 -0.56259150053E+02  0.96406597235E+02 -0.11041679780E+03  0.23282140683E+03  0.17191455520E+03 0.  0.
        -24    2    3    3    0    0  0.34281787579E+01  0.50983945035E+01 -0.91513130613E+02  0.12200983822E+03  0.80461180147E+02 0.  0.
          6    2    1    2  501    0  0.56259150053E+02 -0.96406597235E+02 -0.88003038011E+02  0.22243405837E+03  0.17109369266E+03 0.  0.
         24    2    5    5    0    0  0.35929044130E+02 -0.21942612052E+02  0.19012704369E+02  0.90401269209E+02  0.77707992584E+02 0.  0.
          5    1    5    5  501    0  0.20330105923E+02 -0.74463985183E+02 -0.10701574238E+03  0.13203278916E+03  0.47000000000E+01 0. -1.
        -11    1    6    6    0    0  0.75469101492E+01  0.24996298259E+02  0.23813327681E+02  0.35339006136E+02  0.00000000000E+00 0.  1.
         12    1    6    6    0    0  0.28382133981E+02 -0.46938910311E+02 -0.48006233122E+01  0.55062263072E+02  0.00000000000E+00 0. -1.
         -5    1    3    3    0  503 -0.59687328811E+02  0.91308202731E+02 -0.18903667184E+02  0.11081156862E+03  0.47000000000E+01 0.  1.
         11    1    4    4    0    0  0.77237660640E+01 -0.74330093726E+00  0.14128824410E+02  0.16119328079E+02  0.00000000000E+00 0. -1.
        -12    1    4    4    0    0 -0.42955873061E+01  0.58416954407E+01 -0.10564195502E+03  0.10589051014E+03  0.00000000000E+00 0.  1.
</event>
<event>
12    1  0.8494789E-002  0.1772224E+03  0.7818608E-02  0.1173261E+00
         21   -1    0    0  503  502  0.00000000000E+00  0.00000000000E+00  0.47695038474E+03  0.47695038474E+03  0.00000000000E+00 0.  1.
         21   -1    0    0  501  503 -0.00000000000E+00 -0.00000000000E+00 -0.75206058614E+02  0.75206058614E+02  0.00000000000E+00 0.  1.
          6    2    1    2  501    0 -0.65587395097E+01  0.41384151615E+02  0.79710839741E+02  0.18457876046E+03  0.16112056284E+03 0.  0.
         24    2    3    3    0    0  0.52803424670E+02  0.10139224283E+02  0.35118382696E+02  0.10388991832E+03  0.81662774868E+02 0.  0.
         -6    2    1    2    0  502  0.65587395097E+01 -0.41384151615E+02  0.32203348638E+03  0.36757768290E+03  0.17219791387E+03 0.  0.
        -24    2    5    5    0    0  0.58379890613E+02  0.21800637832E+02  0.18591123209E+03  0.20874095090E+03  0.71598316497E+02 0.  0.
          5    1    3    3  501    0 -0.59362164180E+02  0.31244927332E+02  0.44592457045E+02  0.80688842137E+02  0.47000000000E+01 0. -1.
        -11    1    4    4    0    0  0.15684983172E+01 -0.48150459110E+01 -0.23834052195E+02  0.24366101414E+02  0.00000000000E+00 0.  1.
         12    1    4    4    0    0  0.51234926353E+02  0.14954270194E+02  0.58952434891E+02  0.79523816904E+02  0.00000000000E+00 0. -1.
         -5    1    5    5    0  502 -0.51821151103E+02 -0.63184789447E+02  0.13612225429E+03  0.15883673200E+03  0.47000000000E+01 0.  1.
         13    1    6    6    0    0  0.29375721393E+01  0.35095302364E+02  0.48212325908E+02  0.59705426450E+02  0.00000000000E+00 0. -1.
        -14    1    6    6    0    0  0.55442318473E+02 -0.13294664532E+02  0.13769890618E+03  0.14903552445E+03  0.00000000000E+00 0.  1.
</event>
<event>
12    1  0.8494789E-002  0.1782479E+03  0.7818608E-02  0.1174038E+00
         21   -1    0    0  503  502  0.00000000000E+00  0.00000000000E+00  0.18127620403E+03  0.18127620403E+03  0.00000000000E+00 0. -1.
         21   -1    0    0  501  503 -0.00000000000E+00 -0.00000000000E+00 -0.15885373794E+03  0.15885373794E+03  0.00000000000E+00 0. -1.
          6    2    1    2  501    0 -0.45137905948E+02  0.67972682796E+01  0.25766806755E+01  0.16078066198E+03  0.15414327288E+03 0.  0.
         24    2    3    3    0    0  0.62386534612E+01 -0.89769538243E+00 -0.43744931852E+02  0.91020034767E+02  0.79569472866E+02 0.  0.
         -6    2    1    2    0  502  0.45137905948E+02 -0.67972682796E+01  0.19845785409E+02  0.17934927999E+03  0.17230402092E+03 0.  0.
        -24    2    5    5    0    0  0.57526352955E+02  0.51881382149E+02 -0.11219510250E+02  0.11164551178E+03  0.79610827104E+02 0.  0.
          5    1    3    3  501    0 -0.51376559409E+02  0.76949636620E+01  0.46321612527E+02  0.69760627216E+02  0.47000000000E+01 0. -1.
        -13    1    4    4    0    0  0.16169464056E+02  0.35199148541E+02 -0.86172278043E+01  0.39682341676E+02  0.00000000000E+00 0.  1.
         14    1    4    4    0    0 -0.99308105945E+01 -0.36096843923E+02 -0.35127704047E+02  0.51337693091E+02  0.00000000000E+00 0. -1.
         -5    1    5    5    0  502 -0.12388447007E+02 -0.58678650428E+02  0.31065295659E+02  0.67703768209E+02  0.47000000000E+01 0.  1.
         13    1    6    6    0    0  0.22691294190E+02 -0.41193779387E+00  0.29163550385E+02  0.36953716941E+02  0.00000000000E+00 0. -1.
        -14    1    6    6    0    0  0.34835058765E+02  0.52293319943E+02 -0.40383060635E+02  0.74691794837E+02  0.00000000000E+00 0.  1.
</event>
<event>
12    1  0.8494789E-002  0.1939342E+03  0.7818608E-02  0.1156075E+00
         21   -1    0    0  501  502  0.00000000000E+00  0.00000000000E+00  0.15042949537E+03  0.15042949537E+03  0.00000000000E+00 0. -1.
         21   -1    0    0  502  503 -0.00000000000E+00 -0.00000000000E+00 -0.24405958025E+03  0.24405958025E+03  0.00000000000E+00 0. -1.
         -6    2    1    2    0  503  0.88670154236E+02  0.81376551848E+01 -0.55923100425E+02  0.20183622513E+03  0.17228421555E+03 0.  0.
        -24    2    3    3    0    0 -0.11234584107E+02  0.41945315576E+02 -0.39858196566E+02  0.95046310899E+02  0.74562054714E+02 0.  0.
          6    2    1    2  501    0 -0.88670154236E+02 -0.81376551848E+01 -0.37706984457E+02  0.19265285050E+03  0.16662738804E+03 0.  0.
         24    2    5    5    0    0  0.68436448643E+01  0.96620213536E+01  0.14407314300E+02  0.82300213748E+02  0.80159617926E+02 0.  0.
          5    1    5    5  501    0 -0.95513799101E+02 -0.17799676538E+02 -0.52114298756E+02  0.11035263675E+03  0.47000000000E+01 0. -1.
        -13    1    6    6    0    0  0.67844408233E+01  0.40747357112E+02  0.26353014181E+02  0.48998541869E+02  0.00000000000E+00 0.  1.
         14    1    6    6    0    0  0.59204041073E-01 -0.31085335758E+02 -0.11945699881E+02  0.33301671879E+02  0.00000000000E+00 0. -1.
         -5    1    3    3    0  503  0.99904738343E+02 -0.33807660391E+02 -0.16064903858E+02  0.10678991423E+03  0.47000000000E+01 0.  1.
         13    1    4    4    0    0  0.23028571594E+02  0.59195110088E+01  0.89208606276E+01  0.25395619201E+02  0.00000000000E+00 0. -1.
        -14    1    4    4    0    0 -0.34263155701E+02  0.36025804567E+02 -0.48779057194E+02  0.69650691698E+02  0.00000000000E+00 0.  1.
</event>
<event>
12    1  0.8494789E-002  0.2230111E+03  0.7818608E-02  0.1132036E+00
         21   -1    0    0  501  502  0.00000000000E+00  0.00000000000E+00  0.12523270283E+04  0.12523270283E+04  0.00000000000E+00 0.  1.
         21   -1    0    0  502  503 -0.00000000000E+00 -0.00000000000E+00 -0.41048646256E+02  0.41048646256E+02  0.00000000000E+00 0. -1.
         -6    2    1    2    0  503 -0.13302478955E+03  0.42858934753E+02  0.47669867729E+03  0.52628467401E+03  0.17378563302E+03 0.  0.
        -24    2    3    3    0    0 -0.71409834140E+02  0.90483766681E+02  0.25084496274E+03  0.28733589765E+03  0.79699725862E+02 0.  0.
          6    2    1    2  501    0  0.13302478955E+03 -0.42858934753E+02  0.73457970474E+03  0.76709100053E+03  0.17113964345E+03 0.  0.
         24    2    5    5    0    0  0.96770901437E+02  0.31316977521E+02  0.33051311263E+03  0.35464911223E+03  0.78687449709E+02 0.  0.
          5    1    5    5  501    0  0.36253888115E+02 -0.74175912274E+02  0.40406659211E+03  0.41244188830E+03  0.47000000000E+01 0. -1.
        -11    1    6    6    0    0  0.63470314774E+02  0.11908379873E+02  0.29583498865E+03  0.30280130594E+03  0.00000000000E+00 0.  1.
         12    1    6    6    0    0  0.33300586662E+02  0.19408597648E+02  0.34678123978E+02  0.51847806292E+02  0.00000000000E+00 0. -1.
         -5    1    3    3    0  503 -0.61614955412E+02 -0.47624831928E+02  0.22585371455E+03  0.23894877636E+03  0.47000000000E+01 0.  1.
         13    1    4    4    0    0 -0.78669444230E+02  0.45468578825E+02  0.19581661683E+03  0.21587130551E+03  0.00000000000E+00 0. -1.
        -14    1    4    4    0    0  0.72596100908E+01  0.45015187856E+02  0.55028345913E+02  0.71464592144E+02  0.00000000000E+00 0.  1.
</event>
<event>
12    1  0.8494789E-002  0.1764474E+03  0.7818608E-02  0.1174255E+00
         21   -1    0    0  503  502  0.00000000000E+00  0.00000000000E+00  0.83101219172E+03  0.83101219172E+03  0.00000000000E+00 0.  1.
         21   -1    0    0  501  503 -0.00000000000E+00 -0.00000000000E+00 -0.41390334922E+02  0.41390334922E+02  0.00000000000E+00 0.  1.
          6    2    1    2  501    0  0.25963109125E+02  0.27455044184E+02  0.23555055095E+03  0.29430891582E+03  0.17235374492E+03 0.  0.
         24    2    3    3    0    0  0.69130742641E+02  0.28362183076E+01  0.79011751525E+02  0.13000426921E+03  0.76623426056E+02 0.  0.
         -6    2    1    2    0  502 -0.25963109125E+02 -0.27455044184E+02  0.55407130584E+03  0.57809361082E+03  0.16052834152E+03 0.  0.
        -24    2    5    5    0    0  0.16697910200E+02  0.23207294263E+02  0.42355067770E+03  0.43165468336E+03  0.78186893862E+02 0.  0.
          5    1    3    3  501    0 -0.43167633516E+02  0.24618825876E+02  0.15653879943E+03  0.16430464661E+03  0.47000000000E+01 0. -1.
        -11    1    4    4    0    0  0.47477568898E+02  0.53613117452E+01 -0.26990607736E+00  0.47780080174E+02  0.00000000000E+00 0.  1.
         12    1    4    4    0    0  0.21653173743E+02 -0.25250934376E+01  0.79281657602E+02  0.82224189033E+02  0.00000000000E+00 0. -1.
         -5    1    5    5    0  502 -0.42661019325E+02 -0.50662338447E+02  0.13052062814E+03  0.14643892746E+03  0.47000000000E+01 0.  1.
         13    1    6    6    0    0  0.33487413703E+02 -0.14503393112E+02  0.27726856249E+03  0.27965981305E+03  0.00000000000E+00 0. -1.
        -14    1    6    6    0    0 -0.16789503503E+02  0.37710687375E+02  0.14628211521E+03  0.15199487031E+03  0.00000000000E+00 0.  1.
</event>
<event>
12    1  0.8494789E-002  0.2628951E+03  0.7818608E-02  0.1105431E+00
         21   -1    0    0  503  502  0.00000000000E+00  0.00000000000E+00  0.48664257661E+03  0.48664257661E+03  0.00000000000E+00 0. -1.
         21   -1    0    0  501  503 -0.00000000000E+00 -0.00000000000E+00 -0.16908586260E+03  0.16908586260E+03  0.00000000000E+00 0. -1.
          6    2    1    2  501    0 -0.19110927354E+03  0.54063822752E+02  0.27453933496E+02  0.26422692294E+03  0.17209444203E+03 0.  0.
         24    2    3    3    0    0 -0.19072644405E+03  0.40128353627E+02  0.67408959976E+02  0.22164948761E+03  0.81226019522E+02 0.  0.
         -6    2    1    2    0  502  0.19110927354E+03 -0.54063822752E+02  0.29010278052E+03  0.39150151627E+03  0.17224448500E+03 0.  0.
        -24    2    5    5    0    0  0.15171881198E+03  0.25417767560E+02  0.19877560865E+03  0.26409792927E+03  0.81063634460E+02 0.  0.
          5    1    3    3  501    0 -0.38282948850E+00  0.13935469126E+02 -0.39955026480E+02  0.42577435329E+02  0.47000000000E+01 0. -1.
        -11    1    4    4    0    0 -0.54459383972E+02  0.16214240347E+02 -0.17336474063E+02  0.59407738769E+02  0.00000000000E+00 0.  1.
         12    1    4    4    0    0 -0.13626706008E+03  0.23914113279E+02  0.84745434039E+02  0.16224174884E+03  0.00000000000E+00 0. -1.
         -5    1    5    5    0  502  0.39390461564E+02 -0.79481590312E+02  0.91327171864E+02  0.12740358700E+03  0.47000000000E+01 0.  1.
         11    1    6    6    0    0  0.38507847815E+02  0.86095717271E+01  0.11688758779E+03  0.12336809656E+03  0.00000000000E+00 0. -1.
        -12    1    6    6    0    0  0.11321096416E+03  0.16808195833E+02  0.81888020863E+02  0.14072983271E+03  0.00000000000E+00 0.  1.
</event>
<event>
12    1  0.8494789E-002  0.3056102E+03  0.7818608E-02  0.1082513E+00
         21   -1    0    0  501  502  0.00000000000E+00  0.00000000000E+00  0.20013014197E+03  0.20013014197E+03  0.00000000000E+00 0.  1.
         21   -1    0    0  502  503 -0.00000000000E+00 -0.00000000000E+00 -0.49151873983E+03  0.49151873983E+03  0.00000000000E+00 0.  1.
         -6    2    1    2    0  503  0.90712545584E+02 -0.23523427508E+03 -0.22420135955E+03  0.37874044379E+03  0.17208760570E+03 0.  0.
        -24    2    3    3    0    0  0.40386415233E+00 -0.10834240687E+03 -0.16224978062E+03  0.21105832700E+03  0.80513265062E+02 0.  0.
          6    2    1    2  501    0 -0.90712545584E+02  0.23523427508E+03 -0.67187238304E+02  0.31290843802E+03  0.17272416013E+03 0.  0.
         24    2    5    5    0    0 -0.28883702946E+02  0.68691663226E+02 -0.79421149711E+02  0.13477644781E+03  0.79398734067E+02 0.  0.
          5    1    5    5  501    0 -0.61828842639E+02  0.16654261185E+03  0.12233911407E+02  0.17813199020E+03  0.47000000000E+01 0. -1.
        -13    1    6    6    0    0 -0.40411937510E+02  0.45087825477E+02 -0.11070194153E+02  0.61551489813E+02  0.00000000000E+00 0.  1.
         14    1    6    6    0    0  0.11528234564E+02  0.23603837749E+02 -0.68350955558E+02  0.73224958002E+02  0.00000000000E+00 0. -1.
         -5    1    3    3    0  503  0.90308681432E+02 -0.12689186821E+03 -0.61951578934E+02  0.16768211679E+03  0.47000000000E+01 0.  1.
         11    1    4    4    0    0  0.21673254189E+02 -0.62561670040E+01 -0.63714148029E+02  0.67589660687E+02  0.00000000000E+00 0. -1.
        -12    1    4    4    0    0 -0.21269390037E+02 -0.10208623987E+03 -0.98535632592E+02  0.14346866631E+03  0.00000000000E+00 0.  1.
</event>
<event>
12    1  0.8494789E-002  0.2698224E+03  0.7818608E-02  0.1101786E+00
         21   -1    0    0  501  502  0.00000000000E+00  0.00000000000E+00  0.78991823322E+03  0.78991823322E+03  0.00000000000E+00 0.  1.
         21   -1    0    0  502  503 -0.00000000000E+00 -0.00000000000E+00 -0.18273112427E+03  0.18273112427E+03  0.00000000000E+00 0.  1.
         -6    2    1    2    0  503  0.15114424113E+03  0.13828749430E+03 -0.41374488853E+02  0.27019915454E+03  0.17125338560E+03 0.  0.
        -24    2    3    3    0    0  0.73246649654E+02  0.11212667901E+03 -0.84556885575E+02  0.17725168335E+03  0.79566503756E+02 0.  0.
          6    2    1    2  501    0 -0.15114424113E+03 -0.13828749430E+03  0.64856159781E+03  0.70245020295E+03  0.17560218899E+03 0.  0.
         24    2    5    5    0    0 -0.14600473466E+03 -0.13147326006E+03  0.65655696683E+03  0.68984606709E+03  0.78853946786E+02 0.  0.
          5    1    5    5  501    0 -0.51395064759E+01 -0.68142342396E+01 -0.79953690287E+01  0.12604135869E+02  0.47000000000E+01 0. -1.
        -11    1    6    6    0    0 -0.57672064177E+02 -0.74777311407E+02  0.42867254988E+03  0.43895087232E+03  0.00000000000E+00 0.  1.
         12    1    6    6    0    0 -0.88332670481E+02 -0.56695948651E+02  0.22788441695E+03  0.25089519477E+03  0.00000000000E+00 0. -1.
         -5    1    3    3    0  503  0.77897591480E+02  0.26160815288E+02  0.43182396722E+02  0.92947471195E+02  0.47000000000E+01 0.  1.
         13    1    4    4    0    0  0.46910575110E+02  0.11342181288E+02 -0.10364561958E+02  0.49362650639E+02  0.00000000000E+00 0. -1.
        -14    1    4    4    0    0  0.26336074544E+02  0.10078449772E+03 -0.74192323617E+02  0.12788903271E+03  0.00000000000E+00 0.  1.
</event>
<event>
12    1  0.8494789E-002  0.1753821E+03  0.7818608E-02  0.1172801E+00
         21   -1    0    0  501  502  0.00000000000E+00  0.00000000000E+00  0.92479865815E+03  0.92479865815E+03  0.00000000000E+00 0. -1.
         21   -1    0    0  502  503 -0.00000000000E+00 -0.00000000000E+00 -0.33871625582E+02  0.33871625582E+02  0.00000000000E+00 0.  1.
         -6    2    1    2    0  503  0.21127752992E+02  0.23563445853E+02  0.52357899879E+03  0.55160337897E+03  0.17067425640E+03 0.  0.
        -24    2    3    3    0    0 -0.31808684479E+02  0.55760460480E+02  0.40094355477E+03  0.41412444861E+03  0.81377536637E+02 0.  0.
          6    2    1    2  501    0 -0.21127752992E+02 -0.23563445853E+02  0.36734803378E+03  0.40706690476E+03  0.17250295389E+03 0.  0.
         24    2    5    5    0    0  0.38699500965E+02 -0.18992421265E+02  0.11029458921E+03  0.14306168142E+03  0.80270697283E+02 0.  0.
          5    1    5    5  501    0 -0.59827253958E+02 -0.45710245884E+01  0.25705344457E+03  0.26400522333E+03  0.47000000000E+01 0. -1.
        -13    1    6    6    0    0 -0.21355987973E+02 -0.22056692408E+02  0.42680658786E+02  0.52575798013E+02  0.00000000000E+00 0.  1.
         14    1    6    6    0    0  0.60055488939E+02  0.30642711431E+01  0.67613930423E+02  0.90485883410E+02  0.00000000000E+00 0. -1.
         -5    1    3    3    0  503  0.52936437471E+02 -0.32197014626E+02  0.12263544402E+03  0.13747893036E+03  0.47000000000E+01 0.  1.
         13    1    4    4    0    0  0.28898802148E+01 -0.11024716752E+02  0.18667450093E+03  0.18702209785E+03  0.00000000000E+00 0. -1.
        -14    1    4    4    0    0 -0.34698564694E+02  0.66785177231E+02  0.21426905383E+03  0.22710235076E+03  0.00000000000E+00 0.  1.
</event>
<event>
12    1  0.8494789E-002  0.1889486E+03  0.7818608E-02  0.1160350E+00
         21   -1    0    0  503  502  0.00000000000E+00  0.00000000000E+00  0.55639378809E+02  0.55639378809E+02  0.00000000000E+00 0.  1.
         21   -1    0    0  501  503 -0.00000000000E+00 -0.00000000000E+00 -0.91074338633E+03  0.91074338633E+03  0.00000000000E+00 0.  1.
          6    2    1    2  501    0  0.51153923991E+02 -0.47138096385E+02 -0.70003985535E+03  0.72509128855E+03  0.17567826722E+03 0.  0.
         24    2    3    3    0    0  0.55782875831E+02 -0.94885544662E+02 -0.58961550923E+03  0.60460530501E+03  0.76066617518E+02 0.  0.
         -6    2    1    2    0  502 -0.51153923991E+02  0.47138096385E+02 -0.15506415217E+03  0.24129147659E+03  0.17128327799E+03 0.  0.
        -24    2    5    5    0    0 -0.88364602319E+02  0.41199371191E+02 -0.64591748979E+02  0.14317293208E+03  0.82587549391E+02 0.  0.
          5    1    3    3  501    0 -0.46289518395E+01  0.47747448277E+02 -0.11042434613E+03  0.12048598354E+03  0.47000000000E+01 0. -1.
        -13    1    4    4    0    0 -0.14461939616E+02 -0.44267537959E+02 -0.17882638409E+03  0.18479079593E+03  0.00000000000E+00 0.  1.
         14    1    4    4    0    0  0.70244815447E+02 -0.50618006703E+02 -0.41078912514E+03  0.41981450908E+03  0.00000000000E+00 0. -1.
         -5    1    5    5    0  502  0.37210678328E+02  0.59387251938E+01 -0.90472403189E+02  0.98118544513E+02  0.47000000000E+01 0.  1.
         13    1    6    6    0    0 -0.33200145928E+02 -0.95812242347E+01 -0.58505058318E+02  0.67947710751E+02  0.00000000000E+00 0. -1.
        -14    1    6    6    0    0 -0.55164456391E+02  0.50780595425E+02 -0.60866906611E+01  0.75225221328E+02  0.00000000000E+00 0.  1.
</event>
<event>
12    1  0.8494789E-002  0.1800691E+03  0.7818608E-02  0.1167942E+00
         21   -1    0    0  503  502  0.00000000000E+00  0.00000000000E+00  0.25123135121E+03  0.25123135121E+03  0.00000000000E+00 0.  1.
         21   -1    0    0  501  503 -0.00000000000E+00 -0.00000000000E+00 -0.13486749149E+03  0.13486749149E+03  0.00000000000E+00 0.  1.
          6    2    1    2  501    0 -0.10623229782E+02  0.50975675969E+02  0.10014396747E+03  0.20530072628E+03  0.17148819621E+03 0.  0.
         24    2    3    3    0    0 -0.42133345486E+02  0.26530483780E+02 -0.68082462838E+01  0.91058348684E+02  0.75935401995E+02 0.  0.
         -6    2    1    2    0  502  0.10623229782E+02 -0.50975675969E+02  0.16219892252E+02  0.18079811642E+03  0.17237604661E+03 0.  0.
        -24    2    5    5    0    0  0.45895381266E+02 -0.51133518822E+02 -0.39713505882E+02  0.11450494474E+03  0.82542092603E+02 0.  0.
          5    1    3    3  501    0  0.31510115703E+02  0.24445192189E+02  0.10695221375E+03  0.11424237760E+03  0.47000000000E+01 0. -1.
        -11    1    4    4    0    0 -0.46486005265E+02  0.28811724192E+02  0.24097637899E+02  0.59764205748E+02  0.00000000000E+00 0.  1.
         12    1    4    4    0    0  0.43526597797E+01 -0.22812404114E+01 -0.30905884182E+02  0.31294142936E+02  0.00000000000E+00 0. -1.
         -5    1    5    5    0  502 -0.35272151484E+02  0.15784285318E+00  0.55933398134E+02  0.66293171681E+02  0.47000000000E+01 0.  1.
         13    1    6    6    0    0  0.21703379255E+02  0.70005078639E+01 -0.45881997126E+02  0.51236719662E+02  0.00000000000E+00 0. -1.
        -14    1    6    6    0    0  0.24192002012E+02 -0.58134026686E+02  0.61684912439E+01  0.63268225077E+02  0.00000000000E+00 0.  1.
</event>
<event>
12    1  0.8494789E-002  0.1953959E+03  0.7818608E-02  0.1153869E+00
         21   -1    0    0  501  502  0.00000000000E+00  0.00000000000E+00  0.24395664010E+03  0.24395664010E+03  0.00000000000E+00 0.  1.
         21   -1    0    0  502  503 -0.00000000000E+00 -0.00000000000E+00 -0.22857522828E+03  0.22857522828E+03  0.00000000000E+00 0.  1.
         -6    2    1    2    0  503  0.35556602572E+02 -0.81871865935E+02  0.14097835891E+03  0.24025151143E+03  0.17285432204E+03 0.  0.
        -24    2    3    3    0    0 -0.43237509537E+02 -0.30715294251E+02  0.99926222805E+02  0.13762171650E+03  0.78368203479E+02 0.  0.
          6    2    1    2  501    0 -0.35556602572E+02  0.81871865935E+02 -0.12559694708E+03  0.23228035694E+03  0.17381684811E+03 0.  0.
         24    2    5    5    0    0  0.37183504408E+02  0.11275193860E+02 -0.33665610459E+02  0.95355290119E+02  0.80308872669E+02 0.  0.
          5    1    5    5  501    0 -0.72740106979E+02  0.70596672075E+02 -0.91931336622E+02  0.13692506682E+03  0.47000000000E+01 0. -1.
        -13    1    6    6    0    0  0.35461197951E+02  0.29474340107E+02  0.10730252204E+02  0.47343126188E+02  0.00000000000E+00 0.  1.
         14    1    6    6    0    0  0.17223064562E+01 -0.18199146247E+02 -0.44395862663E+02  0.48012163930E+02  0.00000000000E+00 0. -1.
         -5    1    3    3    0  503  0.78794112109E+02 -0.51156571685E+02  0.41052136101E+02  0.10262979493E+03  0.47000000000E+01 0.  1.
         11    1    4    4    0    0 -0.36000969317E+02  0.16469981798E+02  0.72399899315E+02  0.82517122545E+02  0.00000000000E+00 0. -1.
        -12    1    4    4    0    0 -0.72365402205E+01 -0.47185276049E+02  0.27526323490E+02  0.55104593956E+02  0.00000000000E+00 0.  1.
</event>
<event>
12    1  0.8494789E-002  0.2044065E+03  0.7818608E-02  0.1146437E+00
         21   -1    0    0  501  502  0.00000000000E+00  0.00000000000E+00  0.62121924312E+03  0.62121924312E+03  0.00000000000E+00 0.  1.
         21   -1    0    0  502  503 -0.00000000000E+00 -0.00000000000E+00 -0.66757650090E+02  0.66757650090E+02  0.00000000000E+00 0.  1.
         -6    2    1    2    0  503 -0.62191905955E+02 -0.89504208212E+02  0.26664164695E+03  0.33597587349E+03  0.17292536894E+03 0.  0.
        -24    2    3    3    0    0 -0.41409674196E+01  0.15842260166E+02  0.13478951950E+03  0.15744054539E+03  0.79694328210E+02 0.  0.
          6    2    1    2  501    0  0.62191905955E+02  0.89504208212E+02  0.28781994608E+03  0.35200101973E+03  0.17083781803E+03 0.  0.
         24    2    5    5    0    0 -0.84362590905E+01  0.21190422610E+02  0.21391061238E+03  0.22895716328E+03  0.78380023281E+02 0.  0.
          5    1    5    5  501    0  0.70628165045E+02  0.68313785602E+02  0.73909333706E+02  0.12304385645E+03  0.47000000000E+01 0. -1.
        -13    1    6    6    0    0  0.25897132803E+02 -0.37596826398E+01  0.28252555524E+02  0.38509785699E+02  0.00000000000E+00 0.  1.
         14    1    6    6    0    0 -0.34333391893E+02  0.24950105250E+02  0.18565805686E+03  0.19044737758E+03  0.00000000000E+00 0. -1.
         -5    1    3    3    0  503 -0.58050938535E+02 -0.10534646838E+03  0.13185212745E+03  0.17853532809E+03  0.47000000000E+01 0.  1.
         11    1    4    4    0    0  0.90284835856E+01  0.25332925166E+02  0.59005619821E+01  0.27533384191E+02  0.00000000000E+00 0. -1.
        -12    1    4    4    0    0 -0.13169451005E+02 -0.94906649995E+01  0.12888895752E+03  0.12990716120E+03  0.00000000000E+00 0.  1.
</event>
<event>
12    1  0.8494789E-002  0.2275578E+03  0.7818608E-02  0.1128412E+00
         21   -1    0    0  503  502  0.00000000000E+00  0.00000000000E+00  0.45837096860E+02  0.45837096860E+02  0.00000000000E+00 0.  1.
         21   -1    0    0  501  503 -0.00000000000E+00 -0.00000000000E+00 -0.11687240599E+04  0.11687240599E+04  0.00000000000E+00 0.  1.
          6    2    1    2  501    0 -0.10881161256E+03  0.10210554137E+03 -0.67373695998E+03  0.71105517831E+03  0.17150063192E+03 0.  0.
         24    2    3    3    0    0 -0.12319970588E+03  0.10900131261E+03 -0.41618404429E+03  0.45296573011E+03  0.70066684340E+02 0.  0.
         -6    2    1    2    0  502  0.10881161256E+03 -0.10210554137E+03 -0.44915000309E+03  0.50350597848E+03  0.17180522834E+03 0.  0.
        -24    2    5    5    0    0  0.11222547439E+03 -0.21347022114E+02 -0.30445783690E+03  0.33770035179E+03  0.91086226709E+02 0.  0.
          5    1    3    3  501    0  0.14388093318E+02 -0.68957712334E+01 -0.25755291569E+03  0.25808944820E+03  0.47000000000E+01 0. -1.
        -11    1    4    4    0    0 -0.10489538661E+03  0.78202116384E+02 -0.38063490886E+03  0.40249415770E+03  0.00000000000E+00 0.  1.
         12    1    4    4    0    0 -0.18304319267E+02  0.30799196224E+02 -0.35549135432E+02  0.50471572413E+02  0.00000000000E+00 0. -1.
         -5    1    5    5    0  502 -0.34138618239E+01 -0.80758519260E+02 -0.14469216619E+03  0.16580562669E+03  0.47000000000E+01 0.  1.
         11    1    6    6    0    0 -0.17040446441E+01  0.35470217709E+01  0.53669194515E+01  0.66549948153E+01  0.00000000000E+00 0. -1.
        -12    1    6    6    0    0  0.11392951903E+03 -0.24894043885E+02 -0.30982475635E+03  0.33104535697E+03  0.00000000000E+00 0.  1.
</event>
<event>
12    1  0.8494789E-002  0.1879204E+03  0.7818608E-02  0.1160458E+00
         21   -1    0    0  501  502  0.00000000000E+00  0.00000000000E+00  0.27474183377E+03  0.27474183377E+03  0.00000000000E+00 0. -1.
         21   -1    0    0  502  503 -0.00000000000E+00 -0.00000000000E+00 -0.43775215666E+03  0.43775215666E+03  0.00000000000E+00 0. -1.
         -6    2    1    2    0  503 -0.54391478596E+02 -0.50416412785E+02 -0.38104195561E+03  0.42465401111E+03  0.17215635218E+03 0.  0.
        -24    2    3    3    0    0 -0.19877741625E+02  0.35059721465E+02 -0.17389978740E+03  0.19787805247E+03  0.85383130133E+02 0.  0.
          6    2    1    2  501    0  0.54391478596E+02  0.50416412785E+02  0.21803163272E+03  0.28783997932E+03  0.17266676925E+03 0.  0.
         24    2    5    5    0    0  0.36106171516E+02  0.51926766170E+02  0.41680866405E+02  0.11047505493E+03  0.80420137224E+02 0.  0.
          5    1    5    5  501    0  0.18285307080E+02 -0.15103533849E+01  0.17635076632E+03  0.17736492439E+03  0.47000000000E+01 0. -1.
        -13    1    6    6    0    0 -0.11570505147E+02 -0.47265203419E+01 -0.13298698483E+02  0.18250259320E+02  0.00000000000E+00 0.  1.
         14    1    6    6    0    0  0.47676676663E+02  0.56653286511E+02  0.54979564887E+02  0.92224795610E+02  0.00000000000E+00 0. -1.
         -5    1    3    3    0  503 -0.34513736971E+02 -0.85476134250E+02 -0.20714216822E+03  0.22677595864E+03  0.47000000000E+01 0.  1.
         11    1    4    4    0    0  0.64296729870E+01  0.17197690705E+02 -0.16334523246E+03  0.16437386114E+03  0.00000000000E+00 0. -1.
        -12    1    4    4    0    0 -0.26307414612E+02  0.17862030761E+02 -0.10554554937E+02  0.33504191325E+02  0.00000000000E+00 0.  1.
</event>
<event>
12    1  0.8494789E-002  0.1866898E+03  0.7818608E-02  0.1161554E+00
         21   -1    0    0  503  502  0.00000000000E+00  0.00000000000E+00  0.22503638713E+03  0.22503638713E+03  0.00000000000E+00 0.  1.
         21   -1    0    0  501  503 -0.00000000000E+00 -0.00000000000E+00 -0.18682023502E+03  0.18682023502E+03  0.00000000000E+00 0.  1.
          6    2    1    2  501    0 -0.68871881950E+02 -0.24135737682E+02 -0.66374918387E+02  0.19813807610E+03  0.17183479698E+03 0.  0.
         24    2    3    3    0    0  0.12594268101E+02 -0.51002298025E+02 -0.56048117575E+02  0.11160901460E+03  0.80964996538E+02 0.  0.
         -6    2    1    2    0  502  0.68871881950E+02  0.24135737682E+02  0.10459107050E+03  0.21371854606E+03  0.17149476652E+03 0.  0.
        -24    2    5    5    0    0 -0.11493756408E+02 -0.18692035983E+02  0.88307398310E+02  0.12108970602E+03  0.79893814922E+02 0.  0.
          5    1    3    3  501    0 -0.81466150051E+02  0.26866560343E+02 -0.10326800811E+02  0.86529061498E+02  0.47000000000E+01 0. -1.
        -11    1    4    4    0    0 -0.19994107597E+02 -0.20714555834E+02 -0.60396278930E+02  0.66907157095E+02  0.00000000000E+00 0.  1.
         12    1    4    4    0    0  0.32588375697E+02 -0.30287742191E+02  0.43481613545E+01  0.44701857509E+02  0.00000000000E+00 0. -1.
         -5    1    5    5    0  502  0.80365638359E+02  0.42827773665E+02  0.16283672187E+02  0.92628840033E+02  0.47000000000E+01 0.  1.
         11    1    6    6    0    0 -0.14078187900E+02  0.14614746647E+01  0.97689587793E+02  0.98709608680E+02  0.00000000000E+00 0. -1.
        -12    1    6    6    0    0  0.25844314914E+01 -0.20153510648E+02 -0.93821894826E+01  0.22380097343E+02  0.00000000000E+00 0.  1.
</event>
<event>
12    1  0.8494789E-002  0.1871123E+03  0.7818608E-02  0.1161138E+00
         21   -1    0    0  501  502  0.00000000000E+00  0.00000000000E+00  0.48370466331E+02  0.48370466331E+02  0.00000000000E+00 0.  1.
         21   -1    0    0  502  503 -0.00000000000E+00 -0.00000000000E+00 -0.79725427198E+03  0.79725427198E+03  0.00000000000E+00 0.  1.
         -6    2    1    2    0  503 -0.73538875357E+02 -0.84843941118E+00 -0.50363493836E+03  0.53727009332E+03  0.17205323596E+03 0.  0.
        -24    2    3    3    0    0 -0.78847085043E+02  0.36054438593E+02 -0.47611942811E+03  0.49069549940E+03  0.81089937358E+02 0.  0.
          6    2    1    2  501    0  0.73538875357E+02  0.84843941118E+00 -0.24524886730E+03  0.30835464499E+03  0.17183391441E+03 0.  0.
         24    2    5    5    0    0  0.93172337559E+02 -0.49437972071E+02 -0.18565752028E+03  0.22781015631E+03  0.79394930026E+02 0.  0.
          5    1    5    5  501    0 -0.19633462202E+02  0.50286411483E+02 -0.59591347018E+02  0.80544488683E+02  0.47000000000E+01 0. -1.
        -11    1    6    6    0    0  0.84411892931E+02 -0.26953577089E+01 -0.11767741368E+03  0.14484683742E+03  0.00000000000E+00 0.  1.
         12    1    6    6    0    0  0.87604446272E+01 -0.46742614363E+02 -0.67980106602E+02  0.82963318889E+02  0.00000000000E+00 0. -1.
         -5    1    3    3    0  503  0.53082096864E+01 -0.36902878004E+02 -0.27515510244E+02  0.46574593922E+02  0.47000000000E+01 0.  1.
         11    1    4    4    0    0  0.65121211466E+01  0.11390272987E+02 -0.10871173731E+02  0.17039027520E+02  0.00000000000E+00 0. -1.
        -12    1    4    4    0    0 -0.85359206190E+02  0.24664165606E+02 -0.46524825438E+03  0.47365647188E+03  0.00000000000E+00 0.  1.
</event>
<event>
12    1  0.8494789E-002  0.2125377E+03  0.7818608E-02  0.1139600E+00
         21   -1    0    0  501  502  0.00000000000E+00  0.00000000000E+00  0.12196056303E+03  0.12196056303E+03  0.00000000000E+00 0.  1.
         21   -1    0    0  502  503 -0.00000000000E+00 -0.00000000000E+00 -0.37321302808E+03  0.37321302808E+03  0.00000000000E+00 0. -1.
         -6    2    1    2    0  503  0.71810018703E+02  0.10070749458E+03 -0.14807518387E+03  0.25891558342E+03  0.17266250608E+03 0.  0.
        -24    2    3    3    0    0  0.47611566910E+02  0.13557944026E+03 -0.84483379153E+02  0.18231515723E+03  0.73842597981E+02 0.  0.
          6    2    1    2  501    0 -0.71810018703E+02 -0.10070749458E+03 -0.10317728118E+03  0.23625800770E+03  0.17283985825E+03 0.  0.
         24    2    5    5    0    0 -0.12366217630E+02  0.80677080022E+01  0.81116937217E+01  0.69605866646E+02  0.67536403854E+02 0.  0.
          5    1    5    5  501    0 -0.59443801073E+02 -0.10877520258E+03 -0.11128897490E+03  0.16665214105E+03  0.47000000000E+01 0. -1.
        -13    1    6    6    0    0  0.27847615073E+02  0.27496007932E+01  0.77650845797E+01  0.29040428859E+02  0.00000000000E+00 0.  1.
         14    1    6    6    0    0 -0.40213832703E+02  0.53181072090E+01  0.34660914205E+00  0.40565437787E+02  0.00000000000E+00 0. -1.
         -5    1    3    3    0  503  0.24198451793E+02 -0.34871945683E+02 -0.63591804719E+02  0.76600426188E+02  0.47000000000E+01 0.  1.
         11    1    4    4    0    0  0.56052881239E+02  0.70826554853E+02 -0.72729219507E+02  0.11596493322E+03  0.00000000000E+00 0. -1.
        -12    1    4    4    0    0 -0.84413143285E+01  0.64752885412E+02 -0.11754159646E+02  0.66350224007E+02  0.00000000000E+00 0.  1.
</event>
<event>
12    1  0.8494789E-002  0.3733826E+03  0.7818608E-02  0.1053435E+00
         21   -1    0    0  501  502  0.00000000000E+00  0.00000000000E+00  0.90218161421E+02  0.90218161421E+02  0.00000000000E+00 0.  1.
         21   -1    0    0  502  503 -0.00000000000E+00 -0.00000000000E+00 -0.15974678237E+04  0.15974678237E+04  0.00000000000E+00 0.  1.
         -6    2    1    2    0  503 -0.32580264429E+03 -0.57896716824E+02 -0.59965723509E+03  0.70640171551E+03  0.17296008566E+03 0.  0.
        -24    2    3    3    0    0 -0.18462990213E+03  0.36020070044E+02 -0.31766490260E+03  0.37732441218E+03  0.77955599378E+02 0.  0.
          6    2    1    2  501    0  0.32580264429E+03  0.57896716824E+02 -0.90759242718E+03  0.98128426960E+03  0.17232356497E+03 0.  0.
         24    2    5    5    0    0  0.20896894436E+03 -0.16071836545E+01 -0.70741538084E+03  0.74194399406E+03  0.79835872484E+02 0.  0.
          5    1    5    5  501    0  0.11683369993E+03  0.59503900479E+02 -0.20017704635E+03  0.23934027554E+03  0.47000000000E+01 0. -1.
        -13    1    6    6    0    0  0.12597939447E+03 -0.12606327925E+02 -0.29343303187E+03  0.31958202629E+03  0.00000000000E+00 0.  1.
         14    1    6    6    0    0  0.82989549894E+02  0.10999144270E+02 -0.41398234897E+03  0.42236196778E+03  0.00000000000E+00 0. -1.
         -5    1    3    3    0  503 -0.14117274216E+03 -0.93916786868E+02 -0.28199233250E+03  0.32907730334E+03  0.47000000000E+01 0.  1.
         13    1    4    4    0    0 -0.10558920269E+03  0.25449735261E+02 -0.25061233959E+03  0.27313607141E+03  0.00000000000E+00 0. -1.
        -14    1    4    4    0    0 -0.79040699446E+02  0.10570334783E+02 -0.67052563007E+02  0.10418834077E+03  0.00000000000E+00 0.  1.
</event>
<event>
12    1  0.8494789E-002  0.1923621E+03  0.7818608E-02  0.1156363E+00
         21   -1    0    0  501  502  0.00000000000E+00  0.00000000000E+00  0.52669171548E+02  0.52669171548E+02  0.00000000000E+00 0. -1.
         21   -1    0    0  502  503 -0.00000000000E+00 -0.00000000000E+00 -0.17973652905E+04  0.17973652905E+04  0.00000000000E+00 0. -1.
         -6    2    1    2    0  503  0.61116927059E+02  0.59868898800E+02 -0.15944310071E+04  0.16059929678E+04  0.17228932741E+03 0.  0.
        -24    2    3    3    0    0  0.94986332079E+02  0.84691069408E+01 -0.12395271240E+04  0.12457598052E+04  0.79974195880E+02 0.  0.
          6    2    1    2  501    0 -0.61116927059E+02 -0.59868898800E+02 -0.15026511183E+03  0.24404149425E+03  0.17221232031E+03 0.  0.
         24    2    5    5    0    0 -0.58850783470E+02 -0.97919854534E+02 -0.15193394428E+03  0.20559821602E+03  0.78326179419E+02 0.  0.
          5    1    5    5  501    0 -0.22661435885E+01  0.38050955734E+02  0.16688324416E+01  0.38443278226E+02  0.47000000000E+01 0. -1.
        -11    1    6    6    0    0 -0.44659937917E+02 -0.12524751693E+02 -0.82424702676E+02  0.94579125979E+02  0.00000000000E+00 0.  1.
         12    1    6    6    0    0 -0.14190845553E+02 -0.85395102841E+02 -0.69509241600E+02  0.11101909005E+03  0.00000000000E+00 0. -1.
         -5    1    3    3    0  503 -0.33869405020E+02  0.51399791860E+02 -0.35490388308E+03  0.36023316259E+03  0.47000000000E+01 0.  1.
         11    1    4    4    0    0  0.75456025082E+02  0.56039012084E+01 -0.47588334150E+03  0.48186094482E+03  0.00000000000E+00 0. -1.
        -12    1    4    4    0    0  0.19530306997E+02  0.28652057324E+01 -0.76364378255E+03  0.76389886040E+03  0.00000000000E+00 0.  1.
</event>
<event>
12    1  0.8494789E-002  0.2286264E+03  0.7818608E-02  0.1127812E+00
         21   -1    0    0  501  502  0.00000000000E+00  0.00000000000E+00  0.38793627918E+03  0.38793627918E+03  0.00000000000E+00 0. -1.
         21   -1    0    0  502  503 -0.00000000000E+00 -0.00000000000E+00 -0.14000989537E+03  0.14000989537E+03  0.00000000000E+00 0.  1.
         -6    2    1    2    0  503 -0.75131776657E+02  0.13085254225E+03  0.69293354835E+02  0.23780861300E+03  0.17024745435E+03 0.  0.
        -24    2    3    3    0    0 -0.49839500650E+02  0.16150649422E+02  0.70457712129E+02  0.12025152400E+03  0.82166419692E+02 0.  0.
          6    2    1    2  501    0  0.75131776657E+02 -0.13085254225E+03  0.17863302898E+03  0.29013756155E+03  0.17176400642E+03 0.  0.
         24    2    5    5    0    0  0.97938982836E+02 -0.14745404965E+03  0.13278679269E+03  0.23610288672E+03  0.82325571291E+02 0.  0.
          5    1    5    5  501    0 -0.22807206179E+02  0.16601507397E+02  0.45846236298E+02  0.54034674832E+02  0.47000000000E+01 0. -1.
        -13    1    6    6    0    0  0.60062121433E+02 -0.12623948082E+03  0.61703534269E+02  0.15281096522E+03  0.00000000000E+00 0.  1.
         14    1    6    6    0    0  0.37876861403E+02 -0.21214568827E+02  0.71083258417E+02  0.83291921501E+02  0.00000000000E+00 0. -1.
         -5    1    3    3    0  503 -0.25292276007E+02  0.11470189283E+03 -0.11643572938E+01  0.11755708899E+03  0.47000000000E+01 0.  1.
         11    1    4    4    0    0 -0.38778408907E+02  0.47408416369E+02  0.59342170395E+02  0.85280807496E+02  0.00000000000E+00 0. -1.
        -12    1    4    4    0    0 -0.11061091743E+02 -0.31257766947E+02  0.11115541734E+02  0.34970716508E+02  0.00000000000E+00 0.  1.
</event>
<event>
12    1  0.8494789E-002  0.1890014E+03  0.7818608E-02  0.1160746E+00
         21   -1    0    0  503  502  0.00000000000E+00  0.00000000000E+00  0.18729123384E+03  0.18729123384E+03  0.00000000000E+00 0. -1.
         21   -1    0    0  501  503 -0.00000000000E+00 -0.00000000000E+00 -0.80266072400E+03  0.80266072400E+03  0.00000000000E+00 0. -1.
          6    2    1    2  501    0  0.21197845266E+02 -0.57250332529E+02 -0.74082782541E+03  0.76310109129E+03  0.17254118180E+03 0.  0.
         24    2    3    3    0    0 -0.31144610651E+02 -0.58024650303E+02 -0.64982580475E+03  0.65801165308E+03  0.79805465106E+02 0.  0.
         -6    2    1    2    0  502 -0.21197845266E+02  0.57250332529E+02  0.12545833524E+03  0.22685086654E+03  0.17887026738E+03 0.  0.
        -24    2    5    5    0    0 -0.13579520275E+02  0.40544587129E+02  0.16200353516E+03  0.18568337400E+03  0.80030638266E+02 0.  0.
          5    1    3    3  501    0  0.52342455917E+02  0.77431777431E+00 -0.91002020658E+02  0.10508943821E+03  0.47000000000E+01 0. -1.
        -13    1    4    4    0    0  0.45504733234E+00  0.15518177630E+02 -0.39207276586E+02  0.42169081592E+02  0.00000000000E+00 0.  1.
         14    1    4    4    0    0 -0.31599657984E+02 -0.73542827933E+02 -0.61061852816E+03  0.61584257149E+03  0.00000000000E+00 0. -1.
         -5    1    5    5    0  502 -0.76183249911E+01  0.16705745400E+02 -0.36545199919E+02  0.41167492542E+02  0.47000000000E+01 0.  1.
         11    1    6    6    0    0  0.14010632059E+02 -0.98283610679E+01  0.98844958815E+02  0.10031560385E+03  0.00000000000E+00 0. -1.
        -12    1    6    6    0    0 -0.27590152334E+02  0.50372948197E+02  0.63158576343E+02  0.85367770156E+02  0.00000000000E+00 0.  1.
</event>
<event>
12    1  0.8494789E-002  0.1754551E+03  0.7818608E-02  0.1172472E+00
         21   -1    0    0  501  502  0.00000000000E+00  0.00000000000E+00  0.36119409768E+02  0.36119409768E+02  0.00000000000E+00 0.  1.
         21   -1    0    0  502  503 -0.00000000000E+00 -0.00000000000E+00 -0.14701575579E+04  0.14701575579E+04  0.00000000000E+00 0.  1.
         -6    2    1    2    0  503  0.25238164907E+02  0.36251989402E+01 -0.12076854276E+04  0.12203641193E+04  0.17359258157E+03 0.  0.
        -24    2    3    3    0    0  0.34317484042E+02 -0.21764499356E+02 -0.32642413679E+03  0.33867788052E+03  0.80613935080E+02 0.  0.
          6    2    1    2  501    0 -0.25238164907E+02 -0.36251989402E+01 -0.22635272051E+03  0.28591284844E+03  0.17280189752E+03 0.  0.
         24    2    5    5    0    0 -0.44364758584E+02  0.60366694253E+02 -0.14203239756E+03  0.17824300196E+03  0.77362757248E+02 0.  0.
          5    1    5    5  501    0  0.19126593677E+02 -0.63991893193E+02 -0.84320322945E+02  0.10766984648E+03  0.47000000000E+01 0. -1.
        -13    1    6    6    0    0 -0.81317372837E+00  0.28903997224E+02 -0.28559619814E+01  0.29056132328E+02  0.00000000000E+00 0.  1.
         14    1    6    6    0    0 -0.43551584856E+02  0.31462697029E+02 -0.13917643558E+03  0.14918686963E+03  0.00000000000E+00 0. -1.
         -5    1    3    3    0  503 -0.90793191346E+01  0.25389698296E+02 -0.88126129086E+03  0.88168623874E+03  0.47000000000E+01 0.  1.
         11    1    4    4    0    0 -0.26376443589E+02 -0.81167467873E+01 -0.85011256275E+02  0.89378476426E+02  0.00000000000E+00 0. -1.
        -12    1    4    4    0    0  0.60693927631E+02 -0.13647752568E+02 -0.24141288051E+03  0.24929940409E+03  0.00000000000E+00 0.  1.
</event>
<event>
12    1  0.8494789E-002  0.1942375E+03  0.7818608E-02  0.1155438E+00
         21   -1    0    0  501  502  0.00000000000E+00  0.00000000000E+00  0.11879486627E+04  0.11879486627E+04  0.00000000000E+00 0.  1.
         21   -1    0    0  502  503 -0.00000000000E+00 -0.00000000000E+00 -0.68314132139E+02  0.68314132139E+02  0.00000000000E+00 0.  1.
         -6    2    1    2    0  503  0.51648939003E+01  0.81992709794E+02  0.94677204597E+02  0.21306304494E+03  0.17228641114E+03 0.  0.
        -24    2    3    3    0    0 -0.50186934099E+02  0.14541765666E+02  0.80548380173E+02  0.12454655831E+03  0.79332290620E+02 0.  0.
          6    2    1    2  501    0 -0.51648939003E+01 -0.81992709794E+02  0.10249573260E+04  0.10431997499E+04  0.17600772013E+03 0.  0.
         24    2    5    5    0    0 -0.70959182221E+02 -0.33278950239E+02  0.55729804233E+03  0.56840588482E+03  0.79758685052E+02 0.  0.
          5    1    5    5  501    0  0.65794288320E+02 -0.48713759555E+02  0.46765928364E+03  0.47479386509E+03  0.47000000000E+01 0. -1.
        -11    1    6    6    0    0 -0.62273677824E+01 -0.44062414320E+02  0.17836266239E+03  0.18383012756E+03  0.00000000000E+00 0.  1.
         12    1    6    6    0    0 -0.64731814438E+02  0.10783464081E+02  0.37893537994E+03  0.38457575726E+03  0.00000000000E+00 0. -1.
         -5    1    3    3    0  503  0.55351827999E+02  0.67450944128E+02  0.14128824424E+02  0.88516486635E+02  0.47000000000E+01 0.  1.
         11    1    4    4    0    0 -0.10414252576E+02  0.33966054987E+02  0.70814295076E+02  0.79226346219E+02  0.00000000000E+00 0. -1.
        -12    1    4    4    0    0 -0.39772681523E+02 -0.19424289321E+02  0.97340850962E+01  0.45320212089E+02  0.00000000000E+00 0.  1.
</event>
<event>
12    1  0.8494789E-002  0.1908371E+03  0.7818608E-02  0.1160334E+00
         21   -1    0    0  501  502  0.00000000000E+00  0.00000000000E+00  0.75899283535E+02  0.75899283535E+02  0.00000000000E+00 0.  1.
         21   -1    0    0  502  503 -0.00000000000E+00 -0.00000000000E+00 -0.46963305583E+03  0.46963305583E+03  0.00000000000E+00 0.  1.
         -6    2    1    2    0  503 -0.59742838497E+02  0.41576206495E+02 -0.25586008697E+03  0.31919146263E+03  0.17641150193E+03 0.  0.
        -24    2    3    3    0    0 -0.36550053184E+02 -0.24514336381E+02 -0.55607844552E+02  0.10699128416E+03  0.80112692098E+02 0.  0.
          6    2    1    2  501    0  0.59742838497E+02 -0.41576206495E+02 -0.13787368532E+03  0.22634087673E+03  0.16408306335E+03 0.  0.
         24    2    5    5    0    0  0.96681330678E+02 -0.55378815188E+02 -0.89958556555E+02  0.16410813795E+03  0.80155138146E+02 0.  0.
          5    1    5    5  501    0 -0.36938492181E+02  0.13802608693E+02 -0.47915128768E+02  0.62232738781E+02  0.47000000000E+01 0. -1.
        -13    1    6    6    0    0  0.51044966945E+02 -0.30633380135E+02  0.81644082073E+00  0.59537040610E+02  0.00000000000E+00 0.  1.
         14    1    6    6    0    0  0.45636363733E+02 -0.24745435053E+02 -0.90774997376E+02  0.10457109734E+03  0.00000000000E+00 0. -1.
         -5    1    3    3    0  503 -0.23192785313E+02  0.66090542877E+02 -0.20025224242E+03  0.21220017847E+03  0.47000000000E+01 0.  1.
         11    1    4    4    0    0 -0.26110896812E+02  0.21756110703E+02 -0.11291738258E+00  0.33987056883E+02  0.00000000000E+00 0. -1.
        -12    1    4    4    0    0 -0.10439156372E+02 -0.46270447084E+02 -0.55494927170E+02  0.73004227280E+02  0.00000000000E+00 0.  1.
</event>
<event>
12    1  0.8494789E-002  0.2093522E+03  0.7818608E-02  0.1142229E+00
         21   -1    0    0  503  502  0.00000000000E+00  0.00000000000E+00  0.80893795622E+03  0.80893795622E+03  0.00000000000E+00 0. -1.
         21   -1    0    0  501  503 -0.00000000000E+00 -0.00000000000E+00 -0.54340576630E+02  0.54340576630E+02  0.00000000000E+00 0.  1.
          6    2    1    2  501    0  0.11016732773E+03  0.42995004919E+02  0.41146986633E+03  0.46132725228E+03  0.17184287082E+03 0.  0.
         24    2    3    3    0    0  0.56782142009E+02  0.24751013840E+02  0.87340530456E+02  0.13229117882E+03  0.77690175666E+02 0.  0.
         -6    2    1    2    0  502 -0.11016732773E+03 -0.42995004919E+02  0.34312751326E+03  0.40195128057E+03  0.17275106671E+03 0.  0.
        -24    2    5    5    0    0 -0.43283162560E+02 -0.26950821465E+02  0.31300399024E+03  0.32671549114E+03  0.78560392708E+02 0.  0.
          5    1    3    3  501    0  0.53385185720E+02  0.18243991079E+02  0.32412933588E+03  0.32903607347E+03  0.47000000000E+01 0. -1.
        -13    1    4    4    0    0 -0.81085214809E+01 -0.10041623556E+01 -0.97403958895E+01  0.12713448577E+02  0.00000000000E+00 0.  1.
         14    1    4    4    0    0  0.64890663490E+02  0.25755176195E+02  0.97080926346E+02  0.11957773024E+03  0.00000000000E+00 0. -1.
         -5    1    5    5    0  502 -0.66884165169E+02 -0.16044183453E+02  0.30123523019E+02  0.75235789436E+02  0.47000000000E+01 0.  1.
         11    1    6    6    0    0 -0.47309582259E+02  0.14799758244E+02  0.20357326271E+03  0.20952160439E+03  0.00000000000E+00 0. -1.
        -12    1    6    6    0    0  0.40264196986E+01 -0.41750579709E+02  0.10943072753E+03  0.11719388674E+03  0.00000000000E+00 0.  1.
</event>
<event>
12    1  0.8494789E-002  0.2111685E+03  0.7818608E-02  0.1140947E+00
         21   -1    0    0  503  502  0.00000000000E+00  0.00000000000E+00  0.14620919375E+03  0.14620919375E+03  0.00000000000E+00 0.  1.
         21   -1    0    0  501  503 -0.00000000000E+00 -0.00000000000E+00 -0.37643738653E+04  0.37643738653E+04  0.00000000000E+00 0.  1.
          6    2    1    2  501    0 -0.12169166252E+03  0.13691389877E+02 -0.36846229793E+04  0.36906691326E+04  0.17203439230E+03 0.  0.
         24    2    3    3    0    0 -0.43633453021E+02  0.50002548970E+02 -0.12055949825E+04  0.12101422766E+04  0.81122960905E+02 0.  0.
         -6    2    1    2    0  502  0.12169166252E+03 -0.13691389877E+02  0.66458307676E+02  0.21991392649E+03  0.17014439021E+03 0.  0.
        -24    2    5    5    0    0 -0.67009640725E+01  0.30444850863E+01  0.34443889371E+02  0.86453186744E+02  0.78953151769E+02 0.  0.
          5    1    3    3  501    0 -0.78058209499E+02 -0.36311159093E+02 -0.24790279968E+04  0.24805268560E+04  0.47000000000E+01 0. -1.
        -13    1    4    4    0    0 -0.42446209296E+02 -0.44989450097E+01 -0.76462053189E+03  0.76581099429E+03  0.00000000000E+00 0.  1.
         14    1    4    4    0    0 -0.11872437253E+01  0.54501493980E+02 -0.44097445060E+03  0.44433128235E+03  0.00000000000E+00 0. -1.
         -5    1    5    5    0  502  0.12839262659E+03 -0.16735874963E+02  0.32014418305E+02  0.13346073975E+03  0.47000000000E+01 0.  1.
         11    1    6    6    0    0  0.58148016985E+01 -0.71118666493E+01  0.57551179661E+02  0.58279746451E+02  0.00000000000E+00 0. -1.
        -12    1    6    6    0    0 -0.12515765771E+02  0.10156351736E+02 -0.23107290290E+02  0.28173440293E+02  0.00000000000E+00 0.  1.
</event>
<event>
12    1  0.8494789E-002  0.1764602E+03  0.7818608E-02  0.1171775E+00
         21   -1    0    0  503  502  0.00000000000E+00  0.00000000000E+00  0.95522660478E+02  0.95522660478E+02  0.00000000000E+00 0. -1.
         21   -1    0    0  501  503 -0.00000000000E+00 -0.00000000000E+00 -0.40025812931E+03  0.40025812931E+03  0.00000000000E+00 0. -1.
          6    2    1    2  501    0 -0.56447927128E+01 -0.32072616398E+02 -0.42251143372E+02  0.17949573483E+03  0.17138565663E+03 0.  0.
         24    2    3    3    0    0  0.22303348958E+01 -0.86447416025E+02 -0.18051126355E+02  0.11927640826E+03  0.80142924041E+02 0.  0.
         -6    2    1    2    0  502  0.56447927128E+01  0.32072616398E+02 -0.26248432546E+03  0.31628505495E+03  0.17342923187E+03 0.  0.
        -24    2    5    5    0    0  0.75628817661E+01  0.56566106826E+02 -0.27235163474E+03  0.28939520684E+03  0.79481137217E+02 0.  0.
          5    1    3    3  501    0 -0.78751276086E+01  0.54374799627E+02 -0.24200017017E+02  0.60219326573E+02  0.47000000000E+01 0. -1.
        -13    1    4    4    0    0  0.97135164783E+01 -0.25227009801E+02 -0.44580940704E+02  0.52136500648E+02  0.00000000000E+00 0.  1.
         14    1    4    4    0    0 -0.74831815825E+01 -0.61220406224E+02  0.26529814349E+02  0.67139907612E+02  0.00000000000E+00 0. -1.
         -5    1    5    5    0  502 -0.19180890533E+01 -0.24493490428E+02  0.98673092847E+01  0.26889848112E+02  0.47000000000E+01 0.  1.
         13    1    6    6    0    0  0.35791021765E+02  0.32633562609E+01 -0.77624719923E+02  0.85540890083E+02  0.00000000000E+00 0. -1.
        -14    1    6    6    0    0 -0.28228139999E+02  0.53302750565E+02 -0.19472691482E+03  0.20385431676E+03  0.00000000000E+00 0.  1.
</event>
<event>
12    1  0.8494789E-002  0.2192643E+03  0.7818608E-02  0.1134463E+00
         21   -1    0    0  501  502  0.00000000000E+00  0.00000000000E+00  0.28712785350E+03  0.28712785350E+03  0.00000000000E+00 0.  1.
         21   -1    0    0  502  503 -0.00000000000E+00 -0.00000000000E+00 -0.36210344213E+03  0.36210344213E+03  0.00000000000E+00 0. -1.
         -6    2    1    2    0  503  0.12671415666E+03  0.48468443582E+02 -0.27556573581E+03  0.35205583093E+03  0.17204989340E+03 0.  0.
        -24    2    3    3    0    0  0.14451340762E+03  0.65850023824E+02 -0.17737522927E+03  0.25065367001E+03  0.78389665838E+02 0.  0.
          6    2    1    2  501    0 -0.12671415666E+03 -0.48468443582E+02  0.20059014718E+03  0.29717546469E+03  0.17225325004E+03 0.  0.
         24    2    5    5    0    0 -0.15480761345E+03 -0.32827533529E+02  0.19374567567E+03  0.26396677349E+03  0.84249786503E+02 0.  0.
          5    1    5    5  501    0  0.28093456785E+02 -0.15640910053E+02  0.68444715100E+01  0.33208691207E+02  0.47000000000E+01 0. -1.
        -11    1    6    6    0    0 -0.11999230421E+03  0.60731224272E+01  0.16579218698E+03  0.20474883430E+03  0.00000000000E+00 0.  1.
         12    1    6    6    0    0 -0.34815309237E+02 -0.38900655956E+02  0.27953488691E+02  0.59217939183E+02  0.00000000000E+00 0. -1.
         -5    1    3    3    0  503 -0.17799250954E+02 -0.17381580242E+02 -0.98190506534E+02  0.10140216092E+03  0.47000000000E+01 0.  1.
         13    1    4    4    0    0  0.58571434615E+02  0.68021550153E+02 -0.75022405774E+02  0.11698677535E+03  0.00000000000E+00 0. -1.
        -14    1    4    4    0    0  0.85941973001E+02 -0.21715263286E+01 -0.10235282350E+03  0.13366689466E+03  0.00000000000E+00 0.  1.
</event>
<event>
12    1  0.8494789E-002  0.2529483E+03  0.7818608E-02  0.1111529E+00
         21   -1    0    0  501  502  0.00000000000E+00  0.00000000000E+00  0.65870996012E+02  0.65870996012E+02  0.00000000000E+00 0. -1.
         21   -1    0    0  502  503 -0.00000000000E+00 -0.00000000000E+00 -0.18586090690E+04  0.18586090690E+04  0.00000000000E+00 0. -1.
         -6    2    1    2    0  503 -0.16005713766E+03  0.93127912005E+02 -0.15614525721E+04  0.15817325911E+04  0.17161806239E+03 0.  0.
        -24    2    3    3    0    0 -0.40759792583E+02  0.97116509014E+02 -0.74328471126E+03  0.75489010063E+03  0.79334261287E+02 0.  0.
          6    2    1    2  501    0  0.16005713766E+03 -0.93127912005E+02 -0.23128550085E+03  0.34274747394E+03  0.17231294982E+03 0.  0.
         24    2    5    5    0    0  0.14993209347E+03 -0.34706238183E+02 -0.22334073730E+03  0.28274065966E+03  0.79856371494E+02 0.  0.
          5    1    5    5  501    0  0.10125044189E+02 -0.58421673821E+02 -0.79447635589E+01  0.60006814279E+02  0.47000000000E+01 0. -1.
        -13    1    6    6    0    0  0.77853678598E+02  0.90004454050E+00 -0.52430901493E+02  0.93866952559E+02  0.00000000000E+00 0.  1.
         14    1    6    6    0    0  0.72078414869E+02 -0.35606282724E+02 -0.17090983580E+03  0.18887370710E+03  0.00000000000E+00 0. -1.
         -5    1    3    3    0  503 -0.11929734507E+03 -0.39885970097E+01 -0.81816786088E+03  0.82684249046E+03  0.47000000000E+01 0.  1.
         13    1    4    4    0    0 -0.11277870316E+02  0.37399938983E+02 -0.88630982124E+02  0.96857610889E+02  0.00000000000E+00 0. -1.
        -14    1    4    4    0    0 -0.29481922268E+02  0.59716570032E+02 -0.65465372914E+03  0.65803248974E+03  0.00000000000E+00 0.  1.
</event>
<event>
12    1  0.8494789E-002  0.2193474E+03  0.7818608E-02  0.1134456E+00
         21   -1    0    0  501  502  0.00000000000E+00  0.00000000000E+00  0.10909132068E+03  0.10909132068E+03  0.00000000000E+00 0. -1.
         21   -1    0    0  502  503 -0.00000000000E+00 -0.00000000000E+00 -0.69147474606E+03  0.69147474606E+03  0.00000000000E+00 0. -1.
         -6    2    1    2    0  503  0.77481588656E+02 -0.10998306163E+03 -0.53233378254E+03  0.57558111472E+03  0.17266931739E+03 0.  0.
        -24    2    3    3    0    0  0.78546804926E+02 -0.62712859719E+02 -0.50422167988E+03  0.52037253758E+03  0.80284320156E+02 0.  0.
          6    2    1    2  501    0 -0.77481588656E+02  0.10998306163E+03 -0.50049642839E+02  0.22498495202E+03  0.17324431148E+03 0.  0.
         24    2    5    5    0    0 -0.82485096963E+02  0.89419467679E+01 -0.12074251688E+02  0.11682505963E+03  0.81354516594E+02 0.  0.
          5    1    5    5  501    0  0.50035083067E+01  0.10104111486E+03 -0.37975391151E+02  0.10815989239E+03  0.47000000000E+01 0. -1.
        -11    1    6    6    0    0  0.13990751669E+02 -0.10512760849E+02  0.10720193634E+01  0.17533068711E+02  0.00000000000E+00 0.  1.
         12    1    6    6    0    0 -0.96475848632E+02  0.19454707617E+02 -0.13146271051E+02  0.99291990917E+02  0.00000000000E+00 0. -1.
         -5    1    3    3    0  503 -0.10652162701E+01 -0.47270201914E+02 -0.28112102653E+02  0.55208577144E+02  0.47000000000E+01 0.  1.
         13    1    4    4    0    0  0.64773358443E+02 -0.28459730443E+02 -0.17023484995E+03  0.18435142625E+03  0.00000000000E+00 0. -1.
        -14    1    4    4    0    0  0.13773446483E+02 -0.34253129276E+02 -0.33398682993E+03  0.33602111133E+03  0.00000000000E+00 0.  1.
</event>
<event>
12    1  0.8494789E-002  0.1914382E+03  0.7818608E-02  0.1157328E+00
         21   -1    0    0  503  502  0.00000000000E+00  0.00000000000E+00  0.11581696016E+03  0.11581696016E+03  0.00000000000E+00 0. -1.
         21   -1    0    0  501  503 -0.00000000000E+00 -0.00000000000E+00 -0.50734087651E+03  0.50734087651E+03  0.00000000000E+00 0. -1.
          6    2    1    2  501    0  0.53330329050E+02  0.61626272060E+02 -0.38724827374E+03  0.43167187017E+03  0.17244551772E+03 0.  0.
         24    2    3    3    0    0  0.31551274874E+02 -0.25310759693E+01 -0.46800399082E+02  0.84515798837E+02  0.62855020541E+02 0.  0.
         -6    2    1    2    0  502 -0.53330329050E+02 -0.61626272060E+02 -0.42756426164E+01  0.19148596649E+03  0.17322434252E+03 0.  0.
        -24    2    5    5    0    0 -0.17369758396E+02  0.39972728991E+02  0.67072355680E+01  0.83050578961E+02  0.70376729726E+02 0.  0.
          5    1    3    3  501    0  0.21779054176E+02  0.64157348029E+02 -0.34044787465E+03  0.34715607133E+03  0.47000000000E+01 0. -1.
        -13    1    4    4    0    0  0.35962500222E+02  0.22938025982E+02 -0.38240829503E+02  0.57287132056E+02  0.00000000000E+00 0.  1.
         14    1    4    4    0    0 -0.44112253484E+01 -0.25469101951E+02 -0.85595695791E+01  0.27228666781E+02  0.00000000000E+00 0. -1.
         -5    1    5    5    0  502 -0.35960570654E+02 -0.10159900105E+03 -0.10982878184E+02  0.10843538753E+03  0.47000000000E+01 0.  1.
         11    1    6    6    0    0  0.24200552785E+02  0.92606245556E+00  0.93405469327E+01  0.25957083114E+02  0.00000000000E+00 0. -1.
        -12    1    6    6    0    0 -0.41570311181E+02  0.39046666536E+02 -0.26333113646E+01  0.57093495847E+02  0.00000000000E+00 0.  1.
</event>
<event>
12    1  0.8494789E-002  0.2121838E+03  0.7818608E-02  0.1140071E+00
         21   -1    0    0  503  502  0.00000000000E+00  0.00000000000E+00  0.26081473414E+03  0.26081473414E+03  0.00000000000E+00 0. -1.
         21   -1    0    0  501  503 -0.00000000000E+00 -0.00000000000E+00 -0.27803502549E+03  0.27803502549E+03  0.00000000000E+00 0.  1.
          6    2    1    2  501    0 -0.12172870387E+03 -0.17858206202E+02 -0.17524581407E+03  0.27519637466E+03  0.17287323797E+03 0.  0.
         24    2    3    3    0    0 -0.40383639526E+02  0.13673979650E+02 -0.17239746428E+02  0.94643596651E+02  0.82718712933E+02 0.  0.
         -6    2    1    2    0  502  0.12172870387E+03  0.17858206202E+02  0.15802552272E+03  0.26365338496E+03  0.17147667100E+03 0.  0.
        -24    2    5    5    0    0  0.12569836847E+03  0.37888821358E+02  0.17779003326E+03  0.23484870379E+03  0.79429057162E+02 0.  0.
          5    1    3    3  501    0 -0.81345064340E+02 -0.31532185851E+02 -0.15800606764E+03  0.18055277801E+03  0.47000000000E+01 0. -1.
        -11    1    4    4    0    0  0.92641340587E+01 -0.14500775657E+02 -0.31420170801E+02  0.35823509148E+02  0.00000000000E+00 0.  1.
         12    1    4    4    0    0 -0.49647773584E+02  0.28174755307E+02  0.14180424373E+02  0.58820087503E+02  0.00000000000E+00 0. -1.
         -5    1    5    5    0  502 -0.39696646076E+01 -0.20030615156E+02 -0.19764510544E+02  0.28804681176E+02  0.47000000000E+01 0.  1.
         13    1    6    6    0    0  0.60030956654E+02 -0.12256199960E+02  0.11767389916E+03  0.13266904966E+03  0.00000000000E+00 0. -1.
        -14    1    6    6    0    0  0.65667411820E+02  0.50145021318E+02  0.60116134108E+02  0.10217965413E+03  0.00000000000E+00 0.  1.
</event>
<event>
12    1  0.8494789E-002  0.1860945E+03  0.7818608E-02  0.1162229E+00
         21   -1    0    0  503  502  0.00000000000E+00  0.00000000000E+00  0.13439797777E+03  0.13439797777E+03  0.00000000000E+00 0. -1.
         21   -1    0    0  501  503 -0.00000000000E+00 -0.00000000000E+00 -0.25898562764E+03  0.25898562764E+03  0.00000000000E+00 0. -1.
          6    2    1    2  501    0  0.68383456126E+02  0.13959029382E+02 -0.81426689958E+02  0.20234951680E+03  0.17159216048E+03 0.  0.
         24    2    3    3    0    0  0.74428464313E+02  0.42869885782E+02 -0.17212050811E+01  0.11721765401E+03  0.79747052978E+02 0.  0.
         -6    2    1    2    0  502 -0.68383456126E+02 -0.13959029382E+02 -0.43160959906E+02  0.19103408861E+03  0.17251087785E+03 0.  0.
        -24    2    5    5    0    0  0.34422020724E+01 -0.48622156438E+02 -0.56948541571E+02  0.10996223800E+03  0.80452436550E+02 0.  0.
          5    1    3    3  501    0 -0.60450081872E+01 -0.28910856400E+02 -0.79705484877E+02  0.85131862785E+02  0.47000000000E+01 0. -1.
        -11    1    4    4    0    0  0.15050087281E+02  0.47728128684E+02  0.19875607938E+02  0.53847183638E+02  0.00000000000E+00 0.  1.
         12    1    4    4    0    0  0.59378377033E+02 -0.48582429018E+01 -0.21596813020E+02  0.63370470376E+02  0.00000000000E+00 0. -1.
         -5    1    5    5    0  502 -0.71825658198E+02  0.34663127056E+02  0.13787581665E+02  0.81071850609E+02  0.47000000000E+01 0.  1.
         13    1    6    6    0    0 -0.34376833972E+02 -0.26798817984E+01 -0.23085061799E+02  0.41495404067E+02  0.00000000000E+00 0. -1.
        -14    1    6    6    0    0  0.37819036045E+02 -0.45942274639E+02 -0.33863479771E+02  0.68466833931E+02  0.00000000000E+00 0.  1.
</event>
<event>
12    1  0.8494789E-002  0.1910594E+03  0.7818608E-02  0.1157641E+00
         21   -1    0    0  503  502  0.00000000000E+00  0.00000000000E+00  0.15062166900E+03  0.15062166900E+03  0.00000000000E+00 0. -1.
         21   -1    0    0  501  503 -0.00000000000E+00 -0.00000000000E+00 -0.24213961225E+03  0.24213961225E+03  0.00000000000E+00 0. -1.
          6    2    1    2  501    0  0.20684050687E+02  0.80341623057E+02 -0.55041832834E+02  0.19882984239E+03  0.17210780492E+03 0.  0.
         24    2    3    3    0    0  0.66836898134E+02  0.29023910445E+02 -0.66797399995E+02  0.12865950454E+03  0.82351788883E+02 0.  0.
         -6    2    1    2    0  502 -0.20684050687E+02 -0.80341623057E+02 -0.36476110421E+02  0.19393143886E+03  0.17145346307E+03 0.  0.
        -24    2    5    5    0    0  0.19718915098E+02  0.11333515225E+02  0.71122755213E+01  0.84575286712E+02  0.81148693640E+02 0.  0.
          5    1    3    3  501    0 -0.46152847447E+02  0.51317712612E+02  0.11755567161E+02  0.70170337853E+02  0.47000000000E+01 0. -1.
        -11    1    4    4    0    0  0.39395716948E+01 -0.10974334962E+02 -0.51194845749E+02  0.52505889996E+02  0.00000000000E+00 0.  1.
         12    1    4    4    0    0  0.62897326439E+02  0.39998245408E+02 -0.15602554246E+02  0.76153614543E+02  0.00000000000E+00 0. -1.
         -5    1    5    5    0  502 -0.40402965785E+02 -0.91675138283E+02 -0.43588385942E+02  0.10935615215E+03  0.47000000000E+01 0.  1.
         13    1    6    6    0    0  0.24945586251E+02 -0.90903848577E+01  0.38498490833E+02  0.46765918858E+02  0.00000000000E+00 0. -1.
        -14    1    6    6    0    0 -0.52266711533E+01  0.20423900083E+02 -0.31386215311E+02  0.37809367854E+02  0.00000000000E+00 0.  1.
</event>
<event>
12    1  0.8494789E-002  0.1850668E+03  0.7818608E-02  0.1163029E+00
         21   -1    0    0  501  502  0.00000000000E+00  0.00000000000E+00  0.84698851525E+03  0.84698851525E+03  0.00000000000E+00 0. -1.
         21   -1    0    0  502  503 -0.00000000000E+00 -0.00000000000E+00 -0.64829816341E+02  0.64829816341E+02  0.00000000000E+00 0. -1.
         -6    2    1    2    0  503 -0.71099226974E+02  0.70379134084E+01  0.11132064303E+03  0.21596761267E+03  0.17071933650E+03 0.  0.
        -24    2    3    3    0    0 -0.93917873636E+02  0.45765326528E+02  0.53313186074E+02  0.14243219110E+03  0.80805947506E+02 0.  0.
          6    2    1    2  501    0  0.71099226974E+02 -0.70379134084E+01  0.67083805587E+03  0.69585071891E+03  0.17052827774E+03 0.  0.
         24    2    5    5    0    0 -0.39940868055E+02  0.71410679114E+01  0.20982707741E+03  0.22142036736E+03  0.57907761789E+02 0.  0.
          5    1    5    5  501    0  0.11104009503E+03 -0.14178981320E+02  0.46101097846E+03  0.47443035155E+03  0.47000000000E+01 0. -1.
        -13    1    6    6    0    0  0.72333996093E+00  0.25847753823E+02  0.71546568846E+02  0.76075890478E+02  0.00000000000E+00 0.  1.
         14    1    6    6    0    0 -0.40664208016E+02 -0.18706685911E+02  0.13828050856E+03  0.14534447688E+03  0.00000000000E+00 0. -1.
         -5    1    3    3    0  503  0.22818646662E+02 -0.38727413120E+02  0.58007456959E+02  0.73535421569E+02  0.47000000000E+01 0.  1.
         11    1    4    4    0    0 -0.37148448090E+01  0.74747911517E+01 -0.18929119524E+02  0.20687777567E+02  0.00000000000E+00 0. -1.
        -12    1    4    4    0    0 -0.90203028827E+02  0.38290535377E+02  0.72242305598E+02  0.12174441354E+03  0.00000000000E+00 0.  1.
</event>
<event>
12    1  0.8494789E-002  0.1859353E+03  0.7818608E-02  0.1163972E+00
         21   -1    0    0  503  502  0.00000000000E+00  0.00000000000E+00  0.45209244551E+03  0.45209244551E+03  0.00000000000E+00 0. -1.
         21   -1    0    0  501  503 -0.00000000000E+00 -0.00000000000E+00 -0.11796002878E+03  0.11796002878E+03  0.00000000000E+00 0. -1.
          6    2    1    2  501    0  0.13424310427E+02 -0.46442724173E+02 -0.59490268280E+01  0.18603044994E+03  0.17954052090E+03 0.  0.
         24    2    3    3    0    0  0.77643255994E+02 -0.13400824216E+02  0.16227752749E+02  0.11033540601E+03  0.75514929447E+02 0.  0.
         -6    2    1    2    0  502 -0.13424310427E+02  0.46442724173E+02  0.34008144355E+03  0.38402202435E+03  0.17169853872E+03 0.  0.
        -24    2    5    5    0    0  0.10672994457E+02  0.57354197335E+01  0.32414277117E+03  0.33388325677E+03  0.79137129080E+02 0.  0.
          5    1    3    3  501    0 -0.64218945567E+02 -0.33041899957E+02 -0.22176779577E+02  0.75695043926E+02  0.47000000000E+01 0. -1.
        -11    1    4    4    0    0 -0.14743136380E+02 -0.87208738236E+00  0.78557458727E+01  0.16728220167E+02  0.00000000000E+00 0.  1.
         12    1    4    4    0    0  0.92386392375E+02 -0.12528736834E+02  0.83720068764E+01  0.93607185845E+02  0.00000000000E+00 0. -1.
         -5    1    5    5    0  502 -0.24097304885E+02  0.40707304439E+02  0.15938672385E+02  0.50138767584E+02  0.47000000000E+01 0.  1.
         11    1    6    6    0    0  0.28698153572E+02 -0.28823667859E+02  0.18231251865E+03  0.18679465277E+03  0.00000000000E+00 0. -1.
        -12    1    6    6    0    0 -0.18025159114E+02  0.34559087593E+02  0.14183025252E+03  0.14708860400E+03  0.00000000000E+00 0.  1.
</event>
<event>
12    1  0.8494789E-002  0.1852059E+03  0.7818608E-02  0.1163302E+00
         21   -1    0    0  501  502  0.00000000000E+00  0.00000000000E+00  0.36447152523E+02  0.36447152523E+02  0.00000000000E+00 0. -1.
         21   -1    0    0  502  503 -0.00000000000E+00 -0.00000000000E+00 -0.98779828952E+03  0.98779828952E+03  0.00000000000E+00 0. -1.
         -6    2    1    2    0  503  0.46683114299E+02  0.48779910123E+02 -0.35574111726E+03  0.40106476994E+03  0.17245989212E+03 0.  0.
        -24    2    3    3    0    0  0.36705729589E+01  0.41687662345E+02 -0.76821033656E+02  0.11871944640E+03  0.80258964879E+02 0.  0.
          6    2    1    2  501    0 -0.46683114299E+02 -0.48779910123E+02 -0.59561001974E+03  0.62318067210E+03  0.17042318408E+03 0.  0.
         24    2    5    5    0    0 -0.65375030590E+02  0.25446645701E+02 -0.33352614274E+03  0.35010738907E+03  0.80087886636E+02 0.  0.
          5    1    5    5  501    0  0.18691916291E+02 -0.74226555824E+02 -0.26208387700E+03  0.27307328303E+03  0.47000000000E+01 0. -1.
        -13    1    6    6    0    0 -0.31645039750E+01  0.21655970718E+02 -0.21574549104E+03  0.21685274279E+03  0.00000000000E+00 0.  1.
         14    1    6    6    0    0 -0.62210526615E+02  0.37906749833E+01 -0.11778065171E+03  0.13325464628E+03  0.00000000000E+00 0. -1.
         -5    1    3    3    0  503  0.43012541340E+02  0.70922477780E+01 -0.27892008360E+03  0.28234532354E+03  0.47000000000E+01 0.  1.
         11    1    4    4    0    0  0.12716581616E+02  0.64573188091E+02 -0.53491283992E+02  0.84809937692E+02  0.00000000000E+00 0. -1.
        -12    1    4    4    0    0 -0.90460086575E+01 -0.22885525746E+02 -0.23329749664E+02  0.33909508706E+02  0.00000000000E+00 0.  1.
</event>
<event>
12    1  0.8494789E-002  0.1923352E+03  0.7818608E-02  0.1157942E+00
         21   -1    0    0  503  502  0.00000000000E+00  0.00000000000E+00  0.68060882054E+02  0.68060882054E+02  0.00000000000E+00 0.  1.
         21   -1    0    0  501  503 -0.00000000000E+00 -0.00000000000E+00 -0.73395792759E+03  0.73395792759E+03  0.00000000000E+00 0.  1.
          6    2    1    2  501    0 -0.49149422369E+02 -0.66678338822E+02 -0.55171777837E+03  0.58428189354E+03  0.17358328710E+03 0.  0.
         24    2    3    3    0    0 -0.14187459141E+02  0.24319557167E+02 -0.35025225218E+03  0.36042165993E+03  0.80214761320E+02 0.  0.
         -6    2    1    2    0  502  0.49149422369E+02  0.66678338822E+02 -0.11417926717E+03  0.21773691611E+03  0.16586377844E+03 0.  0.
        -24    2    5    5    0    0 -0.48261508230E+00  0.45715441993E+02 -0.61300376332E+00  0.91950715082E+02  0.79777338113E+02 0.  0.
          5    1    3    3  501    0 -0.34961963227E+02 -0.90997895988E+02 -0.20146552619E+03  0.22386023360E+03  0.47000000000E+01 0. -1.
        -11    1    4    4    0    0 -0.25383994521E+00 -0.29422206576E+02 -0.12840118319E+03  0.13172924701E+03  0.00000000000E+00 0.  1.
         12    1    4    4    0    0 -0.13933619196E+02  0.53741763743E+02 -0.22185106900E+03  0.22869241292E+03  0.00000000000E+00 0. -1.
         -5    1    5    5    0  502  0.49632037451E+02  0.20962896828E+02 -0.11356626341E+03  0.12578620103E+03  0.47000000000E+01 0.  1.
         13    1    6    6    0    0 -0.16035287584E+02 -0.21147442493E+01 -0.29722994725E+02  0.33838720522E+02  0.00000000000E+00 0. -1.
        -14    1    6    6    0    0  0.15552672502E+02  0.47830186243E+02  0.29109990961E+02  0.58111994560E+02  0.00000000000E+00 0.  1.
</event>
<event>
12    1  0.8494789E-002  0.2822985E+03  0.7818608E-02  0.1094604E+00
         21   -1    0    0  501  502  0.00000000000E+00  0.00000000000E+00  0.33127305162E+03  0.33127305162E+03  0.00000000000E+00 0. -1.
         21   -1    0    0  502  503 -0.00000000000E+00 -0.00000000000E+00 -0.24410021705E+04  0.24410021705E+04  0.00000000000E+00 0.  1.
         -6    2    1    2    0  503 -0.99470086155E+02 -0.20029424833E+03 -0.23714591349E+04  0.23882024382E+04  0.17227992771E+03 0.  0.
        -24    2    3    3    0    0 -0.96710120602E+02 -0.89693876122E+02 -0.96730885133E+03  0.97969252751E+03  0.81934093953E+02 0.  0.
          6    2    1    2  501    0  0.99470086155E+02  0.20029424833E+03  0.26173001599E+03  0.38407278393E+03  0.17028569563E+03 0.  0.
         24    2    5    5    0    0  0.40535323467E+02  0.26811094088E+02  0.73439315287E+02  0.12130827144E+03  0.83429110471E+02 0.  0.
          5    1    5    5  501    0  0.58934762688E+02  0.17348315424E+03  0.18829070070E+03  0.26276451250E+03  0.47000000000E+01 0. -1.
        -11    1    6    6    0    0  0.30395040774E+01  0.42340770274E+02  0.63832118815E+01  0.42926970617E+02  0.00000000000E+00 0.  1.
         12    1    6    6    0    0  0.37495819389E+02 -0.15529676185E+02  0.67056103406E+02  0.78381300819E+02  0.00000000000E+00 0. -1.
         -5    1    3    3    0  503 -0.27599655529E+01 -0.11060037220E+03 -0.14041502835E+04  0.14085099107E+04  0.47000000000E+01 0.  1.
         13    1    4    4    0    0 -0.40978442556E+02 -0.76794187818E+02 -0.39205914557E+03  0.40160547015E+03  0.00000000000E+00 0. -1.
        -14    1    4    4    0    0 -0.55731678046E+02 -0.12899688305E+02 -0.57524970576E+03  0.57808705735E+03  0.00000000000E+00 0.  1.
</event>
<event>
12    1  0.8494789E-002  0.2296129E+03  0.7818608E-02  0.1127081E+00
         21   -1    0    0  501  502  0.00000000000E+00  0.00000000000E+00  0.37925965968E+03  0.37925965968E+03  0.00000000000E+00 0.  1.
         21   -1    0    0  502  503 -0.00000000000E+00 -0.00000000000E+00 -0.16804130199E+03  0.16804130199E+03  0.00000000000E+00 0. -1.
         -6    2    1    2    0  503  0.55947481632E+02  0.14085833570E+03 -0.90708364133E+01  0.22979201701E+03  0.17248449081E+03 0.  0.
        -24    2    3    3    0    0 -0.18271604697E+02  0.12032820437E+03 -0.32822664582E+02  0.14906904377E+03  0.79570875285E+02 0.  0.
          6    2    1    2  501    0 -0.55947481632E+02 -0.14085833570E+03  0.22028919411E+03  0.31750894466E+03  0.17121159266E+03 0.  0.
         24    2    5    5    0    0 -0.17537321110E+02 -0.11856581397E+03  0.67463543075E+02  0.15829190232E+03  0.78355515589E+02 0.  0.
          5    1    5    5  501    0 -0.38410160522E+02 -0.22292521735E+02  0.15282565103E+03  0.15921704233E+03  0.47000000000E+01 0. -1.
        -13    1    6    6    0    0  0.20612230796E+02 -0.74266955170E+02  0.63203552267E+02  0.99675140871E+02  0.00000000000E+00 0.  1.
         14    1    6    6    0    0 -0.38149551905E+02 -0.44298858798E+02  0.42599908079E+01  0.58616761452E+02  0.00000000000E+00 0. -1.
         -5    1    3    3    0  503  0.74219086329E+02  0.20530131331E+02  0.23751828168E+02  0.80722973244E+02  0.47000000000E+01 0.  1.
         11    1    4    4    0    0  0.21870022440E+02  0.89618067821E+01 -0.18115601078E+02  0.29778966818E+02  0.00000000000E+00 0. -1.
        -12    1    4    4    0    0 -0.40141627137E+02  0.11136639759E+03 -0.14707063503E+02  0.11929007695E+03  0.00000000000E+00 0.  1.
</event>
<event>
12    1  0.8494789E-002  0.3591655E+03  0.7818608E-02  0.1058968E+00
         21   -1    0    0  503  502  0.00000000000E+00  0.00000000000E+00  0.19984582797E+04  0.19984582797E+04  0.00000000000E+00 0. -1.
         21   -1    0    0  501  503 -0.00000000000E+00 -0.00000000000E+00 -0.88296539735E+02  0.88296539735E+02  0.00000000000E+00 0.  1.
          6    2    1    2  501    0  0.22523305955E+03  0.22038995864E+03  0.41236271238E+03  0.54649453113E+03  0.17120631124E+03 0.  0.
         24    2    3    3    0    0  0.16606234972E+03  0.76882488465E+02  0.26909547216E+03  0.33520525308E+03  0.80390095964E+02 0.  0.
         -6    2    1    2    0  502 -0.22523305955E+03 -0.22038995864E+03  0.14977990275E+04  0.15402602883E+04  0.17233155171E+03 0.  0.
        -24    2    5    5    0    0 -0.64667556249E+02 -0.10135426508E+03  0.42614341553E+03  0.45011414304E+03  0.80931769311E+02 0.  0.
          5    1    3    3  501    0  0.59170709825E+02  0.14350747018E+03  0.14326724022E+03  0.21128927805E+03  0.47000000000E+01 0. -1.
        -13    1    4    4    0    0  0.75915387447E+02  0.67446642077E+02  0.95643805716E+02  0.13949886433E+03  0.00000000000E+00 0.  1.
         14    1    4    4    0    0  0.90146962274E+02  0.94358463880E+01  0.17345166645E+03  0.19570638875E+03  0.00000000000E+00 0. -1.
         -5    1    5    5    0  502 -0.16056550330E+03 -0.11903569356E+03  0.10716556120E+04  0.10901461452E+04  0.47000000000E+01 0.  1.
         13    1    6    6    0    0  0.12792885663E+02 -0.50861099929E+02  0.15780381975E+03  0.16629057381E+03  0.00000000000E+00 0. -1.
        -14    1    6    6    0    0 -0.77460441913E+02 -0.50493165147E+02  0.26833959578E+03  0.28382356923E+03  0.00000000000E+00 0.  1.
</event>
<event>
12    1  0.8494789E-002  0.1817368E+03  0.7818608E-02  0.1166403E+00
         21   -1    0    0  501  502  0.00000000000E+00  0.00000000000E+00  0.47624250248E+02  0.47624250248E+02  0.00000000000E+00 0.  1.
         21   -1    0    0  502  503 -0.00000000000E+00 -0.00000000000E+00 -0.10767330026E+04  0.10767330026E+04  0.00000000000E+00 0.  1.
         -6    2    1    2    0  503 -0.47699384931E+02 -0.28606374934E+02 -0.85283535621E+03  0.87198418412E+03  0.17301652104E+03 0.  0.
        -24    2    3    3    0    0 -0.20286210632E+02 -0.82889358648E+02 -0.46693013316E+03  0.48128857931E+03  0.79578710731E+02 0.  0.
          6    2    1    2  501    0  0.47699384931E+02  0.28606374934E+02 -0.17627339619E+03  0.25237306877E+03  0.17183218449E+03 0.  0.
         24    2    5    5    0    0 -0.71316779770E+01  0.72387091383E+02 -0.87114436668E+02  0.13881864721E+03  0.79943354370E+02 0.  0.
          5    1    5    5  501    0  0.54831062908E+02 -0.43780716449E+02 -0.89158959524E+02  0.11355442156E+03  0.47000000000E+01 0. -1.
        -11    1    6    6    0    0  0.14137900353E+02 -0.37226178324E+01  0.67622482398E+01  0.16107951799E+02  0.00000000000E+00 0.  1.
         12    1    6    6    0    0 -0.21269578330E+02  0.76109709216E+02 -0.93876684908E+02  0.12271069541E+03  0.00000000000E+00 0. -1.
         -5    1    3    3    0  503 -0.27413174300E+02  0.54282983714E+02 -0.38590522305E+03  0.39069560482E+03  0.47000000000E+01 0.  1.
         13    1    4    4    0    0 -0.15812295250E+02 -0.53461830243E+02 -0.11196278772E+03  0.12507542448E+03  0.00000000000E+00 0. -1.
        -14    1    4    4    0    0 -0.44739153814E+01 -0.29427528406E+02 -0.35496734544E+03  0.35621315483E+03  0.00000000000E+00 0.  1.
</event>
<event>
12    1  0.8494789E-002  0.2206830E+03  0.7818608E-02  0.1136347E+00
         21   -1    0    0  503  502  0.00000000000E+00  0.00000000000E+00  0.27176885907E+03  0.27176885907E+03  0.00000000000E+00 0. -1.
         21   -1    0    0  501  503 -0.00000000000E+00 -0.00000000000E+00 -0.22676252404E+03  0.22676252404E+03  0.00000000000E+00 0.  1.
          6    2    1    2  501    0  0.12433849040E+03  0.17660270689E+02 -0.10609676149E+03  0.23107458105E+03  0.16237916694E+03 0.  0.
         24    2    3    3    0    0  0.63142842433E+02 -0.28089739816E+02 -0.11204975277E+03  0.15429242886E+03  0.80467101811E+02 0.  0.
         -6    2    1    2    0  502 -0.12433849040E+03 -0.17660270689E+02  0.15110309652E+03  0.26745680206E+03  0.18146363227E+03 0.  0.
        -24    2    5    5    0    0 -0.84787486326E+02 -0.75355350374E+02  0.13969729731E+03  0.19642732650E+03  0.78746511365E+02 0.  0.
          5    1    3    3  501    0  0.61195647963E+02  0.45750010505E+02  0.59529912764E+01  0.76782152197E+02  0.47000000000E+01 0. -1.
        -13    1    4    4    0    0  0.44087039919E+02 -0.49723543896E+01 -0.11588636311E+03  0.12408884137E+03  0.00000000000E+00 0.  1.
         14    1    4    4    0    0  0.19055802514E+02 -0.23117385427E+02  0.38366103412E+01  0.30203587491E+02  0.00000000000E+00 0. -1.
         -5    1    5    5    0  502 -0.39551004070E+02  0.57695079685E+02  0.11405799206E+02  0.71029475560E+02  0.47000000000E+01 0.  1.
         13    1    6    6    0    0 -0.12508718589E+02 -0.58465819290E+02  0.86310647473E+02  0.10499641867E+03  0.00000000000E+00 0. -1.
        -14    1    6    6    0    0 -0.72278767737E+02 -0.16889531083E+02  0.53386649838E+02  0.91430907831E+02  0.00000000000E+00 0.  1.
</event>
<event>
12    1  0.8494789E-002  0.1814588E+03  0.7818608E-02  0.1166673E+00
         21   -1    0    0  503  502  0.00000000000E+00  0.00000000000E+00  0.10244570077E+03  0.10244570077E+03  0.00000000000E+00 0. -1.
         21   -1    0    0  501  503 -0.00000000000E+00 -0.00000000000E+00 -0.39156796078E+03  0.39156796078E+03  0.00000000000E+00 0. -1.
          6    2    1    2  501    0  0.57114657382E+02  0.89643947191E+01 -0.38884457139E+02  0.18557832604E+03  0.17200252798E+03 0.  0.
         24    2    3    3    0    0  0.82979076763E+02  0.14450120080E+02 -0.76744379747E+02  0.13916146367E+03  0.79886669712E+02 0.  0.
         -6    2    1    2    0  502 -0.57114657382E+02 -0.89643947191E+01 -0.25023780287E+03  0.30843533551E+03  0.17079506359E+03 0.  0.
        -24    2    5    5    0    0  0.26635467800E+02  0.26293402620E+02 -0.13493196048E+03  0.16155197011E+03  0.80570552453E+02 0.  0.
          5    1    3    3  501    0 -0.25864419381E+02 -0.54857253611E+01  0.37859922608E+02  0.46416862373E+02  0.47000000000E+01 0. -1.
        -11    1    4    4    0    0  0.65543033171E+02  0.41817889324E+02 -0.32438124947E+02  0.84242845481E+02  0.00000000000E+00 0.  1.
         12    1    4    4    0    0  0.17436043592E+02 -0.27367769243E+02 -0.44306254800E+02  0.54918618190E+02  0.00000000000E+00 0. -1.
         -5    1    5    5    0  502 -0.83750125182E+02 -0.35257797339E+02 -0.11530584239E+03  0.14688336539E+03  0.47000000000E+01 0.  1.
         11    1    6    6    0    0 -0.20472472840E+02  0.17503371670E+01 -0.88962393996E+02  0.91304399510E+02  0.00000000000E+00 0. -1.
        -12    1    6    6    0    0  0.47107940640E+02  0.24543065453E+02 -0.45969566485E+02  0.70247570605E+02  0.00000000000E+00 0.  1.
</event>
<event>
12    1  0.8494789E-002  0.2103673E+03  0.7818608E-02  0.1142162E+00
         21   -1    0    0  501  502  0.00000000000E+00  0.00000000000E+00  0.72377365180E+03  0.72377365180E+03  0.00000000000E+00 0. -1.
         21   -1    0    0  502  503 -0.00000000000E+00 -0.00000000000E+00 -0.72064247959E+02  0.72064247959E+02  0.00000000000E+00 0.  1.
         -6    2    1    2    0  503  0.86020936189E+02 -0.71976417528E+02  0.16499951744E+03  0.26735600005E+03  0.17797242444E+03 0.  0.
        -24    2    3    3    0    0 -0.71725815253E+01 -0.45335927001E+02  0.25018770640E+02  0.97028530289E+02  0.81742306078E+02 0.  0.
          6    2    1    2  501    0 -0.86020936189E+02  0.71976417528E+02  0.48670988641E+03  0.52848189972E+03  0.17270320975E+03 0.  0.
         24    2    5    5    0    0 -0.14615702393E+02  0.89860475546E+02  0.21318791452E+03  0.24518893114E+03  0.79874909896E+02 0.  0.
          5    1    5    5  501    0 -0.71405233796E+02 -0.17884058017E+02  0.27352197188E+03  0.28329296858E+03  0.47000000000E+01 0. -1.
        -11    1    6    6    0    0 -0.26743345058E+02  0.97675131563E+02  0.15433888169E+03  0.18459720537E+03  0.00000000000E+00 0.  1.
         12    1    6    6    0    0  0.12127642665E+02 -0.78146560172E+01  0.58849032836E+02  0.60591725764E+02  0.00000000000E+00 0. -1.
         -5    1    3    3    0  503  0.93193517714E+02 -0.26640490527E+02  0.13998074680E+03  0.17032746976E+03  0.47000000000E+01 0.  1.
         11    1    4    4    0    0  0.20310553480E+02 -0.90621695332E+01  0.42748120032E+02  0.48187584143E+02  0.00000000000E+00 0. -1.
        -12    1    4    4    0    0 -0.27483135005E+02 -0.36273757468E+02 -0.17729349392E+02  0.48840946146E+02  0.00000000000E+00 0.  1.
</event>
<event>
12    1  0.8494789E-002  0.1777300E+03  0.7818608E-02  0.1170371E+00
         21   -1    0    0  503  502  0.00000000000E+00  0.00000000000E+00  0.32383591933E+03  0.32383591933E+03  0.00000000000E+00 0. -1.
         21   -1    0    0  501  503 -0.00000000000E+00 -0.00000000000E+00 -0.98058198213E+02  0.98058198213E+02  0.00000000000E+00 0. -1.
          6    2    1    2  501    0  0.42851924958E+02 -0.88101155446E+01  0.89073690888E+02  0.19880157475E+03  0.17226153983E+03 0.  0.
         24    2    3    3    0    0  0.67345033258E+02 -0.57606088389E+02  0.75105016078E+02  0.14224918137E+03  0.82099033110E+02 0.  0.
         -6    2    1    2    0  502 -0.42851924958E+02  0.88101155446E+01  0.13670403023E+03  0.22309254280E+03  0.17078754393E+03 0.  0.
        -24    2    5    5    0    0 -0.90641565947E+02 -0.20735008563E+02  0.11342573724E+03  0.16209473080E+03  0.69017894977E+02 0.  0.
          5    1    3    3  501    0 -0.24493108300E+02  0.48795972845E+02  0.13968674810E+02  0.56552393371E+02  0.47000000000E+01 0. -1.
        -13    1    4    4    0    0  0.79855469251E+02 -0.65178777675E+02  0.53432401345E+02  0.11610422276E+03  0.00000000000E+00 0.  1.
         14    1    4    4    0    0 -0.12510435993E+02  0.75726892857E+01  0.21672614733E+02  0.26144958618E+02  0.00000000000E+00 0. -1.
         -5    1    5    5    0  502  0.47789640988E+02  0.29545124108E+02  0.23278292994E+02  0.60997812002E+02  0.47000000000E+01 0.  1.
         13    1    6    6    0    0  0.53661231113E+01  0.36975937132E+01 -0.46190055765E+01  0.79876585448E+01  0.00000000000E+00 0. -1.
        -14    1    6    6    0    0 -0.96007689058E+02 -0.24432602276E+02  0.11804474281E+03  0.15410707225E+03  0.00000000000E+00 0.  1.
</event>
<event>
12    1  0.8494789E-002  0.2210165E+03  0.7818608E-02  0.1133239E+00
         21   -1    0    0  503  502  0.00000000000E+00  0.00000000000E+00  0.22232218502E+04  0.22232218502E+04  0.00000000000E+00 0. -1.
         21   -1    0    0  501  503 -0.00000000000E+00 -0.00000000000E+00 -0.80181692062E+02  0.80181692062E+02  0.00000000000E+00 0. -1.
          6    2    1    2  501    0  0.92472197434E+02 -0.10272049575E+03  0.90118637563E+02  0.23868316724E+03  0.17246935363E+03 0.  0.
         24    2    3    3    0    0  0.87965613770E+02 -0.12971465913E+02  0.86891038770E+02  0.14864037160E+03  0.81472076909E+02 0.  0.
         -6    2    1    2    0  502 -0.92472197434E+02  0.10272049575E+03  0.20529215205E+04  0.20647203750E+04  0.17169988311E+03 0.  0.
        -24    2    5    5    0    0  0.36091787566E+01  0.77759052175E+02  0.76817150817E+03  0.77613223722E+03  0.78957503276E+02 0.  0.
          5    1    3    3  501    0  0.45065836638E+01 -0.89749029835E+02  0.32275987926E+01  0.90042795640E+02  0.47000000000E+01 0. -1.
        -11    1    4    4    0    0  0.20891249506E+02  0.22732231336E+02 -0.29039324147E+01  0.31010183342E+02  0.00000000000E+00 0.  1.
         12    1    4    4    0    0  0.67074364264E+02 -0.35703697249E+02  0.89794971185E+02  0.11763018825E+03  0.00000000000E+00 0. -1.
         -5    1    5    5    0  502 -0.96081376190E+02  0.24961443574E+02  0.12847500124E+04  0.12885881378E+04  0.47000000000E+01 0.  1.
         11    1    6    6    0    0 -0.77866625319E+01  0.15560669958E+02  0.51116358730E+03  0.51145965583E+03  0.00000000000E+00 0. -1.
        -12    1    6    6    0    0  0.11395841289E+02  0.62198382217E+02  0.25700792087E+03  0.26467258139E+03  0.00000000000E+00 0.  1.
</event>
<event>
12    1  0.8494789E-002  0.2408671E+03  0.7818608E-02  0.1120308E+00
         21   -1    0    0  501  502  0.00000000000E+00  0.00000000000E+00  0.95605107823E+03  0.95605107823E+03  0.00000000000E+00 0. -1.
         21   -1    0    0  502  503 -0.00000000000E+00 -0.00000000000E+00 -0.59778963297E+02  0.59778963297E+02  0.00000000000E+00 0. -1.
         -6    2    1    2    0  503  0.93003640368E+02 -0.13861168883E+03  0.38640595908E+03  0.45193248090E+03  0.16453122706E+03 0.  0.
        -24    2    3    3    0    0  0.90564910451E+02 -0.16447928699E+03  0.36604978111E+03  0.41859265457E+03  0.77278259274E+02 0.  0.
          6    2    1    2  501    0 -0.93003640368E+02  0.13861168883E+03  0.50986615585E+03  0.56389756062E+03  0.17364931498E+03 0.  0.
         24    2    5    5    0    0  0.16081349631E+02  0.84798010716E+02  0.32257782965E+03  0.34052689530E+03  0.66729287541E+02 0.  0.
          5    1    5    5  501    0 -0.10908499000E+03  0.53813678111E+02  0.18728832620E+03  0.22337066532E+03  0.47000000000E+01 0. -1.
        -13    1    6    6    0    0  0.14671652994E+02  0.96346181393E+02  0.28926667479E+03  0.30524261370E+03  0.00000000000E+00 0.  1.
         14    1    6    6    0    0  0.14096966368E+01 -0.11548170677E+02  0.33311154853E+02  0.35284281603E+02  0.00000000000E+00 0. -1.
         -5    1    3    3    0  503  0.24387299171E+01  0.25867598161E+02  0.20356177972E+02  0.33339826332E+02  0.47000000000E+01 0.  1.
         11    1    4    4    0    0 -0.89358232429E+01 -0.50732957835E+02  0.10495489186E+03  0.11691540220E+03  0.00000000000E+00 0. -1.
        -12    1    4    4    0    0  0.99500733694E+02 -0.11374632915E+03  0.26109488925E+03  0.30167725237E+03  0.00000000000E+00 0.  1.
</event>
<event>
12    1  0.8494789E-002  0.2107319E+03  0.7818608E-02  0.1141169E+00
         21   -1    0    0  501  502  0.00000000000E+00  0.00000000000E+00  0.63706141939E+03  0.63706141939E+03  0.00000000000E+00 0. -1.
         21   -1    0    0  502  503 -0.00000000000E+00 -0.00000000000E+00 -0.98837116556E+02  0.98837116556E+02  0.00000000000E+00 0. -1.
         -6    2    1    2    0  503  0.79299785494E+02 -0.90048219695E+02  0.68733822460E+02  0.22165802538E+03  0.17323626646E+03 0.  0.
        -24    2    3    3    0    0  0.10194502024E+03 -0.51172396515E+02  0.11153024582E+02  0.14843388613E+03  0.94322994433E+02 0.  0.
          6    2    1    2  501    0 -0.79299785494E+02  0.90048219695E+02  0.46949048038E+03  0.51424051057E+03  0.17211871977E+03 0.  0.
         24    2    5    5    0    0 -0.46561334433E+02 -0.20491679626E+02  0.23203695810E+03  0.25023835005E+03  0.78677920098E+02 0.  0.
          5    1    5    5  501    0 -0.32738451061E+02  0.11053989932E+03  0.23745352228E+03  0.26400216052E+03  0.47000000000E+01 0. -1.
        -11    1    6    6    0    0  0.42714016222E+01  0.63157133322E+01 -0.30627823890E+01  0.82166746726E+01  0.00000000000E+00 0.  1.
         12    1    6    6    0    0 -0.50832736056E+02 -0.26807392958E+02  0.23509974049E+03  0.24202167537E+03  0.00000000000E+00 0. -1.
         -5    1    3    3    0  503 -0.22645234742E+02 -0.38875823180E+02  0.57580797878E+02  0.73224139248E+02  0.47000000000E+01 0.  1.
         13    1    4    4    0    0  0.82037749160E+02  0.71167565936E+01 -0.10784434573E+02  0.83049049005E+02  0.00000000000E+00 0. -1.
        -14    1    4    4    0    0  0.19907271076E+02 -0.58289153109E+02  0.21937459155E+02  0.65384837126E+02  0.00000000000E+00 0.  1.
</event>
<event>
12    1  0.8494789E-002  0.3061816E+03  0.7818608E-02  0.1082306E+00
         21   -1    0    0  503  502  0.00000000000E+00  0.00000000000E+00  0.39393494408E+03  0.39393494408E+03  0.00000000000E+00 0.  1.
         21   -1    0    0  501  503 -0.00000000000E+00 -0.00000000000E+00 -0.55743813428E+03  0.55743813428E+03  0.00000000000E+00 0.  1.
          6    2    1    2  501    0  0.18918894165E+03 -0.16967283067E+03 -0.44221771992E+03  0.53733326540E+03  0.16908341484E+03 0.  0.
         24    2    3    3    0    0  0.11835670963E+03 -0.69781125102E+02 -0.34834366130E+03  0.38296362195E+03  0.80250316108E+02 0.  0.
         -6    2    1    2    0  502 -0.18918894165E+03  0.16967283067E+03  0.27871452973E+03  0.41403981296E+03  0.17078012918E+03 0.  0.
        -24    2    5    5    0    0 -0.17333365672E+03  0.14734495026E+03  0.15407758309E+03  0.28634336520E+03  0.80607259375E+02 0.  0.
          5    1    3    3  501    0  0.70832232026E+02 -0.99891705571E+02 -0.93874058627E+02  0.15436964345E+03  0.47000000000E+01 0. -1.
        -13    1    4    4    0    0  0.81990803776E+02 -0.56820433345E+02 -0.14507964001E+03  0.17606577036E+03  0.00000000000E+00 0.  1.
         14    1    4    4    0    0  0.36365905852E+02 -0.12960691758E+02 -0.20326402129E+03  0.20689785158E+03  0.00000000000E+00 0. -1.
         -5    1    5    5    0  502 -0.15855284936E+02  0.22327880411E+02  0.12463694663E+03  0.12769644776E+03  0.47000000000E+01 0.  1.
         11    1    6    6    0    0 -0.47430090656E+02  0.84247890359E+02  0.38147896427E+02  0.10393547292E+03  0.00000000000E+00 0. -1.
        -12    1    6    6    0    0 -0.12590356606E+03  0.63097059903E+02  0.11592968667E+03  0.18240789228E+03  0.00000000000E+00 0.  1.
</event>
<event>
12    1  0.8494789E-002  0.1946420E+03  0.7818608E-02  0.1154635E+00
         21   -1    0    0  501  502  0.00000000000E+00  0.00000000000E+00  0.63171775697E+02  0.63171775697E+02  0.00000000000E+00 0.  1.
         21   -1    0    0  502  503 -0.00000000000E+00 -0.00000000000E+00 -0.10892308702E+04  0.10892308702E+04  0.00000000000E+00 0.  1.
         -6    2    1    2    0  503 -0.51719881114E+02 -0.73537771747E+02 -0.89995892972E+03  0.92048295780E+03  0.17111414447E+03 0.  0.
        -24    2    3    3    0    0 -0.99290993085E+02 -0.66274174324E+02 -0.62935778426E+03  0.64559599837E+03  0.80324373679E+02 0.  0.
          6    2    1    2  501    0  0.51719881114E+02  0.73537771747E+02 -0.12610016475E+03  0.23191968807E+03  0.17263470157E+03 0.  0.
         24    2    5    5    0    0  0.62774654071E+02  0.68333123332E+02 -0.18624755010E+02  0.12364988586E+03  0.79576000380E+02 0.  0.
          5    1    5    5  501    0 -0.11054772957E+02  0.52046484147E+01 -0.10747540974E+03  0.10826980221E+03  0.47000000000E+01 0. -1.
        -11    1    6    6    0    0  0.71655191656E+02  0.29573687074E+02  0.45038312202E+01  0.77648914700E+02  0.00000000000E+00 0.  1.
         12    1    6    6    0    0 -0.88805375852E+01  0.38759436258E+02 -0.23128586230E+02  0.46000971162E+02  0.00000000000E+00 0. -1.
         -5    1    3    3    0  503  0.47571111971E+02 -0.72635974233E+01 -0.27060114546E+03  0.27488695943E+03  0.47000000000E+01 0.  1.
         11    1    4    4    0    0  0.11889045972E+01  0.10916589744E+02 -0.12817534888E+03  0.12864488131E+03  0.00000000000E+00 0. -1.
        -12    1    4    4    0    0 -0.10047989768E+03 -0.77190764068E+02 -0.50118243538E+03  0.51695111706E+03  0.00000000000E+00 0.  1.
</event>
<event>
12    1  0.8494789E-002  0.1835522E+03  0.7818608E-02  0.1165422E+00
         21   -1    0    0  501  502  0.00000000000E+00  0.00000000000E+00  0.26687325105E+03  0.26687325105E+03  0.00000000000E+00 0. -1.
         21   -1    0    0  502  503 -0.00000000000E+00 -0.00000000000E+00 -0.12710018089E+03  0.12710018089E+03  0.00000000000E+00 0. -1.
         -6    2    1    2    0  503 -0.59622427109E+02  0.21151462495E+02  0.10295482364E+03  0.20676500261E+03  0.16777917753E+03 0.  0.
        -24    2    3    3    0    0 -0.31858419192E+02  0.59040575986E+02  0.12943273868E+02  0.10512547216E+03  0.79894230538E+02 0.  0.
          6    2    1    2  501    0  0.59622427109E+02 -0.21151462495E+02  0.36818246521E+02  0.18720842933E+03  0.17230552677E+03 0.  0.
         24    2    5    5    0    0  0.57651384747E+02 -0.28093517887E+02  0.88192517577E+02  0.13511732772E+03  0.79786240556E+02 0.  0.
          5    1    5    5  501    0  0.19710423623E+01  0.69420553917E+01 -0.51374271055E+02  0.52091101616E+02  0.47000000000E+01 0. -1.
        -13    1    6    6    0    0  0.12320841613E+02  0.27314528362E+02  0.34070064446E+02  0.45372413304E+02  0.00000000000E+00 0.  1.
         14    1    6    6    0    0  0.45330543134E+02 -0.55408046249E+02  0.54122453131E+02  0.89744914412E+02  0.00000000000E+00 0. -1.
         -5    1    3    3    0  503 -0.27764007917E+02 -0.37889113491E+02  0.90011549775E+02  0.10163953045E+03  0.47000000000E+01 0.  1.
         11    1    4    4    0    0  0.12467428112E+02 -0.84670295122E+01  0.18869311083E+02  0.24149083901E+02  0.00000000000E+00 0. -1.
        -12    1    4    4    0    0 -0.44325847303E+02  0.67507605498E+02 -0.59260372148E+01  0.80976388264E+02  0.00000000000E+00 0.  1.
</event>
<event>
12    1  0.8494789E-002  0.2001506E+03  0.7818608E-02  0.1149664E+00
         21   -1    0    0  501  502  0.00000000000E+00  0.00000000000E+00  0.69245886098E+02  0.69245886098E+02  0.00000000000E+00 0.  1.
         21   -1    0    0  502  503 -0.00000000000E+00 -0.00000000000E+00 -0.60878200064E+03  0.60878200064E+03  0.00000000000E+00 0.  1.
         -6    2    1    2    0  503 -0.72616752104E+02 -0.72655391224E+02 -0.34639807585E+03  0.40006486878E+03  0.17177972442E+03 0.  0.
        -24    2    3    3    0    0 -0.25236418300E+02 -0.80896449107E+02 -0.32767643700E+03  0.34824401557E+03  0.81981307185E+02 0.  0.
          6    2    1    2  501    0  0.72616752104E+02  0.72655391224E+02 -0.19313803870E+03  0.27796301796E+03  0.17149092921E+03 0.  0.
         24    2    5    5    0    0  0.98048402582E+01  0.33900794749E+02 -0.21461863141E+02  0.91035079244E+02  0.81125676000E+02 0.  0.
          5    1    5    5  501    0  0.62811911846E+02  0.38754596476E+02 -0.17167617556E+03  0.18692793871E+03  0.47000000000E+01 0. -1.
        -11    1    6    6    0    0 -0.26719592754E+02 -0.41895274031E+01 -0.26698189339E+02  0.38003711540E+02  0.00000000000E+00 0.  1.
         12    1    6    6    0    0  0.36524433013E+02  0.38090322152E+02  0.52363261985E+01  0.53031367704E+02  0.00000000000E+00 0. -1.
         -5    1    3    3    0  503 -0.47380333804E+02  0.82410578828E+01 -0.18721638843E+02  0.51820853210E+02  0.47000000000E+01 0.  1.
         11    1    4    4    0    0 -0.46435945773E+02 -0.31925300917E+02 -0.10395220610E+03  0.11824374424E+03  0.00000000000E+00 0. -1.
        -12    1    4    4    0    0  0.21199527473E+02 -0.48971148190E+02 -0.22372423091E+03  0.23000027134E+03  0.00000000000E+00 0.  1.
</event>
<event>
12    1  0.8494789E-002  0.2099461E+03  0.7818608E-02  0.1141966E+00
         21   -1    0    0  503  502  0.00000000000E+00  0.00000000000E+00  0.14401833461E+03  0.14401833461E+03  0.00000000000E+00 0. -1.
         21   -1    0    0  501  503 -0.00000000000E+00 -0.00000000000E+00 -0.30345348832E+03  0.30345348832E+03  0.00000000000E+00 0.  1.
          6    2    1    2  501    0 -0.11924436906E+03  0.27688472698E+01 -0.81615243326E+02  0.22525189567E+03  0.17277292176E+03 0.  0.
         24    2    3    3    0    0 -0.11422231559E+03 -0.55911917054E+02 -0.51850466511E+02  0.15909537625E+03  0.80311817440E+02 0.  0.
         -6    2    1    2    0  502  0.11924436906E+03 -0.27688472698E+01 -0.77819910390E+02  0.22221992726E+03  0.17058391352E+03 0.  0.
        -24    2    5    5    0    0  0.27857623355E+02 -0.54646395610E+02 -0.48771641594E+02  0.11309289471E+03  0.81541732131E+02 0.  0.
          5    1    3    3  501    0 -0.50220534703E+01  0.58680764324E+02 -0.29764776815E+02  0.66156519418E+02  0.47000000000E+01 0. -1.
        -11    1    4    4    0    0 -0.35195028613E+02 -0.58819705836E+02 -0.39337044093E+02  0.79030695756E+02  0.00000000000E+00 0.  1.
         12    1    4    4    0    0 -0.79027286978E+02  0.29077887817E+01 -0.12513422418E+02  0.80064680498E+02  0.00000000000E+00 0. -1.
         -5    1    5    5    0  502  0.91386745706E+02  0.51877548340E+02 -0.29048268796E+02  0.10912703255E+03  0.47000000000E+01 0.  1.
         13    1    6    6    0    0  0.38148503068E+02 -0.25713103331E+02  0.97284489912E+01  0.47022491311E+02  0.00000000000E+00 0. -1.
        -14    1    6    6    0    0 -0.10290879714E+02 -0.28933292279E+02 -0.58500090586E+02  0.66070403403E+02  0.00000000000E+00 0.  1.
</event>
<event>
12    1  0.8494789E-002  0.2535915E+03  0.7818608E-02  0.1111311E+00
         21   -1    0    0  501  502  0.00000000000E+00  0.00000000000E+00  0.12656181981E+04  0.12656181981E+04  0.00000000000E+00 0.  1.
         21   -1    0    0  502  503 -0.00000000000E+00 -0.00000000000E+00 -0.53821324346E+02  0.53821324346E+02  0.00000000000E+00 0.  1.
         -6    2    1    2    0  503  0.16096051289E+03 -0.94472155371E+02  0.44347630747E+03  0.51086192748E+03  0.17168400861E+03 0.  0.
        -24    2    3    3    0    0  0.10175786682E+03 -0.17084831259E+02  0.35849613778E+03  0.38148855126E+03  0.79796485003E+02 0.  0.
          6    2    1    2  501    0 -0.16096051289E+03  0.94472155371E+02  0.76832056628E+03  0.80857759496E+03  0.16925708155E+03 0.  0.
         24    2    5    5    0    0 -0.78897012788E+02 -0.17233639076E+02  0.37155164631E+03  0.38826786581E+03  0.78610258905E+02 0.  0.
          5    1    5    5  501    0 -0.82063500101E+02  0.11170579445E+03  0.39676891997E+03  0.42030972914E+03  0.47000000000E+01 0. -1.
        -13    1    6    6    0    0 -0.49105027434E+02  0.28084551501E+02  0.22502557427E+03  0.23202705624E+03  0.00000000000E+00 0.  1.
         14    1    6    6    0    0 -0.29791985354E+02 -0.45318190576E+02  0.14652607204E+03  0.15624080957E+03  0.00000000000E+00 0. -1.
         -5    1    3    3    0  503  0.59202646071E+02 -0.77387324112E+02  0.84980169691E+02  0.12937337622E+03  0.47000000000E+01 0.  1.
         11    1    4    4    0    0 -0.10936380949E+02 -0.14722434872E+01  0.10001366139E+02  0.14892926300E+02  0.00000000000E+00 0. -1.
        -12    1    4    4    0    0  0.11269424777E+03 -0.15612587772E+02  0.34849477164E+03  0.36659562496E+03  0.00000000000E+00 0.  1.
</event>
<event>
12    1  0.8494789E-002  0.2481345E+03  0.7818608E-02  0.1114813E+00
         21   -1    0    0  503  502  0.00000000000E+00  0.00000000000E+00  0.22739891348E+04  0.22739891348E+04  0.00000000000E+00 0. -1.
         21   -1    0    0  501  503 -0.00000000000E+00 -0.00000000000E+00 -0.77653140609E+02  0.77653140609E+02  0.00000000000E+00 0.  1.
          6    2    1    2  501    0 -0.31613248151E+02  0.17366354723E+03  0.14872207496E+03  0.28929044511E+03  0.17439117225E+03 0.  0.
         24    2    3    3    0    0 -0.42199031794E+02  0.16080666275E+03  0.52077230032E+02  0.19110860186E+03  0.78555195552E+02 0.  0.
         -6    2    1    2    0  502  0.31613248151E+02 -0.17366354723E+03  0.20476139192E+04  0.20623518303E+04  0.17150476552E+03 0.  0.
        -24    2    5    5    0    0  0.83817173065E+02 -0.10500980078E+03  0.11597675893E+04  0.11703138365E+04  0.80754183264E+02 0.  0.
          5    1    3    3  501    0  0.10585783643E+02  0.12856884482E+02  0.96644844925E+02  0.98181843253E+02  0.47000000000E+01 0. -1.
        -13    1    4    4    0    0 -0.52943626131E+02  0.79821692420E+02  0.52877504971E+02  0.10941005740E+03  0.00000000000E+00 0.  1.
         14    1    4    4    0    0  0.10744594337E+02  0.80984970327E+02 -0.80027493861E+00  0.81698544456E+02  0.00000000000E+00 0. -1.
         -5    1    5    5    0  502 -0.52203924914E+02 -0.68653746453E+02  0.88784632993E+03  0.89203799372E+03  0.47000000000E+01 0.  1.
         13    1    6    6    0    0  0.45481124635E+01 -0.71053651512E+01  0.40635156865E+03  0.40643913307E+03  0.00000000000E+00 0. -1.
        -14    1    6    6    0    0  0.79269060601E+02 -0.97904435625E+02  0.75341602061E+03  0.76387470347E+03  0.00000000000E+00 0.  1.
</event>
<event>
12    1  0.8494789E-002  0.1741604E+03  0.7818608E-02  0.1174054E+00
         21   -1    0    0  503  502  0.00000000000E+00  0.00000000000E+00  0.48372599160E+03  0.48372599160E+03  0.00000000000E+00 0.  1.
         21   -1    0    0  501  503 -0.00000000000E+00 -0.00000000000E+00 -0.85051874535E+02  0.85051874535E+02  0.00000000000E+00 0.  1.
          6    2    1    2  501    0 -0.19385462452E+02 -0.10657231312E+02  0.52170788063E+02  0.18180661380E+03  0.17274976399E+03 0.  0.
         24    2    3    3    0    0 -0.55435451423E+02  0.49092077699E+01  0.86079625386E+02  0.12971232448E+03  0.79488336381E+02 0.  0.
         -6    2    1    2    0  502  0.19385462452E+02  0.10657231312E+02  0.34650332900E+03  0.38697125234E+03  0.17085906588E+03 0.  0.
        -24    2    5    5    0    0 -0.41928932186E+02 -0.25961821628E+02  0.15357093668E+03  0.18119125322E+03  0.82548083659E+02 0.  0.
          5    1    3    3  501    0  0.36049988971E+02 -0.15566439082E+02 -0.33908837323E+02  0.52094289314E+02  0.47000000000E+01 0. -1.
        -13    1    4    4    0    0  0.15119309464E+02 -0.77010604800E+01 -0.91904906607E+00  0.16992483702E+02  0.00000000000E+00 0.  1.
         14    1    4    4    0    0 -0.70554760887E+02  0.12610268250E+02  0.86998674452E+02  0.11271984078E+03  0.00000000000E+00 0. -1.
         -5    1    5    5    0  502  0.61314394638E+02  0.36619052940E+02  0.19293239233E+03  0.20577999912E+03  0.47000000000E+01 0.  1.
         13    1    6    6    0    0 -0.29038954070E+02  0.21871227410E+02  0.27038306606E+02  0.45306527852E+02  0.00000000000E+00 0. -1.
        -14    1    6    6    0    0 -0.12889978116E+02 -0.47833049038E+02  0.12653263007E+03  0.13588472537E+03  0.00000000000E+00 0.  1.
</event>
<event>
12    1  0.8494789E-002  0.2090521E+03  0.7818608E-02  0.1143391E+00
         21   -1    0    0  503  502  0.00000000000E+00  0.00000000000E+00  0.17514029741E+03  0.17514029741E+03  0.00000000000E+00 0. -1.
         21   -1    0    0  501  503 -0.00000000000E+00 -0.00000000000E+00 -0.31112642229E+03  0.31112642229E+03  0.00000000000E+00 0. -1.
          6    2    1    2  501    0  0.68553378794E+02  0.85183979460E+02 -0.18224921059E+03  0.27734011707E+03  0.17817656881E+03 0.  0.
         24    2    3    3    0    0  0.33456407312E+01  0.18510289538E+02 -0.97409089112E+01  0.81180401073E+02  0.78368029714E+02 0.  0.
         -6    2    1    2    0  502 -0.68553378794E+02 -0.85183979460E+02  0.46263085709E+02  0.20892660264E+03  0.17191328072E+03 0.  0.
        -24    2    5    5    0    0 -0.98198415998E+02 -0.88744527579E+02  0.69703003829E+02  0.17067708636E+03  0.82180526810E+02 0.  0.
          5    1    3    3  501    0  0.65207738063E+02  0.66673689922E+02 -0.17250830168E+03  0.19615971599E+03  0.47000000000E+01 0. -1.
        -13    1    4    4    0    0  0.29455375428E+01 -0.19479161559E+02 -0.31682385351E+02  0.37308008095E+02  0.00000000000E+00 0.  1.
         14    1    4    4    0    0  0.40010318839E+00  0.37989451098E+02  0.21941476440E+02  0.43872392978E+02  0.00000000000E+00 0. -1.
         -5    1    5    5    0  502  0.29645037204E+02  0.35605481181E+01 -0.23439918120E+02  0.38249516274E+02  0.47000000000E+01 0.  1.
         13    1    6    6    0    0 -0.50543906245E+02 -0.90815377142E+02  0.28821085992E+02  0.10785533914E+03  0.00000000000E+00 0. -1.
        -14    1    6    6    0    0 -0.47654509753E+02  0.20708495632E+01  0.40881917836E+02  0.62821747219E+02  0.00000000000E+00 0.  1.
</event>
<event>
12    1  0.8494789E-002  0.1971533E+03  0.7818608E-02  0.1152202E+00
         21   -1    0    0  501  502  0.00000000000E+00  0.00000000000E+00  0.11036645068E+03  0.11036645068E+03  0.00000000000E+00 0.  1.
         21   -1    0    0  502  503 -0.00000000000E+00 -0.00000000000E+00 -0.35649026345E+03  0.35649026345E+03  0.00000000000E+00 0.  1.
         -6    2    1    2    0  503  0.38540088806E+02 -0.89334973135E+02 -0.14960503346E+03  0.24734524822E+03  0.17126567056E+03 0.  0.
        -24    2    3    3    0    0  0.58666545241E+01 -0.79337930414E+02 -0.16941153719E+02  0.11027122020E+03  0.74456796044E+02 0.  0.
          6    2    1    2  501    0 -0.38540088806E+02  0.89334973135E+02 -0.96518779313E+02  0.21951146591E+03  0.17147400105E+03 0.  0.
         24    2    5    5    0    0 -0.88918277300E+02  0.80761117640E+02 -0.57787883079E+02  0.15521803548E+03  0.79525976550E+02 0.  0.
          5    1    5    5  501    0  0.50378188494E+02  0.85738554950E+01 -0.38730896234E+02  0.64293430434E+02  0.47000000000E+01 0. -1.
        -13    1    6    6    0    0 -0.79005666088E+01  0.45895934834E+02  0.51630184206E+01  0.46856296762E+02  0.00000000000E+00 0.  1.
         14    1    6    6    0    0 -0.81017710691E+02  0.34865182806E+02 -0.62950901500E+02  0.10836173872E+03  0.00000000000E+00 0. -1.
         -5    1    3    3    0  503  0.32673434282E+02 -0.99970427206E+01 -0.13266387974E+03  0.13707402802E+03  0.47000000000E+01 0.  1.
         11    1    4    4    0    0 -0.33111526786E+02 -0.22706468552E+02 -0.44261415162E+01  0.40392420687E+02  0.00000000000E+00 0. -1.
        -12    1    4    4    0    0  0.38978181310E+02 -0.56631461862E+02 -0.12515012203E+02  0.69878799512E+02  0.00000000000E+00 0.  1.
</event>
<event>
12    1  0.8494789E-002  0.2019639E+03  0.7818608E-02  0.1148646E+00
         21   -1    0    0  503  502  0.00000000000E+00  0.00000000000E+00  0.11453542102E+03  0.11453542102E+03  0.00000000000E+00 0. -1.
         21   -1    0    0  501  503 -0.00000000000E+00 -0.00000000000E+00 -0.38993151814E+03  0.38993151814E+03  0.00000000000E+00 0. -1.
          6    2    1    2  501    0  0.82086374842E+02 -0.76126579120E+02 -0.21607340843E+03  0.29397087185E+03  0.16491733287E+03 0.  0.
         24    2    3    3    0    0  0.42001656369E+02 -0.32947542717E+02 -0.21427611355E+03  0.23483937340E+03  0.79909941522E+02 0.  0.
         -6    2    1    2    0  502 -0.82086374842E+02  0.76126579120E+02 -0.59322688690E+02  0.21049606732E+03  0.16809516346E+03 0.  0.
        -24    2    5    5    0    0  0.36740194392E+01  0.81096281408E+02 -0.46641584311E+02  0.12353375608E+03  0.80591849625E+02 0.  0.
          5    1    3    3  501    0  0.40084718472E+02 -0.43179036403E+02 -0.17972948822E+01  0.59131498447E+02  0.47000000000E+01 0. -1.
        -11    1    4    4    0    0 -0.16233875870E+02  0.70764307938E+01 -0.14351755765E+02  0.22794461873E+02  0.00000000000E+00 0.  1.
         12    1    4    4    0    0  0.58235532239E+02 -0.40023973511E+02 -0.19992435778E+03  0.21204491153E+03  0.00000000000E+00 0. -1.
         -5    1    5    5    0  502 -0.85760394281E+02 -0.49697022885E+01 -0.12681104379E+02  0.86962311240E+02  0.47000000000E+01 0.  1.
         13    1    6    6    0    0 -0.15319519774E+02  0.28427435478E+02 -0.58019119360E+02  0.66400489345E+02  0.00000000000E+00 0. -1.
        -14    1    6    6    0    0  0.18993539213E+02  0.52668845931E+02  0.11377535049E+02  0.57133266730E+02  0.00000000000E+00 0.  1.
</event>
<event>
12    1  0.8494789E-002  0.1851514E+03  0.7818608E-02  0.1163412E+00
         21   -1    0    0  501  502  0.00000000000E+00  0.00000000000E+00  0.14349929033E+03  0.14349929033E+03  0.00000000000E+00 0.  1.
         21   -1    0    0  502  503 -0.00000000000E+00 -0.00000000000E+00 -0.62060036894E+03  0.62060036894E+03  0.00000000000E+00 0. -1.
         -6    2    1    2    0  503 -0.38607805366E+02 -0.54659815986E+02 -0.53872625480E+03  0.56896202631E+03  0.17033364802E+03 0.  0.
        -24    2    3    3    0    0 -0.32077983536E+02 -0.60128364724E+02 -0.15852250281E+03  0.18863384351E+03  0.76216308947E+02 0.  0.
          6    2    1    2  501    0  0.38607805366E+02  0.54659815986E+02  0.61625176190E+02  0.19513763295E+03  0.17263480337E+03 0.  0.
         24    2    5    5    0    0  0.45059638146E+02  0.95008933145E+02  0.15288253077E+02  0.13317895442E+03  0.80285956753E+02 0.  0.
          5    1    5    5  501    0 -0.64518327801E+01 -0.40349117159E+02  0.46336923113E+02  0.61958678531E+02  0.47000000000E+01 0. -1.
        -11    1    6    6    0    0  0.16749308317E+02  0.11088156944E+02  0.36899914801E+02  0.42012977350E+02  0.00000000000E+00 0.  1.
         12    1    6    6    0    0  0.28310329830E+02  0.83920776201E+02 -0.21611661724E+02  0.91165977073E+02  0.00000000000E+00 0. -1.
         -5    1    3    3    0  503 -0.65298218296E+01  0.54685487376E+01 -0.38020375200E+03  0.38032818280E+03  0.47000000000E+01 0.  1.
         11    1    4    4    0    0 -0.41859422993E+02 -0.62239092721E+02 -0.16160511310E+03  0.17816320758E+03  0.00000000000E+00 0. -1.
        -12    1    4    4    0    0  0.97814394563E+01  0.21107279975E+01  0.30826102934E+01  0.10470635928E+02  0.00000000000E+00 0.  1.
</event>
<event>
12    1  0.8494789E-002  0.2021013E+03  0.7818608E-02  0.1148094E+00
         21   -1    0    0  501  502  0.00000000000E+00  0.00000000000E+00  0.11932925033E+03  0.11932925033E+03  0.00000000000E+00 0. -1.
         21   -1    0    0  502  503 -0.00000000000E+00 -0.00000000000E+00 -0.39910938209E+03  0.39910938209E+03  0.00000000000E+00 0. -1.
         -6    2    1    2    0  503  0.47927575620E+02  0.93818102268E+02 -0.23833804743E+03  0.31213214948E+03  0.17182131726E+03 0.  0.
        -24    2    3    3    0    0  0.26999807215E+02  0.13193712506E+03 -0.21435297342E+03  0.26224823259E+03  0.68487544265E+02 0.  0.
          6    2    1    2  501    0 -0.47927575620E+02 -0.93818102268E+02 -0.41442084331E+02  0.20630648294E+03  0.17247037349E+03 0.  0.
         24    2    5    5    0    0 -0.98241308609E+02 -0.72737715062E+02 -0.16112341141E+02  0.14597787992E+03  0.78152440650E+02 0.  0.
          5    1    5    5  501    0  0.50313732989E+02 -0.21080387206E+02 -0.25329743190E+02  0.60328603018E+02  0.47000000000E+01 0. -1.
        -11    1    6    6    0    0 -0.85229112803E+02 -0.23595563408E+02 -0.29818615822E+02  0.93326856431E+02  0.00000000000E+00 0.  1.
         12    1    6    6    0    0 -0.13012195805E+02 -0.49142151654E+02  0.13706274681E+02  0.52651023489E+02  0.00000000000E+00 0. -1.
         -5    1    3    3    0  503  0.20927768404E+02 -0.38119022796E+02 -0.23985074013E+02  0.49883916894E+02  0.47000000000E+01 0.  1.
         11    1    4    4    0    0 -0.15252243946E+02  0.60413581816E+01 -0.12479093984E+02  0.20612053288E+02  0.00000000000E+00 0. -1.
        -12    1    4    4    0    0  0.42252051161E+02  0.12589576688E+03 -0.20187387944E+03  0.24163617930E+03  0.00000000000E+00 0.  1.
</event>
<event>
12    1  0.8494789E-002  0.2483689E+03  0.7818608E-02  0.1115004E+00
         21   -1    0    0  501  502  0.00000000000E+00  0.00000000000E+00  0.41413374139E+03  0.41413374139E+03  0.00000000000E+00 0. -1.
         21   -1    0    0  502  503 -0.00000000000E+00 -0.00000000000E+00 -0.16389673312E+03  0.16389673312E+03  0.00000000000E+00 0. -1.
         -6    2    1    2    0  503 -0.16506497574E+03 -0.50448349922E+02  0.31861913532E+02  0.25040429654E+03  0.17859352722E+03 0.  0.
        -24    2    3    3    0    0 -0.10908013748E+03 -0.67178370272E+02 -0.44366353329E+02  0.15424279507E+03  0.73559885118E+02 0.  0.
          6    2    1    2  501    0  0.16506497574E+03  0.50448349922E+02  0.21837509474E+03  0.32762617797E+03  0.17279973456E+03 0.  0.
         24    2    5    5    0    0  0.19056439492E+03  0.60516877338E+02  0.18440218749E+03  0.28371895704E+03  0.80716781265E+02 0.  0.
          5    1    5    5  501    0 -0.25499419182E+02 -0.10068527416E+02  0.33972907246E+02  0.43907220929E+02  0.47000000000E+01 0. -1.
        -13    1    6    6    0    0  0.37657736134E+02  0.47144767632E+02  0.36239839094E+02  0.70385084666E+02  0.00000000000E+00 0.  1.
         14    1    6    6    0    0  0.15290665879E+03  0.13372109705E+02  0.14816234840E+03  0.21333387238E+03  0.00000000000E+00 0. -1.
         -5    1    3    3    0  503 -0.55984838261E+02  0.16730020350E+02  0.76228266861E+02  0.96161501468E+02  0.47000000000E+01 0.  1.
         13    1    4    4    0    0 -0.10051879756E+03 -0.76535141627E+02 -0.21586337013E+02  0.12817030277E+03  0.00000000000E+00 0. -1.
        -14    1    4    4    0    0 -0.85613399235E+01  0.93567713556E+01 -0.22780016316E+02  0.26072492302E+02  0.00000000000E+00 0.  1.
</event>
<event>
12    1  0.8494789E-002  0.4688958E+03  0.7818608E-02  0.1022340E+00
         21   -1    0    0  501  502  0.00000000000E+00  0.00000000000E+00  0.10112562394E+03  0.10112562394E+03  0.00000000000E+00 0.  1.
         21   -1    0    0  502  503 -0.00000000000E+00 -0.00000000000E+00 -0.21697124676E+04  0.21697124676E+04  0.00000000000E+00 0. -1.
         -6    2    1    2    0  503 -0.27627857716E+03 -0.33551220948E+03 -0.99690391562E+03  0.11016717733E+04  0.17596870246E+03 0.  0.
        -24    2    3    3    0    0 -0.42246687886E+02 -0.99680464481E+02 -0.24342147288E+03  0.27817592108E+03  0.80042813363E+02 0.  0.
          6    2    1    2  501    0  0.27627857716E+03  0.33551220948E+03 -0.10716829281E+04  0.11691663183E+04  0.17189324160E+03 0.  0.
         24    2    5    5    0    0  0.21598868401E+03  0.15880985726E+03 -0.68883472824E+03  0.74319281366E+03  0.77269612854E+02 0.  0.
          5    1    5    5  501    0  0.60289893152E+02  0.17670235222E+03 -0.38284819986E+03  0.42597350461E+03  0.47000000000E+01 0. -1.
        -13    1    6    6    0    0  0.11057361909E+02 -0.25133887011E+01 -0.80668775127E+02  0.81461853991E+02  0.00000000000E+00 0.  1.
         14    1    6    6    0    0  0.20493132210E+03  0.16132324596E+03 -0.60816595311E+03  0.66173095967E+03  0.00000000000E+00 0. -1.
         -5    1    3    3    0  503 -0.23403188927E+03 -0.23583174500E+03 -0.75348244273E+03  0.82349585224E+03  0.47000000000E+01 0.  1.
         13    1    4    4    0    0 -0.58077633708E+02 -0.48023098933E+02 -0.10226607250E+03  0.12703377170E+03  0.00000000000E+00 0. -1.
        -14    1    4    4    0    0  0.15830945822E+02 -0.51657365548E+02 -0.14115540038E+03  0.15114214938E+03  0.00000000000E+00 0.  1.
</event>
<event>
12    1  0.8494789E-002  0.2319032E+03  0.7818608E-02  0.1125311E+00
         21   -1    0    0  501  502  0.00000000000E+00  0.00000000000E+00  0.29908488999E+03  0.29908488999E+03  0.00000000000E+00 0.  1.
         21   -1    0    0  502  503 -0.00000000000E+00 -0.00000000000E+00 -0.18165325765E+03  0.18165325765E+03  0.00000000000E+00 0.  1.
         -6    2    1    2    0  503 -0.14122274974E+03  0.60825592453E+02  0.34399624656E+02  0.23441843855E+03  0.17356570057E+03 0.  0.
        -24    2    3    3    0    0 -0.35011206338E+02 -0.66963814900E+01  0.60235906426E+02  0.10585050953E+03  0.79406170107E+02 0.  0.
          6    2    1    2  501    0  0.14122274974E+03 -0.60825592453E+02  0.83032007689E+02  0.24631970909E+03  0.17359569996E+03 0.  0.
         24    2    5    5    0    0  0.14854899214E+03 -0.71960675144E+01  0.90518538366E+02  0.19147503830E+03  0.79690012236E+02 0.  0.
          5    1    5    5  501    0 -0.73262423985E+01 -0.53629524938E+02 -0.74865306764E+01  0.54844670793E+02  0.47000000000E+01 0. -1.
        -13    1    6    6    0    0  0.12784879044E+03 -0.14182286972E+02  0.10433384197E+03  0.16562608810E+03  0.00000000000E+00 0.  1.
         14    1    6    6    0    0  0.20700201697E+02  0.69862194575E+01 -0.13815303600E+02  0.25848950195E+02  0.00000000000E+00 0. -1.
         -5    1    3    3    0  503 -0.10621154340E+03  0.67521973943E+02 -0.25836281770E+02  0.12856792902E+03  0.47000000000E+01 0.  1.
         13    1    4    4    0    0 -0.18824651061E+02  0.35819568350E+02  0.20093968327E+02  0.45179381664E+02  0.00000000000E+00 0. -1.
        -14    1    4    4    0    0 -0.16186555277E+02 -0.42515949840E+02  0.40141938099E+02  0.60671127869E+02  0.00000000000E+00 0.  1.
</event>
<event>
12    1  0.8494789E-002  0.1735701E+03  0.7818608E-02  0.1174188E+00
         21   -1    0    0  503  502  0.00000000000E+00  0.00000000000E+00  0.42601655013E+02  0.42601655013E+02  0.00000000000E+00 0. -1.
         21   -1    0    0  501  503 -0.00000000000E+00 -0.00000000000E+00 -0.81675110837E+03  0.81675110837E+03  0.00000000000E+00 0. -1.
          6    2    1    2  501    0  0.99525776549E+01 -0.16238644262E+02 -0.54456066444E+03  0.57153754006E+03  0.17247056293E+03 0.  0.
         24    2    3    3    0    0  0.48300465458E+02 -0.54925882164E+01 -0.16164985913E+03  0.18653258810E+03  0.79376482504E+02 0.  0.
         -6    2    1    2    0  502 -0.99525776549E+01  0.16238644262E+02 -0.22958878892E+03  0.28781522333E+03  0.17252200848E+03 0.  0.
        -24    2    5    5    0    0 -0.26945126504E+01  0.20760914814E+02 -0.25073130818E+03  0.26452946460E+03  0.81678471816E+02 0.  0.
          5    1    3    3  501    0 -0.38347887803E+02 -0.10746056045E+02 -0.38291080530E+03  0.38500495197E+03  0.47000000000E+01 0. -1.
        -11    1    4    4    0    0  0.15153178493E+02 -0.17588452600E+02 -0.23075424612E+01  0.23330178643E+02  0.00000000000E+00 0.  1.
         12    1    4    4    0    0  0.33147286965E+02  0.12095864384E+02 -0.15934231667E+03  0.16320240945E+03  0.00000000000E+00 0. -1.
         -5    1    5    5    0  502 -0.72580650045E+01 -0.45222705526E+01  0.21142519261E+02  0.23285758722E+02  0.47000000000E+01 0.  1.
         13    1    6    6    0    0 -0.18563329962E+02 -0.14787599928E+01 -0.80039388991E+01  0.20269360826E+02  0.00000000000E+00 0. -1.
        -14    1    6    6    0    0  0.15868817311E+02  0.22239674807E+02 -0.24272736928E+03  0.24426010378E+03  0.00000000000E+00 0.  1.
</event>
<event>
12    1  0.8494789E-002  0.2073562E+03  0.7818608E-02  0.1143793E+00
         21   -1    0    0  503  502  0.00000000000E+00  0.00000000000E+00  0.55754528844E+03  0.55754528844E+03  0.00000000000E+00 0. -1.
         21   -1    0    0  501  503 -0.00000000000E+00 -0.00000000000E+00 -0.17452009964E+03  0.17452009964E+03  0.00000000000E+00 0. -1.
          6    2    1    2  501    0  0.97085743254E+02  0.63136418971E+02 -0.82122303239E+02  0.22302613084E+03  0.17200213198E+03 0.  0.
         24    2    3    3    0    0  0.12029808757E+03  0.84303247920E+02 -0.90129729014E+02  0.19026859058E+03  0.80623204006E+02 0.  0.
         -6    2    1    2    0  502 -0.97085743254E+02 -0.63136418971E+02  0.46514749204E+03  0.50903925724E+03  0.17130944841E+03 0.  0.
        -24    2    5    5    0    0 -0.75121501303E+02  0.25419593170E+02  0.26411076384E+03  0.28821704074E+03  0.83816295106E+02 0.  0.
          5    1    3    3  501    0 -0.23212344319E+02 -0.21166828950E+02  0.80074257749E+01  0.32757540263E+02  0.47000000000E+01 0. -1.
        -11    1    4    4    0    0  0.14494862240E+02  0.54099561170E+00  0.13737757184E+02  0.19977979879E+02  0.00000000000E+00 0.  1.
         12    1    4    4    0    0  0.10580322533E+03  0.83762252309E+02 -0.10386748620E+03  0.17029061070E+03  0.00000000000E+00 0. -1.
         -5    1    5    5    0  502 -0.21964241951E+02 -0.88556012140E+02  0.20103672820E+03  0.22082221649E+03  0.47000000000E+01 0.  1.
         11    1    6    6    0    0 -0.26020198036E+02  0.43885232368E+02  0.19433864889E+03  0.20092405226E+03  0.00000000000E+00 0. -1.
        -12    1    6    6    0    0 -0.49101303268E+02 -0.18465639199E+02  0.69772114953E+02  0.87292988484E+02  0.00000000000E+00 0.  1.
</event>
<event>
12    1  0.8494789E-002  0.1827345E+03  0.7818608E-02  0.1165330E+00
         21   -1    0    0  501  502  0.00000000000E+00  0.00000000000E+00  0.15127975878E+04  0.15127975878E+04  0.00000000000E+00 0. -1.
         21   -1    0    0  502  503 -0.00000000000E+00 -0.00000000000E+00 -0.12810571452E+03  0.12810571452E+03  0.00000000000E+00 0. -1.
         -6    2    1    2    0  503 -0.22600529245E+02  0.57552477438E+02 -0.54144829865E+02  0.19058739087E+03  0.17195586462E+03 0.  0.
        -24    2    3    3    0    0  0.93965437371E+01 -0.31364599704E+02 -0.14972018999E+02  0.88183004260E+02  0.80498743708E+02 0.  0.
          6    2    1    2  501    0  0.22600529245E+02 -0.57552477438E+02  0.14388367032E+04  0.14503159115E+04  0.17129539721E+03 0.  0.
         24    2    5    5    0    0  0.19188068992E+02  0.34054456730E+02  0.63332368302E+03  0.63958982278E+03  0.80301717942E+02 0.  0.
          5    1    5    5  501    0  0.34124602531E+01 -0.91606934168E+02  0.80551302015E+03  0.81072608870E+03  0.47000000000E+01 0. -1.
        -11    1    6    6    0    0  0.49283124872E+02  0.22059579999E+02  0.46940365754E+03  0.47249893670E+03  0.00000000000E+00 0.  1.
         12    1    6    6    0    0 -0.30095055881E+02  0.11994876731E+02  0.16392002548E+03  0.16709088608E+03  0.00000000000E+00 0. -1.
         -5    1    3    3    0  503 -0.31997072982E+02  0.88917077142E+02 -0.39172810866E+02  0.10240438662E+03  0.47000000000E+01 0.  1.
         11    1    4    4    0    0 -0.35274377044E+02 -0.11635651293E+02 -0.13143862223E+00  0.37144142647E+02  0.00000000000E+00 0. -1.
        -12    1    4    4    0    0  0.44670920781E+02 -0.19728948411E+02 -0.14840580377E+02  0.51038861613E+02  0.00000000000E+00 0.  1.
</event>
<event>
12    1  0.8494789E-002  0.1842026E+03  0.7818608E-02  0.1163856E+00
         21   -1    0    0  501  502  0.00000000000E+00  0.00000000000E+00  0.12900159356E+03  0.12900159356E+03  0.00000000000E+00 0.  1.
         21   -1    0    0  502  503 -0.00000000000E+00 -0.00000000000E+00 -0.27965174634E+03  0.27965174634E+03  0.00000000000E+00 0. -1.
         -6    2    1    2    0  503  0.60353146621E+02  0.25415193452E+02 -0.24917093075E+02  0.18563000621E+03  0.17189881708E+03 0.  0.
        -24    2    3    3    0    0  0.10098334142E+03 -0.33283716218E+01 -0.36771692278E+02  0.13425270787E+03  0.80392281435E+02 0.  0.
          6    2    1    2  501    0 -0.60353146621E+02 -0.25415193452E+02 -0.12573305970E+03  0.22302333369E+03  0.17216901784E+03 0.  0.
         24    2    5    5    0    0  0.16104419208E+02 -0.37348469206E+02 -0.11454257229E+03  0.14469403233E+03  0.78499055125E+02 0.  0.
          5    1    5    5  501    0 -0.76457565829E+02  0.11933275754E+02 -0.11190487409E+02  0.78329301358E+02  0.47000000000E+01 0. -1.
        -13    1    6    6    0    0 -0.63180511199E+01 -0.73565926246E+01  0.10424156434E+02  0.14237284234E+02  0.00000000000E+00 0.  1.
         14    1    6    6    0    0  0.22422470328E+02 -0.29991876582E+02 -0.12496672872E+03  0.13045674810E+03  0.00000000000E+00 0. -1.
         -5    1    3    3    0  503 -0.40630194801E+02  0.28743565074E+02  0.11854599203E+02  0.51377298343E+02  0.47000000000E+01 0.  1.
         11    1    4    4    0    0  0.20799198547E+02 -0.36746235389E+02 -0.13274408877E+02  0.44261748796E+02  0.00000000000E+00 0. -1.
        -12    1    4    4    0    0  0.80184142876E+02  0.33417863767E+02 -0.23497283401E+02  0.89990959072E+02  0.00000000000E+00 0.  1.
</event>
<event>
12    1  0.8494789E-002  0.2138302E+03  0.7818608E-02  0.1139997E+00
         21   -1    0    0  501  502  0.00000000000E+00  0.00000000000E+00  0.74373241845E+02  0.74373241845E+02  0.00000000000E+00 0.  1.
         21   -1    0    0  502  503 -0.00000000000E+00 -0.00000000000E+00 -0.71916878997E+03  0.71916878997E+03  0.00000000000E+00 0.  1.
         -6    2    1    2    0  503  0.10571328388E+03  0.43109005004E+02 -0.49242581558E+03  0.53684870974E+03  0.18080284456E+03 0.  0.
        -24    2    3    3    0    0  0.95497910632E+02  0.33397334139E+02 -0.50204562349E+03  0.51914839601E+03  0.85029501685E+02 0.  0.
          6    2    1    2  501    0 -0.10571328388E+03 -0.43109005004E+02 -0.15236973255E+03  0.25669332208E+03  0.17216631929E+03 0.  0.
         24    2    5    5    0    0 -0.32542930282E+02  0.43136809658E+02 -0.55975453673E+02  0.10801182291E+03  0.74923132718E+02 0.  0.
          5    1    5    5  501    0 -0.73170353602E+02 -0.86245814662E+02 -0.96394278878E+02  0.14868149916E+03  0.47000000000E+01 0. -1.
        -13    1    6    6    0    0 -0.32787003204E+02  0.16248665389E+02 -0.69024010927E+02  0.78123753049E+02  0.00000000000E+00 0.  1.
         14    1    6    6    0    0  0.24407292219E+00  0.26888144269E+02  0.13048557254E+02  0.29888069864E+02  0.00000000000E+00 0. -1.
         -5    1    3    3    0  503  0.10215373252E+02  0.97116708650E+01  0.96198079139E+01  0.17700313725E+02  0.47000000000E+01 0.  1.
         13    1    4    4    0    0 -0.18410222778E+01  0.33300726680E+01  0.24128048617E+01  0.45055936681E+01  0.00000000000E+00 0. -1.
        -14    1    4    4    0    0  0.97338932910E+02  0.30067261471E+02 -0.50445842835E+03  0.51464280235E+03  0.00000000000E+00 0.  1.
</event>
<event>
12    1  0.8494789E-002  0.2376210E+03  0.7818608E-02  0.1121471E+00
         21   -1    0    0  503  502  0.00000000000E+00  0.00000000000E+00  0.48251145638E+03  0.48251145638E+03  0.00000000000E+00 0.  1.
         21   -1    0    0  501  503 -0.00000000000E+00 -0.00000000000E+00 -0.14429863517E+03  0.14429863517E+03  0.00000000000E+00 0.  1.
          6    2    1    2  501    0  0.15445214713E+03  0.53723751439E+02  0.32379839151E+02  0.23981696704E+03  0.17240074384E+03 0.  0.
         24    2    3    3    0    0  0.41911168604E+02  0.76340462394E+02 -0.49559922534E+01  0.11901530410E+03  0.80967082814E+02 0.  0.
         -6    2    1    2    0  502 -0.15445214713E+03 -0.53723751439E+02  0.30583298206E+03  0.38699312450E+03  0.17172116430E+03 0.  0.
        -24    2    5    5    0    0 -0.66458324858E+02 -0.41001766309E+01  0.56294036678E+02  0.11774010743E+03  0.79121387385E+02 0.  0.
          5    1    3    3  501    0  0.11254097853E+03 -0.22616710955E+02  0.37335831405E+02  0.12080166294E+03  0.47000000000E+01 0. -1.
        -11    1    4    4    0    0  0.46958461864E+02  0.55580977717E+02 -0.36117752744E+02  0.81233209268E+02  0.00000000000E+00 0.  1.
         12    1    4    4    0    0 -0.50472932606E+01  0.20759484677E+02  0.31161760491E+02  0.37782094836E+02  0.00000000000E+00 0. -1.
         -5    1    5    5    0  502 -0.87993822274E+02 -0.49623574808E+02  0.24953894538E+03  0.26925301706E+03  0.47000000000E+01 0.  1.
         13    1    6    6    0    0 -0.33251577825E+02 -0.41621613624E+02  0.30471289009E+02  0.61372026220E+02  0.00000000000E+00 0. -1.
        -14    1    6    6    0    0 -0.33206747034E+02  0.37521436993E+02  0.25822747669E+02  0.56368081214E+02  0.00000000000E+00 0.  1.
</event>
<event>
12    1  0.8494789E-002  0.2382760E+03  0.7818608E-02  0.1120947E+00
         21   -1    0    0  501  502  0.00000000000E+00  0.00000000000E+00  0.17165575544E+02  0.17165575544E+02  0.00000000000E+00 0. -1.
         21   -1    0    0  502  503 -0.00000000000E+00 -0.00000000000E+00 -0.33357174174E+04  0.33357174174E+04  0.00000000000E+00 0.  1.
         -6    2    1    2    0  503 -0.10716673124E+03  0.12517274874E+03 -0.15050431513E+04  0.15237877973E+04  0.17210879869E+03 0.  0.
        -24    2    3    3    0    0 -0.26450747421E+01  0.48792035639E+02 -0.39942755317E+03  0.41060913650E+03  0.81669049118E+02 0.  0.
          6    2    1    2  501    0  0.10716673124E+03 -0.12517274874E+03 -0.18135086905E+04  0.18290951956E+04  0.17211199472E+03 0.  0.
         24    2    5    5    0    0 -0.87376706071E+01 -0.23648702455E+02 -0.62764439853E+03  0.63325357928E+03  0.80230895870E+02 0.  0.
          5    1    5    5  501    0  0.11590440185E+03 -0.10152404629E+03 -0.11858642920E+04  0.11958416163E+04  0.47000000000E+01 0. -1.
        -13    1    6    6    0    0  0.28388266846E+02  0.46211810792E+01 -0.11707738554E+03  0.12055854683E+03  0.00000000000E+00 0.  1.
         14    1    6    6    0    0 -0.37125937453E+02 -0.28269883534E+02 -0.51056701299E+03  0.51269503245E+03  0.00000000000E+00 0. -1.
         -5    1    3    3    0  503 -0.10452165650E+03  0.76380713105E+02 -0.11056155981E+04  0.11131786608E+04  0.47000000000E+01 0.  1.
         13    1    4    4    0    0 -0.34711870342E+01  0.66549368966E+02 -0.37201975720E+03  0.37794122214E+03  0.00000000000E+00 0. -1.
        -14    1    4    4    0    0  0.82611229207E+00 -0.17757333327E+02 -0.27407795971E+02  0.32667914356E+02  0.00000000000E+00 0.  1.
</event>
<event>
12    1  0.8494789E-002  0.1985891E+03  0.7818608E-02  0.1151093E+00
         21   -1    0    0  503  502  0.00000000000E+00  0.00000000000E+00  0.27263446833E+03  0.27263446833E+03  0.00000000000E+00 0. -1.
         21   -1    0    0  501  503 -0.00000000000E+00 -0.00000000000E+00 -0.45797997801E+03  0.45797997801E+03  0.00000000000E+00 0. -1.
          6    2    1    2  501    0  0.49562466613E+02  0.84659734473E+02 -0.39514434180E+03  0.44224051502E+03  0.17266705977E+03 0.  0.
         24    2    3    3    0    0 -0.15563681783E+02  0.92685272318E+02 -0.31622311910E+03  0.33949581269E+03  0.80172051805E+02 0.  0.
         -6    2    1    2    0  502 -0.49562466613E+02 -0.84659734473E+02  0.20979883212E+03  0.28837393132E+03  0.17181462559E+03 0.  0.
        -24    2    5    5    0    0  0.37681014188E+02 -0.22085736966E+02  0.99449847430E+02  0.13434173167E+03  0.79055614013E+02 0.  0.
          5    1    3    3  501    0  0.65126148397E+02 -0.80255378452E+01 -0.78921222707E+02  0.10274470233E+03  0.47000000000E+01 0. -1.
        -13    1    4    4    0    0 -0.45810275974E+02  0.38425994679E+02 -0.12777520024E+03  0.14107317338E+03  0.00000000000E+00 0.  1.
         14    1    4    4    0    0  0.30246594191E+02  0.54259277639E+02 -0.18844791886E+03  0.19842263931E+03  0.00000000000E+00 0. -1.
         -5    1    5    5    0  502 -0.87243480801E+02 -0.62573997507E+02  0.11034898469E+03  0.15403219965E+03  0.47000000000E+01 0.  1.
         11    1    6    6    0    0 -0.55208534431E+01 -0.27060523872E+02  0.20730774108E+01  0.27695657149E+02  0.00000000000E+00 0. -1.
        -12    1    6    6    0    0  0.43201867631E+02  0.49747869065E+01  0.97376770020E+02  0.10664607452E+03  0.00000000000E+00 0.  1.
</event>
<event>
12    1  0.8494789E-002  0.1777699E+03  0.7818608E-02  0.1170690E+00
         21   -1    0    0  501  502  0.00000000000E+00  0.00000000000E+00  0.67987431667E+03  0.67987431667E+03  0.00000000000E+00 0. -1.
         21   -1    0    0  502  503 -0.00000000000E+00 -0.00000000000E+00 -0.55964200029E+02  0.55964200029E+02  0.00000000000E+00 0. -1.
         -6    2    1    2    0  503 -0.34114492118E+02  0.28546153516E+02  0.15260268347E+03  0.23211950409E+03  0.16915437838E+03 0.  0.
        -24    2    3    3    0    0 -0.56441934152E+02  0.20871812028E+02  0.26430422057E+02  0.10367130545E+03  0.80173860420E+02 0.  0.
          6    2    1    2  501    0  0.34114492118E+02 -0.28546153516E+02  0.47130743317E+03  0.50371901261E+03  0.17211468748E+03 0.  0.
         24    2    5    5    0    0 -0.33081311072E+02 -0.56267356967E+02  0.24057487142E+03  0.26176168963E+03  0.79890705340E+02 0.  0.
          5    1    5    5  501    0  0.67195803190E+02  0.27721203451E+02  0.23073256176E+03  0.24195732298E+03  0.47000000000E+01 0. -1.
        -11    1    6    6    0    0 -0.39746595870E+02 -0.45757705711E+02  0.24177744994E+03  0.24925869055E+03  0.00000000000E+00 0.  1.
         12    1    6    6    0    0  0.66652847976E+01 -0.10509651256E+02 -0.12025785231E+01  0.12502999083E+02  0.00000000000E+00 0. -1.
         -5    1    3    3    0  503  0.22327442034E+02  0.76743414881E+01  0.12617226141E+03  0.12844819864E+03  0.47000000000E+01 0.  1.
         13    1    4    4    0    0 -0.66376879159E+02  0.25320521626E+02  0.43590690053E+02  0.83349668035E+02  0.00000000000E+00 0. -1.
        -14    1    4    4    0    0  0.99349450072E+01 -0.44487095981E+01 -0.17160267996E+02  0.20321637411E+02  0.00000000000E+00 0.  1.
</event>
<event>
12    1  0.8494789E-002  0.2044528E+03  0.7818608E-02  0.1146641E+00
         21   -1    0    0  503  502  0.00000000000E+00  0.00000000000E+00  0.12169894537E+04  0.12169894537E+04  0.00000000000E+00 0. -1.
         21   -1    0    0  501  503 -0.00000000000E+00 -0.00000000000E+00 -0.76098672514E+02  0.76098672514E+02  0.00000000000E+00 0. -1.
          6    2    1    2  501    0  0.92636887616E+02  0.49454883389E+02  0.90581385748E+02  0.22362009984E+03  0.17542400968E+03 0.  0.
         24    2    3    3    0    0  0.44549002450E+02 -0.38803603656E+02  0.42089548959E+02  0.11192608268E+03  0.85238398486E+02 0.  0.
         -6    2    1    2    0  502 -0.92636887616E+02 -0.49454883389E+02  0.10503093954E+04  0.10694680264E+04  0.17200190360E+03 0.  0.
        -24    2    5    5    0    0 -0.31398300781E+02  0.44626337134E+02  0.44087930644E+03  0.44976764397E+03  0.70278072366E+02 0.  0.
          5    1    3    3  501    0  0.48087885165E+02  0.88258487045E+02  0.48491836789E+02  0.11169401716E+03  0.47000000000E+01 0. -1.
        -11    1    4    4    0    0 -0.12869383760E+02  0.18535136948E+02  0.92745322167E+01  0.24396501550E+02  0.00000000000E+00 0.  1.
         12    1    4    4    0    0  0.57418386210E+02 -0.57338740604E+02  0.32815016743E+02  0.87529581130E+02  0.00000000000E+00 0. -1.
         -5    1    5    5    0  502 -0.61238586834E+02 -0.94081220523E+02  0.60943008900E+03  0.61970038240E+03  0.47000000000E+01 0.  1.
         11    1    6    6    0    0 -0.23599756062E+01 -0.10001303536E+02  0.22404008133E+03  0.22427561972E+03  0.00000000000E+00 0. -1.
        -12    1    6    6    0    0 -0.29038325175E+02  0.54627640671E+02  0.21683922511E+03  0.22549202425E+03  0.00000000000E+00 0.  1.
</event>
<event>
12    1  0.8494789E-002  0.3677875E+03  0.7818608E-02  0.1056436E+00
         21   -1    0    0  501  502  0.00000000000E+00  0.00000000000E+00  0.98091111749E+03  0.98091111749E+03  0.00000000000E+00 0. -1.
         21   -1    0    0  502  503 -0.00000000000E+00 -0.00000000000E+00 -0.13499003322E+03  0.13499003322E+03  0.00000000000E+00 0.  1.
         -6    2    1    2    0  503 -0.25800485891E+03 -0.18047836790E+03  0.46230855442E+03  0.59075952519E+03  0.19007542872E+03 0.  0.
        -24    2    3    3    0    0 -0.33232364661E+02 -0.82242701401E+02  0.12056447747E+03  0.17006483247E+03  0.80734144091E+02 0.  0.
          6    2    1    2  501    0  0.25800485891E+03  0.18047836790E+03  0.38361252985E+03  0.52514162552E+03  0.17168635735E+03 0.  0.
         24    2    5    5    0    0  0.17466074331E+03  0.15941954199E+03  0.35588251683E+03  0.43469407511E+03  0.79909996422E+02 0.  0.
          5    1    5    5  501    0  0.83344115599E+02  0.21058825910E+02  0.27730013019E+02  0.90447550413E+02  0.47000000000E+01 0. -1.
        -13    1    6    6    0    0  0.76251598913E+02  0.33549851396E+02  0.17188359202E+03  0.19100750789E+03  0.00000000000E+00 0.  1.
         14    1    6    6    0    0  0.98409144394E+02  0.12586969059E+03  0.18399892481E+03  0.24368656722E+03  0.00000000000E+00 0. -1.
         -5    1    3    3    0  503 -0.22477249425E+03 -0.98235666499E+02  0.34174407696E+03  0.42069469271E+03  0.47000000000E+01 0.  1.
         11    1    4    4    0    0 -0.33000011382E+02 -0.69942311171E+02  0.37237367012E+02  0.85834428670E+02  0.00000000000E+00 0. -1.
        -12    1    4    4    0    0 -0.23235327963E+00 -0.12300390230E+02  0.83327110456E+02  0.84230403803E+02  0.00000000000E+00 0.  1.
</event>
<event>
12    1  0.8494789E-002  0.1745402E+03  0.7818608E-02  0.1173432E+00
         21   -1    0    0  501  502  0.00000000000E+00  0.00000000000E+00  0.94657747117E+02  0.94657747117E+02  0.00000000000E+00 0.  1.
         21   -1    0    0  502  503 -0.00000000000E+00 -0.00000000000E+00 -0.50532146854E+03  0.50532146854E+03  0.00000000000E+00 0.  1.
         -6    2    1    2    0  503  0.16372116238E+02  0.38063731408E+01 -0.38730470097E+03  0.42481668960E+03  0.17372896622E+03 0.  0.
        -24    2    3    3    0    0  0.52139959263E+02 -0.49164684760E+02 -0.25836347158E+03  0.28082640449E+03  0.83522718059E+02 0.  0.
          6    2    1    2  501    0 -0.16372116238E+02 -0.38063731408E+01 -0.23359020447E+02  0.17516252605E+03  0.17278232557E+03 0.  0.
         24    2    5    5    0    0 -0.28424659146E+02 -0.15091782798E+02  0.52371935675E+02  0.97510146970E+02  0.75694689114E+02 0.  0.
          5    1    5    5  501    0  0.12052542909E+02  0.11285409658E+02 -0.75730956122E+02  0.77652379081E+02  0.47000000000E+01 0. -1.
        -11    1    6    6    0    0 -0.83780619099E+01  0.15976821786E+02  0.57424798088E+02  0.60191844889E+02  0.00000000000E+00 0.  1.
         12    1    6    6    0    0 -0.20046597236E+02 -0.31068604585E+02 -0.50528624126E+01  0.37318302080E+02  0.00000000000E+00 0. -1.
         -5    1    3    3    0  503 -0.35767843025E+02  0.52971057901E+02 -0.12894122939E+03  0.14399028511E+03  0.47000000000E+01 0.  1.
         13    1    4    4    0    0  0.22687476833E+02 -0.91313137880E+01 -0.82309995228E+01  0.25804105287E+02  0.00000000000E+00 0. -1.
        -14    1    4    4    0    0  0.29452482430E+02 -0.40033370972E+02 -0.25013247206E+03  0.25502229920E+03  0.00000000000E+00 0.  1.
</event>
<event>
12    1  0.8494789E-002  0.1899551E+03  0.7818608E-02  0.1160751E+00
         21   -1    0    0  503  502  0.00000000000E+00  0.00000000000E+00  0.32155888642E+03  0.32155888642E+03  0.00000000000E+00 0. -1.
         21   -1    0    0  501  503 -0.00000000000E+00 -0.00000000000E+00 -0.11103143449E+03  0.11103143449E+03  0.00000000000E+00 0. -1.
          6    2    1    2  501    0 -0.53172482595E+02  0.11324263005E+02  0.64511069021E+02  0.20061061253E+03  0.18200930744E+03 0.  0.
         24    2    3    3    0    0 -0.80150790537E+02  0.87798767540E+01 -0.18171318142E+02  0.11347410957E+03  0.77749220445E+02 0.  0.
         -6    2    1    2    0  502  0.53172482595E+02 -0.11324263005E+02  0.14601638291E+03  0.23197970838E+03  0.17186695199E+03 0.  0.
        -24    2    5    5    0    0  0.75562246600E+02 -0.58374175502E+02  0.90866175867E+02  0.15596240026E+03  0.83369124384E+02 0.  0.
          5    1    3    3  501    0  0.26978307942E+02  0.25443862512E+01  0.82682387163E+02  0.87136502958E+02  0.47000000000E+01 0. -1.
        -11    1    4    4    0    0 -0.67270877116E+02 -0.28131186149E+02 -0.11773996518E+02  0.73860419279E+02  0.00000000000E+00 0.  1.
         12    1    4    4    0    0 -0.12879913421E+02  0.36911062903E+02 -0.63973216239E+01  0.39613690289E+02  0.00000000000E+00 0. -1.
         -5    1    5    5    0  502 -0.22389764006E+02  0.47049912497E+02  0.55150207039E+02  0.76017308125E+02  0.47000000000E+01 0.  1.
         11    1    6    6    0    0 -0.20848550821E+01 -0.48351298868E+02  0.37251519096E+02  0.61072664899E+02  0.00000000000E+00 0. -1.
        -12    1    6    6    0    0  0.77647101682E+02 -0.10022876634E+02  0.53614656771E+02  0.94889735358E+02  0.00000000000E+00 0.  1.
</event>
<event>
12    1  0.8494789E-002  0.2195952E+03  0.7818608E-02  0.1134366E+00
         21   -1    0    0  503  502  0.00000000000E+00  0.00000000000E+00  0.13300789562E+04  0.13300789562E+04  0.00000000000E+00 0. -1.
         21   -1    0    0  501  503 -0.00000000000E+00 -0.00000000000E+00 -0.86708555674E+02  0.86708555674E+02  0.00000000000E+00 0.  1.
          6    2    1    2  501    0  0.44878339427E+02 -0.12866934372E+03  0.81036757661E+02  0.23407056528E+03  0.17219816513E+03 0.  0.
         24    2    3    3    0    0  0.58804614227E+02 -0.96952550492E+02 -0.76940409092E+01  0.13870211810E+03  0.79506600968E+02 0.  0.
         -6    2    1    2    0  502 -0.44878339427E+02  0.12866934372E+03  0.11623336429E+04  0.11827169466E+04  0.17096787147E+03 0.  0.
        -24    2    5    5    0    0 -0.24862033293E+02 -0.18177360523E+01  0.37278689347E+03  0.38219605994E+03  0.80512951914E+02 0.  0.
          5    1    3    3  501    0 -0.13926274800E+02 -0.31716793228E+02  0.88730798570E+02  0.95368447179E+02  0.47000000000E+01 0. -1.
        -13    1    4    4    0    0  0.17547015451E+02 -0.32112504267E+02 -0.40988423591E+02  0.54946897547E+02  0.00000000000E+00 0.  1.
         14    1    4    4    0    0  0.41257598776E+02 -0.64840046225E+02  0.33294382681E+02  0.83755220550E+02  0.00000000000E+00 0. -1.
         -5    1    5    5    0  502 -0.20016306134E+02  0.13048707977E+03  0.78954674942E+03  0.80052088668E+03  0.47000000000E+01 0.  1.
         11    1    6    6    0    0  0.95464318828E+01  0.60000565437E+01  0.30975208516E+03  0.30995723785E+03  0.00000000000E+00 0. -1.
        -12    1    6    6    0    0 -0.34408465176E+02 -0.78177925959E+01  0.63034808311E+02  0.72238822081E+02  0.00000000000E+00 0.  1.
</event>
<event>
12    1  0.8494789E-002  0.2021850E+03  0.7818608E-02  0.1152546E+00
         21   -1    0    0  501  502  0.00000000000E+00  0.00000000000E+00  0.50892353051E+02  0.50892353051E+02  0.00000000000E+00 0.  1.
         21   -1    0    0  502  503 -0.00000000000E+00 -0.00000000000E+00 -0.12863171638E+04  0.12863171638E+04  0.00000000000E+00 0.  1.
         -6    2    1    2    0  503  0.32590897564E+02 -0.44645648333E+02 -0.10412240005E+04  0.10568655661E+04  0.17251668063E+03 0.  0.
        -24    2    3    3    0    0  0.66682574306E+02  0.12215979829E+02 -0.45487698433E+03  0.46676354057E+03  0.79745445322E+02 0.  0.
          6    2    1    2  501    0 -0.32590897564E+02  0.44645648333E+02 -0.19420081024E+03  0.28034395073E+03  0.19448232695E+03 0.  0.
         24    2    5    5    0    0 -0.25541744322E+02 -0.37605945020E+01 -0.29104263546E+01  0.82842163717E+02  0.78662765866E+02 0.  0.
          5    1    5    5  501    0 -0.70491532419E+01  0.48406242835E+02 -0.19129038388E+03  0.19750178701E+03  0.47000000000E+01 0. -1.
        -11    1    6    6    0    0 -0.39736522487E+02  0.15955561719E+02 -0.25357457232E+02  0.49765166597E+02  0.00000000000E+00 0.  1.
         12    1    6    6    0    0  0.14194778164E+02 -0.19716156221E+02  0.22447030877E+02  0.33076997120E+02  0.00000000000E+00 0. -1.
         -5    1    3    3    0  503 -0.34091676742E+02 -0.56861628162E+02 -0.58634701616E+03  0.59010202554E+03  0.47000000000E+01 0.  1.
         13    1    4    4    0    0  0.53330088078E+02 -0.19847852828E+02 -0.15940602151E+03  0.16925813200E+03  0.00000000000E+00 0. -1.
        -14    1    4    4    0    0  0.13352486228E+02  0.32063832657E+02 -0.29547096282E+03  0.29750540856E+03  0.00000000000E+00 0.  1.
</event>
<event>
12    1  0.8494789E-002  0.1730706E+03  0.7818608E-02  0.1174873E+00
         21   -1    0    0  503  502  0.00000000000E+00  0.00000000000E+00  0.30079683230E+03  0.30079683230E+03  0.00000000000E+00 0.  1.
         21   -1    0    0  501  503 -0.00000000000E+00 -0.00000000000E+00 -0.12436471507E+03  0.12436471507E+03  0.00000000000E+00 0.  1.
          6    2    1    2  501    0 -0.55668786819E+01 -0.92573429125E+01 -0.76483881971E+01  0.17249760031E+03  0.17198905702E+03 0.  0.
         24    2    3    3    0    0 -0.58241337453E+02  0.10306878311E+02  0.29818570933E+02  0.10479811445E+03  0.81210913618E+02 0.  0.
         -6    2    1    2    0  502  0.55668786819E+01  0.92573429125E+01  0.18408050543E+03  0.25266394706E+03  0.17273317322E+03 0.  0.
        -24    2    5    5    0    0  0.18566724601E+02  0.36517070091E+01  0.20771267568E+03  0.22471777347E+03  0.83638889576E+02 0.  0.
          5    1    3    3  501    0  0.52674458771E+02 -0.19564221223E+02 -0.37466959130E+02  0.67699485857E+02  0.47000000000E+01 0. -1.
        -11    1    4    4    0    0 -0.10837360534E+02  0.31179303959E+02  0.40155133342E+02  0.51981074560E+02  0.00000000000E+00 0.  1.
         12    1    4    4    0    0 -0.47403976919E+02 -0.20872425648E+02 -0.10336562409E+02  0.52817039889E+02  0.00000000000E+00 0. -1.
         -5    1    5    5    0  502 -0.12999845919E+02  0.56056359034E+01 -0.23632170249E+02  0.27946173592E+02  0.47000000000E+01 0.  1.
         13    1    6    6    0    0 -0.21218086075E+02  0.11367550194E+02  0.16321347914E+02  0.29082894832E+02  0.00000000000E+00 0. -1.
        -14    1    6    6    0    0  0.39784810675E+02 -0.77158431846E+01  0.19139132776E+03  0.19563487864E+03  0.00000000000E+00 0.  1.
</event>
<event>
12    1  0.8494789E-002  0.2138977E+03  0.7818608E-02  0.1139422E+00
         21   -1    0    0  501  502  0.00000000000E+00  0.00000000000E+00  0.98176290086E+02  0.98176290086E+02  0.00000000000E+00 0. -1.
         21   -1    0    0  502  503 -0.00000000000E+00 -0.00000000000E+00 -0.59343157239E+03  0.59343157239E+03  0.00000000000E+00 0.  1.
         -6    2    1    2    0  503  0.11418999000E+03 -0.52207176803E+02 -0.41195878382E+03  0.46206369322E+03  0.16741527381E+03 0.  0.
        -24    2    3    3    0    0  0.56613345151E+02 -0.75635495518E+02 -0.15364533148E+03  0.19633472263E+03  0.77554086904E+02 0.  0.
          6    2    1    2  501    0 -0.11418999000E+03  0.52207176803E+02 -0.83296498483E+02  0.22954416925E+03  0.17316834541E+03 0.  0.
         24    2    5    5    0    0 -0.83067279198E+02 -0.24745151731E+02 -0.85828257477E+02  0.14636494229E+03  0.80893208255E+02 0.  0.
          5    1    5    5  501    0 -0.31122710803E+02  0.76952328534E+02  0.25317589937E+01  0.83179226963E+02  0.47000000000E+01 0. -1.
        -13    1    6    6    0    0 -0.94834102708E+02 -0.35133059048E+02 -0.64751668172E+02  0.12008587513E+03  0.00000000000E+00 0.  1.
         14    1    6    6    0    0  0.11766823511E+02  0.10387907317E+02 -0.21076589305E+02  0.26279067158E+02  0.00000000000E+00 0. -1.
         -5    1    3    3    0  503  0.57576644850E+02  0.23428318715E+02 -0.25831345234E+03  0.26572897059E+03  0.47000000000E+01 0.  1.
         13    1    4    4    0    0 -0.18202523505E+02 -0.24910244440E+02 -0.28824456361E+02  0.42222049033E+02  0.00000000000E+00 0. -1.
        -14    1    4    4    0    0  0.74815868656E+02 -0.50725251078E+02 -0.12482087511E+03  0.15411267360E+03  0.00000000000E+00 0.  1.
</event>
<event>
12    1  0.8494789E-002  0.2135698E+03  0.7818608E-02  0.1139157E+00
         21   -1    0    0  503  502  0.00000000000E+00  0.00000000000E+00  0.45985120869E+03  0.45985120869E+03  0.00000000000E+00 0.  1.
         21   -1    0    0  501  503 -0.00000000000E+00 -0.00000000000E+00 -0.22218278937E+03  0.22218278937E+03  0.00000000000E+00 0.  1.
          6    2    1    2  501    0  0.92425101311E+02  0.86335433542E+02 -0.13559245219E+03  0.25297701096E+03  0.17209255807E+03 0.  0.
         24    2    3    3    0    0  0.12952913049E+03  0.82261021847E+02 -0.12149603453E+03  0.21280103800E+03  0.83536363365E+02 0.  0.
         -6    2    1    2    0  502 -0.92425101311E+02 -0.86335433542E+02  0.37326087151E+03  0.42905698710E+03  0.16961725602E+03 0.  0.
        -24    2    5    5    0    0  0.18104701761E+02 -0.41350854706E+02  0.16631126925E+03  0.19012043155E+03  0.80303591471E+02 0.  0.
          5    1    3    3  501    0 -0.37104029184E+02  0.40744116943E+01 -0.14096417664E+02  0.40175972961E+02  0.47000000000E+01 0. -1.
        -13    1    4    4    0    0  0.57630065588E+01  0.24851909865E+02  0.58469398556E+01  0.26172817468E+02  0.00000000000E+00 0.  1.
         14    1    4    4    0    0  0.12376612394E+03  0.57409111982E+02 -0.12734297439E+03  0.18662822053E+03  0.00000000000E+00 0. -1.
         -5    1    5    5    0  502 -0.11052980307E+03 -0.44984578836E+02  0.20694960227E+03  0.23893655555E+03  0.47000000000E+01 0.  1.
         13    1    6    6    0    0  0.32125746845E+02  0.13782185330E+02  0.70561104644E+02  0.78745677541E+02  0.00000000000E+00 0. -1.
        -14    1    6    6    0    0 -0.14021045084E+02 -0.55133040035E+02  0.95750164602E+02  0.11137475401E+03  0.00000000000E+00 0.  1.
</event>
<event>
12    1  0.8494789E-002  0.1887398E+03  0.7818608E-02  0.1159760E+00
         21   -1    0    0  501  502  0.00000000000E+00  0.00000000000E+00  0.88918827591E+03  0.88918827591E+03  0.00000000000E+00 0. -1.
         21   -1    0    0  502  503 -0.00000000000E+00 -0.00000000000E+00 -0.47600201300E+02  0.47600201300E+02  0.00000000000E+00 0. -1.
         -6    2    1    2    0  503  0.61752744624E+02  0.45998668734E+02  0.60834439006E+03  0.63674625616E+03  0.17156228845E+03 0.  0.
        -24    2    3    3    0    0  0.75606697598E+02  0.32223412002E+02  0.60545801634E+03  0.61644574227E+03  0.81677552665E+02 0.  0.
          6    2    1    2  501    0 -0.61752744624E+02 -0.45998668734E+02  0.23324368455E+03  0.30004222105E+03  0.17231784306E+03 0.  0.
         24    2    5    5    0    0 -0.75098289773E+02 -0.31963044194E+02  0.24869730900E+03  0.27482304501E+03  0.83761358875E+02 0.  0.
          5    1    5    5  501    0  0.13345545149E+02 -0.14035624540E+02 -0.15453624456E+02  0.25219176044E+02  0.47000000000E+01 0. -1.
        -13    1    6    6    0    0 -0.14437335722E+02  0.15456434843E+02  0.14017243806E+03  0.14175912822E+03  0.00000000000E+00 0.  1.
         14    1    6    6    0    0 -0.60660954051E+02 -0.47419479037E+02  0.10852487094E+03  0.13306391679E+03  0.00000000000E+00 0. -1.
         -5    1    3    3    0  503 -0.13853952974E+02  0.13775256732E+02  0.28863737264E+01  0.20300513893E+02  0.47000000000E+01 0.  1.
         13    1    4    4    0    0  0.16691573595E+02 -0.17659410748E+02  0.31396492333E+03  0.31490385278E+03  0.00000000000E+00 0. -1.
        -14    1    4    4    0    0  0.58915124002E+02  0.49882822749E+02  0.29149309301E+03  0.30154188949E+03  0.00000000000E+00 0.  1.
</event>
<event>
12    1  0.8494789E-002  0.1937911E+03  0.7818608E-02  0.1155841E+00
         21   -1    0    0  503  502  0.00000000000E+00  0.00000000000E+00  0.56610502276E+03  0.56610502276E+03  0.00000000000E+00 0.  1.
         21   -1    0    0  501  503 -0.00000000000E+00 -0.00000000000E+00 -0.65237947939E+02  0.65237947939E+02  0.00000000000E+00 0.  1.
          6    2    1    2  501    0 -0.81992716457E+02 -0.36265994384E+02  0.26217546091E+03  0.32602295772E+03  0.17180503123E+03 0.  0.
         24    2    3    3    0    0  0.10426393779E+02 -0.55797872895E+02  0.14393945955E+03  0.17461414611E+03  0.80928485089E+02 0.  0.
         -6    2    1    2    0  502  0.81992716457E+02  0.36265994384E+02  0.23869161391E+03  0.30532001298E+03  0.16795414813E+03 0.  0.
        -24    2    5    5    0    0  0.25633944928E+01  0.67939905554E+02  0.13847496703E+03  0.17349543201E+03  0.79391099475E+02 0.  0.
          5    1    3    3  501    0 -0.92419110236E+02  0.19531878511E+02  0.11823600136E+03  0.15140881161E+03  0.47000000000E+01 0. -1.
        -11    1    4    4    0    0 -0.27689636556E+02 -0.52826602102E+02  0.75458891164E+02  0.96184250883E+02  0.00000000000E+00 0.  1.
         12    1    4    4    0    0  0.38116030335E+02 -0.29712707927E+01  0.68480568384E+02  0.78429895224E+02  0.00000000000E+00 0. -1.
         -5    1    5    5    0  502  0.79429321964E+02 -0.31673911170E+02  0.10021664687E+03  0.13182458097E+03  0.47000000000E+01 0.  1.
         11    1    6    6    0    0 -0.28852875778E+02  0.70498489381E+01  0.72629475989E+02  0.78468016371E+02  0.00000000000E+00 0. -1.
        -12    1    6    6    0    0  0.31416270271E+02  0.60890056616E+02  0.65845491043E+02  0.95027415639E+02  0.00000000000E+00 0.  1.
</event>
<event>
12    1  0.8494789E-002  0.4692067E+03  0.7818608E-02  0.1022353E+00
         21   -1    0    0  503  502  0.00000000000E+00  0.00000000000E+00  0.18686217157E+03  0.18686217157E+03  0.00000000000E+00 0.  1.
         21   -1    0    0  501  503 -0.00000000000E+00 -0.00000000000E+00 -0.12071479636E+04  0.12071479636E+04  0.00000000000E+00 0. -1.
          6    2    1    2  501    0 -0.40967287855E+03  0.13999122230E+03 -0.63267954478E+03  0.78767908006E+03  0.18090195421E+03 0.  0.
         24    2    3    3    0    0 -0.33451790687E+03  0.12895609904E+03 -0.40040171714E+03  0.54325092512E+03  0.79171504071E+02 0.  0.
         -6    2    1    2    0  502  0.40967287855E+03 -0.13999122230E+03 -0.38760624726E+03  0.60633105513E+03  0.17311653808E+03 0.  0.
        -24    2    5    5    0    0  0.68348061008E+02 -0.43129977692E+02 -0.88056549456E+02  0.14196391242E+03  0.76603812614E+02 0.  0.
          5    1    3    3  501    0 -0.75154971675E+02  0.11035123258E+02 -0.23227782764E+03  0.24442815493E+03  0.47000000000E+01 0. -1.
        -13    1    4    4    0    0 -0.22930335270E+03  0.74753177267E+02 -0.21392234174E+03  0.32238305378E+03  0.00000000000E+00 0.  1.
         14    1    4    4    0    0 -0.10521455417E+03  0.54202921773E+02 -0.18647937541E+03  0.22086787134E+03  0.00000000000E+00 0. -1.
         -5    1    5    5    0  502  0.34132481754E+03 -0.96861244606E+02 -0.29954969781E+03  0.46436714271E+03  0.47000000000E+01 0.  1.
         11    1    6    6    0    0  0.36019853876E+01  0.20313921861E+02 -0.14338542075E+02  0.25124161855E+02  0.00000000000E+00 0. -1.
        -12    1    6    6    0    0  0.64746075621E+02 -0.63443899553E+02 -0.73718007381E+02  0.11683975056E+03  0.00000000000E+00 0.  1.
</event>
<event>
12    1  0.8494789E-002  0.1915748E+03  0.7818608E-02  0.1157321E+00
         21   -1    0    0  501  502  0.00000000000E+00  0.00000000000E+00  0.12362926941E+03  0.12362926941E+03  0.00000000000E+00 0.  1.
         21   -1    0    0  502  503 -0.00000000000E+00 -0.00000000000E+00 -0.37991003966E+03  0.37991003966E+03  0.00000000000E+00 0.  1.
         -6    2    1    2    0  503 -0.52020270989E+02 -0.64047876147E+02 -0.24749607765E+03  0.31297797725E+03  0.17289495875E+03 0.  0.
        -24    2    3    3    0    0 -0.17786885118E+02 -0.21393630933E+02 -0.33721868438E+02  0.92268186203E+02  0.81253880199E+02 0.  0.
          6    2    1    2  501    0  0.52020270989E+02  0.64047876147E+02 -0.87846926026E+01  0.19056133183E+03  0.17154652818E+03 0.  0.
         24    2    5    5    0    0  0.62185395926E+02 -0.82182773668E+01  0.32945891917E+02  0.10636359793E+03  0.79329815462E+02 0.  0.
          5    1    5    5  501    0 -0.10165124937E+02  0.72266153513E+02 -0.41730584520E+02  0.84197733895E+02  0.47000000000E+01 0. -1.
        -13    1    6    6    0    0  0.12536160696E+02  0.32641819737E+02  0.20527956474E+01  0.35026528385E+02  0.00000000000E+00 0.  1.
         14    1    6    6    0    0  0.49649235230E+02 -0.40860097104E+02  0.30893096270E+02  0.71337069546E+02  0.00000000000E+00 0. -1.
         -5    1    3    3    0  503 -0.34233385870E+02 -0.42654245214E+02 -0.21377420921E+03  0.22070979105E+03  0.47000000000E+01 0.  1.
         13    1    4    4    0    0 -0.50128240178E+02 -0.16879680795E+02 -0.16854452560E+02  0.55514292377E+02  0.00000000000E+00 0. -1.
        -14    1    4    4    0    0  0.32341355059E+02 -0.45139501383E+01 -0.16867415879E+02  0.36753893826E+02  0.00000000000E+00 0.  1.
</event>
<event>
12    1  0.8494789E-002  0.3154608E+03  0.7818608E-02  0.1077799E+00
         21   -1    0    0  503  502  0.00000000000E+00  0.00000000000E+00  0.36225885263E+03  0.36225885263E+03  0.00000000000E+00 0. -1.
         21   -1    0    0  501  503 -0.00000000000E+00 -0.00000000000E+00 -0.33712697584E+03  0.33712697584E+03  0.00000000000E+00 0.  1.
          6    2    1    2  501    0 -0.18633248768E+03  0.18693011017E+03  0.16341272396E+03  0.35527343228E+03  0.17277971894E+03 0.  0.
         24    2    3    3    0    0 -0.10325645714E+03  0.35486741226E+02  0.10880056460E+03  0.17405174815E+03  0.80840852497E+02 0.  0.
         -6    2    1    2    0  502  0.18633248768E+03 -0.18693011017E+03 -0.13828084717E+03  0.34411239619E+03  0.17213101541E+03 0.  0.
        -24    2    5    5    0    0  0.13877257992E+02 -0.61396528694E+02 -0.45009032238E+02  0.11125791849E+03  0.79939973849E+02 0.  0.
          5    1    3    3  501    0 -0.83076030540E+02  0.15144336895E+03  0.54612159356E+02  0.18122168413E+03  0.47000000000E+01 0. -1.
        -11    1    4    4    0    0 -0.50369532681E+01 -0.20909001574E+02  0.26062983531E+02  0.33791069169E+02  0.00000000000E+00 0.  1.
         12    1    4    4    0    0 -0.98219503874E+02  0.56395742800E+02  0.82737581070E+02  0.14026067898E+03  0.00000000000E+00 0. -1.
         -5    1    5    5    0  502  0.17245522969E+03 -0.12553358148E+03 -0.93271814928E+02  0.23285447770E+03  0.47000000000E+01 0.  1.
         13    1    6    6    0    0  0.21367381815E+02  0.99069006287E+01  0.46982182106E+01  0.24016347350E+02  0.00000000000E+00 0. -1.
        -14    1    6    6    0    0 -0.74901238225E+01 -0.71303429322E+02 -0.49707250449E+02  0.87241571141E+02  0.00000000000E+00 0.  1.
</event>
<event>
12    1  0.8494789E-002  0.1807009E+03  0.7818608E-02  0.1167334E+00
         21   -1    0    0  501  502  0.00000000000E+00  0.00000000000E+00  0.78453643425E+03  0.78453643425E+03  0.00000000000E+00 0.  1.
         21   -1    0    0  502  503 -0.00000000000E+00 -0.00000000000E+00 -0.15689608395E+03  0.15689608395E+03  0.00000000000E+00 0.  1.
         -6    2    1    2    0  503  0.10245493160E+02  0.50495979479E+02 -0.90201886520E+02  0.20119586836E+03  0.17230375225E+03 0.  0.
        -24    2    3    3    0    0 -0.54701272096E+02  0.57574179179E+02 -0.41939903205E+02  0.11983560618E+03  0.79338526274E+02 0.  0.
          6    2    1    2  501    0 -0.10245493160E+02 -0.50495979479E+02  0.71784223682E+03  0.74023664983E+03  0.17319932655E+03 0.  0.
         24    2    5    5    0    0  0.49468058963E+02 -0.70389746978E+02  0.49367515481E+03  0.50735375877E+03  0.79315022063E+02 0.  0.
          5    1    5    5  501    0 -0.59713552123E+02  0.19893767499E+02  0.22416708201E+03  0.23288289106E+03  0.47000000000E+01 0. -1.
        -13    1    6    6    0    0 -0.18205299850E+00 -0.33328084890E+02  0.34043235505E+03  0.34205991105E+03  0.00000000000E+00 0.  1.
         14    1    6    6    0    0  0.49650111962E+02 -0.37061662088E+02  0.15324279976E+03  0.16529384772E+03  0.00000000000E+00 0. -1.
         -5    1    3    3    0  503  0.64946765257E+02 -0.70781996999E+01 -0.48261983315E+02  0.81360262178E+02  0.47000000000E+01 0.  1.
         11    1    4    4    0    0 -0.55464946170E+02  0.27039416001E+01 -0.31924887443E+02  0.64053649326E+02  0.00000000000E+00 0. -1.
        -12    1    4    4    0    0  0.76367407308E+00  0.54870237579E+02 -0.10015015763E+02  0.55781956857E+02  0.00000000000E+00 0.  1.
</event>
<event>
12    1  0.8494789E-002  0.1820427E+03  0.7818608E-02  0.1165930E+00
         21   -1    0    0  503  502  0.00000000000E+00  0.00000000000E+00  0.62007957779E+02  0.62007957779E+02  0.00000000000E+00 0. -1.
         21   -1    0    0  501  503 -0.00000000000E+00 -0.00000000000E+00 -0.58626165686E+03  0.58626165686E+03  0.00000000000E+00 0.  1.
          6    2    1    2  501    0  0.43235528815E+02  0.39018001477E+02 -0.35926582769E+03  0.40258577842E+03  0.17208038426E+03 0.  0.
         24    2    3    3    0    0  0.47574178112E+02  0.61249089563E+02 -0.36264764070E+03  0.37920690303E+03  0.79182135609E+02 0.  0.
         -6    2    1    2    0  502 -0.43235528815E+02 -0.39018001477E+02 -0.16498787139E+03  0.24568383622E+03  0.17247560489E+03 0.  0.
        -24    2    5    5    0    0 -0.43776294601E+02 -0.11340228392E+02 -0.99867222996E+01  0.88159876868E+02  0.75016428321E+02 0.  0.
          5    1    3    3  501    0 -0.43386492967E+01 -0.22231088086E+02  0.33818130155E+01  0.23378875390E+02  0.47000000000E+01 0. -1.
        -11    1    4    4    0    0 -0.82439649541E+01  0.15976339647E+02 -0.20686699857E+03  0.20764672279E+03  0.00000000000E+00 0.  1.
         12    1    4    4    0    0  0.55818143066E+02  0.45272749917E+02 -0.15578064213E+03  0.17156018024E+03  0.00000000000E+00 0. -1.
         -5    1    5    5    0  502  0.54076578581E+00 -0.27677773085E+02 -0.15500114909E+03  0.15752395935E+03  0.47000000000E+01 0.  1.
         11    1    6    6    0    0 -0.15185427076E+02 -0.27926302454E+02  0.24692612616E+02  0.40251716511E+02  0.00000000000E+00 0. -1.
        -12    1    6    6    0    0 -0.28590867525E+02  0.16586074062E+02 -0.34679334916E+02  0.47908160357E+02  0.00000000000E+00 0.  1.
</event>
<event>
12    1  0.8494789E-002  0.1895307E+03  0.7818608E-02  0.1158990E+00
         21   -1    0    0  503  502  0.00000000000E+00  0.00000000000E+00  0.61093562222E+03  0.61093562222E+03  0.00000000000E+00 0.  1.
         21   -1    0    0  501  503 -0.00000000000E+00 -0.00000000000E+00 -0.11532119121E+03  0.11532119121E+03  0.00000000000E+00 0.  1.
          6    2    1    2  501    0 -0.41576467431E+02 -0.66073330114E+02 -0.65865269972E+01  0.18964515294E+03  0.17270672859E+03 0.  0.
         24    2    3    3    0    0 -0.21622970441E+02 -0.10372140303E+03 -0.36739296207E+02  0.13723524045E+03  0.79107856986E+02 0.  0.
         -6    2    1    2    0  502  0.41576467431E+02  0.66073330114E+02  0.50220095801E+03  0.53661166049E+03  0.17219751553E+03 0.  0.
        -24    2    5    5    0    0  0.86966824131E+02  0.12835801845E+02  0.30753431601E+03  0.32970175158E+03  0.79986893704E+02 0.  0.
          5    1    3    3  501    0 -0.19953496990E+02  0.37648072918E+02  0.30152769209E+02  0.52409912494E+02  0.47000000000E+01 0. -1.
        -13    1    4    4    0    0  0.81154071865E+01  0.96840739177E+01 -0.11975878203E+02  0.17408698406E+02  0.00000000000E+00 0.  1.
         14    1    4    4    0    0 -0.29738377628E+02 -0.11340547695E+03 -0.24763418003E+02  0.11982654204E+03  0.00000000000E+00 0. -1.
         -5    1    5    5    0  502 -0.45390356700E+02  0.53237528269E+02  0.19466664200E+03  0.20690990891E+03  0.47000000000E+01 0.  1.
         11    1    6    6    0    0  0.42517354837E+01  0.31937512540E+02  0.61417492067E+02  0.69355535422E+02  0.00000000000E+00 0. -1.
        -12    1    6    6    0    0  0.82715088648E+02 -0.19101710695E+02  0.24611682394E+03  0.26034621616E+03  0.00000000000E+00 0.  1.
</event>
<event>
12    1  0.8494789E-002  0.2499221E+03  0.7818608E-02  0.1113428E+00
         21   -1    0    0  503  502  0.00000000000E+00  0.00000000000E+00  0.12294974475E+03  0.12294974475E+03  0.00000000000E+00 0.  1.
         21   -1    0    0  501  503 -0.00000000000E+00 -0.00000000000E+00 -0.54419789177E+03  0.54419789177E+03  0.00000000000E+00 0.  1.
          6    2    1    2  501    0 -0.83451057356E+02  0.16018443429E+03 -0.12332058375E+03  0.27827507178E+03  0.17206370110E+03 0.  0.
         24    2    3    3    0    0 -0.50149840769E+02  0.12046025527E+02 -0.65361499744E+02  0.11568569760E+03  0.80317754705E+02 0.  0.
         -6    2    1    2    0  502  0.83451057356E+02 -0.16018443429E+03 -0.29792756327E+03  0.38887256474E+03  0.17273652390E+03 0.  0.
        -24    2    5    5    0    0 -0.22005763047E+02 -0.87675320868E+02 -0.12170557843E+03  0.17103090105E+03  0.79171369804E+02 0.  0.
          5    1    3    3  501    0 -0.33301216587E+02  0.14813840876E+03 -0.57959084010E+02  0.16258937418E+03  0.47000000000E+01 0. -1.
        -11    1    4    4    0    0 -0.22499110577E+02  0.30918605164E+02  0.42191428243E+01  0.38470394958E+02  0.00000000000E+00 0.  1.
         12    1    4    4    0    0 -0.27650730192E+02 -0.18872579636E+02 -0.69580642568E+02  0.77215302645E+02  0.00000000000E+00 0. -1.
         -5    1    5    5    0  502  0.10545682040E+03 -0.72509113419E+02 -0.17622198484E+03  0.21784166369E+03  0.47000000000E+01 0.  1.
         13    1    6    6    0    0 -0.85801508248E+00 -0.95171365555E+02 -0.11085902054E+03  0.14610971031E+03  0.00000000000E+00 0. -1.
        -14    1    6    6    0    0 -0.21147747965E+02  0.74960446869E+01 -0.10846557890E+02  0.24921190742E+02  0.00000000000E+00 0.  1.
</event>
<event>
12    1  0.8494789E-002  0.2254854E+03  0.7818608E-02  0.1129978E+00
         21   -1    0    0  501  502  0.00000000000E+00  0.00000000000E+00  0.55234049905E+03  0.55234049905E+03  0.00000000000E+00 0. -1.
         21   -1    0    0  502  503 -0.00000000000E+00 -0.00000000000E+00 -0.96599722919E+02  0.96599722919E+02  0.00000000000E+00 0.  1.
         -6    2    1    2    0  503 -0.11125544195E+03  0.92679320058E+02  0.15508629006E+03  0.27312536421E+03  0.17198394542E+03 0.  0.
        -24    2    3    3    0    0 -0.77231730458E+02 -0.17006083865E+02  0.86642471010E+02  0.13935261981E+03  0.75221591237E+02 0.  0.
          6    2    1    2  501    0  0.11125544195E+03 -0.92679320058E+02  0.30065448607E+03  0.37581485776E+03  0.17284807662E+03 0.  0.
         24    2    5    5    0    0  0.74745067515E+02 -0.35353615226E+02  0.68266936226E+02  0.13364692595E+03  0.79777333914E+02 0.  0.
          5    1    5    5  501    0  0.36510374434E+02 -0.57325704831E+02  0.23238754984E+03  0.24216793181E+03  0.47000000000E+01 0. -1.
        -11    1    6    6    0    0  0.34617451140E+02  0.16671080258E+02  0.54229950849E+02  0.66461871847E+02  0.00000000000E+00 0.  1.
         12    1    6    6    0    0  0.40127616375E+02 -0.52024695484E+02  0.14036985378E+02  0.67185054102E+02  0.00000000000E+00 0. -1.
         -5    1    3    3    0  503 -0.34023711491E+02  0.10968540392E+03  0.68443819055E+02  0.13377274440E+03  0.47000000000E+01 0.  1.
         11    1    4    4    0    0 -0.84615373222E+02  0.53400709971E+01  0.74526259154E+02  0.11288242134E+03  0.00000000000E+00 0. -1.
        -12    1    4    4    0    0  0.73836427639E+01 -0.22346154862E+02  0.12116211856E+02  0.26470198475E+02  0.00000000000E+00 0.  1.
</event>
<event>
12    1  0.8494789E-002  0.2176444E+03  0.7818608E-02  0.1135864E+00
         21   -1    0    0  503  502  0.00000000000E+00  0.00000000000E+00  0.21165920183E+03  0.21165920183E+03  0.00000000000E+00 0. -1.
         21   -1    0    0  501  503 -0.00000000000E+00 -0.00000000000E+00 -0.59551063651E+03  0.59551063651E+03  0.00000000000E+00 0.  1.
          6    2    1    2  501    0  0.10381242472E+03  0.80468820165E+02 -0.51145759181E+03  0.55583986724E+03  0.17354203884E+03 0.  0.
         24    2    3    3    0    0  0.35196793543E+02 -0.66816227121E+01 -0.34403589052E+03  0.35495328083E+03  0.79672324233E+02 0.  0.
         -6    2    1    2    0  502 -0.10381242472E+03 -0.80468820165E+02  0.12760615713E+03  0.25132997109E+03  0.17213707469E+03 0.  0.
        -24    2    5    5    0    0 -0.12842449011E+03 -0.33412101672E+02  0.11723630109E+03  0.19701871597E+03  0.86387533543E+02 0.  0.
          5    1    3    3  501    0  0.68615631178E+02  0.87150442877E+02 -0.16742170129E+03  0.20088658641E+03  0.47000000000E+01 0. -1.
        -11    1    4    4    0    0 -0.24892175558E+02  0.66057304357E+01 -0.95495590202E+02  0.98907349710E+02  0.00000000000E+00 0.  1.
         12    1    4    4    0    0  0.60088969101E+02 -0.13287353148E+02 -0.24854030032E+03  0.25604593112E+03  0.00000000000E+00 0. -1.
         -5    1    5    5    0  502  0.24612065390E+02 -0.47056718493E+02  0.10369856044E+02  0.54311255118E+02  0.47000000000E+01 0.  1.
         13    1    6    6    0    0 -0.10471515867E+02 -0.37257894233E+02  0.41738324984E+02  0.56920041283E+02  0.00000000000E+00 0. -1.
        -14    1    6    6    0    0 -0.11795297424E+03  0.38457925615E+01  0.75497976107E+02  0.14009867469E+03  0.00000000000E+00 0.  1.
</event>
<event>
12    1  0.8494789E-002  0.1827316E+03  0.7818608E-02  0.1166187E+00
         21   -1    0    0  501  502  0.00000000000E+00  0.00000000000E+00  0.59992740739E+03  0.59992740739E+03  0.00000000000E+00 0. -1.
         21   -1    0    0  502  503 -0.00000000000E+00 -0.00000000000E+00 -0.78520814127E+02  0.78520814127E+02  0.00000000000E+00 0. -1.
         -6    2    1    2    0  503  0.37742834772E+01  0.58174690666E+02  0.70592483585E+02  0.19200788695E+03  0.16877556121E+03 0.  0.
        -24    2    3    3    0    0 -0.43068651977E+02  0.22942898754E+02 -0.64564252137E+01  0.95084390777E+02  0.81351524612E+02 0.  0.
          6    2    1    2  501    0 -0.37742834772E+01 -0.58174690666E+02  0.45081410968E+03  0.48644033457E+03  0.17318284488E+03 0.  0.
         24    2    5    5    0    0 -0.36981374758E+02 -0.98486697441E+02  0.30672247659E+03  0.33310326297E+03  0.76235519942E+02 0.  0.
          5    1    5    5  501    0  0.33207091281E+02  0.40312006775E+02  0.14409163308E+03  0.15333707160E+03  0.47000000000E+01 0. -1.
        -13    1    6    6    0    0 -0.71293882422E+01 -0.66209494478E+01 -0.17278943512E+01  0.98818402733E+01  0.00000000000E+00 0.  1.
         14    1    6    6    0    0 -0.29851986516E+02 -0.91865747993E+02  0.30845037094E+03  0.32322142269E+03  0.00000000000E+00 0. -1.
         -5    1    3    3    0  503  0.46842935454E+02  0.35231791912E+02  0.77048908799E+02  0.96923496173E+02  0.47000000000E+01 0.  1.
         13    1    4    4    0    0 -0.53903404227E+01  0.22776964671E+02 -0.38875899080E+02  0.45378204226E+02  0.00000000000E+00 0. -1.
        -14    1    4    4    0    0 -0.37678311554E+02  0.16593408260E+00  0.32419473867E+02  0.49706186551E+02  0.00000000000E+00 0.  1.
</event>
<event>
12    1  0.8494789E-002  0.2031160E+03  0.7818608E-02  0.1148037E+00
         21   -1    0    0  503  502  0.00000000000E+00  0.00000000000E+00  0.19473795641E+03  0.19473795641E+03  0.00000000000E+00 0. -1.
         21   -1    0    0  501  503 -0.00000000000E+00 -0.00000000000E+00 -0.20893248116E+03  0.20893248116E+03  0.00000000000E+00 0. -1.
          6    2    1    2  501    0 -0.10564066699E+03  0.26407124049E+02  0.10344404139E+02  0.19907751078E+03  0.16633569034E+03 0.  0.
         24    2    3    3    0    0 -0.10166894074E+03  0.56884312904E+02 -0.33264377327E+02  0.14551960314E+03  0.80604202957E+02 0.  0.
         -6    2    1    2    0  502  0.10564066699E+03 -0.26407124049E+02 -0.24538928888E+02  0.20459292679E+03  0.17146084083E+03 0.  0.
        -24    2    5    5    0    0  0.12659603605E+03  0.19401240535E+02 -0.30637145533E+02  0.15363400211E+03  0.79131583081E+02 0.  0.
          5    1    3    3  501    0 -0.39717262514E+01 -0.30477188856E+02  0.43608781466E+02  0.53557907641E+02  0.47000000000E+01 0. -1.
        -11    1    4    4    0    0 -0.66405323242E+02  0.76170817719E+02 -0.28815877606E+02  0.10508099366E+03  0.00000000000E+00 0.  1.
         12    1    4    4    0    0 -0.35263617498E+02 -0.19286504815E+02 -0.44484997211E+01  0.40438609481E+02  0.00000000000E+00 0. -1.
         -5    1    5    5    0  502 -0.20955369059E+02 -0.45808364584E+02  0.60982166451E+01  0.50958924679E+02  0.47000000000E+01 0.  1.
         11    1    6    6    0    0  0.41353392179E+01  0.35574193997E+01  0.19584764053E+02  0.20330254456E+02  0.00000000000E+00 0. -1.
        -12    1    6    6    0    0  0.12246069683E+03  0.15843821136E+02 -0.50221909586E+02  0.13330374766E+03  0.00000000000E+00 0.  1.
</event>
<event>
12    1  0.8494789E-002  0.1763607E+03  0.7818608E-02  0.1171901E+00
         21   -1    0    0  501  502  0.00000000000E+00  0.00000000000E+00  0.53592166161E+03  0.53592166161E+03  0.00000000000E+00 0.  1.
         21   -1    0    0  502  503 -0.00000000000E+00 -0.00000000000E+00 -0.11330968385E+03  0.11330968385E+03  0.00000000000E+00 0.  1.
         -6    2    1    2    0  503 -0.25177747766E+01  0.38586758907E+02 -0.17474279315E+02  0.17512270399E+03  0.16990389596E+03 0.  0.
        -24    2    3    3    0    0 -0.41739021066E+02  0.78429182630E+02 -0.39615724969E+01  0.11741301560E+03  0.76660547925E+02 0.  0.
          6    2    1    2  501    0  0.25177747766E+01 -0.38586758907E+02  0.44008625707E+03  0.47410864146E+03  0.17206921018E+03 0.  0.
         24    2    5    5    0    0  0.63870673631E+01 -0.90900835892E+02  0.34566012429E+03  0.36598778950E+03  0.78500853153E+02 0.  0.
          5    1    5    5  501    0 -0.38692925865E+01  0.52314076985E+02  0.94426132784E+02  0.10812085196E+03  0.47000000000E+01 0. -1.
        -13    1    6    6    0    0 -0.25017229162E+01  0.68786806266E+00  0.14730286365E+03  0.14732571201E+03  0.00000000000E+00 0.  1.
         14    1    6    6    0    0  0.88887902793E+01 -0.91588703954E+02  0.19835726064E+03  0.21866207749E+03  0.00000000000E+00 0. -1.
         -5    1    3    3    0  503  0.39221246289E+02 -0.39842423723E+02 -0.13512706819E+02  0.57709688391E+02  0.47000000000E+01 0.  1.
         11    1    4    4    0    0 -0.49229584223E+01  0.33293745074E+02  0.34037917601E+02  0.47867408696E+02  0.00000000000E+00 0. -1.
        -12    1    4    4    0    0 -0.36816062643E+02  0.45135437555E+02 -0.37999490098E+02  0.69545606903E+02  0.00000000000E+00 0.  1.
</event>
<event>
12    1  0.8494789E-002  0.1762973E+03  0.7818608E-02  0.1171724E+00
         21   -1    0    0  503  502  0.00000000000E+00  0.00000000000E+00  0.49033931535E+03  0.49033931535E+03  0.00000000000E+00 0.  1.
         21   -1    0    0  501  503 -0.00000000000E+00 -0.00000000000E+00 -0.74635162015E+02  0.74635162015E+02  0.00000000000E+00 0. -1.
          6    2    1    2  501    0  0.31314154968E+02  0.12698837245E+02  0.96754800586E+02  0.20110249133E+03  0.17302856358E+03 0.  0.
         24    2    3    3    0    0  0.76093310917E+01  0.22142662921E+02  0.12483331937E+03  0.16287164337E+03  0.10195888951E+03 0.  0.
         -6    2    1    2    0  502 -0.31314154968E+02 -0.12698837245E+02  0.31894935275E+03  0.36387198604E+03  0.17184963147E+03 0.  0.
        -24    2    5    5    0    0 -0.90607312835E+01 -0.31875992129E+02  0.64311502928E+02  0.10750213076E+03  0.79514545730E+02 0.  0.
          5    1    3    3  501    0  0.23704823876E+02 -0.94438256763E+01 -0.28078518780E+02  0.38230847954E+02  0.47000000000E+01 0. -1.
        -13    1    4    4    0    0  0.45224755808E+02 -0.52704827805E+01  0.10053885812E+03  0.11036810463E+03  0.00000000000E+00 0.  1.
         14    1    4    4    0    0 -0.37615424717E+02  0.27413145702E+02  0.24294461247E+02  0.52503538749E+02  0.00000000000E+00 0. -1.
         -5    1    5    5    0  502 -0.22253423684E+02  0.19177154885E+02  0.25463784982E+03  0.25636985528E+03  0.47000000000E+01 0.  1.
         11    1    6    6    0    0 -0.18254000206E+02  0.43704964432E+01 -0.12168894742E+02  0.22369438123E+02  0.00000000000E+00 0. -1.
        -12    1    6    6    0    0  0.91932689225E+01 -0.36246488573E+02  0.76480397670E+02  0.85132692634E+02  0.00000000000E+00 0.  1.
</event>
<event>
12    1  0.8494789E-002  0.2364417E+03  0.7818608E-02  0.1122299E+00
         21   -1    0    0  503  502  0.00000000000E+00  0.00000000000E+00  0.29102971308E+03  0.29102971308E+03  0.00000000000E+00 0.  1.
         21   -1    0    0  501  503 -0.00000000000E+00 -0.00000000000E+00 -0.47042520690E+03  0.47042520690E+03  0.00000000000E+00 0.  1.
          6    2    1    2  501    0 -0.58074560302E+02  0.15068000510E+03 -0.38288481036E+03  0.45000608375E+03  0.17270662674E+03 0.  0.
         24    2    3    3    0    0 -0.10257058962E+03  0.10573388379E+03 -0.23517800152E+03  0.28925956956E+03  0.81621235902E+02 0.  0.
         -6    2    1    2    0  502  0.58074560302E+02 -0.15068000510E+03  0.20348931654E+03  0.31144883623E+03  0.17180034095E+03 0.  0.
        -24    2    5    5    0    0  0.91174578563E+02 -0.65033729086E+02  0.86558185375E+02  0.16270114637E+03  0.80231875703E+02 0.  0.
          5    1    3    3  501    0  0.44496029317E+02  0.44946121307E+02 -0.14770680885E+03  0.16074651419E+03  0.47000000000E+01 0. -1.
        -11    1    4    4    0    0 -0.83481187504E+02  0.80425445419E+02 -0.22941687627E+03  0.25703981025E+03  0.00000000000E+00 0.  1.
         12    1    4    4    0    0 -0.19089402115E+02  0.25308438371E+02 -0.57611252482E+01  0.32219759310E+02  0.00000000000E+00 0. -1.
         -5    1    5    5    0  502 -0.33100018261E+02 -0.85646276011E+02  0.11693113117E+03  0.14874768986E+03  0.47000000000E+01 0.  1.
         11    1    6    6    0    0  0.92097898029E+01  0.80412271025E+01 -0.10522536977E+02  0.16130881747E+02  0.00000000000E+00 0. -1.
        -12    1    6    6    0    0  0.81964788760E+02 -0.73074956189E+02  0.97080722351E+02  0.14657026462E+03  0.00000000000E+00 0.  1.
</event>
<event>
12    1  0.8494789E-002  0.2442823E+03  0.7818608E-02  0.1117057E+00
         21   -1    0    0  503  502  0.00000000000E+00  0.00000000000E+00  0.18385426511E+03  0.18385426511E+03  0.00000000000E+00 0. -1.
         21   -1    0    0  501  503 -0.00000000000E+00 -0.00000000000E+00 -0.40560013006E+03  0.40560013006E+03  0.00000000000E+00 0. -1.
          6    2    1    2  501    0 -0.17294117848E+03 -0.50903904511E+01 -0.24325404834E+03  0.34474100783E+03  0.17245076735E+03 0.  0.
         24    2    3    3    0    0 -0.58952207051E+02  0.55515493476E+02 -0.13932679147E+03  0.17894135918E+03  0.77786390017E+02 0.  0.
         -6    2    1    2    0  502  0.17294117848E+03  0.50903904511E+01  0.21508183383E+02  0.24471338735E+03  0.17171917979E+03 0.  0.
        -24    2    5    5    0    0  0.10296104101E+03  0.69190326532E+02 -0.52898895129E+00  0.14717494154E+03  0.79195368159E+02 0.  0.
          5    1    3    3  501    0 -0.11398897142E+03 -0.60605883927E+02 -0.10392725687E+03  0.16579964865E+03  0.47000000000E+01 0. -1.
        -13    1    4    4    0    0  0.13198828918E+02  0.18361345141E+02 -0.65265677676E+02  0.69072112771E+02  0.00000000000E+00 0.  1.
         14    1    4    4    0    0 -0.72151035970E+02  0.37154148335E+02 -0.74061113792E+02  0.10986924641E+03  0.00000000000E+00 0. -1.
         -5    1    5    5    0  502  0.69980137468E+02 -0.64099936081E+02  0.22037172334E+02  0.97538445805E+02  0.47000000000E+01 0.  1.
         11    1    6    6    0    0  0.44791052105E+02 -0.11680087271E+02  0.88106438198E+01  0.47119955771E+02  0.00000000000E+00 0. -1.
        -12    1    6    6    0    0  0.58169988902E+02  0.80870413803E+02 -0.93396327711E+01  0.10005498577E+03  0.00000000000E+00 0.  1.
</event>
<event>
12    1  0.8494789E-002  0.2378394E+03  0.7818608E-02  0.1121295E+00
         21   -1    0    0  503  502  0.00000000000E+00  0.00000000000E+00  0.49969374123E+03  0.49969374123E+03  0.00000000000E+00 0.  1.
         21   -1    0    0  501  503 -0.00000000000E+00 -0.00000000000E+00 -0.18868988701E+03  0.18868988701E+03  0.00000000000E+00 0. -1.
          6    2    1    2  501    0  0.15830702492E+03 -0.46532319286E+02 -0.62484430514E+02  0.24559579262E+03  0.17084091552E+03 0.  0.
         24    2    3    3    0    0  0.14210187365E+03 -0.68580127961E+01  0.72118817773E+01  0.16364261409E+03  0.80541412164E+02 0.  0.
         -6    2    1    2    0  502 -0.15830702492E+03  0.46532319286E+02  0.37348828473E+03  0.44278783563E+03  0.17129272510E+03 0.  0.
        -24    2    5    5    0    0 -0.18545994196E+03  0.32954840293E+02  0.33737340408E+03  0.39537472095E+03  0.83779141855E+02 0.  0.
          5    1    3    3  501    0  0.16205151269E+02 -0.39674306490E+02 -0.69696312292E+02  0.81953178524E+02  0.47000000000E+01 0. -1.
        -11    1    4    4    0    0  0.38832051737E+02 -0.38955095608E+01  0.39375466184E+02  0.55439431581E+02  0.00000000000E+00 0.  1.
         12    1    4    4    0    0  0.10326982192E+03 -0.29625032353E+01 -0.32163584406E+02  0.10820318251E+03  0.00000000000E+00 0. -1.
         -5    1    5    5    0  502  0.27152917040E+02  0.13577478993E+02  0.36114880645E+02  0.47413114680E+02  0.47000000000E+01 0.  1.
         11    1    6    6    0    0 -0.28661916982E+02 -0.72997756741E+01  0.12436058574E+03  0.12782936868E+03  0.00000000000E+00 0. -1.
        -12    1    6    6    0    0 -0.15679802498E+03  0.40254615967E+02  0.21301281834E+03  0.26754535227E+03  0.00000000000E+00 0.  1.
</event>
<event>
12    1  0.8494789E-002  0.2427240E+03  0.7818608E-02  0.1118187E+00
         21   -1    0    0  501  502  0.00000000000E+00  0.00000000000E+00  0.31781627024E+03  0.31781627024E+03  0.00000000000E+00 0. -1.
         21   -1    0    0  502  503 -0.00000000000E+00 -0.00000000000E+00 -0.50600796857E+03  0.50600796857E+03  0.00000000000E+00 0.  1.
         -6    2    1    2    0  503 -0.18080185216E+01  0.16968803408E+03 -0.42236693078E+03  0.48655141698E+03  0.17187541797E+03 0.  0.
        -24    2    3    3    0    0 -0.39626904801E+02  0.24626786244E+02 -0.16020361166E+03  0.18451709827E+03  0.78769233712E+02 0.  0.
          6    2    1    2  501    0  0.18080185216E+01 -0.16968803408E+03  0.23417523245E+03  0.33727282183E+03  0.17354428544E+03 0.  0.
         24    2    5    5    0    0  0.63741505864E+02 -0.13993596055E+03  0.17762230222E+03  0.24815903698E+03  0.79926045568E+02 0.  0.
          5    1    5    5  501    0 -0.61933487342E+02 -0.29752073533E+02  0.56552930228E+02  0.89113784855E+02  0.47000000000E+01 0. -1.
        -13    1    6    6    0    0  0.23312982837E+02 -0.18876035357E+01  0.58477065231E+01  0.24109207525E+02  0.00000000000E+00 0.  1.
         14    1    6    6    0    0  0.40428523026E+02 -0.13804835702E+03  0.17177459570E+03  0.22404982945E+03  0.00000000000E+00 0. -1.
         -5    1    3    3    0  503  0.37818886280E+02  0.14506124784E+03 -0.26216331913E+03  0.30203431871E+03  0.47000000000E+01 0.  1.
         11    1    4    4    0    0 -0.10874907374E+02  0.40353795225E+01 -0.14591388819E+03  0.14637421448E+03  0.00000000000E+00 0. -1.
        -12    1    4    4    0    0 -0.28751997427E+02  0.20591406721E+02 -0.14289723472E+02  0.38142883789E+02  0.00000000000E+00 0.  1.
</event>
<event>
12    1  0.8494789E-002  0.1852490E+03  0.7818608E-02  0.1162896E+00
         21   -1    0    0  503  502  0.00000000000E+00  0.00000000000E+00  0.15313576193E+04  0.15313576193E+04  0.00000000000E+00 0.  1.
         21   -1    0    0  501  503 -0.00000000000E+00 -0.00000000000E+00 -0.31961911058E+02  0.31961911058E+02  0.00000000000E+00 0.  1.
          6    2    1    2  501    0  0.69010459227E+02  0.63014732188E+01  0.32194315640E+03  0.37143583612E+03  0.17179939566E+03 0.  0.
         24    2    3    3    0    0 -0.15379611451E+02 -0.35084900413E+02  0.20083382366E+03  0.21806023040E+03  0.75819236812E+02 0.  0.
         -6    2    1    2    0  502 -0.69010459227E+02 -0.63014732188E+01  0.11774525519E+04  0.11918836943E+04  0.17143534269E+03 0.  0.
        -24    2    5    5    0    0 -0.66666708403E+02  0.41840508970E+02  0.10410311849E+04  0.10471217415E+04  0.80764690898E+02 0.  0.
          5    1    3    3  501    0  0.84390070678E+02  0.41386373632E+02  0.12110933275E+03  0.15337560572E+03  0.47000000000E+01 0. -1.
        -11    1    4    4    0    0  0.18272036098E+02  0.15557242346E+02  0.62742275022E+02  0.67175056141E+02  0.00000000000E+00 0.  1.
         12    1    4    4    0    0 -0.33651647549E+02 -0.50642142759E+02  0.13809154863E+03  0.15088517426E+03  0.00000000000E+00 0. -1.
         -5    1    5    5    0  502 -0.23437508242E+01 -0.48141982189E+02  0.13642136694E+03  0.14476195279E+03  0.47000000000E+01 0.  1.
         11    1    6    6    0    0  0.63860447733E+01 -0.14555277086E+02  0.29103910576E+03  0.29147280961E+03  0.00000000000E+00 0. -1.
        -12    1    6    6    0    0 -0.73052753176E+02  0.56395786056E+02  0.74999207919E+03  0.75564893189E+03  0.00000000000E+00 0.  1.
</event>
<event>
12    1  0.8494789E-002  0.2124722E+03  0.7818608E-02  0.1139875E+00
         21   -1    0    0  501  502  0.00000000000E+00  0.00000000000E+00  0.38068694425E+03  0.38068694425E+03  0.00000000000E+00 0. -1.
         21   -1    0    0  502  503 -0.00000000000E+00 -0.00000000000E+00 -0.12289634052E+03  0.12289634052E+03  0.00000000000E+00 0.  1.
         -6    2    1    2    0  503  0.10444687232E+03 -0.67677764081E+02  0.78344559775E+02  0.22645596262E+03  0.17220628348E+03 0.  0.
        -24    2    3    3    0    0  0.48882548310E+02 -0.10868616266E+03  0.59216055687E+02  0.15464320243E+03  0.78776857804E+02 0.  0.
          6    2    1    2  501    0 -0.10444687232E+03  0.67677764081E+02  0.17944604395E+03  0.27712732215E+03  0.17061430509E+03 0.  0.
         24    2    5    5    0    0 -0.37721463315E+02 -0.21719884886E+02  0.11534999109E+03  0.14838488998E+03  0.82569927550E+02 0.  0.
          5    1    5    5  501    0 -0.66725409008E+02  0.89397648967E+02  0.64096052864E+02  0.12874243217E+03  0.47000000000E+01 0. -1.
        -13    1    6    6    0    0 -0.43087990441E+02  0.87872390120E+00  0.15390958128E+02  0.45762743231E+02  0.00000000000E+00 0.  1.
         14    1    6    6    0    0  0.53665271261E+01 -0.22598608787E+02  0.99959032961E+02  0.10262214675E+03  0.00000000000E+00 0. -1.
         -5    1    3    3    0  503  0.55564324012E+02  0.41008398575E+02  0.19128504088E+02  0.71812760185E+02  0.47000000000E+01 0.  1.
         11    1    4    4    0    0  0.13239333131E+01 -0.29785373338E+02  0.54831383092E+02  0.62413154351E+02  0.00000000000E+00 0. -1.
        -12    1    4    4    0    0  0.47558614997E+02 -0.78900789319E+02  0.43846725951E+01  0.92230048083E+02  0.00000000000E+00 0.  1.
</event>
<event>
12    1  0.8494789E-002  0.1781252E+03  0.7818608E-02  0.1170487E+00
         21   -1    0    0  501  502  0.00000000000E+00  0.00000000000E+00  0.17058119092E+04  0.17058119092E+04  0.00000000000E+00 0. -1.
         21   -1    0    0  502  503 -0.00000000000E+00 -0.00000000000E+00 -0.18550981082E+03  0.18550981082E+03  0.00000000000E+00 0.  1.
         -6    2    1    2    0  503  0.33099259293E+02 -0.24218455079E+02 -0.13707727424E+03  0.22476378013E+03  0.17333921430E+03 0.  0.
        -24    2    3    3    0    0  0.19852009483E+02  0.48154163322E+02 -0.50414811864E+02  0.11098435358E+03  0.84041345529E+02 0.  0.
          6    2    1    2  501    0 -0.33099259293E+02  0.24218455079E+02  0.16573793726E+04  0.16665579399E+04  0.16978482759E+03 0.  0.
         24    2    5    5    0    0 -0.37249719758E+02  0.39403718227E+02  0.16354763738E+04  0.16391782048E+04  0.95822873086E+02 0.  0.
          5    1    5    5  501    0  0.41504604647E+01 -0.15185263148E+02  0.21902998781E+02  0.27379735107E+02  0.47000000000E+01 0. -1.
        -11    1    6    6    0    0  0.22690935896E+02 -0.92366140119E+01  0.18042810453E+03  0.18208375686E+03  0.00000000000E+00 0.  1.
         12    1    6    6    0    0 -0.59940655654E+02  0.48640332239E+02  0.14550482693E+04  0.14570944479E+04  0.00000000000E+00 0. -1.
         -5    1    3    3    0  503  0.13247249810E+02 -0.72372618401E+02 -0.86662462372E+02  0.11377942655E+03  0.47000000000E+01 0.  1.
         11    1    4    4    0    0  0.15671265212E+02 -0.11709090017E+02  0.13147509510E+02  0.23570073158E+02  0.00000000000E+00 0. -1.
        -12    1    4    4    0    0  0.41807442715E+01  0.59863253339E+02 -0.63562321375E+02  0.87414280421E+02  0.00000000000E+00 0.  1.
</event>
<event>
12    1  0.8494789E-002  0.2183561E+03  0.7818608E-02  0.1135758E+00
         21   -1    0    0  503  502  0.00000000000E+00  0.00000000000E+00  0.16413170030E+04  0.16413170030E+04  0.00000000000E+00 0.  1.
         21   -1    0    0  501  503 -0.00000000000E+00 -0.00000000000E+00 -0.43421472561E+02  0.43421472561E+02  0.00000000000E+00 0. -1.
          6    2    1    2  501    0  0.10489728651E+03 -0.76711184639E+02  0.30269111586E+03  0.37125688821E+03  0.17123585740E+03 0.  0.
         24    2    3    3    0    0  0.13169559497E+03 -0.82684119549E+02  0.29412933457E+03  0.34211551922E+03  0.79690461681E+02 0.  0.
         -6    2    1    2    0  502 -0.10489728651E+03  0.76711184639E+02  0.12952044145E+04  0.13134815873E+04  0.17547466537E+03 0.  0.
        -24    2    5    5    0    0 -0.30212550523E+02  0.33701424235E+02  0.10300761569E+04  0.10346577499E+04  0.86088247260E+02 0.  0.
          5    1    3    3  501    0 -0.26798308459E+02  0.59729349097E+01  0.85617812943E+01  0.29141368990E+02  0.47000000000E+01 0. -1.
        -13    1    4    4    0    0  0.13393990795E+03 -0.55713872341E+02  0.22321099154E+03  0.26620871747E+03  0.00000000000E+00 0.  1.
         14    1    4    4    0    0 -0.22443129813E+01 -0.26970247208E+02  0.70918343023E+02  0.75906801752E+02  0.00000000000E+00 0. -1.
         -5    1    5    5    0  502 -0.74684735986E+02  0.43009760404E+02  0.26512825767E+03  0.27882383739E+03  0.47000000000E+01 0.  1.
         13    1    6    6    0    0 -0.29496354540E+02  0.38167530544E+02  0.25237552335E+03  0.25694396297E+03  0.00000000000E+00 0. -1.
        -14    1    6    6    0    0 -0.71619598290E+00 -0.44661063090E+01  0.77770063351E+03  0.77771378695E+03  0.00000000000E+00 0.  1.
</event>
<event>
12    1  0.8494789E-002  0.1834606E+03  0.7818608E-02  0.1164823E+00
         21   -1    0    0  503  502  0.00000000000E+00  0.00000000000E+00  0.15669462641E+03  0.15669462641E+03  0.00000000000E+00 0.  1.
         21   -1    0    0  501  503 -0.00000000000E+00 -0.00000000000E+00 -0.21334154950E+03  0.21334154950E+03  0.00000000000E+00 0.  1.
          6    2    1    2  501    0 -0.54187351360E+02  0.25185299646E+02 -0.23399018719E+02  0.18494672892E+03  0.17345665193E+03 0.  0.
         24    2    3    3    0    0 -0.86945764570E+02  0.82007026646E+01  0.29956147862E+02  0.11990478883E+03  0.76504706314E+02 0.  0.
         -6    2    1    2    0  502  0.54187351360E+02 -0.25185299646E+02 -0.33247904366E+02  0.18508944699E+03  0.17199451118E+03 0.  0.
        -24    2    5    5    0    0 -0.17551521962E+02  0.26382456314E+02 -0.43119044535E+02  0.96065692809E+02  0.79782676121E+02 0.  0.
          5    1    3    3  501    0  0.32758413210E+02  0.16984596981E+02 -0.53355166580E+02  0.65041940096E+02  0.47000000000E+01 0. -1.
        -11    1    4    4    0    0  0.36352430184E+01 -0.14595366334E+02 -0.10262319330E+02  0.18208649271E+02  0.00000000000E+00 0.  1.
         12    1    4    4    0    0 -0.90581007589E+02  0.22796068998E+02  0.40218467192E+02  0.10169613956E+03  0.00000000000E+00 0. -1.
         -5    1    5    5    0  502  0.71738873322E+02 -0.51567755960E+02  0.98711401684E+01  0.89023754181E+02  0.47000000000E+01 0.  1.
         13    1    6    6    0    0  0.20081701045E+02 -0.17713169552E+02 -0.66969451564E+01  0.27602176850E+02  0.00000000000E+00 0. -1.
        -14    1    6    6    0    0 -0.37633223007E+02  0.44095625866E+02 -0.36422099378E+02  0.68463515959E+02  0.00000000000E+00 0.  1.
</event>
<event>
12    1  0.8494789E-002  0.2450285E+03  0.7818608E-02  0.1116916E+00
         21   -1    0    0  503  502  0.00000000000E+00  0.00000000000E+00  0.16352576164E+03  0.16352576164E+03  0.00000000000E+00 0. -1.
         21   -1    0    0  501  503 -0.00000000000E+00 -0.00000000000E+00 -0.58316297522E+03  0.58316297522E+03  0.00000000000E+00 0. -1.
          6    2    1    2  501    0  0.14303999863E+03  0.93764285783E+02 -0.43839159916E+03  0.50094354697E+03  0.17177037154E+03 0.  0.
         24    2    3    3    0    0  0.15654714590E+03  0.10812428307E+03 -0.31876543262E+03  0.37961275009E+03  0.79350926396E+02 0.  0.
         -6    2    1    2    0  502 -0.14303999863E+03 -0.93764285783E+02  0.18754385580E+02  0.24574518988E+03  0.17546164502E+03 0.  0.
        -24    2    5    5    0    0 -0.12479990626E+03 -0.94663834376E+02  0.71008007722E+02  0.19019304155E+03  0.81209591497E+02 0.  0.
          5    1    3    3  501    0 -0.13507147271E+02 -0.14359997289E+02 -0.11962616655E+03  0.12133079688E+03  0.47000000000E+01 0. -1.
        -13    1    4    4    0    0  0.10790783840E+03  0.28509945227E+02 -0.15279607812E+03  0.18921828679E+03  0.00000000000E+00 0.  1.
         14    1    4    4    0    0  0.48639307497E+02  0.79614337845E+02 -0.16596935449E+03  0.19039446330E+03  0.00000000000E+00 0. -1.
         -5    1    5    5    0  502 -0.18240092367E+02  0.89954859230E+00 -0.52253622142E+02  0.55552148331E+02  0.47000000000E+01 0.  1.
         13    1    6    6    0    0 -0.99074890850E+01 -0.35807010550E+02  0.45266849485E+02  0.58560976826E+02  0.00000000000E+00 0. -1.
        -14    1    6    6    0    0 -0.11489241718E+03 -0.58856823825E+02  0.25741158237E+02  0.13163206472E+03  0.00000000000E+00 0.  1.
</event>
<event>
12    1  0.8494789E-002  0.1852605E+03  0.7818608E-02  0.1162942E+00
         21   -1    0    0  503  502  0.00000000000E+00  0.00000000000E+00  0.25658936010E+03  0.25658936010E+03  0.00000000000E+00 0.  1.
         21   -1    0    0  501  503 -0.00000000000E+00 -0.00000000000E+00 -0.13632359803E+03  0.13632359803E+03  0.00000000000E+00 0.  1.
          6    2    1    2  501    0 -0.18660813958E+01  0.67217346266E+02  0.89086281609E+02  0.20504699472E+03  0.17200654224E+03 0.  0.
         24    2    3    3    0    0  0.18592034761E+02  0.22107142982E+02  0.11814241482E+03  0.14742916906E+03  0.83326707494E+02 0.  0.
         -6    2    1    2    0  502  0.18660813958E+01 -0.67217346266E+02  0.31179480464E+02  0.18786596341E+03  0.17262620400E+03 0.  0.
        -24    2    5    5    0    0  0.48140073533E+02 -0.14692183508E+02 -0.24652918790E+02  0.98202582492E+02  0.80639034389E+02 0.  0.
          5    1    3    3  501    0 -0.20458116157E+02  0.45110203284E+02 -0.29056133212E+02  0.57617825664E+02  0.47000000000E+01 0. -1.
        -11    1    4    4    0    0 -0.60115336823E+01  0.24825127060E+02 -0.11765137601E+01  0.25569701902E+02  0.00000000000E+00 0.  1.
         12    1    4    4    0    0  0.24603568443E+02 -0.27179840774E+01  0.11931892858E+03  0.12185946716E+03  0.00000000000E+00 0. -1.
         -5    1    5    5    0  502 -0.46273992138E+02 -0.52525162759E+02  0.55832399254E+02  0.89663380918E+02  0.47000000000E+01 0.  1.
         11    1    6    6    0    0  0.55011093847E+02  0.20830918526E+02 -0.16856749885E+02  0.61190666197E+02  0.00000000000E+00 0. -1.
        -12    1    6    6    0    0 -0.68710203140E+01 -0.35523102034E+02 -0.77961689049E+01  0.37011916295E+02  0.00000000000E+00 0.  1.
</event>
<event>
12    1  0.8494789E-002  0.1908707E+03  0.7818608E-02  0.1157962E+00
         21   -1    0    0  503  502  0.00000000000E+00  0.00000000000E+00  0.45690364645E+03  0.45690364645E+03  0.00000000000E+00 0.  1.
         21   -1    0    0  501  503 -0.00000000000E+00 -0.00000000000E+00 -0.15852841428E+03  0.15852841428E+03  0.00000000000E+00 0.  1.
          6    2    1    2  501    0  0.28869255547E+02  0.76422002942E+02 -0.68720918541E+02  0.20167946266E+03  0.17110898447E+03 0.  0.
         24    2    3    3    0    0  0.67924377268E+02  0.29184409452E+02 -0.85870565275E+02  0.13786024021E+03  0.78525416698E+02 0.  0.
         -6    2    1    2    0  502 -0.28869255547E+02 -0.76422002942E+02  0.36709615071E+03  0.41375259806E+03  0.17250470165E+03 0.  0.
        -24    2    5    5    0    0 -0.15476710149E+01 -0.70055762707E+02  0.36406587334E+03  0.38514716891E+03  0.10432725634E+03 0.  0.
          5    1    3    3  501    0 -0.39055121722E+02  0.47237593490E+02  0.17149646734E+02  0.63819222453E+02  0.47000000000E+01 0. -1.
        -13    1    4    4    0    0  0.45667327554E+02  0.45324704064E+02 -0.89394690565E+02  0.11014192801E+03  0.00000000000E+00 0.  1.
         14    1    4    4    0    0  0.22257049714E+02 -0.16140294613E+02  0.35241252899E+01  0.27718312200E+02  0.00000000000E+00 0. -1.
         -5    1    5    5    0  502 -0.27321584532E+02 -0.63662402354E+01  0.30302773683E+01  0.28605429152E+02  0.47000000000E+01 0.  1.
         11    1    6    6    0    0 -0.19775912552E+02  0.63361979630E+01  0.11094422161E+02  0.23544008261E+02  0.00000000000E+00 0. -1.
        -12    1    6    6    0    0  0.18228241537E+02 -0.76391960670E+02  0.35297145118E+03  0.36160316065E+03  0.00000000000E+00 0.  1.
</event>
<event>
12    1  0.8494789E-002  0.3454512E+03  0.7818608E-02  0.1064619E+00
         21   -1    0    0  501  502  0.00000000000E+00  0.00000000000E+00  0.69580131038E+03  0.69580131038E+03  0.00000000000E+00 0.  1.
         21   -1    0    0  502  503 -0.00000000000E+00 -0.00000000000E+00 -0.20580296837E+03  0.20580296837E+03  0.00000000000E+00 0. -1.
         -6    2    1    2    0  503 -0.18377564782E+03 -0.23486128443E+03  0.59101818101E+02  0.34932864834E+03  0.17205861790E+03 0.  0.
        -24    2    3    3    0    0 -0.85448687884E+02 -0.89092154768E+02 -0.32113043765E+02  0.15118962836E+03  0.81167517160E+02 0.  0.
          6    2    1    2  501    0  0.18377564782E+03  0.23486128443E+03  0.43089652391E+03  0.55227563041E+03  0.17436526598E+03 0.  0.
         24    2    5    5    0    0  0.99519583679E+02  0.22179697716E+03  0.28363913553E+03  0.38205051799E+03  0.80083659248E+02 0.  0.
          5    1    5    5  501    0  0.84256064142E+02  0.13064307273E+02  0.14725738838E+03  0.17022511243E+03  0.47000000000E+01 0. -1.
        -13    1    6    6    0    0  0.92376324474E+02  0.10999708721E+03  0.16823050774E+03  0.22121086829E+03  0.00000000000E+00 0.  1.
         14    1    6    6    0    0  0.71432592049E+01  0.11179988995E+03  0.11540862779E+03  0.16083964969E+03  0.00000000000E+00 0. -1.
         -5    1    3    3    0  503 -0.98326959937E+02 -0.14576912966E+03  0.91214861866E+02  0.19813901998E+03  0.47000000000E+01 0.  1.
         13    1    4    4    0    0 -0.37916205886E+02 -0.84346110357E+02 -0.43325541138E+02  0.10212251229E+03  0.00000000000E+00 0. -1.
        -14    1    4    4    0    0 -0.47532481998E+02 -0.47460444116E+01  0.11212497373E+02  0.49067116074E+02  0.00000000000E+00 0.  1.
</event>
<event>
12    1  0.8494789E-002  0.2160947E+03  0.7818608E-02  0.1137091E+00
         21   -1    0    0  501  502  0.00000000000E+00  0.00000000000E+00  0.38089396835E+03  0.38089396835E+03  0.00000000000E+00 0.  1.
         21   -1    0    0  502  503 -0.00000000000E+00 -0.00000000000E+00 -0.20459043039E+03  0.20459043039E+03  0.00000000000E+00 0.  1.
         -6    2    1    2    0  503  0.39189092915E+02 -0.12396626539E+03 -0.97879156047E+02  0.23722825461E+03  0.17260792461E+03 0.  0.
        -24    2    3    3    0    0  0.68670933860E+02 -0.10768917047E+03 -0.22736587766E+02  0.15475026766E+03  0.84368467582E+02 0.  0.
          6    2    1    2  501    0 -0.39189092915E+02  0.12396626539E+03  0.27418269400E+03  0.34825614413E+03  0.17088818648E+03 0.  0.
         24    2    5    5    0    0 -0.36245682431E+02  0.13488588101E+03  0.13866436133E+03  0.21218553687E+03  0.79290267767E+02 0.  0.
          5    1    5    5  501    0 -0.29434104836E+01 -0.10919615627E+02  0.13551833267E+03  0.13607060726E+03  0.47000000000E+01 0. -1.
        -11    1    6    6    0    0  0.15731783741E+02  0.23012889430E+02  0.18021540837E+01  0.27934384885E+02  0.00000000000E+00 0.  1.
         12    1    6    6    0    0 -0.51977466172E+02  0.11187299158E+03  0.13686220725E+03  0.18425115199E+03  0.00000000000E+00 0. -1.
         -5    1    3    3    0  503 -0.29481840945E+02 -0.16277094916E+02 -0.75142568281E+02  0.82477986956E+02  0.47000000000E+01 0.  1.
         11    1    4    4    0    0 -0.10511150379E+02 -0.89194172194E+01  0.17168987959E+02  0.22018502068E+02  0.00000000000E+00 0. -1.
        -12    1    4    4    0    0  0.79182084239E+02 -0.98769753252E+02 -0.39905575725E+02  0.13273176559E+03  0.00000000000E+00 0.  1.
</event>
<event>
12    1  0.8494789E-002  0.1838312E+03  0.7818608E-02  0.1164659E+00
         21   -1    0    0  503  502  0.00000000000E+00  0.00000000000E+00  0.55463061198E+02  0.55463061198E+02  0.00000000000E+00 0. -1.
         21   -1    0    0  501  503 -0.00000000000E+00 -0.00000000000E+00 -0.66044247824E+03  0.66044247824E+03  0.00000000000E+00 0. -1.
          6    2    1    2  501    0  0.21321708445E+02 -0.55971285557E+02 -0.41046376860E+03  0.44974928061E+03  0.17380020143E+03 0.  0.
         24    2    3    3    0    0 -0.12540367814E+02  0.12597958643E+02 -0.95948614438E+02  0.12603605311E+03  0.79768293728E+02 0.  0.
         -6    2    1    2    0  502 -0.21321708445E+02  0.55971285557E+02 -0.19451564844E+03  0.26615625883E+03  0.17150923173E+03 0.  0.
        -24    2    5    5    0    0 -0.16612918228E+02 -0.25757072018E+02 -0.15022134273E+03  0.17295876608E+03  0.80055400440E+02 0.  0.
          5    1    3    3  501    0  0.33862076259E+02 -0.68569244200E+02 -0.31451515417E+03  0.32371322750E+03  0.47000000000E+01 0. -1.
        -11    1    4    4    0    0 -0.39725366622E+02 -0.36182225829E+01 -0.82511441653E+02  0.91647882090E+02  0.00000000000E+00 0.  1.
         12    1    4    4    0    0  0.27184998807E+02  0.16216181225E+02 -0.13437172785E+02  0.34388171021E+02  0.00000000000E+00 0. -1.
         -5    1    5    5    0  502 -0.47087902170E+01  0.81728357575E+02 -0.44294305709E+02  0.93197492753E+02  0.47000000000E+01 0.  1.
         11    1    6    6    0    0 -0.37189044218E+02 -0.18250248521E+01 -0.13058021679E+03  0.13578493562E+03  0.00000000000E+00 0. -1.
        -12    1    6    6    0    0  0.20576125990E+02 -0.23932047166E+02 -0.19641125945E+02  0.37173830455E+02  0.00000000000E+00 0.  1.
</event>
<event>
12    1  0.8494789E-002  0.2178306E+03  0.7818608E-02  0.1136385E+00
         21   -1    0    0  501  502  0.00000000000E+00  0.00000000000E+00  0.14334207480E+04  0.14334207480E+04  0.00000000000E+00 0. -1.
         21   -1    0    0  502  503 -0.00000000000E+00 -0.00000000000E+00 -0.62196163741E+02  0.62196163741E+02  0.00000000000E+00 0.  1.
         -6    2    1    2    0  503  0.58428960928E+02  0.11245853791E+03  0.17192027778E+03  0.27750086638E+03  0.17717020829E+03 0.  0.
        -24    2    3    3    0    0  0.10227105211E+03  0.99663263311E+02  0.91773646514E+02  0.18513517732E+03  0.73895179367E+02 0.  0.
          6    2    1    2  501    0 -0.58428960928E+02 -0.11245853791E+03  0.11993043065E+04  0.12181160454E+04  0.17150805873E+03 0.  0.
         24    2    5    5    0    0 -0.90294201387E+02 -0.29816785848E+02  0.64197911703E+03  0.65377704306E+03  0.79026272840E+02 0.  0.
          5    1    5    5  501    0  0.31865240459E+02 -0.82641752063E+02  0.55732518943E+03  0.56433900229E+03  0.47000000000E+01 0. -1.
        -11    1    6    6    0    0 -0.80119441799E+02 -0.54358717626E+02  0.48574103737E+03  0.49529622502E+03  0.00000000000E+00 0.  1.
         12    1    6    6    0    0 -0.10174759588E+02  0.24541931777E+02  0.15623807966E+03  0.15848081804E+03  0.00000000000E+00 0. -1.
         -5    1    3    3    0  503 -0.43842091184E+02  0.12795274600E+02  0.80146631264E+02  0.92365689054E+02  0.47000000000E+01 0.  1.
         11    1    4    4    0    0 -0.11184318235E+02  0.89028130227E+01  0.15329915326E+02  0.20960805281E+02  0.00000000000E+00 0. -1.
        -12    1    4    4    0    0  0.11345537035E+03  0.90760450289E+02  0.76443731187E+02  0.16417437204E+03  0.00000000000E+00 0.  1.
</event>
<event>
12    1  0.8494789E-002  0.2231152E+03  0.7818608E-02  0.1131691E+00
         21   -1    0    0  503  502  0.00000000000E+00  0.00000000000E+00  0.60245683223E+03  0.60245683223E+03  0.00000000000E+00 0. -1.
         21   -1    0    0  501  503 -0.00000000000E+00 -0.00000000000E+00 -0.83472868906E+02  0.83472868906E+02  0.00000000000E+00 0. -1.
          6    2    1    2  501    0  0.48911843752E+02 -0.13353228470E+03  0.22042130270E+03  0.31320991318E+03  0.17114806313E+03 0.  0.
         24    2    3    3    0    0 -0.17811979049E+02 -0.25132575932E+02  0.13357504176E+03  0.15904464981E+03  0.80647355089E+02 0.  0.
         -6    2    1    2    0  502 -0.48911843752E+02  0.13353228470E+03  0.29856266063E+03  0.37271978796E+03  0.17192189651E+03 0.  0.
        -24    2    5    5    0    0  0.26738604035E+02  0.75248569944E+02  0.22434821095E+03  0.25168319763E+03  0.81455582944E+02 0.  0.
          5    1    3    3  501    0  0.66723822801E+02 -0.10839970876E+03  0.86846260939E+02  0.15416526337E+03  0.47000000000E+01 0. -1.
        -11    1    4    4    0    0  0.16862860124E+02  0.19395476780E+02  0.67041195510E+02  0.71798763683E+02  0.00000000000E+00 0.  1.
         12    1    4    4    0    0 -0.34674839173E+02 -0.44528052712E+02  0.66533846248E+02  0.87245886129E+02  0.00000000000E+00 0. -1.
         -5    1    5    5    0  502 -0.75650447787E+02  0.58283714753E+02  0.74214449684E+02  0.12103659033E+03  0.47000000000E+01 0.  1.
         11    1    6    6    0    0 -0.27567690932E+02  0.31260332841E+02  0.59630688361E+02  0.72753041085E+02  0.00000000000E+00 0. -1.
        -12    1    6    6    0    0  0.54306294968E+02  0.43988237102E+02  0.16471752258E+03  0.17893015655E+03  0.00000000000E+00 0.  1.
</event>
<event>
12    1  0.8494789E-002  0.2151339E+03  0.7818608E-02  0.1137569E+00
         21   -1    0    0  503  502  0.00000000000E+00  0.00000000000E+00  0.24822299181E+04  0.24822299181E+04  0.00000000000E+00 0. -1.
         21   -1    0    0  501  503 -0.00000000000E+00 -0.00000000000E+00 -0.23949463695E+02  0.23949463695E+02  0.00000000000E+00 0.  1.
          6    2    1    2  501    0 -0.12838306758E+03  0.14971457365E+02  0.18190298024E+04  0.18317074044E+04  0.17197743095E+03 0.  0.
         24    2    3    3    0    0 -0.52506432214E+02  0.87083674619E+01  0.15205005822E+04  0.15235868511E+04  0.81006858474E+02 0.  0.
         -6    2    1    2    0  502  0.12838306758E+03 -0.14971457365E+02  0.63925065197E+03  0.67447197735E+03  0.17194387345E+03 0.  0.
        -24    2    5    5    0    0  0.12540096115E+03 -0.63988679856E+02  0.41402031574E+03  0.44390230151E+03  0.76265845808E+02 0.  0.
          5    1    3    3  501    0 -0.75876635367E+02  0.62630899029E+01  0.29852922020E+03  0.30812055336E+03  0.47000000000E+01 0. -1.
        -13    1    4    4    0    0  0.12029742118E+02  0.63346447100E+01  0.54698037092E+02  0.56362378239E+02  0.00000000000E+00 0.  1.
         14    1    4    4    0    0 -0.64536174331E+02  0.23737227519E+01  0.14658025451E+04  0.14672244728E+04  0.00000000000E+00 0. -1.
         -5    1    5    5    0  502  0.29821064317E+01  0.49017222491E+02  0.22523033623E+03  0.23056967584E+03  0.47000000000E+01 0.  1.
         13    1    6    6    0    0  0.16175031640E+02  0.91153271613E+01  0.12537194350E+03  0.12673927985E+03  0.00000000000E+00 0. -1.
        -14    1    6    6    0    0  0.10922592951E+03 -0.73104007017E+02  0.28864837223E+03  0.31716302167E+03  0.00000000000E+00 0.  1.
</event>
<event>
12    1  0.8494789E-002  0.2286845E+03  0.7818608E-02  0.1128455E+00
         21   -1    0    0  503  502  0.00000000000E+00  0.00000000000E+00  0.93725389712E+02  0.93725389712E+02  0.00000000000E+00 0.  1.
         21   -1    0    0  501  503 -0.00000000000E+00 -0.00000000000E+00 -0.66932926378E+03  0.66932926378E+03  0.00000000000E+00 0.  1.
          6    2    1    2  501    0  0.86066245020E+02 -0.12309467241E+03 -0.44900638364E+03  0.50166692565E+03  0.16584111324E+03 0.  0.
         24    2    3    3    0    0  0.68375508065E+02 -0.55191745463E+02 -0.39519746880E+03  0.41311604210E+03  0.82234336052E+02 0.  0.
         -6    2    1    2    0  502 -0.86066245020E+02  0.12309467241E+03 -0.12659749043E+03  0.26138772784E+03  0.17244396996E+03 0.  0.
        -24    2    5    5    0    0 -0.16824949801E+02  0.12787379475E+03 -0.11659453238E+03  0.19110724588E+03  0.79327852166E+02 0.  0.
          5    1    3    3  501    0  0.17690736955E+02 -0.67902926946E+02 -0.53808914840E+02  0.88550883553E+02  0.47000000000E+01 0. -1.
        -13    1    4    4    0    0  0.73337633136E+02 -0.67766373261E+02 -0.28284638262E+03  0.29995460647E+03  0.00000000000E+00 0.  1.
         14    1    4    4    0    0 -0.49621250705E+01  0.12574627798E+02 -0.11235108618E+03  0.11316143563E+03  0.00000000000E+00 0. -1.
         -5    1    5    5    0  502 -0.69241295219E+02 -0.47791223392E+01 -0.10002958047E+02  0.70280481953E+02  0.47000000000E+01 0.  1.
         13    1    6    6    0    0  0.46601445018E+01  0.20873104519E+02  0.10298695638E+02  0.23737450808E+02  0.00000000000E+00 0. -1.
        -14    1    6    6    0    0 -0.21485094303E+02  0.10700069023E+03 -0.12689322802E+03  0.16736979508E+03  0.00000000000E+00 0.  1.
</event>
<event>
12    1  0.8494789E-002  0.2059560E+03  0.7818608E-02  0.1144851E+00
         21   -1    0    0  501  502  0.00000000000E+00  0.00000000000E+00  0.17964672739E+03  0.17964672739E+03  0.00000000000E+00 0.  1.
         21   -1    0    0  502  503 -0.00000000000E+00 -0.00000000000E+00 -0.23626662113E+03  0.23626662113E+03  0.00000000000E+00 0.  1.
         -6    2    1    2    0  503 -0.76517157468E+02 -0.85490392799E+02 -0.19949132844E+02  0.20691989277E+03  0.17103915187E+03 0.  0.
        -24    2    3    3    0    0 -0.19464472253E+02  0.20198685115E+02 -0.19435021522E+02  0.86721954385E+02  0.79725308092E+02 0.  0.
          6    2    1    2  501    0  0.76517157468E+02  0.85490392799E+02 -0.36670760898E+02  0.20899345575E+03  0.17079238037E+03 0.  0.
         24    2    5    5    0    0  0.27602611372E+02  0.10147485757E+03 -0.67089386693E+02  0.14903081130E+03  0.81548427558E+02 0.  0.
          5    1    5    5  501    0  0.48914546096E+02 -0.15984464770E+02  0.30418625795E+02  0.59962644446E+02  0.47000000000E+01 0. -1.
        -13    1    6    6    0    0 -0.25456578863E+02  0.60459225117E+02 -0.39036144414E+02  0.76335940945E+02  0.00000000000E+00 0.  1.
         14    1    6    6    0    0  0.53059190235E+02  0.41015632451E+02 -0.28053242279E+02  0.72694870357E+02  0.00000000000E+00 0. -1.
         -5    1    3    3    0  503 -0.57052685215E+02 -0.10568907791E+03 -0.51411132238E+00  0.12019793838E+03  0.47000000000E+01 0.  1.
         13    1    4    4    0    0 -0.31451745286E+02 -0.16171642267E+02 -0.30670901004E+02  0.46812802347E+02  0.00000000000E+00 0. -1.
        -14    1    4    4    0    0  0.11987273033E+02  0.36370327383E+02  0.11235879482E+02  0.39909152039E+02  0.00000000000E+00 0.  1.
</event>
<event>
12    1  0.8494789E-002  0.2442757E+03  0.7818608E-02  0.1117210E+00
         21   -1    0    0  501  502  0.00000000000E+00  0.00000000000E+00  0.82986354392E+03  0.82986354392E+03  0.00000000000E+00 0.  1.
         21   -1    0    0  502  503 -0.00000000000E+00 -0.00000000000E+00 -0.77293579472E+02  0.77293579472E+02  0.00000000000E+00 0. -1.
         -6    2    1    2    0  503  0.72431160047E+02  0.15504950373E+03  0.49961821366E+03  0.55551067785E+03  0.17229954218E+03 0.  0.
        -24    2    3    3    0    0 -0.24333895629E+02  0.42451734246E+02  0.19028273250E+03  0.21236018085E+03  0.80591810401E+02 0.  0.
          6    2    1    2  501    0 -0.72431160047E+02 -0.15504950373E+03  0.25295175079E+03  0.35164644554E+03  0.17431010550E+03 0.  0.
         24    2    5    5    0    0 -0.11608469773E+02 -0.62239219967E+02  0.20880995156E+03  0.23213185704E+03  0.79215693598E+02 0.  0.
          5    1    5    5  501    0 -0.60822690274E+02 -0.92810283765E+02  0.44141799235E+02  0.11951458850E+03  0.47000000000E+01 0. -1.
        -11    1    6    6    0    0 -0.42019554313E+02 -0.31896087735E+02  0.75756341847E+02  0.92314823770E+02  0.00000000000E+00 0.  1.
         12    1    6    6    0    0  0.30411084540E+02 -0.30343132231E+02  0.13305360971E+03  0.13981703327E+03  0.00000000000E+00 0. -1.
         -5    1    3    3    0  503  0.96765055677E+02  0.11259776949E+03  0.30933548116E+03  0.34315049701E+03  0.47000000000E+01 0.  1.
         13    1    4    4    0    0 -0.42301256180E+02  0.43988261579E+02  0.80036793561E+02  0.10064915178E+03  0.00000000000E+00 0. -1.
        -14    1    4    4    0    0  0.17967360550E+02 -0.15365273331E+01  0.11024593894E+03  0.11171102906E+03  0.00000000000E+00 0.  1.
</event>
<event>
12    1  0.8494789E-002  0.2257409E+03  0.7818608E-02  0.1129788E+00
         21   -1    0    0  503  502  0.00000000000E+00  0.00000000000E+00  0.11818492872E+03  0.11818492872E+03  0.00000000000E+00 0.  1.
         21   -1    0    0  501  503 -0.00000000000E+00 -0.00000000000E+00 -0.10724731980E+04  0.10724731980E+04  0.00000000000E+00 0.  1.
          6    2    1    2  501    0  0.67730786231E+02  0.12864338029E+03 -0.93766302485E+03  0.96430582336E+03  0.17186388244E+03 0.  0.
         24    2    3    3    0    0  0.63814226386E+02  0.22483957557E+02 -0.29091659635E+03  0.30887604432E+03  0.78702991572E+02 0.  0.
         -6    2    1    2    0  502 -0.67730786231E+02 -0.12864338029E+03 -0.16625244464E+02  0.22635230339E+03  0.17269159737E+03 0.  0.
        -24    2    5    5    0    0 -0.95896022155E+02 -0.71682368943E+02 -0.51828822924E+02  0.15355656681E+03  0.80987549916E+02 0.  0.
          5    1    3    3  501    0  0.39165598445E+01  0.10615942274E+03 -0.64674642850E+03  0.65542977904E+03  0.47000000000E+01 0. -1.
        -11    1    4    4    0    0  0.40975992601E+02  0.25985167233E+02 -0.27840382272E+03  0.28260033508E+03  0.00000000000E+00 0.  1.
         12    1    4    4    0    0  0.22838233786E+02 -0.35012096762E+01 -0.12512773636E+02  0.26275709233E+02  0.00000000000E+00 0. -1.
         -5    1    5    5    0  502  0.28165235924E+02 -0.56961011351E+02  0.35203578460E+02  0.72795736586E+02  0.47000000000E+01 0.  1.
         13    1    6    6    0    0 -0.20380687839E+02 -0.62589576951E+02 -0.94868154290E+01  0.66504340059E+02  0.00000000000E+00 0. -1.
        -14    1    6    6    0    0 -0.75515334316E+02 -0.90927919925E+01 -0.42342007495E+02  0.87052226748E+02  0.00000000000E+00 0.  1.
</event>
<event>
12    1  0.8494789E-002  0.1789143E+03  0.7818608E-02  0.1168864E+00
         21   -1    0    0  501  502  0.00000000000E+00  0.00000000000E+00  0.65613525827E+02  0.65613525827E+02  0.00000000000E+00 0.  1.
         21   -1    0    0  502  503 -0.00000000000E+00 -0.00000000000E+00 -0.53558103330E+03  0.53558103330E+03  0.00000000000E+00 0.  1.
         -6    2    1    2    0  503  0.47915533192E+02 -0.16447085642E+02 -0.32476244447E+03  0.37077137827E+03  0.17156446212E+03 0.  0.
        -24    2    3    3    0    0  0.89370675824E+02  0.18527067919E+02 -0.25272524278E+03  0.28047647978E+03  0.80415405390E+02 0.  0.
          6    2    1    2  501    0 -0.47915533192E+02  0.16447085642E+02 -0.14520506301E+03  0.23042318086E+03  0.17159232794E+03 0.  0.
         24    2    5    5    0    0 -0.11428553431E+02 -0.19001431332E+01 -0.94315451904E+00  0.80418151820E+02  0.79573659111E+02 0.  0.
          5    1    5    5  501    0 -0.36486979761E+02  0.18347228775E+02 -0.14426190849E+03  0.15000502904E+03  0.47000000000E+01 0. -1.
        -13    1    6    6    0    0 -0.15304163917E+02  0.36521148300E+02 -0.98138560508E+01  0.40796120856E+02  0.00000000000E+00 0.  1.
         14    1    6    6    0    0  0.38756104864E+01 -0.38421291433E+02  0.88707015318E+01  0.39622030964E+02  0.00000000000E+00 0. -1.
         -5    1    3    3    0  503 -0.41455142633E+02 -0.34974153561E+02 -0.72037201683E+02  0.90294898495E+02  0.47000000000E+01 0.  1.
         11    1    4    4    0    0  0.45133957356E+02  0.45054380445E+02 -0.94087601055E+02  0.11366374961E+03  0.00000000000E+00 0. -1.
        -12    1    4    4    0    0  0.44236718468E+02 -0.26527312526E+02 -0.15863764173E+03  0.16681273016E+03  0.00000000000E+00 0.  1.
</event>
<event>
12    1  0.8494789E-002  0.2215467E+03  0.7818608E-02  0.1132829E+00
         21   -1    0    0  501  502  0.00000000000E+00  0.00000000000E+00  0.91969875580E+02  0.91969875580E+02  0.00000000000E+00 0. -1.
         21   -1    0    0  502  503 -0.00000000000E+00 -0.00000000000E+00 -0.61623642882E+03  0.61623642882E+03  0.00000000000E+00 0.  1.
         -6    2    1    2    0  503  0.48359965384E+02  0.13069685099E+03 -0.13131217880E+03  0.25710089464E+03  0.17157397416E+03 0.  0.
        -24    2    3    3    0    0  0.14855336838E+02  0.79333451395E+02 -0.15441769397E+03  0.19139919159E+03  0.79210787066E+02 0.  0.
          6    2    1    2  501    0 -0.48359965384E+02 -0.13069685099E+03 -0.39295437444E+03  0.45110540976E+03  0.17222832873E+03 0.  0.
         24    2    5    5    0    0  0.28281690623E+02 -0.73908460855E+02 -0.10930084408E+03  0.15180576063E+03  0.69541353397E+02 0.  0.
          5    1    5    5  501    0 -0.76641656007E+02 -0.56788390135E+02 -0.28365353036E+03  0.29929964914E+03  0.47000000000E+01 0. -1.
        -11    1    6    6    0    0  0.41102431040E+01 -0.50623460533E+02 -0.10666478526E+03  0.11813977005E+03  0.00000000000E+00 0.  1.
         12    1    6    6    0    0  0.24171447519E+02 -0.23285000322E+02 -0.26360588259E+01  0.33665990574E+02  0.00000000000E+00 0. -1.
         -5    1    3    3    0  503  0.33504628546E+02  0.51363399595E+02  0.23105515168E+02  0.65701703046E+02  0.47000000000E+01 0.  1.
         13    1    4    4    0    0 -0.62921721987E+01  0.61302923711E+00  0.76882537008E+01  0.99537169335E+01  0.00000000000E+00 0. -1.
        -14    1    4    4    0    0  0.21147509037E+02  0.78720422158E+02 -0.16210594767E+03  0.18144547466E+03  0.00000000000E+00 0.  1.
</event>
<event>
12    1  0.8494789E-002  0.2415514E+03  0.7818608E-02  0.1118881E+00
         21   -1    0    0  503  502  0.00000000000E+00  0.00000000000E+00  0.13088708512E+03  0.13088708512E+03  0.00000000000E+00 0. -1.
         21   -1    0    0  501  503 -0.00000000000E+00 -0.00000000000E+00 -0.46899912394E+03  0.46899912394E+03  0.00000000000E+00 0.  1.
          6    2    1    2  501    0 -0.11627035331E+03  0.12291105757E+03 -0.23741654494E+03  0.33818665726E+03  0.17139917213E+03 0.  0.
         24    2    3    3    0    0 -0.41490822016E+02  0.12919609512E+03 -0.11558092989E+03  0.19501722235E+03  0.79117926889E+02 0.  0.
         -6    2    1    2    0  502  0.11627035331E+03 -0.12291105757E+03 -0.10069549388E+03  0.26169955180E+03  0.17239823024E+03 0.  0.
        -24    2    5    5    0    0  0.54551072813E+02 -0.14311846042E+02 -0.95759817376E+02  0.13660155328E+03  0.79431689221E+02 0.  0.
          5    1    3    3  501    0 -0.74779531296E+02 -0.62850375451E+01 -0.12183561505E+03  0.14316943491E+03  0.47000000000E+01 0. -1.
        -13    1    4    4    0    0  0.15010771353E+02 -0.30543370043E+00 -0.17298305064E+02  0.22905193832E+02  0.00000000000E+00 0.  1.
         14    1    4    4    0    0 -0.56501593369E+02  0.12950152882E+03 -0.98282624826E+02  0.17211202852E+03  0.00000000000E+00 0. -1.
         -5    1    5    5    0  502  0.61719280499E+02 -0.10859921153E+03 -0.49356765076E+01  0.12509799852E+03  0.47000000000E+01 0.  1.
         13    1    6    6    0    0  0.12836469292E+02 -0.15037120832E+02  0.10541812419E+02  0.22405797372E+02  0.00000000000E+00 0. -1.
        -14    1    6    6    0    0  0.41714603521E+02  0.72527478952E+00 -0.10630162980E+03  0.11419575591E+03  0.00000000000E+00 0.  1.
</event>
<event>
12    1  0.8494789E-002  0.1984080E+03  0.7818608E-02  0.1151266E+00
         21   -1    0    0  501  502  0.00000000000E+00  0.00000000000E+00  0.54252103417E+03  0.54252103417E+03  0.00000000000E+00 0.  1.
         21   -1    0    0  502  503 -0.00000000000E+00 -0.00000000000E+00 -0.72401616155E+02  0.72401616155E+02  0.00000000000E+00 0. -1.
         -6    2    1    2    0  503  0.98968344148E+02 -0.11857069467E+02  0.22191180345E+03  0.29767528359E+03  0.17155291519E+03 0.  0.
        -24    2    3    3    0    0  0.81993129097E+02  0.21431488915E+02  0.61926099505E+02  0.13331652504E+03  0.82196545626E+02 0.  0.
          6    2    1    2  501    0 -0.98968344148E+02  0.11857069467E+02  0.24820761456E+03  0.31724736673E+03  0.17059762171E+03 0.  0.
         24    2    5    5    0    0 -0.10200759410E+03 -0.91453564564E+01  0.89706760275E+02  0.15726314956E+03  0.78709647257E+02 0.  0.
          5    1    5    5  501    0  0.30392499519E+01  0.21002425923E+02  0.15850085429E+03  0.15998421718E+03  0.47000000000E+01 0. -1.
        -11    1    6    6    0    0 -0.53859356288E+02 -0.20992024484E+02  0.90832278536E+02  0.10766614220E+03  0.00000000000E+00 0.  1.
         12    1    6    6    0    0 -0.48148237812E+02  0.11846668028E+02 -0.11255182612E+01  0.49597007361E+02  0.00000000000E+00 0. -1.
         -5    1    3    3    0  503  0.16975215051E+02 -0.33288558382E+02  0.15998570394E+03  0.16435875855E+03  0.47000000000E+01 0.  1.
         11    1    4    4    0    0  0.36166127139E+02  0.45687302395E+02  0.85341538426E+01  0.58891002150E+02  0.00000000000E+00 0. -1.
        -12    1    4    4    0    0  0.45827001958E+02 -0.24255813480E+02  0.53391945662E+02  0.74425522891E+02  0.00000000000E+00 0.  1.
</event>
<event>
12    1  0.8494789E-002  0.1763266E+03  0.7818608E-02  0.1173656E+00
         21   -1    0    0  501  502  0.00000000000E+00  0.00000000000E+00  0.32144504776E+03  0.32144504776E+03  0.00000000000E+00 0.  1.
         21   -1    0    0  502  503 -0.00000000000E+00 -0.00000000000E+00 -0.11468069205E+03  0.11468069205E+03  0.00000000000E+00 0.  1.
         -6    2    1    2    0  503 -0.22945699243E+02 -0.21897835495E+02  0.42080695921E+01  0.16757384264E+03  0.16449092551E+03 0.  0.
        -24    2    3    3    0    0  0.35212571868E+02 -0.20692917180E+02 -0.35833981925E+02  0.96797489132E+02  0.80109659859E+02 0.  0.
          6    2    1    2  501    0  0.22945699243E+02  0.21897835495E+02  0.20255628612E+03  0.26855189716E+03  0.17345043127E+03 0.  0.
         24    2    5    5    0    0 -0.51149825631E+01 -0.15936175868E+02  0.20555964714E+03  0.22111852856E+03  0.79740268307E+02 0.  0.
          5    1    5    5  501    0  0.28060681806E+02  0.37834011364E+02 -0.30033610254E+01  0.47433368600E+02  0.47000000000E+01 0. -1.
        -11    1    6    6    0    0  0.29204280214E+02  0.13872489824E+02  0.54511752052E+02  0.63378758812E+02  0.00000000000E+00 0.  1.
         12    1    6    6    0    0 -0.34319262777E+02 -0.29808665692E+02  0.15104789509E+03  0.15773976975E+03  0.00000000000E+00 0. -1.
         -5    1    3    3    0  503 -0.58158271111E+02 -0.12049183151E+01  0.40042051517E+02  0.70776353512E+02  0.47000000000E+01 0.  1.
         13    1    4    4    0    0  0.54336159880E+02 -0.90857048038E+01 -0.46427960118E+02  0.72045289804E+02  0.00000000000E+00 0. -1.
        -14    1    4    4    0    0 -0.19123588012E+02 -0.11607212376E+02  0.10593978193E+02  0.24752199328E+02  0.00000000000E+00 0.  1.
</event>
<event>
12    1  0.8494789E-002  0.2450385E+03  0.7818608E-02  0.1116632E+00
         21   -1    0    0  503  502  0.00000000000E+00  0.00000000000E+00  0.48014522126E+02  0.48014522126E+02  0.00000000000E+00 0.  1.
         21   -1    0    0  501  503 -0.00000000000E+00 -0.00000000000E+00 -0.13446589853E+04  0.13446589853E+04  0.00000000000E+00 0.  1.
          6    2    1    2  501    0 -0.14405514061E+03  0.97021118686E+02 -0.83827927166E+03  0.87335902382E+03  0.17285504386E+03 0.  0.
         24    2    3    3    0    0 -0.15654512852E+03  0.57108787061E+02 -0.77958592474E+03  0.80113719203E+03  0.79364951870E+02 0.  0.
         -6    2    1    2    0  502  0.14405514061E+03 -0.97021118686E+02 -0.45836519148E+03  0.51931448357E+03  0.17153397063E+03 0.  0.
        -24    2    5    5    0    0  0.15109372569E+03 -0.33139411097E+02 -0.28108575386E+03  0.33068653430E+03  0.80105233495E+02 0.  0.
          5    1    3    3  501    0  0.12489987913E+02  0.39912331625E+02 -0.58693346923E+02  0.72221831788E+02  0.47000000000E+01 0. -1.
        -11    1    4    4    0    0 -0.56358924936E+02  0.23373948771E+02 -0.47123454308E+03  0.47516803816E+03  0.00000000000E+00 0.  1.
         12    1    4    4    0    0 -0.10018620359E+03  0.33734838290E+02 -0.30835138166E+03  0.32596915387E+03  0.00000000000E+00 0. -1.
         -5    1    5    5    0  502 -0.70385850776E+01 -0.63881707589E+02 -0.17727943762E+03  0.18862794928E+03  0.47000000000E+01 0.  1.
         11    1    6    6    0    0  0.42880330656E+02  0.20771094168E+02 -0.45458108167E+02  0.65852871678E+02  0.00000000000E+00 0. -1.
        -12    1    6    6    0    0  0.10821339503E+03 -0.53910505265E+02 -0.23562764569E+03  0.26483366262E+03  0.00000000000E+00 0.  1.
</event>
<event>
12    1  0.8494789E-002  0.2383668E+03  0.7818608E-02  0.1121296E+00
         21   -1    0    0  503  502  0.00000000000E+00  0.00000000000E+00  0.15772418643E+03  0.15772418643E+03  0.00000000000E+00 0.  1.
         21   -1    0    0  501  503 -0.00000000000E+00 -0.00000000000E+00 -0.47387293346E+03  0.47387293346E+03  0.00000000000E+00 0.  1.
          6    2    1    2  501    0 -0.12170170534E+03  0.10463690516E+03 -0.31458012103E+03  0.39322516536E+03  0.17293117453E+03 0.  0.
         24    2    3    3    0    0 -0.27593166323E+01  0.66865866159E+01 -0.11201471052E+03  0.13867381049E+03  0.81429761598E+02 0.  0.
         -6    2    1    2    0  502  0.12170170534E+03 -0.10463690516E+03 -0.15686260034E+01  0.23837195453E+03  0.17623433579E+03 0.  0.
        -24    2    5    5    0    0  0.23285345266E+02 -0.11070278668E+03  0.74437199782E+01  0.13924634115E+03  0.80850604647E+02 0.  0.
          5    1    3    3  501    0 -0.11894238870E+03  0.97950318549E+02 -0.20256541051E+03  0.25455135488E+03  0.47000000000E+01 0. -1.
        -13    1    4    4    0    0 -0.18598362997E+02  0.30448856085E+02 -0.10256473048E+03  0.10859353518E+03  0.00000000000E+00 0.  1.
         14    1    4    4    0    0  0.15839046365E+02 -0.23762269469E+02 -0.94499800316E+01  0.30080275309E+02  0.00000000000E+00 0. -1.
         -5    1    5    5    0  502  0.98416360069E+02  0.60658815179E+01 -0.90123459816E+01  0.99125613380E+02  0.47000000000E+01 0.  1.
         13    1    6    6    0    0  0.37799100825E+01  0.49072152278E+01  0.20370979671E+02  0.21291906779E+02  0.00000000000E+00 0. -1.
        -14    1    6    6    0    0  0.19505435183E+02 -0.11561000191E+03 -0.12927259693E+02  0.11795443437E+03  0.00000000000E+00 0.  1.
</event>
<event>
12    1  0.8494789E-002  0.2173571E+03  0.7818608E-02  0.1136167E+00
         21   -1    0    0  503  502  0.00000000000E+00  0.00000000000E+00  0.39677878937E+02  0.39677878937E+02  0.00000000000E+00 0. -1.
         21   -1    0    0  501  503 -0.00000000000E+00 -0.00000000000E+00 -0.12312768368E+04  0.12312768368E+04  0.00000000000E+00 0.  1.
          6    2    1    2  501    0 -0.12751598066E+03  0.21010161821E+02 -0.46676502541E+03  0.51423260541E+03  0.17281154851E+03 0.  0.
         24    2    3    3    0    0 -0.12926811359E+03 -0.33749212352E+02 -0.28833590954E+03  0.32752240638E+03  0.79272160496E+02 0.  0.
         -6    2    1    2    0  502  0.12751598066E+03 -0.21010161821E+02 -0.72483393243E+03  0.75672211030E+03  0.17476375595E+03 0.  0.
        -24    2    5    5    0    0  0.60333317844E+02 -0.72034811741E+02 -0.31003808354E+03  0.33340814723E+03  0.78792487232E+02 0.  0.
          5    1    3    3  501    0  0.17521329239E+01  0.54759374174E+02 -0.17842911587E+03  0.18671019903E+03  0.47000000000E+01 0. -1.
        -11    1    4    4    0    0 -0.13099508529E+03 -0.26401111487E+02 -0.29042300305E+03  0.31969086906E+03  0.00000000000E+00 0.  1.
         12    1    4    4    0    0  0.17269717039E+01 -0.73481008656E+01  0.20870935104E+01  0.78315373279E+01  0.00000000000E+00 0. -1.
         -5    1    5    5    0  502  0.67182662820E+02  0.51024649920E+02 -0.41479584889E+03  0.42331396308E+03  0.47000000000E+01 0.  1.
         13    1    6    6    0    0  0.57683127305E+02 -0.70769445220E+02 -0.31482270006E+03  0.32779412750E+03  0.00000000000E+00 0. -1.
        -14    1    6    6    0    0  0.26501905397E+01 -0.12653665212E+01  0.47846165118E+01  0.56140197269E+01  0.00000000000E+00 0.  1.
</event>
<event>
12    1  0.8494789E-002  0.1786301E+03  0.7818608E-02  0.1169221E+00
         21   -1    0    0  503  502  0.00000000000E+00  0.00000000000E+00  0.18985050477E+03  0.18985050477E+03  0.00000000000E+00 0.  1.
         21   -1    0    0  501  503 -0.00000000000E+00 -0.00000000000E+00 -0.23759750672E+03  0.23759750672E+03  0.00000000000E+00 0. -1.
          6    2    1    2  501    0 -0.22814154169E+02  0.46033051339E+02 -0.13977410173E+03  0.22681602073E+03  0.17108237870E+03 0.  0.
         24    2    3    3    0    0 -0.81087051573E+01  0.17663980589E+02 -0.16560352610E+03  0.18546020410E+03  0.81198473744E+02 0.  0.
         -6    2    1    2    0  502  0.22814154169E+02 -0.46033051339E+02  0.92027099782E+02  0.20063199076E+03  0.17071813370E+03 0.  0.
        -24    2    5    5    0    0 -0.40879223073E+02 -0.35154950017E+02  0.12404629908E+02  0.97982065762E+02  0.80867972512E+02 0.  0.
          5    1    3    3  501    0 -0.14705449011E+02  0.28369070750E+02  0.25829424372E+02  0.41355816631E+02  0.47000000000E+01 0. -1.
        -11    1    4    4    0    0  0.72338215701E+00  0.31790813842E+01  0.92385525223E+01  0.97969736603E+01  0.00000000000E+00 0.  1.
         12    1    4    4    0    0 -0.88320873143E+01  0.14484899205E+02 -0.17484207863E+03  0.17566323044E+03  0.00000000000E+00 0. -1.
         -5    1    5    5    0  502  0.63693377242E+02 -0.10878101322E+02  0.79622469875E+02  0.10264992500E+03  0.47000000000E+01 0.  1.
         13    1    6    6    0    0 -0.32259385949E+02  0.15527928565E+02  0.26652745885E+02  0.44633545798E+02  0.00000000000E+00 0. -1.
        -14    1    6    6    0    0 -0.86198371240E+01 -0.50682878582E+02 -0.14248115977E+02  0.53348519964E+02  0.00000000000E+00 0.  1.
</event>
<event>
12    1  0.8494789E-002  0.1815318E+03  0.7818608E-02  0.1168321E+00
         21   -1    0    0  503  502  0.00000000000E+00  0.00000000000E+00  0.16626261383E+03  0.16626261383E+03  0.00000000000E+00 0. -1.
         21   -1    0    0  501  503 -0.00000000000E+00 -0.00000000000E+00 -0.25372308075E+03  0.25372308075E+03  0.00000000000E+00 0. -1.
          6    2    1    2  501    0 -0.14162264233E+02 -0.18730925760E+01 -0.14866634870E+03  0.22841335109E+03  0.17282041985E+03 0.  0.
         24    2    3    3    0    0 -0.24399470870E+02 -0.22259927773E+02 -0.88863704484E+01  0.86706062046E+02  0.79675184673E+02 0.  0.
         -6    2    1    2    0  502  0.14162264233E+02  0.18730925760E+01  0.61205881774E+02  0.19157234348E+03  0.18096884986E+03 0.  0.
        -24    2    5    5    0    0 -0.33442103762E+02  0.42839355102E+02  0.80807956537E+02  0.12561218996E+03  0.79340480069E+02 0.  0.
          5    1    3    3  501    0  0.10237206638E+02  0.20386835197E+02 -0.13977997825E+03  0.14170728905E+03  0.47000000000E+01 0. -1.
        -11    1    4    4    0    0  0.16370994042E+02 -0.18923687765E+02 -0.31291134815E+02  0.40065577777E+02  0.00000000000E+00 0.  1.
         12    1    4    4    0    0 -0.40770464912E+02 -0.33362400082E+01  0.22404764367E+02  0.46640484270E+02  0.00000000000E+00 0. -1.
         -5    1    5    5    0  502  0.47604367995E+02 -0.40966262526E+02 -0.19602074763E+02  0.65960153521E+02  0.47000000000E+01 0.  1.
         13    1    6    6    0    0 -0.43039176151E+02  0.55740974545E+02  0.38299335058E+02  0.80163994368E+02  0.00000000000E+00 0. -1.
        -14    1    6    6    0    0  0.95970723892E+01 -0.12901619444E+02  0.42508621479E+02  0.45448195594E+02  0.00000000000E+00 0.  1.
</event>
<event>
12    1  0.8494789E-002  0.2108429E+03  0.7818608E-02  0.1141130E+00
         21   -1    0    0  501  502  0.00000000000E+00  0.00000000000E+00  0.25877378892E+03  0.25877378892E+03  0.00000000000E+00 0. -1.
         21   -1    0    0  502  503 -0.00000000000E+00 -0.00000000000E+00 -0.29515611129E+03  0.29515611129E+03  0.00000000000E+00 0. -1.
         -6    2    1    2    0  503 -0.12030144960E+03  0.14180941708E+01 -0.19790597492E+03  0.28832749811E+03  0.17173095671E+03 0.  0.
        -24    2    3    3    0    0 -0.15864630026E+02 -0.11793446575E+02 -0.25346160337E+02  0.86138048093E+02  0.79915978486E+02 0.  0.
          6    2    1    2  501    0  0.12030144960E+03 -0.14180941708E+01  0.16152365255E+03  0.26560240209E+03  0.17314819057E+03 0.  0.
         24    2    5    5    0    0  0.12449182574E+03 -0.22352056959E+01  0.59448852519E+02  0.16333030559E+03  0.87403728970E+02 0.  0.
          5    1    5    5  501    0 -0.41903761354E+01  0.81711152517E+00  0.10207480003E+03  0.10227209651E+03  0.47000000000E+01 0. -1.
        -13    1    6    6    0    0  0.92944916345E+02  0.35507811475E+02  0.55627680081E+02  0.11399123186E+03  0.00000000000E+00 0.  1.
         14    1    6    6    0    0  0.31546909391E+02 -0.37743017171E+02  0.38211724384E+01  0.49339073726E+02  0.00000000000E+00 0. -1.
         -5    1    3    3    0  503 -0.10443681957E+03  0.13211540746E+02 -0.17255981458E+03  0.20218945002E+03  0.47000000000E+01 0.  1.
         13    1    4    4    0    0 -0.43186923687E+02  0.13327020786E+02 -0.13160702617E+02  0.47073601455E+02  0.00000000000E+00 0. -1.
        -14    1    4    4    0    0  0.27322293660E+02 -0.25120467361E+02 -0.12185457720E+02  0.39064446638E+02  0.00000000000E+00 0.  1.
</event>
<event>
12    1  0.8494789E-002  0.2509734E+03  0.7818608E-02  0.1113039E+00
         21   -1    0    0  501  502  0.00000000000E+00  0.00000000000E+00  0.50871855967E+03  0.50871855967E+03  0.00000000000E+00 0.  1.
         21   -1    0    0  502  503 -0.00000000000E+00 -0.00000000000E+00 -0.12860160227E+03  0.12860160227E+03  0.00000000000E+00 0. -1.
         -6    2    1    2    0  503 -0.13253572474E+03 -0.12220272667E+03  0.25734100654E+03  0.35792517690E+03  0.17142582615E+03 0.  0.
        -24    2    3    3    0    0 -0.73516667843E+02 -0.14757818868E+03  0.19456643695E+03  0.26798130698E+03  0.82303464549E+02 0.  0.
          6    2    1    2  501    0  0.13253572474E+03  0.12220272667E+03  0.12277595086E+03  0.27939498504E+03  0.17460927471E+03 0.  0.
         24    2    5    5    0    0  0.12864370713E+02  0.57711587706E+02  0.10061349571E+03  0.14157769875E+03  0.80156408831E+02 0.  0.
          5    1    5    5  501    0  0.11967135403E+03  0.64491138965E+02  0.22162455154E+02  0.13781728628E+03  0.47000000000E+01 0. -1.
        -13    1    6    6    0    0 -0.16000659478E+02  0.65931766333E+01  0.75959372161E+02  0.77905823281E+02  0.00000000000E+00 0.  1.
         14    1    6    6    0    0  0.28865030191E+02  0.51118411073E+02  0.24654123545E+02  0.63671875473E+02  0.00000000000E+00 0. -1.
         -5    1    3    3    0  503 -0.59019056899E+02  0.25375462009E+02  0.62774569592E+02  0.89943869924E+02  0.47000000000E+01 0.  1.
         13    1    4    4    0    0  0.60759406270E+00 -0.48736996575E+00 -0.73574434002E+01  0.73985588742E+01  0.00000000000E+00 0. -1.
        -14    1    4    4    0    0 -0.74124261906E+02 -0.14709081871E+03  0.20192388035E+03  0.26058274810E+03  0.00000000000E+00 0.  1.
</event>
<event>
12    1  0.8494789E-002  0.1784265E+03  0.7818608E-02  0.1169664E+00
         21   -1    0    0  501  502  0.00000000000E+00  0.00000000000E+00  0.14380496519E+02  0.14380496519E+02  0.00000000000E+00 0.  1.
         21   -1    0    0  502  503 -0.00000000000E+00 -0.00000000000E+00 -0.25479980037E+04  0.25479980037E+04  0.00000000000E+00 0.  1.
         -6    2    1    2    0  503  0.41038466457E+02  0.78964192467E+00 -0.17462904044E+04  0.17553820597E+04  0.17364106662E+03 0.  0.
        -24    2    3    3    0    0 -0.24273750446E+02  0.42927484905E+02 -0.58541655015E+03  0.59189958076E+03  0.72115134312E+02 0.  0.
          6    2    1    2  501    0 -0.41038466457E+02 -0.78964192467E+00 -0.78732710283E+03  0.80699644049E+03  0.17226290620E+03 0.  0.
         24    2    5    5    0    0  0.14048301203E+02 -0.62637216323E+01 -0.18835129933E+03  0.20544958388E+03  0.80602298864E+02 0.  0.
          5    1    5    5  501    0 -0.55086767661E+02  0.54740797076E+01 -0.59897580350E+03  0.60154685661E+03  0.47000000000E+01 0. -1.
        -11    1    6    6    0    0 -0.33015879460E+02 -0.34826508298E+01 -0.99069692966E+02  0.10448435872E+03  0.00000000000E+00 0.  1.
         12    1    6    6    0    0  0.47064180663E+02 -0.27810708025E+01 -0.89281606367E+02  0.10096522516E+03  0.00000000000E+00 0. -1.
         -5    1    3    3    0  503  0.65312216904E+02 -0.42137842980E+02 -0.11608738542E+04  0.11634824790E+04  0.47000000000E+01 0.  1.
         13    1    4    4    0    0  0.92409143522E+01 -0.15578420163E+02 -0.81254992189E+02  0.83249356926E+02  0.00000000000E+00 0. -1.
        -14    1    4    4    0    0 -0.33514664799E+02  0.58505905068E+02 -0.50416155796E+03  0.50865022383E+03  0.00000000000E+00 0.  1.
</event>
<event>
12    1  0.8494789E-002  0.2232851E+03  0.7818608E-02  0.1131467E+00
         21   -1    0    0  501  502  0.00000000000E+00  0.00000000000E+00  0.42618639362E+02  0.42618639362E+02  0.00000000000E+00 0. -1.
         21   -1    0    0  502  503 -0.00000000000E+00 -0.00000000000E+00 -0.21140822865E+04  0.21140822865E+04  0.00000000000E+00 0.  1.
         -6    2    1    2    0  503  0.13235285089E+03  0.51582804697E+02 -0.17564530705E+04  0.17705818831E+04  0.17220555477E+03 0.  0.
        -24    2    3    3    0    0  0.63326289898E+02  0.85716691761E+01 -0.14462465871E+04  0.14498564924E+04  0.79818327431E+02 0.  0.
          6    2    1    2  501    0 -0.13235285089E+03 -0.51582804697E+02 -0.31501057662E+03  0.38611904272E+03  0.17227358733E+03 0.  0.
         24    2    5    5    0    0 -0.11351834465E+03 -0.74798939735E+02 -0.31868402715E+03  0.35563442709E+03  0.80218704873E+02 0.  0.
          5    1    5    5  501    0 -0.18834506243E+02  0.23216135038E+02  0.36734505315E+01  0.30484615634E+02  0.47000000000E+01 0. -1.
        -11    1    6    6    0    0 -0.11108399085E+03 -0.37143701851E+02 -0.20822182781E+03  0.23890507987E+03  0.00000000000E+00 0.  1.
         12    1    6    6    0    0 -0.24343537938E+01 -0.37655237884E+02 -0.11046219934E+03  0.11672934722E+03  0.00000000000E+00 0. -1.
         -5    1    3    3    0  503  0.69026560992E+02  0.43011135521E+02 -0.31020648339E+03  0.32072539070E+03  0.47000000000E+01 0.  1.
         13    1    4    4    0    0 -0.18848670210E+02  0.64521384824E+01 -0.25496710828E+03  0.25574426439E+03  0.00000000000E+00 0. -1.
        -14    1    4    4    0    0  0.82174960109E+02  0.21195306937E+01 -0.11912794788E+04  0.11941122281E+04  0.00000000000E+00 0.  1.
</event>
<event>
12    1  0.8494789E-002  0.2010198E+03  0.7818608E-02  0.1148892E+00
         21   -1    0    0  501  502  0.00000000000E+00  0.00000000000E+00  0.78008039117E+02  0.78008039117E+02  0.00000000000E+00 0.  1.
         21   -1    0    0  502  503 -0.00000000000E+00 -0.00000000000E+00 -0.76388037209E+03  0.76388037209E+03  0.00000000000E+00 0.  1.
         -6    2    1    2    0  503 -0.80257943515E+02  0.66508456353E+02 -0.58184260290E+03  0.61558896209E+03  0.17188438974E+03 0.  0.
        -24    2    3    3    0    0 -0.43149091274E+02  0.10761731531E+02 -0.50439849554E+03  0.51309777219E+03  0.82908519326E+02 0.  0.
          6    2    1    2  501    0  0.80257943515E+02 -0.66508456353E+02 -0.10402973007E+03  0.22629944911E+03  0.17182707489E+03 0.  0.
         24    2    5    5    0    0  0.34063369073E+02 -0.45832270213E+01  0.12601457862E+02  0.86322319788E+02  0.78175616856E+02 0.  0.
          5    1    5    5  501    0  0.46194574442E+02 -0.61925229332E+02 -0.11663118793E+03  0.13997712933E+03  0.47000000000E+01 0. -1.
        -13    1    6    6    0    0  0.59104264188E+01 -0.39667213373E+02  0.96069176040E+01  0.41239711724E+02  0.00000000000E+00 0.  1.
         14    1    6    6    0    0  0.28152942654E+02  0.35083986352E+02  0.29945402575E+01  0.45082608063E+02  0.00000000000E+00 0. -1.
         -5    1    3    3    0  503 -0.37108852241E+02  0.55746724822E+02 -0.77444107358E+02  0.10249118990E+03  0.47000000000E+01 0.  1.
         13    1    4    4    0    0 -0.25761610309E+02  0.32458065718E+02 -0.10724936427E+03  0.11497657471E+03  0.00000000000E+00 0. -1.
        -14    1    4    4    0    0 -0.17387480965E+02 -0.21696334187E+02 -0.39714913127E+03  0.39812119747E+03  0.00000000000E+00 0.  1.
</event>
<event>
12    1  0.8494789E-002  0.1809607E+03  0.7818608E-02  0.1167117E+00
         21   -1    0    0  501  502  0.00000000000E+00  0.00000000000E+00  0.49352246229E+02  0.49352246229E+02  0.00000000000E+00 0.  1.
         21   -1    0    0  502  503 -0.00000000000E+00 -0.00000000000E+00 -0.77058757217E+03  0.77058757217E+03  0.00000000000E+00 0.  1.
         -6    2    1    2    0  503 -0.22477140881E+02  0.51912256300E+02 -0.51515435289E+03  0.54568417498E+03  0.17084234634E+03 0.  0.
        -24    2    3    3    0    0 -0.45249703157E+01  0.28779268289E+02 -0.10954144647E+03  0.13898854503E+03  0.80434852617E+02 0.  0.
          6    2    1    2  501    0  0.22477140881E+02 -0.51912256300E+02 -0.20608097305E+03  0.27425564342E+03  0.17189149565E+03 0.  0.
         24    2    5    5    0    0  0.41704829375E+02 -0.61445507266E+02 -0.85320404010E+02  0.15151285580E+03  0.10080541144E+03 0.  0.
          5    1    5    5  501    0 -0.19227688494E+02  0.95332509659E+01 -0.12076056904E+03  0.12274278762E+03  0.47000000000E+01 0. -1.
        -13    1    6    6    0    0  0.26338722123E+02 -0.28788627260E+02  0.17335735262E+02  0.42697084908E+02  0.00000000000E+00 0.  1.
         14    1    6    6    0    0  0.15366107252E+02 -0.32656880007E+02 -0.10265613927E+03  0.10881577089E+03  0.00000000000E+00 0. -1.
         -5    1    3    3    0  503 -0.17952170565E+02  0.23132988011E+02 -0.40561290642E+03  0.40669562995E+03  0.47000000000E+01 0.  1.
         11    1    4    4    0    0 -0.13273233357E+02 -0.14717272471E+02 -0.86989130329E+02  0.89218191127E+02  0.00000000000E+00 0. -1.
        -12    1    4    4    0    0  0.87482630409E+01  0.43496540760E+02 -0.22552316139E+02  0.49770353902E+02  0.00000000000E+00 0.  1.
</event>
<event>
12    1  0.8494789E-002  0.1880310E+03  0.7818608E-02  0.1160881E+00
         21   -1    0    0  503  502  0.00000000000E+00  0.00000000000E+00  0.32239965263E+02  0.32239965263E+02  0.00000000000E+00 0. -1.
         21   -1    0    0  501  503 -0.00000000000E+00 -0.00000000000E+00 -0.11421749376E+04  0.11421749376E+04  0.00000000000E+00 0.  1.
          6    2    1    2  501    0 -0.73757861772E+02  0.21245033872E+02 -0.69503246969E+03  0.72001791622E+03  0.17165107666E+03 0.  0.
         24    2    3    3    0    0  0.69970685850E+01  0.63411269889E+00 -0.15894961293E+03  0.17747474913E+03  0.78631711537E+02 0.  0.
         -6    2    1    2    0  502  0.73757861772E+02 -0.21245033872E+02 -0.41490250266E+03  0.45439698666E+03  0.16864448147E+03 0.  0.
        -24    2    5    5    0    0  0.12155020842E+02  0.27037753314E+02 -0.10540209109E+03  0.13511853090E+03  0.79174692610E+02 0.  0.
          5    1    3    3  501    0 -0.80754930357E+02  0.20610921173E+02 -0.53608285676E+03  0.54254316709E+03  0.47000000000E+01 0. -1.
        -11    1    4    4    0    0 -0.19427634578E+02 -0.27226538485E+02 -0.11164140811E+03  0.11654407488E+03  0.00000000000E+00 0.  1.
         12    1    4    4    0    0  0.26424703164E+02  0.27860651184E+02 -0.47308204821E+02  0.60930674254E+02  0.00000000000E+00 0. -1.
         -5    1    5    5    0  502  0.61602840930E+02 -0.48282787186E+02 -0.30950041157E+03  0.31927845576E+03  0.47000000000E+01 0.  1.
         13    1    6    6    0    0  0.13097836493E+02 -0.20318732804E+02 -0.58492717999E+01  0.24872036590E+02  0.00000000000E+00 0. -1.
        -14    1    6    6    0    0 -0.94281565073E+00  0.47356486118E+02 -0.99552819286E+02  0.11024649431E+03  0.00000000000E+00 0.  1.
</event>
<event>
12    1  0.8494789E-002  0.2440865E+03  0.7818608E-02  0.1117716E+00
         21   -1    0    0  503  502  0.00000000000E+00  0.00000000000E+00  0.43125814220E+03  0.43125814220E+03  0.00000000000E+00 0. -1.
         21   -1    0    0  501  503 -0.00000000000E+00 -0.00000000000E+00 -0.14601616381E+03  0.14601616381E+03  0.00000000000E+00 0.  1.
          6    2    1    2  501    0 -0.14448989714E+03  0.87067512380E+02  0.66141196573E+02  0.24927529834E+03  0.17118830098E+03 0.  0.
         24    2    3    3    0    0 -0.14062627706E+03  0.92912076525E+01  0.40210634302E+02  0.16706480511E+03  0.80197740970E+02 0.  0.
         -6    2    1    2    0  502  0.14448989714E+03 -0.87067512380E+02  0.21910078181E+03  0.32799900767E+03  0.17640894068E+03 0.  0.
        -24    2    5    5    0    0  0.83740200546E+02 -0.38071562137E+02  0.21951217517E+03  0.24981084986E+03  0.75881490678E+02 0.  0.
          5    1    3    3  501    0 -0.38636200793E+01  0.77776304727E+02  0.25930562271E+02  0.82210493228E+02  0.47000000000E+01 0. -1.
        -13    1    4    4    0    0 -0.19166262537E+02  0.29703054111E+02 -0.53344860515E+01  0.35750157826E+02  0.00000000000E+00 0.  1.
         14    1    4    4    0    0 -0.12146001452E+03 -0.20411846458E+02  0.45545120353E+02  0.13131464729E+03  0.00000000000E+00 0. -1.
         -5    1    5    5    0  502  0.60749696594E+02 -0.48995950243E+02 -0.41139336254E+00  0.78188157805E+02  0.47000000000E+01 0.  1.
         13    1    6    6    0    0  0.13678007247E+02  0.12003230794E+02  0.10481313860E+03  0.10638119878E+03  0.00000000000E+00 0. -1.
        -14    1    6    6    0    0  0.70062193299E+02 -0.50074792931E+02  0.11469903658E+03  0.14342965108E+03  0.00000000000E+00 0.  1.
</event>
<event>
12    1  0.8494789E-002  0.1952383E+03  0.7818608E-02  0.1154367E+00
         21   -1    0    0  503  502  0.00000000000E+00  0.00000000000E+00  0.11243828125E+03  0.11243828125E+03  0.00000000000E+00 0.  1.
         21   -1    0    0  501  503 -0.00000000000E+00 -0.00000000000E+00 -0.13218675427E+04  0.13218675427E+04  0.00000000000E+00 0. -1.
          6    2    1    2  501    0  0.61018482968E+02 -0.70118227960E+02 -0.12254430173E+04  0.12408983009E+04  0.17169211823E+03 0.  0.
         24    2    3    3    0    0  0.42185119968E+00  0.23699632163E+02 -0.53902527363E+03  0.54543791279E+03  0.79952614534E+02 0.  0.
         -6    2    1    2    0  502 -0.61018482968E+02  0.70118227960E+02  0.16013755864E+02  0.19340752300E+03  0.16884966218E+03 0.  0.
        -24    2    5    5    0    0 -0.34275636520E+02  0.13127541434E+02  0.68542215898E+02  0.11128293898E+03  0.79615987998E+02 0.  0.
          5    1    3    3  501    0  0.60596631769E+02 -0.93817860123E+02 -0.68641774367E+03  0.69546038815E+03  0.47000000000E+01 0. -1.
        -13    1    4    4    0    0  0.23095067709E+02  0.40362676659E+02 -0.44127214757E+03  0.44371571535E+03  0.00000000000E+00 0.  1.
         14    1    4    4    0    0 -0.22673216509E+02 -0.16663044496E+02 -0.97753126054E+02  0.10172219744E+03  0.00000000000E+00 0. -1.
         -5    1    5    5    0  502 -0.26742846448E+02  0.56990686526E+02 -0.52528460034E+02  0.82124584019E+02  0.47000000000E+01 0.  1.
         13    1    6    6    0    0 -0.20345486879E+02 -0.17819946871E+02 -0.74527897990E+01  0.28054115894E+02  0.00000000000E+00 0. -1.
        -14    1    6    6    0    0 -0.13930149641E+02  0.30947488305E+02  0.75995005697E+02  0.83228823086E+02  0.00000000000E+00 0.  1.
</event>
<event>
12    1  0.8494789E-002  0.1861253E+03  0.7818608E-02  0.1162507E+00
         21   -1    0    0  503  502  0.00000000000E+00  0.00000000000E+00  0.33179392406E+02  0.33179392406E+02  0.00000000000E+00 0. -1.
         21   -1    0    0  501  503 -0.00000000000E+00 -0.00000000000E+00 -0.10846921994E+04  0.10846921994E+04  0.00000000000E+00 0. -1.
          6    2    1    2  501    0 -0.43072873266E+02 -0.51928320398E+02 -0.39965722471E+03  0.43996428070E+03  0.17114569278E+03 0.  0.
         24    2    3    3    0    0  0.20380409380E+02  0.18263582938E+02 -0.13831275690E+03  0.16197823208E+03  0.79734618566E+02 0.  0.
         -6    2    1    2    0  502  0.43072873266E+02  0.51928320398E+02 -0.65185558225E+03  0.67790731107E+03  0.17346699808E+03 0.  0.
        -24    2    5    5    0    0  0.21437991949E+02  0.79740230857E+02 -0.61838485806E+03  0.62908160236E+03  0.80782039086E+02 0.  0.
          5    1    3    3  501    0 -0.63453282646E+02 -0.70191903336E+02 -0.26134446782E+03  0.27798604862E+03  0.47000000000E+01 0. -1.
        -13    1    4    4    0    0 -0.12113053472E+02 -0.95728830232E+01  0.17387512423E+01  0.15536711675E+02  0.00000000000E+00 0.  1.
         14    1    4    4    0    0  0.32493462853E+02  0.27836465961E+02 -0.14005150814E+03  0.14644152040E+03  0.00000000000E+00 0. -1.
         -5    1    5    5    0  502  0.21634881317E+02 -0.27811910459E+02 -0.33470724189E+02  0.48825708707E+02  0.47000000000E+01 0.  1.
         13    1    6    6    0    0  0.25703207597E+02  0.69314126174E+02 -0.25442631304E+03  0.26494877191E+03  0.00000000000E+00 0. -1.
        -14    1    6    6    0    0 -0.42652156486E+01  0.10426104683E+02 -0.36395854501E+03  0.36413283045E+03  0.00000000000E+00 0.  1.
</event>
<event>
12    1  0.8494789E-002  0.2053929E+03  0.7818608E-02  0.1145302E+00
         21   -1    0    0  503  502  0.00000000000E+00  0.00000000000E+00  0.12599226867E+03  0.12599226867E+03  0.00000000000E+00 0.  1.
         21   -1    0    0  501  503 -0.00000000000E+00 -0.00000000000E+00 -0.41033550215E+03  0.41033550215E+03  0.00000000000E+00 0. -1.
          6    2    1    2  501    0 -0.11006047049E+03  0.19127380579E+02 -0.25746447620E+03  0.32935423243E+03  0.17235744854E+03 0.  0.
         24    2    3    3    0    0 -0.16124114049E+02  0.54050024971E+02 -0.77527539189E+02  0.12333719078E+03  0.77589632318E+02 0.  0.
         -6    2    1    2    0  502  0.11006047049E+03 -0.19127380579E+02 -0.26878757288E+02  0.20697353839E+03  0.17215229928E+03 0.  0.
        -24    2    5    5    0    0  0.14838925070E+01  0.16263572580E+02 -0.41083799544E+02  0.91798601541E+02  0.80451220810E+02 0.  0.
          5    1    3    3  501    0 -0.93936356442E+02 -0.34922644391E+02 -0.17993693701E+03  0.20601704165E+03  0.47000000000E+01 0. -1.
        -13    1    4    4    0    0  0.86072198961E+01  0.28390142776E+02  0.79626368508E+01  0.30716250207E+02  0.00000000000E+00 0.  1.
         14    1    4    4    0    0 -0.24731333945E+02  0.25659882195E+02 -0.85490176040E+02  0.92620940571E+02  0.00000000000E+00 0. -1.
         -5    1    5    5    0  502  0.10857657798E+03 -0.35390953160E+02  0.14205042256E+02  0.11517493685E+03  0.47000000000E+01 0.  1.
         11    1    6    6    0    0 -0.20145907830E+02  0.57603940587E+01  0.18244353349E+02  0.27783019474E+02  0.00000000000E+00 0. -1.
        -12    1    6    6    0    0  0.21629800337E+02  0.10503178521E+02 -0.59328152893E+02  0.64015582066E+02  0.00000000000E+00 0.  1.
</event>
<event>
12    1  0.8494789E-002  0.2084051E+03  0.7818608E-02  0.1143042E+00
         21   -1    0    0  503  502  0.00000000000E+00  0.00000000000E+00  0.35360480384E+03  0.35360480384E+03  0.00000000000E+00 0.  1.
         21   -1    0    0  501  503 -0.00000000000E+00 -0.00000000000E+00 -0.18281406741E+03  0.18281406741E+03  0.00000000000E+00 0.  1.
          6    2    1    2  501    0  0.11629217980E+03 -0.66555080649E+00 -0.69156481743E+02  0.21860232630E+03  0.17169753654E+03 0.  0.
         24    2    3    3    0    0  0.13435262197E+03 -0.35046388377E+02 -0.33140438229E+02  0.16542839514E+03  0.83602565177E+02 0.  0.
         -6    2    1    2    0  502 -0.11629217980E+03  0.66555080649E+00  0.23994721817E+03  0.31781654496E+03  0.17294037903E+03 0.  0.
        -24    2    5    5    0    0 -0.10090503246E+03 -0.56059859995E+02  0.20328604103E+03  0.24838551124E+03  0.83938157219E+02 0.  0.
          5    1    3    3  501    0 -0.18060442179E+02  0.34380837571E+02 -0.36016043514E+02  0.53173931152E+02  0.47000000000E+01 0. -1.
        -11    1    4    4    0    0  0.47468023051E+02  0.14093934960E+02 -0.42389804891E+02  0.65182419207E+02  0.00000000000E+00 0.  1.
         12    1    4    4    0    0  0.86884598923E+02 -0.49140323338E+02  0.92493666621E+01  0.10024597594E+03  0.00000000000E+00 0. -1.
         -5    1    5    5    0  502 -0.15387147337E+02  0.56725410801E+02  0.36661177142E+02  0.69431033719E+02  0.47000000000E+01 0.  1.
         13    1    6    6    0    0  0.16254233740E+01  0.12051511247E+02  0.51728319277E+02  0.53138497718E+02  0.00000000000E+00 0. -1.
        -14    1    6    6    0    0 -0.10253045583E+03 -0.68111371242E+02  0.15155772176E+03  0.19524701352E+03  0.00000000000E+00 0.  1.
</event>
<event>
12    1  0.8494789E-002  0.1957328E+03  0.7818608E-02  0.1153795E+00
         21   -1    0    0  503  502  0.00000000000E+00  0.00000000000E+00  0.22831630508E+03  0.22831630508E+03  0.00000000000E+00 0.  1.
         21   -1    0    0  501  503 -0.00000000000E+00 -0.00000000000E+00 -0.21000886125E+03  0.21000886125E+03  0.00000000000E+00 0. -1.
          6    2    1    2  501    0  0.61608176914E+02 -0.68284984448E+02 -0.90968149550E+02  0.21415449132E+03  0.17067083921E+03 0.  0.
         24    2    3    3    0    0  0.64089328856E+02  0.15240710358E+02 -0.19716515128E+02  0.10423823586E+03  0.78339948433E+02 0.  0.
         -6    2    1    2    0  502 -0.61608176914E+02  0.68284984448E+02  0.10927559338E+03  0.22417067500E+03  0.17278000364E+03 0.  0.
        -24    2    5    5    0    0 -0.88877623458E+02  0.41752184849E+02  0.18788991829E+02  0.12589795636E+03  0.76516614601E+02 0.  0.
          5    1    3    3  501    0 -0.24811519425E+01 -0.83525694807E+02 -0.71251634423E+02  0.10991625547E+03  0.47000000000E+01 0. -1.
        -13    1    4    4    0    0  0.34637943618E+02  0.13876935312E+02  0.29024843458E+02  0.47273650266E+02  0.00000000000E+00 0.  1.
         14    1    4    4    0    0  0.29451385239E+02  0.13637750458E+01 -0.48741358586E+02  0.56964585592E+02  0.00000000000E+00 0. -1.
         -5    1    5    5    0  502  0.27269446544E+02  0.26532799600E+02  0.90486601552E+02  0.98272718645E+02  0.47000000000E+01 0.  1.
         11    1    6    6    0    0  0.19652114892E+01  0.33125617889E+02  0.33949251525E+01  0.33357070218E+02  0.00000000000E+00 0. -1.
        -12    1    6    6    0    0 -0.90842834947E+02  0.86265669597E+01  0.15394066677E+02  0.92540886140E+02  0.00000000000E+00 0.  1.
</event>
<event>
12    1  0.8494789E-002  0.3085098E+03  0.7818608E-02  0.1081099E+00
         21   -1    0    0  503  502  0.00000000000E+00  0.00000000000E+00  0.14177883275E+03  0.14177883275E+03  0.00000000000E+00 0. -1.
         21   -1    0    0  501  503 -0.00000000000E+00 -0.00000000000E+00 -0.10326210029E+04  0.10326210029E+04  0.00000000000E+00 0. -1.
          6    2    1    2  501    0  0.23041946285E+03  0.11092337171E+03 -0.79293661077E+03  0.85072751047E+03  0.17202239716E+03 0.  0.
         24    2    3    3    0    0  0.26972211386E+02  0.39901098769E+02 -0.28172056635E+03  0.29593125828E+03  0.76741346408E+02 0.  0.
         -6    2    1    2    0  502 -0.23041946285E+03 -0.11092337171E+03 -0.97905559396E+02  0.32367232520E+03  0.17257216546E+03 0.  0.
        -24    2    5    5    0    0 -0.17571717848E+03 -0.14689137632E+03 -0.48962714108E+02  0.24179724123E+03  0.60124497885E+02 0.  0.
          5    1    3    3  501    0  0.20344725146E+03  0.71022272939E+02 -0.51121604442E+03  0.55479625220E+03  0.47000000000E+01 0. -1.
        -11    1    4    4    0    0  0.21534658953E+02  0.62427433012E+02 -0.22924019626E+03  0.23856234722E+03  0.00000000000E+00 0.  1.
         12    1    4    4    0    0  0.54375524324E+01 -0.22526334243E+02 -0.52480370089E+02  0.57368911054E+02  0.00000000000E+00 0. -1.
         -5    1    5    5    0  502 -0.54702284370E+02  0.35968004607E+02 -0.48942845289E+02  0.81875083973E+02  0.47000000000E+01 0.  1.
         11    1    6    6    0    0 -0.77219695459E+02 -0.52560834835E+02  0.85159921707E+01  0.93797893622E+02  0.00000000000E+00 0. -1.
        -12    1    6    6    0    0 -0.98497483019E+02 -0.94330541481E+02 -0.57478706278E+02  0.14799934761E+03  0.00000000000E+00 0.  1.
</event>
<event>
12    1  0.8494789E-002  0.2058837E+03  0.7818608E-02  0.1146986E+00
         21   -1    0    0  503  502  0.00000000000E+00  0.00000000000E+00  0.35160711975E+03  0.35160711975E+03  0.00000000000E+00 0.  1.
         21   -1    0    0  501  503 -0.00000000000E+00 -0.00000000000E+00 -0.12411220857E+03  0.12411220857E+03  0.00000000000E+00 0. -1.
          6    2    1    2  501    0  0.71494620532E+02 -0.67167440385E+02  0.17662682657E+03  0.26364465261E+03  0.16937686139E+03 0.  0.
         24    2    3    3    0    0  0.64003133525E+02 -0.53415583945E+02  0.20201193624E+03  0.23344979003E+03  0.82099673403E+02 0.  0.
         -6    2    1    2    0  502 -0.71494620532E+02  0.67167440385E+02  0.50868084611E+02  0.21207467571E+03  0.18101149199E+03 0.  0.
        -24    2    5    5    0    0 -0.10498489285E+03  0.47321730122E+02 -0.10719741207E+02  0.13906371184E+03  0.77218062856E+02 0.  0.
          5    1    3    3  501    0  0.74914870077E+01 -0.13751856441E+02 -0.25385109672E+02  0.30194862580E+02  0.47000000000E+01 0. -1.
        -11    1    4    4    0    0 -0.80463640870E+01  0.10973055633E+02  0.59128041148E+01  0.14836211694E+02  0.00000000000E+00 0.  1.
         12    1    4    4    0    0  0.72049497612E+02 -0.64388639578E+02  0.19609913212E+03  0.21861357833E+03  0.00000000000E+00 0. -1.
         -5    1    5    5    0  502  0.33490272321E+02  0.19845710264E+02  0.61587825818E+02  0.73010963868E+02  0.47000000000E+01 0.  1.
         13    1    6    6    0    0  0.12579339589E+02  0.26914493059E+01 -0.86209772825E-01  0.12864335039E+02  0.00000000000E+00 0. -1.
        -14    1    6    6    0    0 -0.11756423244E+03  0.44630280816E+02 -0.10633531434E+02  0.12619937681E+03  0.00000000000E+00 0.  1.
</event>
<event>
12    1  0.8494789E-002  0.2798068E+03  0.7818608E-02  0.1095844E+00
         21   -1    0    0  501  502  0.00000000000E+00  0.00000000000E+00  0.90024020755E+03  0.90024020755E+03  0.00000000000E+00 0.  1.
         21   -1    0    0  502  503 -0.00000000000E+00 -0.00000000000E+00 -0.16963728285E+03  0.16963728285E+03  0.00000000000E+00 0. -1.
         -6    2    1    2    0  503  0.12983341186E+03  0.17835412641E+03 -0.82673018339E+01  0.27992892044E+03  0.17211897914E+03 0.  0.
        -24    2    3    3    0    0  0.76469002854E+02  0.18638931615E+03 -0.35570353149E+02  0.21926697987E+03  0.78894061022E+02 0.  0.
          6    2    1    2  501    0 -0.12983341186E+03 -0.17835412641E+03  0.73887022654E+03  0.78994856996E+03  0.17153023720E+03 0.  0.
         24    2    5    5    0    0 -0.67355337786E+02 -0.18835251458E+02  0.32955473404E+03  0.34620197155E+03  0.79736905801E+02 0.  0.
          5    1    5    5  501    0 -0.62478074076E+02 -0.15951887495E+03  0.40931549249E+03  0.44374659841E+03  0.47000000000E+01 0. -1.
        -11    1    6    6    0    0 -0.49729387736E+02 -0.47219057498E+02  0.26214896149E+03  0.27096997879E+03  0.00000000000E+00 0.  1.
         12    1    6    6    0    0 -0.17625950050E+02  0.28383806040E+02  0.67405772550E+02  0.75231992753E+02  0.00000000000E+00 0. -1.
         -5    1    3    3    0  503  0.53364409008E+02 -0.80351897449E+01  0.27303051315E+02  0.60661940573E+02  0.47000000000E+01 0.  1.
         13    1    4    4    0    0  0.74337207047E+02  0.82198713410E+02 -0.30425597662E+02  0.11492765477E+03  0.00000000000E+00 0. -1.
        -14    1    4    4    0    0  0.21317958078E+01  0.10419060274E+03 -0.51447554871E+01  0.10433932510E+03  0.00000000000E+00 0.  1.
</event>
<event>
12    1  0.8494789E-002  0.2132113E+03  0.7818608E-02  0.1139260E+00
         21   -1    0    0  503  502  0.00000000000E+00  0.00000000000E+00  0.22584813320E+03  0.22584813320E+03  0.00000000000E+00 0.  1.
         21   -1    0    0  501  503 -0.00000000000E+00 -0.00000000000E+00 -0.10167900787E+04  0.10167900787E+04  0.00000000000E+00 0. -1.
          6    2    1    2  501    0  0.10609955474E+03 -0.61661197426E+02 -0.95205529981E+03  0.97539943776E+03  0.17301893104E+03 0.  0.
         24    2    3    3    0    0  0.93727204582E+02  0.24154054969E+02 -0.59814821236E+03  0.61099629680E+03  0.78530143920E+02 0.  0.
         -6    2    1    2    0  502 -0.10609955474E+03  0.61661197426E+02  0.16111335428E+03  0.26723877416E+03  0.17435547225E+03 0.  0.
        -24    2    5    5    0    0 -0.10544754501E+03  0.83087876964E+01  0.43804980049E+02  0.13828044986E+03  0.77552471488E+02 0.  0.
          5    1    3    3  501    0  0.12372350156E+02 -0.85815252395E+02 -0.35390708745E+03  0.36440314096E+03  0.47000000000E+01 0. -1.
        -13    1    4    4    0    0  0.16864657387E+02  0.11553850588E+02 -0.23729058124E+02  0.31320541688E+02  0.00000000000E+00 0.  1.
         14    1    4    4    0    0  0.76862547195E+02  0.12600204381E+02 -0.57441915423E+03  0.57967575511E+03  0.00000000000E+00 0. -1.
         -5    1    5    5    0  502 -0.65200972432E+00  0.53352409730E+02  0.11730837423E+03  0.12895832430E+03  0.47000000000E+01 0.  1.
         13    1    6    6    0    0 -0.34649027824E+01 -0.21717798143E+02 -0.28615080468E+01  0.22177838843E+02  0.00000000000E+00 0. -1.
        -14    1    6    6    0    0 -0.10198264223E+03  0.30026585839E+02  0.46666488096E+02  0.11610261102E+03  0.00000000000E+00 0.  1.
</event>
<event>
12    1  0.8494789E-002  0.1910212E+03  0.7818608E-02  0.1157627E+00
         21   -1    0    0  501  502  0.00000000000E+00  0.00000000000E+00  0.19512996380E+03  0.19512996380E+03  0.00000000000E+00 0. -1.
         21   -1    0    0  502  503 -0.00000000000E+00 -0.00000000000E+00 -0.20495427668E+03  0.20495427668E+03  0.00000000000E+00 0. -1.
         -6    2    1    2    0  503  0.76123524987E+02 -0.35614851967E+02  0.54892149011E+02  0.19875173483E+03  0.17153977771E+03 0.  0.
        -24    2    3    3    0    0  0.80954255833E+02  0.97218503503E+01 -0.14293044075E+02  0.11576117223E+03  0.80921270229E+02 0.  0.
          6    2    1    2  501    0 -0.76123524987E+02  0.35614851967E+02 -0.64716461887E+02  0.20133250566E+03  0.17112378168E+03 0.  0.
         24    2    5    5    0    0 -0.12413155575E+02  0.71359943959E+02 -0.69513738982E+02  0.12797157164E+03  0.79361421405E+02 0.  0.
          5    1    5    5  501    0 -0.63710369412E+02 -0.35745091992E+02  0.47972770954E+01  0.73360934016E+02  0.47000000000E+01 0. -1.
        -13    1    6    6    0    0  0.33364978629E+02  0.37844431120E+02 -0.37151879022E+02  0.62655286135E+02  0.00000000000E+00 0.  1.
         14    1    6    6    0    0 -0.45778134204E+02  0.33515512839E+02 -0.32361859960E+02  0.65316285505E+02  0.00000000000E+00 0. -1.
         -5    1    3    3    0  503 -0.48307308460E+01 -0.45336702317E+02  0.69185193087E+02  0.82990562596E+02  0.47000000000E+01 0.  1.
         13    1    4    4    0    0  0.26804762166E+02  0.33849946999E+02 -0.32167851146E+02  0.53843150298E+02  0.00000000000E+00 0. -1.
        -14    1    4    4    0    0  0.54149493666E+02 -0.24128096649E+02  0.17874807071E+02  0.61918021932E+02  0.00000000000E+00 0.  1.
</event>
<event>
12    1  0.8494789E-002  0.2572502E+03  0.7818608E-02  0.1109119E+00
         21   -1    0    0  501  502  0.00000000000E+00  0.00000000000E+00  0.29409745431E+03  0.29409745431E+03  0.00000000000E+00 0.  1.
         21   -1    0    0  502  503 -0.00000000000E+00 -0.00000000000E+00 -0.44155568793E+03  0.44155568793E+03  0.00000000000E+00 0.  1.
         -6    2    1    2    0  503 -0.17769724936E+03 -0.63609864301E+02 -0.33221920043E+03  0.41892884391E+03  0.17178257146E+03 0.  0.
        -24    2    3    3    0    0 -0.12336402345E+03 -0.11717954773E+02 -0.30559205700E+03  0.33907920722E+03  0.78944352043E+02 0.  0.
          6    2    1    2  501    0  0.17769724936E+03  0.63609864301E+02  0.18476096681E+03  0.31672429833E+03  0.17480028327E+03 0.  0.
         24    2    5    5    0    0  0.12640448459E+02  0.95661910890E+01  0.61314110016E+02  0.10359128214E+03  0.81978294077E+02 0.  0.
          5    1    5    5  501    0  0.16505680090E+03  0.54043673212E+02  0.12344685679E+03  0.21313301619E+03  0.47000000000E+01 0. -1.
        -11    1    6    6    0    0  0.31495685344E+02  0.10880050878E+02  0.73775774224E+02  0.80951952198E+02  0.00000000000E+00 0.  1.
         12    1    6    6    0    0 -0.18855236885E+02 -0.13138597888E+01 -0.12461664208E+02  0.22639329945E+02  0.00000000000E+00 0. -1.
         -5    1    3    3    0  503 -0.54333225912E+02 -0.51891909528E+02 -0.26627143429E+02  0.79849636690E+02  0.47000000000E+01 0.  1.
         13    1    4    4    0    0 -0.21548392227E+00 -0.27300619445E+01  0.45223611864E+01  0.52869104628E+01  0.00000000000E+00 0. -1.
        -14    1    4    4    0    0 -0.12314853952E+03 -0.89878928288E+01 -0.31011441819E+03  0.33379229675E+03  0.00000000000E+00 0.  1.
</event>
<event>
12    1  0.8494789E-002  0.1875071E+03  0.7818608E-02  0.1160899E+00
         21   -1    0    0  503  502  0.00000000000E+00  0.00000000000E+00  0.17040218694E+03  0.17040218694E+03  0.00000000000E+00 0.  1.
         21   -1    0    0  501  503 -0.00000000000E+00 -0.00000000000E+00 -0.21968139809E+03  0.21968139809E+03  0.00000000000E+00 0.  1.
          6    2    1    2  501    0 -0.35350384494E+01 -0.74040887069E+02 -0.74123300336E+02  0.20093775058E+03  0.17142685466E+03 0.  0.
         24    2    3    3    0    0  0.22665484401E+02 -0.10598909399E+03 -0.83164223691E+02  0.15838209739E+03  0.80132318355E+02 0.  0.
         -6    2    1    2    0  502  0.35350384494E+01  0.74040887069E+02  0.24844089190E+02  0.18914583445E+03  0.17223347081E+03 0.  0.
        -24    2    5    5    0    0 -0.47535582538E+01  0.10972569081E+03  0.50043004373E+02  0.14443362829E+03  0.79337551984E+02 0.  0.
          5    1    3    3  501    0 -0.26200522850E+02  0.31948206916E+02  0.90409233557E+01  0.42555653184E+02  0.47000000000E+01 0. -1.
        -11    1    4    4    0    0  0.23761810483E+02 -0.27479879614E+02 -0.69866633514E+02  0.78747151692E+02  0.00000000000E+00 0.  1.
         12    1    4    4    0    0 -0.10963260817E+01 -0.78509214371E+02 -0.13297590177E+02  0.79634945699E+02  0.00000000000E+00 0. -1.
         -5    1    5    5    0  502  0.82885967032E+01 -0.35684803739E+02 -0.25198915183E+02  0.44712206159E+02  0.47000000000E+01 0.  1.
         13    1    6    6    0    0  0.26272707155E+02  0.57833700831E+01  0.76323238392E+01  0.27963456116E+02  0.00000000000E+00 0. -1.
        -14    1    6    6    0    0 -0.31026265408E+02  0.10394232073E+03  0.42410680533E+02  0.11647017217E+03  0.00000000000E+00 0.  1.
</event>
<event>
12    1  0.8494789E-002  0.2212710E+03  0.7818608E-02  0.1133246E+00
         21   -1    0    0  503  502  0.00000000000E+00  0.00000000000E+00  0.43850946953E+03  0.43850946953E+03  0.00000000000E+00 0. -1.
         21   -1    0    0  501  503 -0.00000000000E+00 -0.00000000000E+00 -0.27101670261E+03  0.27101670261E+03  0.00000000000E+00 0.  1.
          6    2    1    2  501    0  0.62411373783E+02 -0.12141108038E+03 -0.18913340725E+03  0.28983214320E+03  0.17203312321E+03 0.  0.
         24    2    3    3    0    0  0.54500331340E+02 -0.15007212071E+03 -0.18881054119E+03  0.25972842138E+03  0.79482733209E+02 0.  0.
         -6    2    1    2    0  502 -0.62411373783E+02  0.12141108038E+03  0.35662617418E+03  0.41969402894E+03  0.17414080453E+03 0.  0.
        -24    2    5    5    0    0 -0.61340843360E+02  0.31759712375E+01  0.18884488488E+03  0.21438124778E+03  0.80772167210E+02 0.  0.
          5    1    3    3  501    0  0.79110424431E+01  0.28661040327E+02 -0.32286605998E+00  0.30103721824E+02  0.47000000000E+01 0. -1.
        -13    1    4    4    0    0  0.19517780508E+02 -0.70884115992E+01 -0.62177008579E+02  0.65552801091E+02  0.00000000000E+00 0.  1.
         14    1    4    4    0    0  0.34982550832E+02 -0.14298370911E+03 -0.12663353261E+03  0.19417562029E+03  0.00000000000E+00 0. -1.
         -5    1    5    5    0  502 -0.10705304228E+01  0.11823510914E+03  0.16778128930E+03  0.20531278116E+03  0.47000000000E+01 0.  1.
         11    1    6    6    0    0 -0.14796283566E+02  0.70235759577E+01  0.15700526360E+03  0.15785725648E+03  0.00000000000E+00 0. -1.
        -12    1    6    6    0    0 -0.46544559794E+02 -0.38476047202E+01  0.31839621281E+02  0.56523991294E+02  0.00000000000E+00 0.  1.
</event>
<event>
12    1  0.8494789E-002  0.1936945E+03  0.7818608E-02  0.1155284E+00
         21   -1    0    0  503  502  0.00000000000E+00  0.00000000000E+00  0.33800336033E+03  0.33800336033E+03  0.00000000000E+00 0.  1.
         21   -1    0    0  501  503 -0.00000000000E+00 -0.00000000000E+00 -0.11705177875E+03  0.11705177875E+03  0.00000000000E+00 0.  1.
          6    2    1    2  501    0 -0.49227644758E+00 -0.88917228889E+02  0.57620524878E+02  0.20208333814E+03  0.17207857140E+03 0.  0.
         24    2    3    3    0    0  0.48185567079E+02 -0.41407522749E+01  0.98945573266E+01  0.93196050465E+02  0.79048129980E+02 0.  0.
         -6    2    1    2    0  502  0.49227644758E+00  0.88917228889E+02  0.16333105671E+03  0.25297180094E+03  0.17149688643E+03 0.  0.
        -24    2    5    5    0    0  0.22810830652E+02 -0.10998759629E+02  0.10858570999E+03  0.13678029690E+03  0.79225541960E+02 0.  0.
          5    1    3    3  501    0 -0.48677843526E+02 -0.84776476615E+02  0.47725967552E+02  0.10888728767E+03  0.47000000000E+01 0. -1.
        -11    1    4    4    0    0  0.39180187510E+02 -0.15489837508E+02  0.41058690212E+02  0.58828889172E+02  0.00000000000E+00 0.  1.
         12    1    4    4    0    0  0.90053795685E+01  0.11349085233E+02 -0.31164132885E+02  0.34367161292E+02  0.00000000000E+00 0. -1.
         -5    1    5    5    0  502 -0.22318554204E+02  0.99915988518E+02  0.54745346721E+02  0.11619150404E+03  0.47000000000E+01 0.  1.
         13    1    6    6    0    0  0.31096980788E+02  0.21112771131E+02  0.92655844308E+02  0.99989383453E+02  0.00000000000E+00 0. -1.
        -14    1    6    6    0    0 -0.82861501364E+01 -0.32111530760E+02  0.15929865679E+02  0.36790913448E+02  0.00000000000E+00 0.  1.
</event>
<event>
12    1  0.8494789E-002  0.1844313E+03  0.7818608E-02  0.1163668E+00
         21   -1    0    0  503  502  0.00000000000E+00  0.00000000000E+00  0.40316056369E+02  0.40316056369E+02  0.00000000000E+00 0.  1.
         21   -1    0    0  501  503 -0.00000000000E+00 -0.00000000000E+00 -0.84313414352E+03  0.84313414352E+03  0.00000000000E+00 0.  1.
          6    2    1    2  501    0 -0.31402307351E+02 -0.58191938052E+02 -0.41780280535E+03  0.45669914065E+03  0.17217001583E+03 0.  0.
         24    2    3    3    0    0 -0.51030821108E+02 -0.23131319893E+02 -0.40109107856E+03  0.41292817641E+03  0.80600390261E+02 0.  0.
         -6    2    1    2    0  502  0.31402307351E+02  0.58191938052E+02 -0.38501528180E+03  0.42675105924E+03  0.17177686917E+03 0.  0.
        -24    2    5    5    0    0  0.42373666796E+02  0.65904480351E+02 -0.39421850966E+03  0.40982051171E+03  0.80035556437E+02 0.  0.
          5    1    3    3  501    0  0.19628513757E+02 -0.35060618159E+02 -0.16711726788E+02  0.43770964237E+02  0.47000000000E+01 0. -1.
        -11    1    4    4    0    0  0.91158720114E+01 -0.45444733418E+00 -0.22967415645E+03  0.22985544106E+03  0.00000000000E+00 0.  1.
         12    1    4    4    0    0 -0.60146693119E+02 -0.22676872558E+02 -0.17141692211E+03  0.18307273535E+03  0.00000000000E+00 0. -1.
         -5    1    5    5    0  502 -0.10971359446E+02 -0.77125422990E+01  0.92032278532E+01  0.16930547532E+02  0.47000000000E+01 0.  1.
         13    1    6    6    0    0  0.21849887164E+02  0.30178414965E+02 -0.46106387682E+02  0.59278607305E+02  0.00000000000E+00 0. -1.
        -14    1    6    6    0    0  0.20523779632E+02  0.35726065386E+02 -0.34811212197E+03  0.35054190440E+03  0.00000000000E+00 0.  1.
</event>
<event>
12    1  0.8494789E-002  0.2175877E+03  0.7818608E-02  0.1136592E+00
         21   -1    0    0  501  502  0.00000000000E+00  0.00000000000E+00  0.72763016387E+03  0.72763016387E+03  0.00000000000E+00 0. -1.
         21   -1    0    0  502  503 -0.00000000000E+00 -0.00000000000E+00 -0.10184752370E+03  0.10184752370E+03  0.00000000000E+00 0. -1.
         -6    2    1    2    0  503 -0.12504096883E+03  0.40980097434E+02  0.56844196077E+02  0.22035095934E+03  0.16735791102E+03 0.  0.
        -24    2    3    3    0    0 -0.45776893954E+02 -0.28575633564E+02  0.61370612443E+02  0.11469410094E+03  0.80475423984E+02 0.  0.
          6    2    1    2  501    0  0.12504096883E+03 -0.40980097434E+02  0.56893844409E+03  0.60912672824E+03  0.17329110081E+03 0.  0.
         24    2    5    5    0    0  0.12770517402E+03 -0.92598596022E+01  0.27740687450E+03  0.31582480608E+03  0.79977357056E+02 0.  0.
          5    1    5    5  501    0 -0.26642051902E+01 -0.31720237832E+02  0.29153156959E+03  0.29330192216E+03  0.47000000000E+01 0. -1.
        -11    1    6    6    0    0 -0.11117720575E+02 -0.12584014587E+00  0.13468682361E+02  0.17464963529E+02  0.00000000000E+00 0.  1.
         12    1    6    6    0    0  0.13882289459E+03 -0.91340194563E+01  0.26393819214E+03  0.29835984255E+03  0.00000000000E+00 0. -1.
         -5    1    3    3    0  503 -0.79264074875E+02  0.69555730999E+02 -0.45264163655E+01  0.10565685839E+03  0.47000000000E+01 0.  1.
         11    1    4    4    0    0 -0.35391600833E+02 -0.22443652823E+02 -0.93617027769E+01  0.42940941308E+02  0.00000000000E+00 0. -1.
        -12    1    4    4    0    0 -0.10385293122E+02 -0.61319807411E+01  0.70732315220E+02  0.71753159633E+02  0.00000000000E+00 0.  1.
</event>
<event>
12    1  0.8494789E-002  0.2322980E+03  0.7818608E-02  0.1127439E+00
         21   -1    0    0  503  502  0.00000000000E+00  0.00000000000E+00  0.12861066311E+04  0.12861066311E+04  0.00000000000E+00 0.  1.
         21   -1    0    0  501  503 -0.00000000000E+00 -0.00000000000E+00 -0.82953057693E+02  0.82953057693E+02  0.00000000000E+00 0. -1.
          6    2    1    2  501    0 -0.11529065001E+03 -0.71397762436E+02  0.11517557643E+03  0.25928319121E+03  0.18860749024E+03 0.  0.
         24    2    3    3    0    0 -0.13196784750E+03  0.30303963395E+01  0.90221326571E+02  0.17889361277E+03  0.80239272472E+02 0.  0.
         -6    2    1    2    0  502  0.11529065001E+03  0.71397762436E+02  0.10879779970E+04  0.11097764976E+04  0.17180855110E+03 0.  0.
        -24    2    5    5    0    0  0.35911245949E+02 -0.22728790439E+02  0.52443325352E+03  0.53291805254E+03  0.84647491542E+02 0.  0.
          5    1    3    3  501    0  0.16677197490E+02 -0.74428158776E+02  0.24954249863E+02  0.80389578436E+02  0.47000000000E+01 0. -1.
        -13    1    4    4    0    0 -0.36697588562E+02  0.91409322842E+01  0.72536317180E+02  0.81803343204E+02  0.00000000000E+00 0.  1.
         14    1    4    4    0    0 -0.95270258941E+02 -0.61105359446E+01  0.17685009391E+02  0.97090269571E+02  0.00000000000E+00 0. -1.
         -5    1    5    5    0  502  0.79379404064E+02  0.94126552875E+02  0.56354474346E+03  0.57685844505E+03  0.47000000000E+01 0.  1.
         13    1    6    6    0    0 -0.27774512852E+02 -0.26191027827E+01  0.14803996661E+03  0.15064566033E+03  0.00000000000E+00 0. -1.
        -14    1    6    6    0    0  0.63685758800E+02 -0.20109687656E+02  0.37639328691E+03  0.38227239221E+03  0.00000000000E+00 0.  1.
</event>
<event>
12    1  0.8494789E-002  0.1824806E+03  0.7818608E-02  0.1165653E+00
         21   -1    0    0  501  502  0.00000000000E+00  0.00000000000E+00  0.39053163400E+02  0.39053163400E+02  0.00000000000E+00 0. -1.
         21   -1    0    0  502  503 -0.00000000000E+00 -0.00000000000E+00 -0.10932656293E+04  0.10932656293E+04  0.00000000000E+00 0. -1.
         -6    2    1    2    0  503 -0.52102438130E+02  0.26917129502E+02 -0.79625578276E+03  0.81689805321E+03  0.17280035253E+03 0.  0.
        -24    2    3    3    0    0 -0.41152053937E+02  0.22389337162E+02 -0.79849510707E+03  0.80395524089E+03  0.80961839021E+02 0.  0.
          6    2    1    2  501    0  0.52102438130E+02 -0.26917129502E+02 -0.25795668319E+03  0.31542073954E+03  0.17178299279E+03 0.  0.
         24    2    5    5    0    0  0.14370204097E+01 -0.87073393374E+00 -0.23798511340E+03  0.25487032357E+03  0.91209343974E+02 0.  0.
          5    1    5    5  501    0  0.50665417721E+02 -0.26046395569E+02 -0.19971569783E+02  0.60550415973E+02  0.47000000000E+01 0. -1.
        -13    1    6    6    0    0  0.36730630842E+01  0.43557522371E+02 -0.15057902242E+03  0.15679537985E+03  0.00000000000E+00 0.  1.
         14    1    6    6    0    0 -0.22360426745E+01 -0.44428256305E+02 -0.87406090979E+02  0.98074943719E+02  0.00000000000E+00 0. -1.
         -5    1    3    3    0  503 -0.10950384193E+02  0.45277923403E+01  0.22393243047E+01  0.12942812322E+02  0.47000000000E+01 0.  1.
         13    1    4    4    0    0 -0.43659873051E+02 -0.82267384751E+01 -0.68304121952E+03  0.68448460268E+03  0.00000000000E+00 0. -1.
        -14    1    4    4    0    0  0.25078191138E+01  0.30616075637E+02 -0.11545388754E+03  0.11947063821E+03  0.00000000000E+00 0.  1.
</event>
<event>
12    1  0.8494789E-002  0.2692313E+03  0.7818608E-02  0.1102084E+00
         21   -1    0    0  503  502  0.00000000000E+00  0.00000000000E+00  0.44862467624E+03  0.44862467624E+03  0.00000000000E+00 0.  1.
         21   -1    0    0  501  503 -0.00000000000E+00 -0.00000000000E+00 -0.32702290386E+03  0.32702290386E+03  0.00000000000E+00 0.  1.
          6    2    1    2  501    0 -0.14679007153E+03 -0.14177163448E+03 -0.21644610262E+03  0.34348807436E+03  0.17172251002E+03 0.  0.
         24    2    3    3    0    0 -0.90610026396E+02 -0.28932699367E+02 -0.49271693040E+02  0.13406458961E+03  0.80612260086E+02 0.  0.
         -6    2    1    2    0  502  0.14679007153E+03  0.14177163448E+03  0.33804787500E+03  0.43215950574E+03  0.17561022511E+03 0.  0.
        -24    2    5    5    0    0  0.82161221271E+02  0.13072655332E+03  0.14167736579E+03  0.22507896828E+03  0.82147233444E+02 0.  0.
          5    1    3    3  501    0 -0.56180045137E+02 -0.11283893511E+03 -0.16717440958E+03  0.20942348475E+03  0.47000000000E+01 0. -1.
        -13    1    4    4    0    0 -0.99797101584E+02 -0.30175964110E+02 -0.23776726732E+02  0.10693635036E+03  0.00000000000E+00 0.  1.
         14    1    4    4    0    0  0.91870751876E+01  0.12432647425E+01 -0.25494966308E+02  0.27128239249E+02  0.00000000000E+00 0. -1.
         -5    1    5    5    0  502  0.64628850262E+02  0.11045081158E+02  0.19637050921E+03  0.20708053746E+03  0.47000000000E+01 0.  1.
         11    1    6    6    0    0 -0.73516512658E+01  0.50965617843E+02  0.23048498334E+02  0.56416081518E+02  0.00000000000E+00 0. -1.
        -12    1    6    6    0    0  0.89512872537E+02  0.79760935479E+02  0.11862886745E+03  0.16866288676E+03  0.00000000000E+00 0.  1.
</event>
<event>
12    1  0.8494789E-002  0.2145645E+03  0.7818608E-02  0.1138472E+00
         21   -1    0    0  503  502  0.00000000000E+00  0.00000000000E+00  0.12708391609E+03  0.12708391609E+03  0.00000000000E+00 0.  1.
         21   -1    0    0  501  503 -0.00000000000E+00 -0.00000000000E+00 -0.39448735963E+03  0.39448735963E+03  0.00000000000E+00 0.  1.
          6    2    1    2  501    0 -0.44286447444E+02 -0.11853456512E+03 -0.55274715089E+02  0.22156988512E+03  0.17328066052E+03 0.  0.
         24    2    3    3    0    0 -0.98450415173E+02 -0.94937132015E+02 -0.43806620260E+02  0.16120282914E+03  0.73224236836E+02 0.  0.
         -6    2    1    2    0  502  0.44286447444E+02  0.11853456512E+03 -0.21212872845E+03  0.30000139060E+03  0.17026598126E+03 0.  0.
        -24    2    5    5    0    0  0.85100217195E+02  0.55110448124E+02 -0.16940433646E+03  0.21319213943E+03  0.80460242637E+02 0.  0.
          5    1    3    3  501    0  0.54163967729E+02 -0.23597433104E+02 -0.11468094829E+02  0.60367055984E+02  0.47000000000E+01 0. -1.
        -11    1    4    4    0    0 -0.56081707494E+02 -0.22697994038E+02  0.10477179809E+02  0.61401369248E+02  0.00000000000E+00 0.  1.
         12    1    4    4    0    0 -0.42368707679E+02 -0.72239137977E+02 -0.54283800068E+02  0.99801459889E+02  0.00000000000E+00 0. -1.
         -5    1    5    5    0  502 -0.40813769751E+02  0.63424116995E+02 -0.42724391992E+02  0.86809251172E+02  0.47000000000E+01 0.  1.
         13    1    6    6    0    0  0.77530856448E+02  0.57414996316E+02 -0.85483043503E+02  0.12889866652E+03  0.00000000000E+00 0. -1.
        -14    1    6    6    0    0  0.75693607476E+01 -0.23045481918E+01 -0.83921292956E+02  0.84293472914E+02  0.00000000000E+00 0.  1.
</event>
<event>
12    1  0.8494789E-002  0.1867873E+03  0.7818608E-02  0.1162012E+00
         21   -1    0    0  503  502  0.00000000000E+00  0.00000000000E+00  0.10391374950E+03  0.10391374950E+03  0.00000000000E+00 0.  1.
         21   -1    0    0  501  503 -0.00000000000E+00 -0.00000000000E+00 -0.42444913832E+03  0.42444913832E+03  0.00000000000E+00 0.  1.
          6    2    1    2  501    0 -0.31070962468E+02 -0.42474205546E+02 -0.28514604665E+03  0.34087791885E+03  0.17922060370E+03 0.  0.
         24    2    3    3    0    0  0.39884226933E+02 -0.15007802234E+02 -0.22898532813E+03  0.24619339784E+03  0.79755394507E+02 0.  0.
         -6    2    1    2    0  502  0.31070962468E+02  0.42474205546E+02 -0.35389342170E+02  0.18748496898E+03  0.17643340162E+03 0.  0.
        -24    2    5    5    0    0  0.64720806388E+02 -0.11879093415E+02 -0.60487608838E+02  0.11864743493E+03  0.78029272416E+02 0.  0.
          5    1    3    3  501    0 -0.70955189401E+02 -0.27466403312E+02 -0.56160718522E+02  0.94684521009E+02  0.47000000000E+01 0. -1.
        -11    1    4    4    0    0 -0.13439360139E+02  0.14291243314E+02 -0.11804815773E+03  0.11966713659E+03  0.00000000000E+00 0.  1.
         12    1    4    4    0    0  0.53323587072E+02 -0.29299045548E+02 -0.11093717041E+03  0.12652626125E+03  0.00000000000E+00 0. -1.
         -5    1    5    5    0  502 -0.33649843919E+02  0.54353298961E+02  0.25098266668E+02  0.68837534046E+02  0.47000000000E+01 0.  1.
         11    1    6    6    0    0  0.74354557171E+02  0.12848258035E+02 -0.42709811497E+02  0.86705281874E+02  0.00000000000E+00 0. -1.
        -12    1    6    6    0    0 -0.96337507834E+01 -0.24727351449E+02 -0.17777797341E+02  0.31942153061E+02  0.00000000000E+00 0.  1.
</event>
<event>
12    1  0.8494789E-002  0.1742753E+03  0.7818608E-02  0.1173476E+00
         21   -1    0    0  503  502  0.00000000000E+00  0.00000000000E+00  0.98713329677E+02  0.98713329677E+02  0.00000000000E+00 0.  1.
         21   -1    0    0  501  503 -0.00000000000E+00 -0.00000000000E+00 -0.13050684906E+04  0.13050684906E+04  0.00000000000E+00 0.  1.
          6    2    1    2  501    0 -0.86069287123E+01  0.28617984543E+02 -0.12168342361E+04  0.12292507601E+04  0.17169392747E+03 0.  0.
         24    2    3    3    0    0  0.85568572260E+01  0.24925042273E+02 -0.12041441674E+04  0.12070840911E+04  0.79964676677E+02 0.  0.
         -6    2    1    2    0  502  0.86069287123E+01 -0.28617984543E+02  0.10479075160E+02  0.17453106022E+03  0.17163394683E+03 0.  0.
        -24    2    5    5    0    0 -0.42637922598E+02  0.26247249034E+02 -0.54993009987E+01  0.97630948741E+02  0.83634020083E+02 0.  0.
          5    1    3    3  501    0 -0.17163785938E+02  0.36929422700E+01 -0.12690068688E+02  0.22166668979E+02  0.47000000000E+01 0. -1.
        -13    1    4    4    0    0 -0.32694657187E+02 -0.44328248508E+01 -0.40826483120E+03  0.40959585318E+03  0.00000000000E+00 0.  1.
         14    1    4    4    0    0  0.41251514413E+02  0.29357867124E+02 -0.79587933622E+03  0.79748823792E+03  0.00000000000E+00 0. -1.
         -5    1    5    5    0  502  0.51244851311E+02 -0.54865233577E+02  0.15978376159E+02  0.76900111482E+02  0.47000000000E+01 0.  1.
         11    1    6    6    0    0  0.14264735818E+02  0.23293196642E+02 -0.25377585520E+02  0.37283743704E+02  0.00000000000E+00 0. -1.
        -12    1    6    6    0    0 -0.56902658416E+02  0.29540523917E+01  0.19878284521E+02  0.60347205037E+02  0.00000000000E+00 0.  1.
</event>
<event>
12    1  0.8494789E-002  0.1791865E+03  0.7818608E-02  0.1168871E+00
         21   -1    0    0  503  502  0.00000000000E+00  0.00000000000E+00  0.66436002773E+03  0.66436002773E+03  0.00000000000E+00 0. -1.
         21   -1    0    0  501  503 -0.00000000000E+00 -0.00000000000E+00 -0.62122050495E+02  0.62122050495E+02  0.00000000000E+00 0. -1.
          6    2    1    2  501    0 -0.11090591912E+02  0.46471557953E+02  0.12732641425E+03  0.21889091288E+03  0.17151853850E+03 0.  0.
         24    2    3    3    0    0  0.11081748530E+02  0.56246206638E+02  0.15450982424E+03  0.18217328474E+03  0.77636196284E+02 0.  0.
         -6    2    1    2    0  502  0.11090591912E+02 -0.46471557953E+02  0.47491156299E+03  0.50759116534E+03  0.17269971496E+03 0.  0.
        -24    2    5    5    0    0 -0.46944037302E+02 -0.68179751757E+02  0.22368274345E+03  0.24879148676E+03  0.70788508826E+02 0.  0.
          5    1    3    3  501    0 -0.22172340442E+02 -0.97746486851E+01 -0.27183409993E+02  0.36717628143E+02  0.47000000000E+01 0. -1.
        -13    1    4    4    0    0  0.38938499806E+02  0.23171244057E+02  0.11497680841E+03  0.12358308861E+03  0.00000000000E+00 0.  1.
         14    1    4    4    0    0 -0.27856751276E+02  0.33074962582E+02  0.39533015825E+02  0.58590196123E+02  0.00000000000E+00 0. -1.
         -5    1    5    5    0  502  0.58034629214E+02  0.21708193804E+02  0.25122881954E+03  0.25879967858E+03  0.47000000000E+01 0.  1.
         11    1    6    6    0    0  0.39082058526E+01 -0.95226096120E+00  0.94214585314E+02  0.94300418662E+02  0.00000000000E+00 0. -1.
        -12    1    6    6    0    0 -0.50852243155E+02 -0.67227490796E+02  0.12946815813E+03  0.15449106810E+03  0.00000000000E+00 0.  1.
</event>
<event>
12    1  0.8494789E-002  0.1969930E+03  0.7818608E-02  0.1152535E+00
         21   -1    0    0  501  502  0.00000000000E+00  0.00000000000E+00  0.39546834508E+03  0.39546834508E+03  0.00000000000E+00 0.  1.
         21   -1    0    0  502  503 -0.00000000000E+00 -0.00000000000E+00 -0.15076295944E+03  0.15076295944E+03  0.00000000000E+00 0.  1.
         -6    2    1    2    0  503  0.49024428391E+02 -0.82714767183E+02 -0.40066589252E+02  0.19996361933E+03  0.17068974836E+03 0.  0.
        -24    2    3    3    0    0  0.57038287330E+02 -0.63680068224E+01  0.21518606922E+02  0.10143506439E+03  0.80821433486E+02 0.  0.
          6    2    1    2  501    0 -0.49024428391E+02  0.82714767183E+02  0.28477197489E+03  0.34626768518E+03  0.17193343138E+03 0.  0.
         24    2    5    5    0    0 -0.36101711854E+02  0.11073647372E+03  0.28034585150E+03  0.31474161330E+03  0.83081805909E+02 0.  0.
          5    1    5    5  501    0 -0.12922716537E+02 -0.28021706540E+02  0.44261233875E+01  0.31526071883E+02  0.47000000000E+01 0. -1.
        -13    1    6    6    0    0 -0.55721974372E+02  0.42017261945E+02  0.16353427839E+03  0.17780283726E+03  0.00000000000E+00 0.  1.
         14    1    6    6    0    0  0.19620262518E+02  0.68719211778E+02  0.11681157311E+03  0.13693877603E+03  0.00000000000E+00 0. -1.
         -5    1    3    3    0  503 -0.80138589396E+01 -0.76346760360E+02 -0.61585196174E+02  0.98528554949E+02  0.47000000000E+01 0.  1.
         13    1    4    4    0    0  0.29246320955E+02 -0.22265824396E+02  0.47598908966E+02  0.60139590622E+02  0.00000000000E+00 0. -1.
        -14    1    4    4    0    0  0.27791966375E+02  0.15897817574E+02 -0.26080302044E+02  0.41295473764E+02  0.00000000000E+00 0.  1.
</event>
<event>
12    1  0.8494789E-002  0.2102868E+03  0.7818608E-02  0.1141417E+00
         21   -1    0    0  503  502  0.00000000000E+00  0.00000000000E+00  0.42151075574E+03  0.42151075574E+03  0.00000000000E+00 0. -1.
         21   -1    0    0  501  503 -0.00000000000E+00 -0.00000000000E+00 -0.11001777675E+03  0.11001777675E+03  0.00000000000E+00 0.  1.
          6    2    1    2  501    0 -0.11937067499E+03  0.17622193142E+02  0.21423928956E+03  0.30019827354E+03  0.17222261904E+03 0.  0.
         24    2    3    3    0    0 -0.55140490468E+02  0.18561750645E+02  0.29985386620E+02  0.10501120912E+03  0.82117101467E+02 0.  0.
         -6    2    1    2    0  502  0.11937067499E+03 -0.17622193142E+02  0.97253689436E+02  0.23133025894E+03  0.17174256565E+03 0.  0.
        -24    2    5    5    0    0  0.62508396641E+01  0.12163060306E+02  0.77420616795E+02  0.11259231540E+03  0.80598167160E+02 0.  0.
          5    1    3    3  501    0 -0.64230184518E+02 -0.93955750332E+00  0.18425390294E+03  0.19518706443E+03  0.47000000000E+01 0. -1.
        -11    1    4    4    0    0 -0.69251493406E+02 -0.43164754207E+00  0.39247994201E+02  0.79601260715E+02  0.00000000000E+00 0.  1.
         12    1    4    4    0    0  0.14111002938E+02  0.18993398187E+02 -0.92626075803E+01  0.25409948402E+02  0.00000000000E+00 0. -1.
         -5    1    5    5    0  502  0.11311983532E+03 -0.29785253448E+02  0.19833072641E+02  0.11873794354E+03  0.47000000000E+01 0.  1.
         11    1    6    6    0    0 -0.32081682031E+02  0.59673256571E+01  0.63406505175E+02  0.71310785972E+02  0.00000000000E+00 0. -1.
        -12    1    6    6    0    0  0.38332521695E+02  0.61957346488E+01  0.14014111619E+02  0.41281529427E+02  0.00000000000E+00 0.  1.
</event>
<event>
12    1  0.8494789E-002  0.1906400E+03  0.7818608E-02  0.1158834E+00
         21   -1    0    0  503  502  0.00000000000E+00  0.00000000000E+00  0.23369789449E+03  0.23369789449E+03  0.00000000000E+00 0.  1.
         21   -1    0    0  501  503 -0.00000000000E+00 -0.00000000000E+00 -0.19507111245E+03  0.19507111245E+03  0.00000000000E+00 0.  1.
          6    2    1    2  501    0 -0.19733259608E+02  0.70258829734E+02 -0.81435046599E+02  0.20347261569E+03  0.17159176504E+03 0.  0.
         24    2    3    3    0    0 -0.30599983029E+02  0.11176001538E+03 -0.77433117936E+02  0.16013049391E+03  0.78862077877E+02 0.  0.
         -6    2    1    2    0  502  0.19733259608E+02 -0.70258829734E+02  0.12006182865E+03  0.22529639126E+03  0.17611904078E+03 0.  0.
        -24    2    5    5    0    0  0.93397435211E+01 -0.35481633625E+02 -0.10048389940E+02  0.90136347137E+02  0.81715444079E+02 0.  0.
          5    1    3    3  501    0  0.10866723421E+02 -0.41501185642E+02 -0.40019286630E+01  0.43342121783E+02  0.47000000000E+01 0. -1.
        -11    1    4    4    0    0 -0.32083486737E+02  0.64762201750E+02 -0.85998644210E+02  0.11233547838E+03  0.00000000000E+00 0.  1.
         12    1    4    4    0    0  0.14835037076E+01  0.46997813626E+02  0.85655262740E+01  0.47795015527E+02  0.00000000000E+00 0. -1.
         -5    1    5    5    0  502  0.10393516087E+02 -0.34777196108E+02  0.13011021859E+03  0.13516004412E+03  0.47000000000E+01 0.  1.
         11    1    6    6    0    0 -0.30562009859E+02  0.32307979595E+01 -0.15232471835E+02  0.34300185135E+02  0.00000000000E+00 0. -1.
        -12    1    6    6    0    0  0.39901753380E+02 -0.38712431585E+02  0.51840818952E+01  0.55836162002E+02  0.00000000000E+00 0.  1.
</event>
<event>
12    1  0.8494789E-002  0.2689701E+03  0.7818608E-02  0.1101878E+00
         21   -1    0    0  501  502  0.00000000000E+00  0.00000000000E+00  0.11375557051E+04  0.11375557051E+04  0.00000000000E+00 0.  1.
         21   -1    0    0  502  503 -0.00000000000E+00 -0.00000000000E+00 -0.65682371084E+02  0.65682371084E+02  0.00000000000E+00 0.  1.
         -6    2    1    2    0  503  0.14785341686E+03  0.14442939021E+03  0.64340316530E+03  0.69734124489E+03  0.17203690614E+03 0.  0.
        -24    2    3    3    0    0  0.28434101107E+02  0.10362293283E+02  0.26156026751E+03  0.27536844002E+03  0.80610973167E+02 0.  0.
          6    2    1    2  501    0 -0.14785341686E+03 -0.14442939021E+03  0.42847016871E+03  0.50589683129E+03  0.17211750870E+03 0.  0.
         24    2    5    5    0    0 -0.14954871990E+03 -0.16501373250E+03  0.33506472792E+03  0.41011971727E+03  0.79595596999E+02 0.  0.
          5    1    5    5  501    0  0.16953030361E+01  0.20584342295E+02  0.93405440795E+02  0.95777114021E+02  0.47000000000E+01 0. -1.
        -13    1    6    6    0    0 -0.63540351515E+02 -0.12245038881E+03  0.22666016820E+03  0.26534186598E+03  0.00000000000E+00 0.  1.
         14    1    6    6    0    0 -0.86008368380E+02 -0.42563343689E+02  0.10840455971E+03  0.14477785129E+03  0.00000000000E+00 0. -1.
         -5    1    3    3    0  503  0.11941931575E+03  0.13406709692E+03  0.38184289779E+03  0.42197280487E+03  0.47000000000E+01 0.  1.
         13    1    4    4    0    0  0.55406027695E+02 -0.37477021889E+01  0.16153681378E+03  0.17081573517E+03  0.00000000000E+00 0. -1.
        -14    1    4    4    0    0 -0.26971926588E+02  0.14109995472E+02  0.10002345373E+03  0.10455270485E+03  0.00000000000E+00 0.  1.
</event>
<event>
12    1  0.8494789E-002  0.2324124E+03  0.7818608E-02  0.1124975E+00
         21   -1    0    0  503  502  0.00000000000E+00  0.00000000000E+00  0.15926323893E+03  0.15926323893E+03  0.00000000000E+00 0.  1.
         21   -1    0    0  501  503 -0.00000000000E+00 -0.00000000000E+00 -0.60414922776E+03  0.60414922776E+03  0.00000000000E+00 0.  1.
          6    2    1    2  501    0  0.80504613105E+02 -0.13276976526E+03 -0.47535872187E+03  0.52913270345E+03  0.17293553741E+03 0.  0.
         24    2    3    3    0    0  0.79718845815E+02 -0.16160721234E+03 -0.38138350774E+03  0.43071702047E+03  0.87130857265E+02 0.  0.
         -6    2    1    2    0  502 -0.80504613105E+02  0.13276976526E+03  0.30472733040E+02  0.23427976324E+03  0.17277041618E+03 0.  0.
        -24    2    5    5    0    0 -0.98703464498E+02  0.14628192197E+03  0.54146916044E+02  0.20116883586E+03  0.79976480341E+02 0.  0.
          5    1    3    3  501    0  0.78576728987E+00  0.28837447084E+02 -0.93975214134E+02  0.98415682978E+02  0.47000000000E+01 0. -1.
        -13    1    4    4    0    0  0.23221762624E+02 -0.13531592318E+03 -0.27672562558E+03  0.30891215771E+03  0.00000000000E+00 0.  1.
         14    1    4    4    0    0  0.56497083191E+02 -0.26291289159E+02 -0.10465788216E+03  0.12180486276E+03  0.00000000000E+00 0. -1.
         -5    1    5    5    0  502  0.18198851393E+02 -0.13512156709E+02 -0.23674183004E+02  0.33110927378E+02  0.47000000000E+01 0.  1.
         11    1    6    6    0    0 -0.16603909748E+02  0.11413100852E+02 -0.18511454215E+02  0.27360969046E+02  0.00000000000E+00 0. -1.
        -12    1    6    6    0    0 -0.82099554750E+02  0.13486882111E+03  0.72658370260E+02  0.17380786682E+03  0.00000000000E+00 0.  1.
</event>
<event>
12    1  0.8494789E-002  0.2514056E+03  0.7818608E-02  0.1112427E+00
         21   -1    0    0  503  502  0.00000000000E+00  0.00000000000E+00  0.26180019617E+03  0.26180019617E+03  0.00000000000E+00 0.  1.
         21   -1    0    0  501  503 -0.00000000000E+00 -0.00000000000E+00 -0.27669517412E+03  0.27669517412E+03  0.00000000000E+00 0. -1.
          6    2    1    2  501    0  0.17610986619E+02  0.18287212388E+03 -0.10364147354E+03  0.27193074007E+03  0.17161704990E+03 0.  0.
         24    2    3    3    0    0  0.53240460361E+02  0.93718653507E+02 -0.11223856602E+03  0.17542270581E+03  0.80980845731E+02 0.  0.
         -6    2    1    2    0  502 -0.17610986619E+02 -0.18287212388E+03  0.88746495580E+02  0.26656463022E+03  0.17154708119E+03 0.  0.
        -24    2    5    5    0    0  0.18343787999E+02 -0.10654820081E+03 -0.12631025367E+02  0.13458895517E+03  0.79155735101E+02 0.  0.
          5    1    3    3  501    0 -0.35629473743E+02  0.89153470369E+02  0.85970924870E+01  0.96508034263E+02  0.47000000000E+01 0. -1.
        -11    1    4    4    0    0 -0.20334177507E+02  0.16100000143E+02 -0.34709479066E+02  0.43329397832E+02  0.00000000000E+00 0.  1.
         12    1    4    4    0    0  0.73574637868E+02  0.77618653365E+02 -0.77529086957E+02  0.13209330798E+03  0.00000000000E+00 0. -1.
         -5    1    5    5    0  502 -0.35954774617E+02 -0.76323923072E+02  0.10137752095E+03  0.13197567505E+03  0.47000000000E+01 0.  1.
         11    1    6    6    0    0 -0.22914002346E+02 -0.70045369853E+02 -0.25559491191E+02  0.78004441741E+02  0.00000000000E+00 0. -1.
        -12    1    6    6    0    0  0.41257790345E+02 -0.36502830952E+02  0.12928465824E+02  0.56584513430E+02  0.00000000000E+00 0.  1.
</event>
<event>
12    1  0.8494789E-002  0.1777822E+03  0.7818608E-02  0.1171346E+00
         21   -1    0    0  501  502  0.00000000000E+00  0.00000000000E+00  0.35596078559E+02  0.35596078559E+02  0.00000000000E+00 0. -1.
         21   -1    0    0  502  503 -0.00000000000E+00 -0.00000000000E+00 -0.94185248059E+03  0.94185248059E+03  0.00000000000E+00 0. -1.
         -6    2    1    2    0  503 -0.31999195506E+02 -0.24457807156E+02 -0.60319078395E+03  0.62884468487E+03  0.17315999248E+03 0.  0.
        -24    2    3    3    0    0 -0.79177007342E+02  0.85262170286E+01 -0.31455230919E+03  0.33448444487E+03  0.81209566997E+02 0.  0.
          6    2    1    2  501    0  0.31999195506E+02  0.24457807156E+02 -0.30306561808E+03  0.34860387428E+03  0.16749256538E+03 0.  0.
         24    2    5    5    0    0  0.82834675433E+02 -0.31066501531E+01 -0.16639101420E+03  0.20012464115E+03  0.74112533753E+02 0.  0.
          5    1    5    5  501    0 -0.50835479927E+02  0.27564457309E+02 -0.13667460388E+03  0.14847923313E+03  0.47000000000E+01 0. -1.
        -13    1    6    6    0    0  0.93152733664E+02 -0.11857701448E+02 -0.15912688138E+03  0.18476850719E+03  0.00000000000E+00 0.  1.
         14    1    6    6    0    0 -0.10318058232E+02  0.87510512950E+01 -0.72641328205E+01  0.15356133956E+02  0.00000000000E+00 0. -1.
         -5    1    3    3    0  503  0.47177811836E+02 -0.32984024185E+02 -0.28863847476E+03  0.29436024000E+03  0.47000000000E+01 0.  1.
         13    1    4    4    0    0 -0.19638254754E+02  0.41297431479E+02 -0.12174590392E+03  0.13005077477E+03  0.00000000000E+00 0. -1.
        -14    1    4    4    0    0 -0.59538752588E+02 -0.32771214450E+02 -0.19280640527E+03  0.20443367010E+03  0.00000000000E+00 0.  1.
</event>
<event>
12    1  0.8494789E-002  0.1780702E+03  0.7818608E-02  0.1169757E+00
         21   -1    0    0  503  502  0.00000000000E+00  0.00000000000E+00  0.40015616835E+03  0.40015616835E+03  0.00000000000E+00 0.  1.
         21   -1    0    0  501  503 -0.00000000000E+00 -0.00000000000E+00 -0.88586901188E+02  0.88586901188E+02  0.00000000000E+00 0.  1.
          6    2    1    2  501    0  0.37482876606E+02  0.32055018514E+02  0.75738890758E+02  0.19323508593E+03  0.17079499000E+03 0.  0.
         24    2    3    3    0    0  0.74094420676E+02  0.64905028496E+02  0.50567361500E+02  0.13778038189E+03  0.81998351724E+02 0.  0.
         -6    2    1    2    0  502 -0.37482876606E+02 -0.32055018514E+02  0.23583037640E+03  0.29550798361E+03  0.17110380385E+03 0.  0.
        -24    2    5    5    0    0 -0.43600858949E+02  0.39024670046E+02  0.85688247844E+02  0.12921155971E+03  0.77001243952E+02 0.  0.
          5    1    3    3  501    0 -0.36611544070E+02 -0.32850009982E+02  0.25171529259E+02  0.55454704040E+02  0.47000000000E+01 0. -1.
        -13    1    4    4    0    0  0.22127726034E+02 -0.12594761994E+02 -0.90836992715E+01  0.27032903684E+02  0.00000000000E+00 0.  1.
         14    1    4    4    0    0  0.51966694642E+02  0.77499790490E+02  0.59651060771E+02  0.11074747821E+03  0.00000000000E+00 0. -1.
         -5    1    5    5    0  502  0.61179823424E+01 -0.71079688560E+02  0.15014212856E+03  0.16629642390E+03  0.47000000000E+01 0.  1.
         13    1    6    6    0    0 -0.38867172099E+02 -0.11645493338E+02  0.17651466602E+02  0.44247585869E+02  0.00000000000E+00 0. -1.
        -14    1    6    6    0    0 -0.47336868495E+01  0.50670163384E+02  0.68036781242E+02  0.84963973838E+02  0.00000000000E+00 0.  1.
</event>
<event>
12    1  0.8494789E-002  0.1827821E+03  0.7818608E-02  0.1165432E+00
         21   -1    0    0  501  502  0.00000000000E+00  0.00000000000E+00  0.22473868243E+03  0.22473868243E+03  0.00000000000E+00 0. -1.
         21   -1    0    0  502  503 -0.00000000000E+00 -0.00000000000E+00 -0.30306649618E+03  0.30306649618E+03  0.00000000000E+00 0. -1.
         -6    2    1    2    0  503  0.54440317332E+02 -0.24264339499E+02 -0.22807895603E+03  0.29151153653E+03  0.17148311702E+03 0.  0.
        -24    2    3    3    0    0  0.35736071753E+02  0.98144218006E+01 -0.23666103253E+03  0.25142472060E+03  0.76371173278E+02 0.  0.
          6    2    1    2  501    0 -0.54440317332E+02  0.24264339499E+02  0.14975114227E+03  0.23629364208E+03  0.17279112926E+03 0.  0.
         24    2    5    5    0    0 -0.96704905105E+02 -0.48322944117E+01  0.13068152883E+03  0.18135140294E+03  0.80221441215E+02 0.  0.
          5    1    5    5  501    0  0.42264587772E+02  0.29096633911E+02  0.19069613442E+02  0.54942239136E+02  0.47000000000E+01 0. -1.
        -13    1    6    6    0    0 -0.32059550943E+02 -0.34393866619E+02  0.23048711741E+02  0.52364071467E+02  0.00000000000E+00 0.  1.
         14    1    6    6    0    0 -0.64645354162E+02  0.29561572208E+02  0.10763281709E+03  0.12898733148E+03  0.00000000000E+00 0. -1.
         -5    1    3    3    0  503  0.18704245580E+02 -0.34078761300E+02  0.85820765060E+01  0.40086815932E+02  0.47000000000E+01 0.  1.
         13    1    4    4    0    0  0.28341936978E+02 -0.29858576293E+02 -0.15445334697E+03  0.15984566419E+03  0.00000000000E+00 0. -1.
        -14    1    4    4    0    0  0.73941347743E+01  0.39672998093E+02 -0.82207685562E+02  0.91579056406E+02  0.00000000000E+00 0.  1.
</event>
<event>
12    1  0.8494789E-002  0.2759151E+03  0.7818608E-02  0.1097978E+00
         21   -1    0    0  501  502  0.00000000000E+00  0.00000000000E+00  0.10441143901E+03  0.10441143901E+03  0.00000000000E+00 0. -1.
         21   -1    0    0  502  503 -0.00000000000E+00 -0.00000000000E+00 -0.19755769129E+04  0.19755769129E+04  0.00000000000E+00 0. -1.
         -6    2    1    2    0  503  0.13094406057E+03 -0.17140920619E+03 -0.17620621918E+04  0.17835336590E+04  0.17205139348E+03 0.  0.
        -24    2    3    3    0    0  0.39795583811E+01 -0.39472272585E+02 -0.47635055480E+03  0.48484053019E+03  0.81157818282E+02 0.  0.
          6    2    1    2  501    0 -0.13094406057E+03  0.17140920619E+03 -0.10910328215E+03  0.29645469299E+03  0.17162283023E+03 0.  0.
         24    2    5    5    0    0 -0.14293408302E+03  0.79073643347E+02 -0.83061741460E+02  0.19965661116E+03  0.79250970504E+02 0.  0.
          5    1    5    5  501    0  0.11990022453E+02  0.92335562846E+02 -0.26041540693E+02  0.96798081831E+02  0.47000000000E+01 0. -1.
        -11    1    6    6    0    0 -0.13584120894E+03  0.62118271262E+02 -0.42773286305E+02  0.15537396079E+03  0.00000000000E+00 0.  1.
         12    1    6    6    0    0 -0.70928740825E+01  0.16955372084E+02 -0.40288455155E+02  0.44282650373E+02  0.00000000000E+00 0. -1.
         -5    1    3    3    0  503  0.12696450219E+03 -0.13193693361E+03 -0.12857116370E+04  0.12986931288E+04  0.47000000000E+01 0.  1.
         13    1    4    4    0    0  0.32153107625E+02 -0.48284040951E+02 -0.36785039416E+03  0.37239640629E+03  0.00000000000E+00 0. -1.
        -14    1    4    4    0    0 -0.28173549243E+02  0.88117683662E+01 -0.10850016065E+03  0.11244412390E+03  0.00000000000E+00 0.  1.
</event>
<event>
12    1  0.8494789E-002  0.1955456E+03  0.7818608E-02  0.1154286E+00
         21   -1    0    0  503  502  0.00000000000E+00  0.00000000000E+00  0.29626762119E+04  0.29626762119E+04  0.00000000000E+00 0. -1.
         21   -1    0    0  501  503 -0.00000000000E+00 -0.00000000000E+00 -0.13830010205E+02  0.13830010205E+02  0.00000000000E+00 0. -1.
          6    2    1    2  501    0 -0.78054823993E+02 -0.51088013653E+02  0.10581975386E+04  0.10761134359E+04  0.17185911587E+03 0.  0.
         24    2    3    3    0    0 -0.16479557455E+02 -0.15835888835E+02  0.21278502052E+03  0.22771574534E+03  0.77811596369E+02 0.  0.
         -6    2    1    2    0  502  0.78054823993E+02  0.51088013653E+02  0.18906486631E+04  0.19003927862E+04  0.16804116642E+03 0.  0.
        -24    2    5    5    0    0  0.21073163637E+02 -0.20609831254E+02  0.71545225107E+03  0.72162385736E+03  0.89443974560E+02 0.  0.
          5    1    3    3  501    0 -0.61575266538E+02 -0.35252124818E+02  0.84541251805E+03  0.84839769060E+03  0.47000000000E+01 0. -1.
        -11    1    4    4    0    0 -0.37958624469E+02  0.15904917998E+02  0.87420928243E+02  0.96624232380E+02  0.00000000000E+00 0.  1.
         12    1    4    4    0    0  0.21479067013E+02 -0.31740806833E+02  0.12536409228E+03  0.13109151296E+03  0.00000000000E+00 0. -1.
         -5    1    5    5    0  502  0.56981660356E+02  0.71697844906E+02  0.11751964121E+04  0.11787689288E+04  0.47000000000E+01 0.  1.
         13    1    6    6    0    0 -0.31772555164E+02  0.71488534707E+01  0.32613087429E+03  0.32775287723E+03  0.00000000000E+00 0. -1.
        -14    1    6    6    0    0  0.52845718801E+02 -0.27758684724E+02  0.38932137678E+03  0.39387098013E+03  0.00000000000E+00 0.  1.
</event>
<event>
12    1  0.8494789E-002  0.1821878E+03  0.7818608E-02  0.1165800E+00
         21   -1    0    0  501  502  0.00000000000E+00  0.00000000000E+00  0.51950386958E+03  0.51950386958E+03  0.00000000000E+00 0. -1.
         21   -1    0    0  502  503 -0.00000000000E+00 -0.00000000000E+00 -0.22509880914E+03  0.22509880914E+03  0.00000000000E+00 0. -1.
         -6    2    1    2    0  503 -0.17801431551E+02  0.58176710742E+02 -0.16804903576E+03  0.24755520910E+03  0.17129414028E+03 0.  0.
        -24    2    3    3    0    0 -0.13492005514E+02 -0.24952010497E+02 -0.13156327934E+03  0.15654830898E+03  0.79961487812E+02 0.  0.
          6    2    1    2  501    0  0.17801431551E+02 -0.58176710742E+02  0.46245409620E+03  0.49704746961E+03  0.17172936650E+03 0.  0.
         24    2    5    5    0    0 -0.20496652701E+02 -0.96865488137E+02  0.29948978609E+03  0.32516663554E+03  0.78969445537E+02 0.  0.
          5    1    5    5  501    0  0.38298084252E+02  0.38688777395E+02  0.16296431011E+03  0.17188083408E+03  0.47000000000E+01 0. -1.
        -11    1    6    6    0    0 -0.49215933674E+01 -0.27694020612E+02  0.14807299200E+02  0.31787371211E+02  0.00000000000E+00 0.  1.
         12    1    6    6    0    0 -0.15575059334E+02 -0.69171467525E+02  0.28468248689E+03  0.29337926433E+03  0.00000000000E+00 0. -1.
         -5    1    3    3    0  503 -0.43094260369E+01  0.83128721239E+02 -0.36485756418E+02  0.91006900117E+02  0.47000000000E+01 0.  1.
         11    1    4    4    0    0  0.30138894212E+02 -0.27692424224E+02 -0.58291151499E+02  0.71225568771E+02  0.00000000000E+00 0. -1.
        -12    1    4    4    0    0 -0.43630899727E+02  0.27404137266E+01 -0.73272127845E+02  0.85322740212E+02  0.00000000000E+00 0.  1.
</event>
<event>
12    1  0.8494789E-002  0.1915359E+03  0.7818608E-02  0.1157557E+00
         21   -1    0    0  503  502  0.00000000000E+00  0.00000000000E+00  0.12136752291E+03  0.12136752291E+03  0.00000000000E+00 0.  1.
         21   -1    0    0  501  503 -0.00000000000E+00 -0.00000000000E+00 -0.30250711511E+03  0.30250711511E+03  0.00000000000E+00 0.  1.
          6    2    1    2  501    0  0.76642337330E+02 -0.42886182309E+00 -0.67102297205E+02  0.20096100426E+03  0.17322925604E+03 0.  0.
         24    2    3    3    0    0  0.82989114928E+02 -0.59433143838E+02 -0.49877681638E+02  0.13898871801E+03  0.80066152805E+02 0.  0.
         -6    2    1    2    0  502 -0.76642337330E+02  0.42886182309E+00 -0.11403729500E+03  0.22291363376E+03  0.17553276524E+03 0.  0.
        -24    2    5    5    0    0 -0.83763970430E+02 -0.50005123157E+01 -0.14514627543E+03  0.19020194740E+03  0.89821665868E+02 0.  0.
          5    1    3    3  501    0 -0.63467775980E+01  0.59004282015E+02 -0.17224615566E+02  0.61972286253E+02  0.47000000000E+01 0. -1.
        -11    1    4    4    0    0  0.30940313394E+02 -0.26360185661E+02 -0.63913784417E+02  0.75743872488E+02  0.00000000000E+00 0.  1.
         12    1    4    4    0    0  0.52048801533E+02 -0.33072958176E+02  0.14036102779E+02  0.63244845520E+02  0.00000000000E+00 0. -1.
         -5    1    5    5    0  502  0.71216331008E+01  0.54293741388E+01  0.31108980425E+02  0.32711686362E+02  0.47000000000E+01 0.  1.
         11    1    6    6    0    0 -0.14366949504E+01 -0.17183915232E+02 -0.86963460499E+02  0.88656610002E+02  0.00000000000E+00 0. -1.
        -12    1    6    6    0    0 -0.82327275480E+02  0.12183402917E+02 -0.58182814927E+02  0.10154533740E+03  0.00000000000E+00 0.  1.
</event>
<event>
12    1  0.8494789E-002  0.2128498E+03  0.7818608E-02  0.1142847E+00
         21   -1    0    0  501  502  0.00000000000E+00  0.00000000000E+00  0.90917680645E+03  0.90917680645E+03  0.00000000000E+00 0. -1.
         21   -1    0    0  502  503 -0.00000000000E+00 -0.00000000000E+00 -0.46483626673E+02  0.46483626673E+02  0.00000000000E+00 0. -1.
         -6    2    1    2    0  503  0.12493366827E+03 -0.96045820127E+01  0.39435245652E+03  0.44812823176E+03  0.17205924176E+03 0.  0.
        -24    2    3    3    0    0  0.13547038869E+03  0.29207468314E+01  0.21577907505E+03  0.26874470712E+03  0.85453796910E+02 0.  0.
          6    2    1    2  501    0 -0.12493366827E+03  0.96045820127E+01  0.46834072325E+03  0.50753220136E+03  0.15015070062E+03 0.  0.
         24    2    5    5    0    0 -0.14585267478E+03  0.15174311433E+02  0.35910629637E+03  0.39607424186E+03  0.80088766405E+02 0.  0.
          5    1    5    5  501    0  0.20919006513E+02 -0.55697294198E+01  0.10923442689E+03  0.11145795950E+03  0.47000000000E+01 0. -1.
        -11    1    6    6    0    0 -0.31803711657E+02  0.31293949565E+02  0.54603281788E+02  0.70514578185E+02  0.00000000000E+00 0.  1.
         12    1    6    6    0    0 -0.11404896312E+03 -0.16119638132E+02  0.30450301458E+03  0.32555966367E+03  0.00000000000E+00 0. -1.
         -5    1    3    3    0  503 -0.10536720420E+02 -0.12525328844E+02  0.17857338147E+03  0.17938352464E+03  0.47000000000E+01 0.  1.
         13    1    4    4    0    0  0.12748252182E+03 -0.25868314035E+02  0.16953947837E+03  0.21369276489E+03  0.00000000000E+00 0. -1.
        -14    1    4    4    0    0  0.79878668625E+01  0.28789060866E+02  0.46239596678E+02  0.55051942232E+02  0.00000000000E+00 0.  1.
</event>
<event>
12    1  0.8494789E-002  0.1864289E+03  0.7818608E-02  0.1162003E+00
         21   -1    0    0  501  502  0.00000000000E+00  0.00000000000E+00  0.10521980061E+03  0.10521980061E+03  0.00000000000E+00 0.  1.
         21   -1    0    0  502  503 -0.00000000000E+00 -0.00000000000E+00 -0.94740955903E+03  0.94740955903E+03  0.00000000000E+00 0.  1.
         -6    2    1    2    0  503 -0.10256559098E+02 -0.73204225400E+02 -0.84612413091E+03  0.86615899305E+03  0.16982726728E+03 0.  0.
        -24    2    3    3    0    0  0.33960273387E+02 -0.13929327613E+02 -0.66073052326E+03  0.66650548935E+03  0.79482178059E+02 0.  0.
          6    2    1    2  501    0  0.10256559098E+02  0.73204225400E+02  0.39343724959E+01  0.18647036659E+03  0.17114807246E+03 0.  0.
         24    2    5    5    0    0 -0.43018565348E+02  0.69367948384E+02 -0.33454503894E+02  0.12110237760E+03  0.82970312780E+02 0.  0.
          5    1    5    5  501    0  0.53275124446E+02  0.38362770158E+01  0.37388876390E+02  0.65367988984E+02  0.47000000000E+01 0. -1.
        -13    1    6    6    0    0 -0.50615966206E+01  0.74098932294E+02 -0.36451623261E+02  0.82734469031E+02  0.00000000000E+00 0.  1.
         14    1    6    6    0    0 -0.37956968728E+02 -0.47309839101E+01  0.29971193673E+01  0.38367908573E+02  0.00000000000E+00 0. -1.
         -5    1    3    3    0  503 -0.44216832485E+02 -0.59274897787E+02 -0.18539360765E+03  0.19965350370E+03  0.47000000000E+01 0.  1.
         11    1    4    4    0    0 -0.15351739448E+02  0.16153726118E+01 -0.42006880685E+03  0.42035233772E+03  0.00000000000E+00 0. -1.
        -12    1    4    4    0    0  0.49312012834E+02 -0.15544700225E+02 -0.24066171641E+03  0.24615315164E+03  0.00000000000E+00 0.  1.
</event>
<event>
12    1  0.8494789E-002  0.1795419E+03  0.7818608E-02  0.1168528E+00
         21   -1    0    0  501  502  0.00000000000E+00  0.00000000000E+00  0.73457596035E+03  0.73457596035E+03  0.00000000000E+00 0.  1.
         21   -1    0    0  502  503 -0.00000000000E+00 -0.00000000000E+00 -0.55786921709E+02  0.55786921709E+02  0.00000000000E+00 0.  1.
         -6    2    1    2    0  503  0.27186247267E+02 -0.37642043302E+02  0.15555694157E+03  0.23755687248E+03  0.17343382061E+03 0.  0.
        -24    2    3    3    0    0  0.29489694279E+02  0.30154634446E+01  0.90313553634E+01  0.85405053120E+02  0.79584688416E+02 0.  0.
          6    2    1    2  501    0 -0.27186247267E+02  0.37642043302E+02  0.52323209707E+03  0.55280600958E+03  0.17224006895E+03 0.  0.
         24    2    5    5    0    0 -0.40038633022E+02  0.11692808963E+01  0.49923681041E+03  0.50705330475E+03  0.79127755140E+02 0.  0.
          5    1    5    5  501    0  0.12852385755E+02  0.36472762406E+02  0.23995286662E+02  0.45752704828E+02  0.47000000000E+01 0. -1.
        -11    1    6    6    0    0 -0.60068597441E+02  0.85350321881E+01  0.26549599239E+03  0.27234023785E+03  0.00000000000E+00 0.  1.
         12    1    6    6    0    0  0.20029964418E+02 -0.73657512917E+01  0.23374081802E+03  0.23471306690E+03  0.00000000000E+00 0. -1.
         -5    1    3    3    0  503 -0.23034470117E+01 -0.40657506747E+02  0.14652558621E+03  0.15215181936E+03  0.47000000000E+01 0.  1.
         13    1    4    4    0    0  0.10733315084E+02  0.29860432439E+01  0.44181044700E+02  0.45564078151E+02  0.00000000000E+00 0. -1.
        -14    1    4    4    0    0  0.18756379194E+02  0.29420200751E-01 -0.35149689336E+02  0.39840974969E+02  0.00000000000E+00 0.  1.
</event>
<event>
12    1  0.8494789E-002  0.2129679E+03  0.7818608E-02  0.1139266E+00
         21   -1    0    0  503  502  0.00000000000E+00  0.00000000000E+00  0.29696219380E+03  0.29696219380E+03  0.00000000000E+00 0. -1.
         21   -1    0    0  501  503 -0.00000000000E+00 -0.00000000000E+00 -0.15752119822E+03  0.15752119822E+03  0.00000000000E+00 0.  1.
          6    2    1    2  501    0 -0.60897229978E+02 -0.10987372579E+03  0.10981221554E+03  0.23961225138E+03  0.17197267252E+03 0.  0.
         24    2    3    3    0    0 -0.46251739397E+02 -0.94881080905E+02  0.35066118533E+01  0.13115838483E+03  0.77772634477E+02 0.  0.
         -6    2    1    2    0  502  0.60897229978E+02  0.10987372579E+03  0.29628780048E+02  0.21487114064E+03  0.17178775926E+03 0.  0.
        -24    2    5    5    0    0  0.66231954820E+02  0.12771703597E+03 -0.16887747403E+02  0.16454500098E+03  0.78048371022E+02 0.  0.
          5    1    3    3  501    0 -0.14645490581E+02 -0.14992644888E+02  0.10630560369E+03  0.10845386655E+03  0.47000000000E+01 0. -1.
        -11    1    4    4    0    0 -0.57769056559E+02 -0.82382357105E+02  0.25077080428E+02  0.10369656031E+03  0.00000000000E+00 0.  1.
         12    1    4    4    0    0  0.11517317162E+02 -0.12498723801E+02 -0.21570468575E+02  0.27461824517E+02  0.00000000000E+00 0. -1.
         -5    1    5    5    0  502 -0.53347248420E+01 -0.17843310172E+02  0.46516527451E+02  0.50326139660E+02  0.47000000000E+01 0.  1.
         13    1    6    6    0    0  0.80238837056E+01  0.85257179132E+02  0.12864667810E+02  0.86594855396E+02  0.00000000000E+00 0. -1.
        -14    1    6    6    0    0  0.58208071114E+02  0.42459856834E+02 -0.29752415212E+02  0.77950145581E+02  0.00000000000E+00 0.  1.
</event>
<event>
12    1  0.8494789E-002  0.2136750E+03  0.7818608E-02  0.1139240E+00
         21   -1    0    0  503  502  0.00000000000E+00  0.00000000000E+00  0.48778808223E+03  0.48778808223E+03  0.00000000000E+00 0.  1.
         21   -1    0    0  501  503 -0.00000000000E+00 -0.00000000000E+00 -0.94663646781E+02  0.94663646781E+02  0.00000000000E+00 0.  1.
          6    2    1    2  501    0 -0.69125855348E+02  0.10154633671E+03  0.24323128030E+03  0.32375678090E+03  0.17483407874E+03 0.  0.
         24    2    3    3    0    0  0.51606114289E+01  0.13548858053E+02  0.39243041846E+02  0.89459263153E+02  0.79074268670E+02 0.  0.
         -6    2    1    2    0  502  0.69125855348E+02 -0.10154633671E+03  0.14989315515E+03  0.25869494811E+03  0.17136241081E+03 0.  0.
        -24    2    5    5    0    0 -0.28637729622E+02 -0.39928800250E+02  0.38478360397E+02  0.98102962518E+02  0.75691336286E+02 0.  0.
          5    1    3    3  501    0 -0.74286466777E+02  0.87997478661E+02  0.20398823845E+03  0.23429751775E+03  0.47000000000E+01 0. -1.
        -13    1    4    4    0    0  0.80143299104E+01  0.40640785959E+02  0.45475496202E+02  0.61513605992E+02  0.00000000000E+00 0.  1.
         14    1    4    4    0    0 -0.28537184815E+01 -0.27091927907E+02 -0.62324543560E+01  0.27945657161E+02  0.00000000000E+00 0. -1.
         -5    1    5    5    0  502  0.97763584970E+02 -0.61617536464E+02  0.11141479476E+03  0.16059198559E+03  0.47000000000E+01 0.  1.
         13    1    6    6    0    0  0.14178291459E+02 -0.18948841268E+02 -0.13760864589E+02  0.27375973560E+02  0.00000000000E+00 0. -1.
        -14    1    6    6    0    0 -0.42816021080E+02 -0.20979958982E+02  0.52239224986E+02  0.70726988959E+02  0.00000000000E+00 0.  1.
</event>
<event>
12    1  0.8494789E-002  0.3723745E+03  0.7818608E-02  0.1053804E+00
         21   -1    0    0  503  502  0.00000000000E+00  0.00000000000E+00  0.31610626900E+03  0.31610626900E+03  0.00000000000E+00 0.  1.
         21   -1    0    0  501  503 -0.00000000000E+00 -0.00000000000E+00 -0.50876876378E+03  0.50876876378E+03  0.00000000000E+00 0. -1.
          6    2    1    2  501    0 -0.27508507315E+03  0.18217222718E+03 -0.24962608585E+03  0.44816879647E+03  0.17228920328E+03 0.  0.
         24    2    3    3    0    0 -0.23800861950E+03  0.85202559275E+02 -0.15707329543E+03  0.30900741920E+03  0.83102261829E+02 0.  0.
         -6    2    1    2    0  502  0.27508507315E+03 -0.18217222718E+03  0.56963591068E+02  0.37670623630E+03  0.17263898730E+03 0.  0.
        -24    2    5    5    0    0  0.24055261491E+03 -0.82257206946E+02  0.43737750003E+02  0.27006424264E+03  0.79936823440E+02 0.  0.
          5    1    3    3  501    0 -0.37076453653E+02  0.96969667909E+02 -0.92552790420E+02  0.13916137727E+03  0.47000000000E+01 0. -1.
        -11    1    4    4    0    0 -0.18601667473E+03  0.55508130202E+02 -0.76565648590E+02  0.20867595535E+03  0.00000000000E+00 0.  1.
         12    1    4    4    0    0 -0.51991944766E+02  0.29694429073E+02 -0.80507646843E+02  0.10033146385E+03  0.00000000000E+00 0. -1.
         -5    1    5    5    0  502  0.34532458242E+02 -0.99915020237E+02  0.13225841065E+02  0.10664199367E+03  0.47000000000E+01 0.  1.
         11    1    6    6    0    0  0.15037011016E+03 -0.53577182984E+02 -0.12267535646E+02  0.16010052154E+03  0.00000000000E+00 0. -1.
        -12    1    6    6    0    0  0.90182504752E+02 -0.28680023962E+02  0.56005285649E+02  0.10996372110E+03  0.00000000000E+00 0.  1.
</event>
<event>
12    1  0.8494789E-002  0.3662733E+03  0.7818608E-02  0.1056208E+00
         21   -1    0    0  501  502  0.00000000000E+00  0.00000000000E+00  0.61225388559E+03  0.61225388559E+03  0.00000000000E+00 0.  1.
         21   -1    0    0  502  503 -0.00000000000E+00 -0.00000000000E+00 -0.21958358269E+03  0.21958358269E+03  0.00000000000E+00 0. -1.
         -6    2    1    2    0  503  0.21807758494E+03  0.23783964059E+03  0.16901593088E+03  0.40338877316E+03  0.17329336321E+03 0.  0.
        -24    2    3    3    0    0  0.17703573593E+03  0.14855198925E+03  0.50137635252E+02  0.24908110251E+03  0.78219357259E+02 0.  0.
          6    2    1    2  501    0 -0.21807758494E+03 -0.23783964059E+03  0.22365437202E+03  0.42844869512E+03  0.17152690324E+03 0.  0.
         24    2    5    5    0    0 -0.11236364293E+03 -0.96762126821E+02  0.17963611216E+03  0.24668511343E+03  0.81215238460E+02 0.  0.
          5    1    5    5  501    0 -0.10571394202E+03 -0.14107751377E+03  0.44018259862E+02  0.18176358169E+03  0.47000000000E+01 0. -1.
        -11    1    6    6    0    0 -0.95676824517E+02 -0.31425144159E+02  0.94732492873E+02  0.13826004354E+03  0.00000000000E+00 0.  1.
         12    1    6    6    0    0 -0.16686818410E+02 -0.65336982662E+02  0.84903619284E+02  0.10842506988E+03  0.00000000000E+00 0. -1.
         -5    1    3    3    0  503  0.41041849010E+02  0.89287651335E+02  0.11887829563E+03  0.15430767065E+03  0.47000000000E+01 0.  1.
         13    1    4    4    0    0  0.24784848663E+02  0.56459649173E+02  0.34003997890E+02  0.70414860509E+02  0.00000000000E+00 0. -1.
        -14    1    4    4    0    0  0.15225088727E+03  0.92092340079E+02  0.16133637362E+02  0.17866624200E+03  0.00000000000E+00 0.  1.
</event>
<event>
12    1  0.8494789E-002  0.1760008E+03  0.7818608E-02  0.1171788E+00
         21   -1    0    0  503  502  0.00000000000E+00  0.00000000000E+00  0.12902965088E+03  0.12902965088E+03  0.00000000000E+00 0. -1.
         21   -1    0    0  501  503 -0.00000000000E+00 -0.00000000000E+00 -0.27622443964E+03  0.27622443964E+03  0.00000000000E+00 0. -1.
          6    2    1    2  501    0  0.31115680228E+02  0.14855144718E+01 -0.14726024117E+03  0.22948175755E+03  0.17322212938E+03 0.  0.
         24    2    3    3    0    0 -0.40613156054E+02 -0.63834259933E+01 -0.12426236787E+03  0.15360067720E+03  0.80385666605E+02 0.  0.
         -6    2    1    2    0  502 -0.31115680228E+02 -0.14855144718E+01  0.65452417759E-01  0.17577233297E+03  0.17298993163E+03 0.  0.
        -24    2    5    5    0    0 -0.30944747038E+02 -0.55166506532E+02  0.35978872966E+02  0.11101477046E+03  0.83838410939E+02 0.  0.
          5    1    3    3  501    0  0.71728836283E+02  0.78689404651E+01 -0.22997873304E+02  0.75881080349E+02  0.47000000000E+01 0. -1.
        -13    1    4    4    0    0 -0.20214990689E+02 -0.37790820533E+02 -0.10047716079E+03  0.10923576248E+03  0.00000000000E+00 0.  1.
         14    1    4    4    0    0 -0.20398165365E+02  0.31407394540E+02 -0.23785207083E+02  0.44364914719E+02  0.00000000000E+00 0. -1.
         -5    1    5    5    0  502 -0.17093319036E+00  0.53680992060E+02 -0.35913420548E+02  0.64757562509E+02  0.47000000000E+01 0.  1.
         11    1    6    6    0    0 -0.57787706602E+02 -0.31990755881E+02  0.94449100761E+01  0.66723562724E+02  0.00000000000E+00 0. -1.
        -12    1    6    6    0    0  0.26842959564E+02 -0.23175750650E+02  0.26533962890E+02  0.44291207739E+02  0.00000000000E+00 0.  1.
</event>
<event>
12    1  0.8494789E-002  0.2165222E+03  0.7818608E-02  0.1136510E+00
         21   -1    0    0  501  502  0.00000000000E+00  0.00000000000E+00  0.17691253021E+04  0.17691253021E+04  0.00000000000E+00 0. -1.
         21   -1    0    0  502  503 -0.00000000000E+00 -0.00000000000E+00 -0.27868252170E+02  0.27868252170E+02  0.00000000000E+00 0.  1.
         -6    2    1    2    0  503  0.93748463862E+02  0.91243850805E+02  0.10699643757E+04  0.10916456161E+04  0.17248817661E+03 0.  0.
        -24    2    3    3    0    0 -0.18376542516E+02  0.43032878745E+02  0.45458322381E+03  0.46426027438E+03  0.81866776132E+02 0.  0.
          6    2    1    2  501    0 -0.93748463862E+02 -0.91243850805E+02  0.67129267419E+03  0.70534793814E+03  0.17253302477E+03 0.  0.
         24    2    5    5    0    0 -0.95020988592E+02 -0.89385932751E+02  0.32978073250E+03  0.36379623270E+03  0.81077334361E+02 0.  0.
          5    1    5    5  501    0  0.12725247294E+01 -0.18579180541E+01  0.34151194169E+03  0.34155170545E+03  0.47000000000E+01 0. -1.
        -13    1    6    6    0    0 -0.25935554362E+02 -0.79271600208E+02  0.16687505127E+03  0.18655809368E+03  0.00000000000E+00 0.  1.
         14    1    6    6    0    0 -0.69085434229E+02 -0.10114332543E+02  0.16290568123E+03  0.17723813902E+03  0.00000000000E+00 0. -1.
         -5    1    3    3    0  503  0.11212500638E+03  0.48210972060E+02  0.61538115193E+03  0.62738534174E+03  0.47000000000E+01 0.  1.
         11    1    4    4    0    0  0.31894165178E+02  0.20492750122E+02  0.14877733477E+03  0.15353138416E+03  0.00000000000E+00 0. -1.
        -12    1    4    4    0    0 -0.50270707694E+02  0.22540128623E+02  0.30580588904E+03  0.31072889022E+03  0.00000000000E+00 0.  1.
</event>
<event>
12    1  0.8494789E-002  0.1989559E+03  0.7818608E-02  0.1150845E+00
         21   -1    0    0  501  502  0.00000000000E+00  0.00000000000E+00  0.22454928827E+03  0.22454928827E+03  0.00000000000E+00 0.  1.
         21   -1    0    0  502  503 -0.00000000000E+00 -0.00000000000E+00 -0.38117822734E+03  0.38117822734E+03  0.00000000000E+00 0.  1.
         -6    2    1    2    0  503  0.32272704816E+01 -0.99001011258E+02 -0.30095974938E+03  0.36077723461E+03  0.17254514412E+03 0.  0.
        -24    2    3    3    0    0  0.42067458182E+02 -0.68917477142E+02 -0.96760400447E+02  0.15069857479E+03  0.82632896938E+02 0.  0.
          6    2    1    2  501    0 -0.32272704816E+01  0.99001011258E+02  0.14433081031E+03  0.24495028101E+03  0.17134071861E+03 0.  0.
         24    2    5    5    0    0  0.14201085711E+02  0.81775854210E+00  0.57714296341E+02  0.11278292798E+03  0.95847322742E+02 0.  0.
          5    1    5    5  501    0 -0.17428356192E+02  0.98183252716E+02  0.86616513974E+02  0.13216735303E+03  0.47000000000E+01 0. -1.
        -13    1    6    6    0    0  0.49671724484E+02 -0.44504552359E+01  0.58554069309E+02  0.76913365533E+02  0.00000000000E+00 0.  1.
         14    1    6    6    0    0 -0.35470638773E+02  0.52682137780E+01 -0.83977296760E+00  0.35869562445E+02  0.00000000000E+00 0. -1.
         -5    1    3    3    0  503 -0.38840187700E+02 -0.30083534116E+02 -0.20419934894E+03  0.21007865982E+03  0.47000000000E+01 0.  1.
         11    1    4    4    0    0  0.48826872735E+02 -0.68235691571E+02 -0.10848583316E+03  0.13714718044E+03  0.00000000000E+00 0. -1.
        -12    1    4    4    0    0 -0.67594145537E+01 -0.68178557061E+00  0.11725432713E+02  0.13551394356E+02  0.00000000000E+00 0.  1.
</event>
<event>
12    1  0.8494789E-002  0.1893536E+03  0.7818608E-02  0.1159337E+00
         21   -1    0    0  503  502  0.00000000000E+00  0.00000000000E+00  0.12990849125E+03  0.12990849125E+03  0.00000000000E+00 0. -1.
         21   -1    0    0  501  503 -0.00000000000E+00 -0.00000000000E+00 -0.43822521495E+03  0.43822521495E+03  0.00000000000E+00 0. -1.
          6    2    1    2  501    0 -0.30123782924E+02 -0.69232871091E+02 -0.32765484522E+03  0.37779519213E+03  0.17225236389E+03 0.  0.
         24    2    3    3    0    0  0.22760323705E+02  0.70122533588E+01 -0.22181303774E+03  0.23695973514E+03  0.79885470096E+02 0.  0.
         -6    2    1    2    0  502  0.30123782924E+02  0.69232871091E+02  0.19338121524E+02  0.19033851407E+03  0.17364951557E+03 0.  0.
        -24    2    5    5    0    0 -0.32059535212E+01  0.10757866307E+03  0.35627039601E+02  0.13677836148E+03  0.76521809517E+02 0.  0.
          5    1    3    3  501    0 -0.52884106629E+02 -0.76245124450E+02 -0.10584180748E+03  0.14083545699E+03  0.47000000000E+01 0. -1.
        -11    1    4    4    0    0  0.19711313120E+01  0.42323548560E+02 -0.11058546709E+03  0.11842429503E+03  0.00000000000E+00 0.  1.
         12    1    4    4    0    0  0.20789192393E+02 -0.35311295201E+02 -0.11122757065E+03  0.11853544011E+03  0.00000000000E+00 0. -1.
         -5    1    5    5    0  502  0.33329736445E+02 -0.38345791978E+02 -0.16288918077E+02  0.53560152596E+02  0.47000000000E+01 0.  1.
         13    1    6    6    0    0 -0.34001659701E+02  0.70904121029E+02  0.27381235054E+01  0.78682936916E+02  0.00000000000E+00 0. -1.
        -14    1    6    6    0    0  0.30795706180E+02  0.36674542040E+02  0.32888916095E+02  0.58095424561E+02  0.00000000000E+00 0.  1.
</event>
<event>
12    1  0.8494789E-002  0.2258449E+03  0.7818608E-02  0.1129796E+00
         21   -1    0    0  501  502  0.00000000000E+00  0.00000000000E+00  0.20690666338E+03  0.20690666338E+03  0.00000000000E+00 0.  1.
         21   -1    0    0  502  503 -0.00000000000E+00 -0.00000000000E+00 -0.27381265031E+03  0.27381265031E+03  0.00000000000E+00 0. -1.
         -6    2    1    2    0  503 -0.13631536515E+03 -0.42602105606E+02 -0.11105232399E+03  0.25167146486E+03  0.17495453519E+03 0.  0.
        -24    2    3    3    0    0 -0.33709470390E+02  0.35729844184E+02 -0.67020219289E+02  0.11519882936E+03  0.79787908432E+02 0.  0.
          6    2    1    2  501    0  0.13631536515E+03  0.42602105606E+02  0.44146337061E+02  0.22904784882E+03  0.17354307764E+03 0.  0.
         24    2    5    5    0    0  0.10495991260E+03 -0.11326230480E+02  0.82472710326E+02  0.15568279771E+03  0.79312790926E+02 0.  0.
          5    1    5    5  501    0  0.31355452544E+02  0.53928336086E+02 -0.38326373265E+02  0.73365051113E+02  0.47000000000E+01 0. -1.
        -13    1    6    6    0    0  0.10295733313E+03 -0.34650797075E+02  0.67638167284E+02  0.12796801107E+03  0.00000000000E+00 0.  1.
         14    1    6    6    0    0  0.20025794720E+01  0.23324566596E+02  0.14834543042E+02  0.27714786643E+02  0.00000000000E+00 0. -1.
         -5    1    3    3    0  503 -0.10260589475E+03 -0.78331949790E+02 -0.44032104702E+02  0.13647263550E+03  0.47000000000E+01 0.  1.
         11    1    4    4    0    0  0.10929934419E+02  0.62299069434E+01 -0.59916487766E+02  0.61223040705E+02  0.00000000000E+00 0. -1.
        -12    1    4    4    0    0 -0.44639404809E+02  0.29499937241E+02 -0.71037315225E+01  0.53975788651E+02  0.00000000000E+00 0.  1.
</event>
<event>
12    1  0.8494789E-002  0.1967850E+03  0.7818608E-02  0.1152596E+00
         21   -1    0    0  503  502  0.00000000000E+00  0.00000000000E+00  0.47212944562E+03  0.47212944562E+03  0.00000000000E+00 0.  1.
         21   -1    0    0  501  503 -0.00000000000E+00 -0.00000000000E+00 -0.92014595719E+02  0.92014595719E+02  0.00000000000E+00 0. -1.
          6    2    1    2  501    0  0.90292937481E+02 -0.26058601494E+02  0.95830773513E+02  0.21839591736E+03  0.17228283228E+03 0.  0.
         24    2    3    3    0    0  0.51361211892E+02  0.13969837457E+02  0.12168121481E+03  0.15668456916E+03  0.83130053095E+02 0.  0.
         -6    2    1    2    0  502 -0.90292937481E+02  0.26058601494E+02  0.28428407638E+03  0.34574812397E+03  0.17289437201E+03 0.  0.
        -24    2    5    5    0    0 -0.92765352595E+02 -0.68647338604E+01  0.99780553970E+02  0.15825492775E+03  0.80224235693E+02 0.  0.
          5    1    3    3  501    0  0.38931725589E+02 -0.40028438951E+02 -0.25850441300E+02  0.61711348208E+02  0.47000000000E+01 0. -1.
        -13    1    4    4    0    0  0.13981662093E+02 -0.70383715127E+01  0.11152684657E+03  0.11261999402E+03  0.00000000000E+00 0.  1.
         14    1    4    4    0    0  0.37379549799E+02  0.21008208970E+02  0.10154368247E+02  0.44064575134E+02  0.00000000000E+00 0. -1.
         -5    1    5    5    0  502  0.24724151135E+01  0.32923335355E+02  0.18450352241E+03  0.18749319622E+03  0.47000000000E+01 0.  1.
         13    1    6    6    0    0 -0.66495420912E+02  0.33543902002E+02  0.64504568329E+02  0.98527527621E+02  0.00000000000E+00 0. -1.
        -14    1    6    6    0    0 -0.26269931683E+02 -0.40408635862E+02  0.35275985641E+02  0.59727400126E+02  0.00000000000E+00 0.  1.
</event>
<event>
12    1  0.8494789E-002  0.2493825E+03  0.7818608E-02  0.1113738E+00
         21   -1    0    0  503  502  0.00000000000E+00  0.00000000000E+00  0.22529237412E+04  0.22529237412E+04  0.00000000000E+00 0. -1.
         21   -1    0    0  501  503 -0.00000000000E+00 -0.00000000000E+00 -0.40741585579E+02  0.40741585579E+02  0.00000000000E+00 0.  1.
          6    2    1    2  501    0 -0.16970237471E+03 -0.58500935732E+02  0.17576383833E+04  0.17752044434E+04  0.17273353522E+03 0.  0.
         24    2    3    3    0    0 -0.38160380032E+02 -0.29352594131E+02  0.10863762034E+04  0.10905381552E+04  0.82112259461E+02 0.  0.
         -6    2    1    2    0  502  0.16970237471E+03  0.58500935732E+02  0.45454377238E+03  0.51846088337E+03  0.17311958617E+03 0.  0.
        -24    2    5    5    0    0  0.17513220960E+03  0.24310404845E+02  0.44029936016E+03  0.48073199803E+03  0.77313910473E+02 0.  0.
          5    1    3    3  501    0 -0.13154199467E+03 -0.29148341601E+02  0.67126217984E+03  0.68466628825E+03  0.47000000000E+01 0. -1.
        -13    1    4    4    0    0 -0.25359390987E+01 -0.39147680660E+02  0.22676312581E+03  0.23013145616E+03  0.00000000000E+00 0.  1.
         14    1    4    4    0    0 -0.35624440933E+02  0.97950865292E+01  0.85961307763E+03  0.86040669903E+03  0.00000000000E+00 0. -1.
         -5    1    5    5    0  502 -0.54298348985E+01  0.34190530887E+02  0.14244412221E+02  0.37728885338E+02  0.47000000000E+01 0.  1.
         11    1    6    6    0    0  0.75224917332E+02 -0.20471357017E+02  0.12885107170E+03  0.15060034304E+03  0.00000000000E+00 0. -1.
        -12    1    6    6    0    0  0.99907292271E+02  0.44781761862E+02  0.31144828846E+03  0.33013165499E+03  0.00000000000E+00 0.  1.
</event>
<event>
12    1  0.8494789E-002  0.2158542E+03  0.7818608E-02  0.1137253E+00
         21   -1    0    0  503  502  0.00000000000E+00  0.00000000000E+00  0.22370464854E+04  0.22370464854E+04  0.00000000000E+00 0. -1.
         21   -1    0    0  501  503 -0.00000000000E+00 -0.00000000000E+00 -0.29317159708E+02  0.29317159708E+02  0.00000000000E+00 0. -1.
          6    2    1    2  501    0 -0.13024795640E+03  0.44700106950E+01  0.48746420587E+03  0.53260901275E+03  0.17048899470E+03 0.  0.
         24    2    3    3    0    0 -0.10972890265E+03 -0.59925270525E+02  0.34735566922E+03  0.37698036547E+03  0.76333248914E+02 0.  0.
         -6    2    1    2    0  502  0.13024795640E+03 -0.44700106950E+01  0.17202651198E+04  0.17337546324E+04  0.17207129802E+03 0.  0.
        -24    2    5    5    0    0  0.15478474385E+03  0.77222497715E+01  0.16326978825E+04  0.16418807176E+04  0.77794378812E+02 0.  0.
          5    1    3    3  501    0 -0.20519053756E+02  0.64395281220E+02  0.14010853665E+03  0.15562864727E+03  0.47000000000E+01 0. -1.
        -13    1    4    4    0    0  0.11639862642E+02 -0.87047395340E+01  0.41085624618E+02  0.43580815079E+02  0.00000000000E+00 0.  1.
         14    1    4    4    0    0 -0.12136876529E+03 -0.51220530991E+02  0.30627004460E+03  0.33339955039E+03  0.00000000000E+00 0. -1.
         -5    1    5    5    0  502 -0.24536787445E+02 -0.12192260466E+02  0.87567237376E+02  0.91873914770E+02  0.47000000000E+01 0.  1.
         13    1    6    6    0    0  0.31819330805E+02 -0.15091447269E+02  0.15741112278E+03  0.16130245866E+03  0.00000000000E+00 0. -1.
        -14    1    6    6    0    0  0.12296541304E+03  0.22813697041E+02  0.14752867597E+04  0.14805782589E+04  0.00000000000E+00 0.  1.
</event>
<event>
12    1  0.8494789E-002  0.1993371E+03  0.7818608E-02  0.1150388E+00
         21   -1    0    0  501  502  0.00000000000E+00  0.00000000000E+00  0.19378624900E+03  0.19378624900E+03  0.00000000000E+00 0.  1.
         21   -1    0    0  502  503 -0.00000000000E+00 -0.00000000000E+00 -0.37013799157E+03  0.37013799157E+03  0.00000000000E+00 0.  1.
         -6    2    1    2    0  503 -0.95118190779E+02  0.32773139003E+02 -0.27677884126E+03  0.34108915392E+03  0.17208641751E+03 0.  0.
        -24    2    3    3    0    0 -0.77089289497E+02  0.87820037413E+02 -0.19003940605E+03  0.23668119480E+03  0.79043624619E+02 0.  0.
          6    2    1    2  501    0  0.95118190779E+02 -0.32773139003E+02  0.10042709869E+03  0.22283508666E+03  0.17160514222E+03 0.  0.
         24    2    5    5    0    0  0.41912583390E+02  0.29906994220E+01 -0.13805452202E+02  0.91758565193E+02  0.80395490211E+02 0.  0.
          5    1    5    5  501    0  0.53205607389E+02 -0.35763838425E+02  0.11423255089E+03  0.13107652146E+03  0.47000000000E+01 0. -1.
        -13    1    6    6    0    0  0.52619188393E+02  0.65823879696E+01 -0.37878588690E+02  0.65168200065E+02  0.00000000000E+00 0.  1.
         14    1    6    6    0    0 -0.10706605003E+02 -0.35916885476E+01  0.24073136488E+02  0.26590365128E+02  0.00000000000E+00 0. -1.
         -5    1    3    3    0  503 -0.18028901282E+02 -0.55046898411E+02 -0.86739435215E+02  0.10440795912E+03  0.47000000000E+01 0.  1.
         13    1    4    4    0    0  0.15608491648E+02  0.18012214364E+02 -0.21782361349E+02  0.32288328290E+02  0.00000000000E+00 0. -1.
        -14    1    4    4    0    0 -0.92697781145E+02  0.69807823049E+02 -0.16825704470E+03  0.20439286651E+03  0.00000000000E+00 0.  1.
</event>
<event>
12    1  0.8494789E-002  0.2137057E+03  0.7818608E-02  0.1138927E+00
         21   -1    0    0  503  502  0.00000000000E+00  0.00000000000E+00  0.25490229652E+03  0.25490229652E+03  0.00000000000E+00 0. -1.
         21   -1    0    0  501  503 -0.00000000000E+00 -0.00000000000E+00 -0.71175801987E+03  0.71175801987E+03  0.00000000000E+00 0. -1.
          6    2    1    2  501    0 -0.10968248394E+03  0.57821193400E+02 -0.64714763106E+03  0.68152049028E+03  0.17405914110E+03 0.  0.
         24    2    3    3    0    0 -0.25655579695E+02  0.23474040555E+02 -0.50742650311E+03  0.51483416468E+03  0.79770431373E+02 0.  0.
         -6    2    1    2    0  502  0.10968248394E+03 -0.57821193400E+02  0.19029190771E+03  0.28513982611E+03  0.17239539612E+03 0.  0.
        -24    2    5    5    0    0  0.65671725919E+02 -0.90643844204E+02  0.16950431277E+03  0.22624596114E+03  0.99631525173E+02 0.  0.
          5    1    3    3  501    0 -0.84026904244E+02  0.34347152845E+02 -0.13972112795E+03  0.16668632560E+03  0.47000000000E+01 0. -1.
        -13    1    4    4    0    0 -0.27488891568E+02 -0.21859344628E+02 -0.12892352925E+03  0.13362165431E+03  0.00000000000E+00 0.  1.
         14    1    4    4    0    0  0.18333118730E+01  0.45333385183E+02 -0.37850297386E+03  0.38121251037E+03  0.00000000000E+00 0. -1.
         -5    1    5    5    0  502  0.44010758020E+02  0.32822650804E+02  0.20787594942E+02  0.58893864967E+02  0.47000000000E+01 0.  1.
         11    1    6    6    0    0  0.78309396269E+02 -0.24481988491E+02  0.10171967691E+03  0.13068520182E+03  0.00000000000E+00 0. -1.
        -12    1    6    6    0    0 -0.12637670350E+02 -0.66161855713E+02  0.67784635854E+02  0.95560759317E+02  0.00000000000E+00 0.  1.
</event>
<event>
12    1  0.8494789E-002  0.1723156E+03  0.7818608E-02  0.1175621E+00
         21   -1    0    0  501  502  0.00000000000E+00  0.00000000000E+00  0.42030954466E+03  0.42030954466E+03  0.00000000000E+00 0. -1.
         21   -1    0    0  502  503 -0.00000000000E+00 -0.00000000000E+00 -0.77216227211E+02  0.77216227211E+02  0.00000000000E+00 0. -1.
         -6    2    1    2    0  503 -0.22260717046E+00  0.83848612889E+01  0.97228425365E+02  0.19728883313E+03  0.17146183694E+03 0.  0.
        -24    2    3    3    0    0  0.47600771065E+02 -0.90028052491E+01  0.11053238840E+03  0.14448266033E+03  0.79441464884E+02 0.  0.
          6    2    1    2  501    0  0.22260717046E+00 -0.83848612889E+01  0.24586489209E+03  0.30023693875E+03  0.17211135574E+03 0.  0.
         24    2    5    5    0    0  0.25775992037E+02 -0.21237289101E+02  0.25496689173E+03  0.26985443101E+03  0.81840539129E+02 0.  0.
          5    1    5    5  501    0 -0.25553384867E+02  0.12852427812E+02 -0.91019996402E+01  0.30382507735E+02  0.47000000000E+01 0. -1.
        -11    1    6    6    0    0 -0.21554856160E+02 -0.28000687157E+02  0.15588682528E+03  0.15984164852E+03  0.00000000000E+00 0.  1.
         12    1    6    6    0    0  0.47330848197E+02  0.67633980559E+01  0.99080066447E+02  0.11001278249E+03  0.00000000000E+00 0. -1.
         -5    1    3    3    0  503 -0.47823378236E+02  0.17387666538E+02 -0.13303963031E+02  0.52806172801E+02  0.47000000000E+01 0.  1.
         13    1    4    4    0    0 -0.33875599604E+01 -0.33537795729E+02  0.25168435457E+02  0.42067914712E+02  0.00000000000E+00 0. -1.
        -14    1    4    4    0    0  0.50988331026E+02  0.24534990480E+02  0.85363952939E+02  0.10241474562E+03  0.00000000000E+00 0.  1.
</event>
<event>
12    1  0.8494789E-002  0.1801265E+03  0.7818608E-02  0.1167881E+00
         21   -1    0    0  501  502  0.00000000000E+00  0.00000000000E+00  0.50878558851E+03  0.50878558851E+03  0.00000000000E+00 0. -1.
         21   -1    0    0  502  503 -0.00000000000E+00 -0.00000000000E+00 -0.64758652104E+02  0.64758652104E+02  0.00000000000E+00 0.  1.
         -6    2    1    2    0  503 -0.22157748046E+02  0.45981243728E+02  0.26183175331E+03  0.31733996924E+03  0.17188236811E+03 0.  0.
        -24    2    3    3    0    0  0.36924702563E+02  0.84869322197E+01  0.21596706276E+03  0.23354128665E+03  0.80400862530E+02 0.  0.
          6    2    1    2  501    0  0.22157748046E+02 -0.45981243728E+02  0.18219518310E+03  0.25620427137E+03  0.17274346109E+03 0.  0.
         24    2    5    5    0    0  0.58983938856E+02  0.23398509672E+02  0.11633264881E+03  0.15359003291E+03  0.77653188817E+02 0.  0.
          5    1    5    5  501    0 -0.36826190810E+02 -0.69379753400E+02  0.65862534298E+02  0.10261423846E+03  0.47000000000E+01 0. -1.
        -13    1    6    6    0    0 -0.13065333965E+01  0.35279444548E+02  0.24039501623E+02  0.42711168041E+02  0.00000000000E+00 0.  1.
         14    1    6    6    0    0  0.60290472253E+02 -0.11880934876E+02  0.92293147182E+02  0.11087886487E+03  0.00000000000E+00 0. -1.
         -5    1    3    3    0  503 -0.59082450609E+02  0.37494311508E+02  0.45864690550E+02  0.83798682595E+02  0.47000000000E+01 0.  1.
         11    1    4    4    0    0 -0.56978852527E+01  0.32953806092E+02  0.13273044100E+03  0.13687873904E+03  0.00000000000E+00 0. -1.
        -12    1    4    4    0    0  0.42622587816E+02 -0.24466873873E+02  0.83236621758E+02  0.96662547612E+02  0.00000000000E+00 0.  1.
</event>
<event>
12    1  0.8494789E-002  0.2411040E+03  0.7818608E-02  0.1119596E+00
         21   -1    0    0  503  502  0.00000000000E+00  0.00000000000E+00  0.29752530384E+03  0.29752530384E+03  0.00000000000E+00 0.  1.
         21   -1    0    0  501  503 -0.00000000000E+00 -0.00000000000E+00 -0.23342441447E+03  0.23342441447E+03  0.00000000000E+00 0. -1.
          6    2    1    2  501    0 -0.10873009963E+03  0.12442287753E+03 -0.78898677414E+02  0.25062847610E+03  0.17113253553E+03 0.  0.
         24    2    3    3    0    0 -0.10823948101E+03  0.15319897861E+03 -0.65771503819E+02  0.21864852322E+03  0.91080040043E+02 0.  0.
         -6    2    1    2    0  502  0.10873009963E+03 -0.12442287753E+03  0.14299956678E+03  0.28032124220E+03  0.17557857418E+03 0.  0.
        -24    2    5    5    0    0  0.11730429796E+03 -0.12586906965E+03  0.16769255349E+03  0.25372346144E+03  0.81556614543E+02 0.  0.
          5    1    3    3  501    0 -0.49061861371E+00 -0.28776101075E+02 -0.13127173595E+02  0.31979952881E+02  0.47000000000E+01 0. -1.
        -13    1    4    4    0    0 -0.89356590810E+02  0.51479083856E+02 -0.17958487881E+02  0.10467666255E+03  0.00000000000E+00 0.  1.
         14    1    4    4    0    0 -0.18882890202E+02  0.10171989475E+03 -0.47813015937E+02  0.11397186067E+03  0.00000000000E+00 0. -1.
         -5    1    5    5    0  502 -0.85741983336E+01  0.14461921144E+01 -0.24692986711E+02  0.26597780761E+02  0.47000000000E+01 0.  1.
         11    1    6    6    0    0  0.27381133920E+02 -0.54900483747E+02  0.15574084987E+02  0.63295669154E+02  0.00000000000E+00 0. -1.
        -12    1    6    6    0    0  0.89923164039E+02 -0.70968585900E+02  0.15211846851E+03  0.19042779229E+03  0.00000000000E+00 0.  1.
</event>
<event>
12    1  0.8494789E-002  0.1780820E+03  0.7818608E-02  0.1169889E+00
         21   -1    0    0  503  502  0.00000000000E+00  0.00000000000E+00  0.11466934560E+03  0.11466934560E+03  0.00000000000E+00 0. -1.
         21   -1    0    0  501  503 -0.00000000000E+00 -0.00000000000E+00 -0.36082149252E+03  0.36082149252E+03  0.00000000000E+00 0. -1.
          6    2    1    2  501    0 -0.21649878345E+01 -0.44437933146E+02 -0.23912683280E+03  0.29815239572E+03  0.17243489157E+03 0.  0.
         24    2    3    3    0    0 -0.10880289395E+02  0.30505824528E+02 -0.60858481817E+02  0.10451815738E+03  0.78557650072E+02 0.  0.
         -6    2    1    2    0  502  0.21649878345E+01  0.44437933146E+02 -0.70253141201E+01  0.17733844240E+03  0.17152303355E+03 0.  0.
        -24    2    5    5    0    0 -0.63555255782E+02  0.18769576271E+02  0.14307478380E+02  0.10347916403E+03  0.78177144480E+02 0.  0.
          5    1    3    3  501    0  0.87153015602E+01 -0.74943757674E+02 -0.17826835099E+03  0.19363423834E+03  0.47000000000E+01 0. -1.
        -11    1    4    4    0    0 -0.35944501851E+02 -0.97037913017E+01 -0.22043634999E+02  0.43267685666E+02  0.00000000000E+00 0.  1.
         12    1    4    4    0    0  0.25064212456E+02  0.40209615830E+02 -0.38814846818E+02  0.61250471710E+02  0.00000000000E+00 0. -1.
         -5    1    5    5    0  502  0.65720243617E+02  0.25668356875E+02 -0.21332792500E+02  0.73859278372E+02  0.47000000000E+01 0.  1.
         11    1    6    6    0    0 -0.66023646884E+02 -0.15293400192E+02  0.14595749833E+02  0.69325651461E+02  0.00000000000E+00 0. -1.
        -12    1    6    6    0    0  0.24683911021E+01  0.34062976462E+02 -0.28827145276E+00  0.34153512565E+02  0.00000000000E+00 0.  1.
</event>
<event>
12    1  0.8494789E-002  0.2075127E+03  0.7818608E-02  0.1143556E+00
         21   -1    0    0  501  502  0.00000000000E+00  0.00000000000E+00  0.92117053218E+02  0.92117053218E+02  0.00000000000E+00 0.  1.
         21   -1    0    0  502  503 -0.00000000000E+00 -0.00000000000E+00 -0.51969207589E+03  0.51969207589E+03  0.00000000000E+00 0.  1.
         -6    2    1    2    0  503 -0.10642842488E+03  0.44782756033E+02 -0.11676820201E+03  0.23810994480E+03  0.17242107746E+03 0.  0.
        -24    2    3    3    0    0 -0.12518986423E+03 -0.94844154044E+01 -0.70844198432E+02  0.16443483634E+03  0.79104100460E+02 0.  0.
          6    2    1    2  501    0  0.10642842488E+03 -0.44782756033E+02 -0.31080682066E+03  0.37369918430E+03  0.17238821224E+03 0.  0.
         24    2    5    5    0    0  0.74413056669E+02 -0.76757702672E+02 -0.29794101283E+03  0.32642339742E+03  0.79714110024E+02 0.  0.
          5    1    5    5  501    0  0.32015368211E+02  0.31974946640E+02 -0.12865807834E+02  0.47275786884E+02  0.47000000000E+01 0. -1.
        -13    1    6    6    0    0  0.62165040703E+01 -0.51650150463E+02 -0.18456029031E+03  0.19175214138E+03  0.00000000000E+00 0.  1.
         14    1    6    6    0    0  0.68196552599E+02 -0.25107552210E+02 -0.11338072252E+03  0.13467125604E+03  0.00000000000E+00 0. -1.
         -5    1    3    3    0  503  0.18761439350E+02  0.54267171437E+02 -0.45924003578E+02  0.73675108462E+02  0.47000000000E+01 0.  1.
         11    1    4    4    0    0 -0.66576666989E+02 -0.24535699478E+02 -0.75664445611E+02  0.10372830600E+03  0.00000000000E+00 0. -1.
        -12    1    4    4    0    0 -0.58613197240E+02  0.15051284074E+02  0.48202471789E+01  0.60706530340E+02  0.00000000000E+00 0.  1.
</event>
<event>
12    1  0.8494789E-002  0.1883922E+03  0.7818608E-02  0.1160057E+00
         21   -1    0    0  503  502  0.00000000000E+00  0.00000000000E+00  0.19111043681E+03  0.19111043681E+03  0.00000000000E+00 0.  1.
         21   -1    0    0  501  503 -0.00000000000E+00 -0.00000000000E+00 -0.20800038132E+03  0.20800038132E+03  0.00000000000E+00 0.  1.
          6    2    1    2  501    0  0.78407270481E+02  0.30881614720E+01 -0.74640235030E+02  0.20263957367E+03  0.17127286804E+03 0.  0.
         24    2    3    3    0    0  0.96343330996E+02  0.24722828939E+02 -0.10144424747E+03  0.16352044554E+03  0.80961380090E+02 0.  0.
         -6    2    1    2    0  502 -0.78407270481E+02 -0.30881614720E+01  0.57750290511E+02  0.19647124446E+03  0.17061247621E+03 0.  0.
        -24    2    5    5    0    0 -0.60649207505E+02  0.54109249046E+02  0.72355331051E+02  0.13464657479E+03  0.79298606343E+02 0.  0.
          5    1    3    3  501    0 -0.17936060514E+02 -0.21634667467E+02  0.26804012438E+02  0.39119128134E+02  0.47000000000E+01 0. -1.
        -13    1    4    4    0    0  0.78926985846E+02 -0.18945997958E+02 -0.61678252605E+02  0.10194423367E+03  0.00000000000E+00 0.  1.
         14    1    4    4    0    0  0.17416345150E+02  0.43668826897E+02 -0.39765994863E+02  0.61576211871E+02  0.00000000000E+00 0. -1.
         -5    1    5    5    0  502 -0.17758062976E+02 -0.57197410518E+02 -0.14605040540E+02  0.61824669670E+02  0.47000000000E+01 0.  1.
         11    1    6    6    0    0  0.92498053522E+01  0.46439460670E+01 -0.11028369686E+02  0.15124485845E+02  0.00000000000E+00 0. -1.
        -12    1    6    6    0    0 -0.69899012857E+02  0.49465302979E+02  0.83383700737E+02  0.11952208894E+03  0.00000000000E+00 0.  1.
</event>
<event>
12    1  0.8494789E-002  0.2306185E+03  0.7818608E-02  0.1126701E+00
         21   -1    0    0  503  502  0.00000000000E+00  0.00000000000E+00  0.96421523388E+02  0.96421523388E+02  0.00000000000E+00 0. -1.
         21   -1    0    0  501  503 -0.00000000000E+00 -0.00000000000E+00 -0.76490023092E+03  0.76490023092E+03  0.00000000000E+00 0. -1.
          6    2    1    2  501    0 -0.10787067290E+03 -0.10645234566E+03 -0.56374547854E+03  0.60803549289E+03  0.17008824789E+03 0.  0.
         24    2    3    3    0    0 -0.11604129927E+03 -0.81294181178E+02 -0.28733968613E+03  0.33032711266E+03  0.80483408850E+02 0.  0.
         -6    2    1    2    0  502  0.10787067290E+03  0.10645234566E+03 -0.10473322899E+03  0.25328626142E+03  0.17382950555E+03 0.  0.
        -24    2    5    5    0    0  0.70216236869E+01  0.17925580609E+02  0.69682633339E+00  0.82566885179E+02  0.80288077084E+02 0.  0.
          5    1    3    3  501    0  0.81706263648E+01 -0.25158164479E+02 -0.27640579241E+03  0.27770838023E+03  0.47000000000E+01 0. -1.
        -11    1    4    4    0    0  0.11013288909E+02 -0.11802133088E+02 -0.47382075588E+02  0.50056407832E+02  0.00000000000E+00 0.  1.
         12    1    4    4    0    0 -0.12705458818E+03 -0.69492048090E+02 -0.23995761055E+03  0.28027070483E+03  0.00000000000E+00 0. -1.
         -5    1    5    5    0  502  0.10084904922E+03  0.88526765048E+02 -0.10543005533E+03  0.17071937624E+03  0.47000000000E+01 0.  1.
         13    1    6    6    0    0  0.24725417130E+02  0.24022029995E+01  0.33798098057E+02  0.41945539259E+02  0.00000000000E+00 0. -1.
        -14    1    6    6    0    0 -0.17703793443E+02  0.15523377610E+02 -0.33101271723E+02  0.40621345920E+02  0.00000000000E+00 0.  1.
</event>
<event>
12    1  0.8494789E-002  0.2339384E+03  0.7818608E-02  0.1124006E+00
         21   -1    0    0  503  502  0.00000000000E+00  0.00000000000E+00  0.50043567427E+03  0.50043567427E+03  0.00000000000E+00 0.  1.
         21   -1    0    0  501  503 -0.00000000000E+00 -0.00000000000E+00 -0.16714837897E+03  0.16714837897E+03  0.00000000000E+00 0. -1.
          6    2    1    2  501    0  0.15698420891E+03  0.24237049973E+02 -0.30263095911E+02  0.23526925527E+03  0.17089263022E+03 0.  0.
         24    2    3    3    0    0  0.15665373931E+02  0.43128425736E+02 -0.14797507650E+02  0.91779981741E+02  0.78096951086E+02 0.  0.
         -6    2    1    2    0  502 -0.15698420891E+03 -0.24237049973E+02  0.36355039122E+03  0.43231479797E+03  0.17174318372E+03 0.  0.
        -24    2    5    5    0    0 -0.34862087851E+02 -0.60566551644E+02  0.16589748741E+03  0.19710764347E+03  0.80285580524E+02 0.  0.
          5    1    3    3  501    0  0.14131883498E+03 -0.18891375764E+02 -0.15465588261E+02  0.14348927353E+03  0.47000000000E+01 0. -1.
        -11    1    4    4    0    0  0.40986478910E+02  0.46352330614E+02 -0.21302335818E+02  0.65438669899E+02  0.00000000000E+00 0.  1.
         12    1    4    4    0    0 -0.25321104980E+02 -0.32239048781E+01  0.65048281685E+01  0.26341311842E+02  0.00000000000E+00 0. -1.
         -5    1    5    5    0  502 -0.12212212106E+03  0.36329501671E+02  0.19765290381E+03  0.23520715450E+03  0.47000000000E+01 0.  1.
         11    1    6    6    0    0 -0.41406249351E+02 -0.68646795209E+02  0.90107497633E+02  0.12060771579E+03  0.00000000000E+00 0. -1.
        -12    1    6    6    0    0  0.65441615001E+01  0.80802435653E+01  0.75789989776E+02  0.76499927687E+02  0.00000000000E+00 0.  1.
</event>
<event>
12    1  0.8494789E-002  0.2196666E+03  0.7818608E-02  0.1134247E+00
         21   -1    0    0  501  502  0.00000000000E+00  0.00000000000E+00  0.56269233676E+03  0.56269233676E+03  0.00000000000E+00 0.  1.
         21   -1    0    0  502  503 -0.00000000000E+00 -0.00000000000E+00 -0.85541691700E+02  0.85541691700E+02  0.00000000000E+00 0.  1.
         -6    2    1    2    0  503 -0.11158005274E+03  0.79132046565E+02  0.24459566404E+03  0.32875591094E+03  0.17187617968E+03 0.  0.
        -24    2    3    3    0    0 -0.14825337929E+03  0.70197548470E+02  0.19392516805E+03  0.26539703389E+03  0.76953586734E+02 0.  0.
          6    2    1    2  501    0  0.11158005274E+03 -0.79132046565E+02  0.23255498101E+03  0.31947811752E+03  0.17109196187E+03 0.  0.
         24    2    5    5    0    0  0.22923562911E+02  0.45431744153E+01  0.15190361835E+03  0.17323090184E+03  0.79925627393E+02 0.  0.
          5    1    5    5  501    0  0.88656489831E+02 -0.83675220980E+02  0.80651362665E+02  0.14624721568E+03  0.47000000000E+01 0. -1.
        -11    1    6    6    0    0 -0.24182015863E+02 -0.13228442465E+02  0.27098446218E+02  0.38653426351E+02  0.00000000000E+00 0.  1.
         12    1    6    6    0    0  0.47105578774E+02  0.17771616880E+02  0.12480517213E+03  0.13457747549E+03  0.00000000000E+00 0. -1.
         -5    1    3    3    0  503  0.36673326550E+02  0.89344980954E+01  0.50670495993E+02  0.63358877047E+02  0.47000000000E+01 0.  1.
         11    1    4    4    0    0 -0.14547942046E+03  0.56334097443E+02  0.13988042748E+03  0.20953359230E+03  0.00000000000E+00 0. -1.
        -12    1    4    4    0    0 -0.27739588285E+01  0.13863451026E+02  0.54044740575E+02  0.55863441585E+02  0.00000000000E+00 0.  1.
</event>
<event>
12    1  0.8494789E-002  0.2005854E+03  0.7818608E-02  0.1150460E+00
         21   -1    0    0  503  502  0.00000000000E+00  0.00000000000E+00  0.18142797571E+03  0.18142797571E+03  0.00000000000E+00 0. -1.
         21   -1    0    0  501  503 -0.00000000000E+00 -0.00000000000E+00 -0.23248017873E+03  0.23248017873E+03  0.00000000000E+00 0.  1.
          6    2    1    2  501    0 -0.20213416706E+02 -0.90229776054E+02 -0.81076488734E+02  0.21108816055E+03  0.17156578855E+03 0.  0.
         24    2    3    3    0    0 -0.79218478551E+02 -0.71927304807E+02 -0.55945856401E+02  0.14422848318E+03  0.78884802029E+02 0.  0.
         -6    2    1    2    0  502  0.20213416706E+02  0.90229776054E+02  0.30024285719E+02  0.20281999388E+03  0.17800139742E+03 0.  0.
        -24    2    5    5    0    0 -0.29351934067E+00  0.50091480535E+02 -0.53290022714E+02  0.10797811926E+03  0.79436799669E+02 0.  0.
          5    1    3    3  501    0  0.59005061846E+02 -0.18302471246E+02 -0.25130632332E+02  0.66859677374E+02  0.47000000000E+01 0. -1.
        -11    1    4    4    0    0  0.10847188667E+02 -0.98246460060E+01 -0.27560239865E+02  0.31204999480E+02  0.00000000000E+00 0.  1.
         12    1    4    4    0    0 -0.90065667218E+02 -0.62102658801E+02 -0.28385616536E+02  0.11302348370E+03  0.00000000000E+00 0. -1.
         -5    1    5    5    0  502  0.20506936046E+02  0.40138295519E+02  0.83314308433E+02  0.94841874627E+02  0.47000000000E+01 0.  1.
         13    1    6    6    0    0 -0.22959165275E+01 -0.16197917033E+02  0.75146069301E+01  0.18003140454E+02  0.00000000000E+00 0. -1.
        -14    1    6    6    0    0  0.20023971869E+01  0.66289397568E+02 -0.60804629644E+02  0.89974978803E+02  0.00000000000E+00 0.  1.
</event>
<event>
12    1  0.8494789E-002  0.2081853E+03  0.7818608E-02  0.1143051E+00
         21   -1    0    0  501  502  0.00000000000E+00  0.00000000000E+00  0.49719995073E+03  0.49719995073E+03  0.00000000000E+00 0. -1.
         21   -1    0    0  502  503 -0.00000000000E+00 -0.00000000000E+00 -0.45399230992E+03  0.45399230992E+03  0.00000000000E+00 0. -1.
         -6    2    1    2    0  503 -0.14120870872E+02 -0.11655147555E+03 -0.40594840454E+03  0.45621841080E+03  0.17192290643E+03 0.  0.
        -24    2    3    3    0    0 -0.35702031220E+02 -0.77167255847E+02 -0.39083411676E+03  0.40860124017E+03  0.83511952668E+02 0.  0.
          6    2    1    2  501    0  0.14120870872E+02  0.11655147555E+03  0.44915604534E+03  0.49497384985E+03  0.17168084785E+03 0.  0.
         24    2    5    5    0    0  0.91125820809E+01  0.14251385362E+03  0.43371247740E+03  0.46399447248E+03  0.82408250877E+02 0.  0.
          5    1    5    5  501    0  0.50082887911E+01 -0.25962378068E+02  0.15443567944E+02  0.30979377372E+02  0.47000000000E+01 0. -1.
        -11    1    6    6    0    0  0.39122279842E+02  0.53414452334E+02  0.23523884538E+03  0.24437874472E+03  0.00000000000E+00 0.  1.
         12    1    6    6    0    0 -0.30009697761E+02  0.89099401285E+02  0.19847363202E+03  0.21961572775E+03  0.00000000000E+00 0. -1.
         -5    1    3    3    0  503  0.21581160348E+02 -0.39384219703E+02 -0.15114287782E+02  0.47617170630E+02  0.47000000000E+01 0.  1.
         13    1    4    4    0    0 -0.12355625492E+02 -0.90998809711E+02 -0.29115172027E+03  0.30529128561E+03  0.00000000000E+00 0. -1.
        -14    1    4    4    0    0 -0.23346405728E+02  0.13831553864E+02 -0.99682396487E+02  0.10330995456E+03  0.00000000000E+00 0.  1.
</event>
<event>
12    1  0.8494789E-002  0.2171290E+03  0.7818608E-02  0.1136125E+00
         21   -1    0    0  501  502  0.00000000000E+00  0.00000000000E+00  0.86328117044E+02  0.86328117044E+02  0.00000000000E+00 0.  1.
         21   -1    0    0  502  503 -0.00000000000E+00 -0.00000000000E+00 -0.56491384074E+03  0.56491384074E+03  0.00000000000E+00 0.  1.
         -6    2    1    2    0  503  0.43155106699E+02  0.12540357887E+03 -0.17841357296E+03  0.28102740857E+03  0.17192027375E+03 0.  0.
        -24    2    3    3    0    0  0.30697260043E+02  0.83763581499E+02 -0.20023372830E+03  0.23216744026E+03  0.76482122133E+02 0.  0.
          6    2    1    2  501    0 -0.43155106699E+02 -0.12540357887E+03 -0.30017215073E+03  0.37021454921E+03  0.17136823376E+03 0.  0.
         24    2    5    5    0    0 -0.75921699773E+02 -0.98772934850E+02 -0.14112398501E+03  0.20558997680E+03  0.82650240522E+02 0.  0.
          5    1    5    5  501    0  0.32766593074E+02 -0.26630644022E+02 -0.15904816572E+03  0.16462457241E+03  0.47000000000E+01 0. -1.
        -13    1    6    6    0    0 -0.46213594528E+02 -0.10285924455E+03 -0.13329974771E+03  0.17459823381E+03  0.00000000000E+00 0.  1.
         14    1    6    6    0    0 -0.29708105244E+02  0.40863096989E+01 -0.78242372982E+01  0.30991742989E+02  0.00000000000E+00 0. -1.
         -5    1    3    3    0  503  0.12457846657E+02  0.41639997373E+02  0.21820155344E+02  0.48859968315E+02  0.47000000000E+01 0.  1.
         11    1    4    4    0    0 -0.87283986484E+01  0.21727817650E+02 -0.55418627835E+01  0.24062320044E+02  0.00000000000E+00 0. -1.
        -12    1    4    4    0    0  0.39425658691E+02  0.62035763849E+02 -0.19469186552E+03  0.20810512021E+03  0.00000000000E+00 0.  1.
</event>
<event>
12    1  0.8494789E-002  0.2062376E+03  0.7818608E-02  0.1144678E+00
         21   -1    0    0  501  502  0.00000000000E+00  0.00000000000E+00  0.67602065420E+02  0.67602065420E+02  0.00000000000E+00 0. -1.
         21   -1    0    0  502  503 -0.00000000000E+00 -0.00000000000E+00 -0.97920406870E+03  0.97920406870E+03  0.00000000000E+00 0.  1.
         -6    2    1    2    0  503  0.11212802940E+03 -0.26962880266E+00 -0.76904374661E+03  0.79609351266E+03  0.17252196680E+03 0.  0.
        -24    2    3    3    0    0  0.28236508593E+02 -0.49796943186E+02 -0.50696083900E+03  0.51645037830E+03  0.80216363680E+02 0.  0.
          6    2    1    2  501    0 -0.11212802940E+03  0.26962880266E+00 -0.14255825667E+03  0.25071262146E+03  0.17309302221E+03 0.  0.
         24    2    5    5    0    0 -0.14845886518E+03  0.30098137761E+01 -0.10607123780E+03  0.19893588163E+03  0.79216689406E+02 0.  0.
          5    1    5    5  501    0  0.36330835778E+02 -0.27401849735E+01 -0.36487018871E+02  0.51776739836E+02  0.47000000000E+01 0. -1.
        -11    1    6    6    0    0 -0.34719930297E+02  0.22362146630E+02 -0.63925855136E+02  0.76105545899E+02  0.00000000000E+00 0.  1.
         12    1    6    6    0    0 -0.11373893488E+03 -0.19352332853E+02 -0.42145382667E+02  0.12283033573E+03  0.00000000000E+00 0. -1.
         -5    1    3    3    0  503  0.83891520806E+02  0.49527314383E+02 -0.26208290761E+03  0.27964313436E+03  0.47000000000E+01 0.  1.
         13    1    4    4    0    0 -0.25971377720E+02 -0.32312369659E+02 -0.22695612798E+03  0.23071126050E+03  0.00000000000E+00 0. -1.
        -14    1    4    4    0    0  0.54207886313E+02 -0.17484573527E+02 -0.28000471102E+03  0.28573911780E+03  0.00000000000E+00 0.  1.
</event>
<event>
12    1  0.8494789E-002  0.1980457E+03  0.7818608E-02  0.1152014E+00
         21   -1    0    0  501  502  0.00000000000E+00  0.00000000000E+00  0.30516173725E+02  0.30516173725E+02  0.00000000000E+00 0. -1.
         21   -1    0    0  502  503 -0.00000000000E+00 -0.00000000000E+00 -0.12671234058E+04  0.12671234058E+04  0.00000000000E+00 0. -1.
         -6    2    1    2    0  503  0.86662215096E+02 -0.25351940648E+02 -0.60347253722E+03  0.63425307186E+03  0.17304564590E+03 0.  0.
        -24    2    3    3    0    0  0.11277965038E+03 -0.60813629762E+02 -0.48099670277E+03  0.50401455281E+03  0.79090418269E+02 0.  0.
          6    2    1    2  501    0 -0.86662215096E+02  0.25351940648E+02 -0.63313469481E+03  0.66338650762E+03  0.17626416623E+03 0.  0.
         24    2    5    5    0    0 -0.93372657896E+02 -0.14550032315E+02 -0.25073896426E+03  0.27882730251E+03  0.77100452304E+02 0.  0.
          5    1    5    5  501    0  0.67104427998E+01  0.39901972963E+02 -0.38239573055E+03  0.38455920510E+03  0.47000000000E+01 0. -1.
        -11    1    6    6    0    0  0.91502248840E+01 -0.15558564509E+02 -0.24411032201E+02  0.30359414324E+02  0.00000000000E+00 0.  1.
         12    1    6    6    0    0 -0.10252288278E+03  0.10085321939E+01 -0.22632793206E+03  0.24846788819E+03  0.00000000000E+00 0. -1.
         -5    1    3    3    0  503 -0.26117435286E+02  0.35461689114E+02 -0.12247583445E+03  0.13023851906E+03  0.47000000000E+01 0.  1.
         11    1    4    4    0    0  0.10450569724E+02 -0.27062752845E+02 -0.21614419362E+03  0.21808236847E+03  0.00000000000E+00 0. -1.
        -12    1    4    4    0    0  0.10232908066E+03 -0.33750876918E+02 -0.26485250914E+03  0.28593218434E+03  0.00000000000E+00 0.  1.
</event>
<event>
12    1  0.8494789E-002  0.1719271E+03  0.7818608E-02  0.1176002E+00
         21   -1    0    0  501  502  0.00000000000E+00  0.00000000000E+00  0.17699152639E+03  0.17699152639E+03  0.00000000000E+00 0. -1.
         21   -1    0    0  502  503 -0.00000000000E+00 -0.00000000000E+00 -0.16675436496E+03  0.16675436496E+03  0.00000000000E+00 0. -1.
         -6    2    1    2    0  503 -0.36393696328E+01 -0.16593032057E+02 -0.22987513529E+01  0.17136241784E+03  0.17050284533E+03 0.  0.
        -24    2    3    3    0    0 -0.25917766300E+02 -0.55994114046E+02  0.34572203711E+02  0.11279340259E+03  0.87863775128E+02 0.  0.
          6    2    1    2  501    0  0.36393696328E+01  0.16593032057E+02  0.12535912776E+02  0.17238347351E+03  0.17108576535E+03 0.  0.
         24    2    5    5    0    0 -0.27794723125E+01  0.57553652902E+02  0.55318151472E+02  0.11262241646E+03  0.79394977037E+02 0.  0.
          5    1    5    5  501    0  0.64188419453E+01 -0.40960620845E+02 -0.42782238695E+02  0.59761057050E+02  0.47000000000E+01 0. -1.
        -13    1    6    6    0    0 -0.11607569588E+02 -0.18000160204E+02  0.17573122415E+02  0.27704802300E+02  0.00000000000E+00 0.  1.
         14    1    6    6    0    0  0.88280972753E+01  0.75553813106E+02  0.37745029057E+02  0.84917614161E+02  0.00000000000E+00 0. -1.
         -5    1    3    3    0  503  0.22278396668E+02  0.39401081989E+02 -0.36870955064E+02  0.58569015250E+02  0.47000000000E+01 0.  1.
         13    1    4    4    0    0 -0.23698758928E+02 -0.70033719677E+02 -0.15754548384E+01  0.73951572833E+02  0.00000000000E+00 0. -1.
        -14    1    4    4    0    0 -0.22190073721E+01  0.14039605631E+02  0.36147658550E+02  0.38841829754E+02  0.00000000000E+00 0.  1.
</event>
<event>
12    1  0.8494789E-002  0.1729893E+03  0.7818608E-02  0.1174920E+00
         21   -1    0    0  501  502  0.00000000000E+00  0.00000000000E+00  0.88943701085E+02  0.88943701085E+02  0.00000000000E+00 0.  1.
         21   -1    0    0  502  503 -0.00000000000E+00 -0.00000000000E+00 -0.33981362890E+03  0.33981362890E+03  0.00000000000E+00 0.  1.
         -6    2    1    2    0  503 -0.74051588276E+01  0.14091949841E+02 -0.15040807111E+03  0.22923324406E+03  0.17225525507E+03 0.  0.
        -24    2    3    3    0    0  0.30008620086E+02  0.51737146072E+02 -0.14296144289E+03  0.17543274291E+03  0.82227875876E+02 0.  0.
          6    2    1    2  501    0  0.74051588276E+01 -0.14091949841E+02 -0.10046185671E+03  0.19952408593E+03  0.17165039116E+03 0.  0.
         24    2    5    5    0    0 -0.62691732815E+02 -0.16721517226E+02 -0.68830192450E+02  0.12243231577E+03  0.77731679835E+02 0.  0.
          5    1    5    5  501    0  0.70096891643E+02  0.26295673852E+01 -0.31631664257E+02  0.77091770159E+02  0.47000000000E+01 0. -1.
        -13    1    6    6    0    0 -0.46116493446E+02 -0.43487288237E+02 -0.24273367025E+02  0.67875411989E+02  0.00000000000E+00 0.  1.
         14    1    6    6    0    0 -0.16575239369E+02  0.26765771011E+02 -0.44556825425E+02  0.54556903778E+02  0.00000000000E+00 0. -1.
         -5    1    3    3    0  503 -0.37413778913E+02 -0.37645196231E+02 -0.74466282253E+01  0.53800501148E+02  0.47000000000E+01 0.  1.
         13    1    4    4    0    0  0.14852298542E+02 -0.70815340956E+01 -0.99236676950E+02  0.10059153518E+03  0.00000000000E+00 0. -1.
        -14    1    4    4    0    0  0.15156321544E+02  0.58818680167E+02 -0.43724765936E+02  0.74841207737E+02  0.00000000000E+00 0.  1.
</event>
<event>
12    1  0.8494789E-002  0.2090431E+03  0.7818608E-02  0.1143065E+00
         21   -1    0    0  501  502  0.00000000000E+00  0.00000000000E+00  0.25177318894E+03  0.25177318894E+03  0.00000000000E+00 0. -1.
         21   -1    0    0  502  503 -0.00000000000E+00 -0.00000000000E+00 -0.37236274770E+03  0.37236274770E+03  0.00000000000E+00 0. -1.
         -6    2    1    2    0  503 -0.10407459833E+03 -0.47295849914E+02 -0.28980181043E+03  0.35519024865E+03  0.17060657657E+03 0.  0.
        -24    2    3    3    0    0 -0.71309182196E+02 -0.37601863144E+02 -0.29831450229E+03  0.31966417658E+03  0.81821414875E+02 0.  0.
          6    2    1    2  501    0  0.10407459833E+03  0.47295849914E+02  0.16921225167E+03  0.26894568800E+03  0.17501593511E+03 0.  0.
         24    2    5    5    0    0  0.13671907701E+03  0.65667539160E+02  0.13986548150E+03  0.22112828663E+03  0.79567798230E+02 0.  0.
          5    1    5    5  501    0 -0.32644478681E+02 -0.18371689246E+02  0.29346770173E+02  0.47817401369E+02  0.47000000000E+01 0. -1.
        -13    1    6    6    0    0  0.21217108341E+02 -0.42446673961E+01 -0.59151545595E+01  0.22431494402E+02  0.00000000000E+00 0.  1.
         14    1    6    6    0    0  0.11550196867E+03  0.69912206556E+02  0.14578063606E+03  0.19869679223E+03  0.00000000000E+00 0. -1.
         -5    1    3    3    0  503 -0.32765416133E+02 -0.96939867700E+01  0.85126918610E+01  0.35526072068E+02  0.47000000000E+01 0.  1.
         11    1    4    4    0    0 -0.81015545416E+02 -0.48889294973E+02 -0.21316434248E+03  0.23322246604E+03  0.00000000000E+00 0. -1.
        -12    1    4    4    0    0  0.97063632201E+01  0.11287431829E+02 -0.85150159813E+02  0.86441710536E+02  0.00000000000E+00 0.  1.
</event>
<event>
12    1  0.8494789E-002  0.1897319E+03  0.7818608E-02  0.1159439E+00
         21   -1    0    0  503  502  0.00000000000E+00  0.00000000000E+00  0.96636783563E+03  0.96636783563E+03  0.00000000000E+00 0.  1.
         21   -1    0    0  501  503 -0.00000000000E+00 -0.00000000000E+00 -0.46574283895E+02  0.46574283895E+02  0.00000000000E+00 0.  1.
          6    2    1    2  501    0 -0.73249133530E+02  0.96112772222E+01  0.22265955787E+03  0.29045059532E+03  0.17124969313E+03 0.  0.
         24    2    3    3    0    0 -0.80020774899E+02 -0.84659548505E+01  0.62720565207E+02  0.12928232046E+03  0.79404359305E+02 0.  0.
         -6    2    1    2    0  502  0.73249133530E+02 -0.96112772222E+01  0.69713399387E+03  0.72249152421E+03  0.17475807546E+03 0.  0.
        -24    2    5    5    0    0  0.79330694754E+02  0.24439135618E+02  0.33033561027E+03  0.35403588209E+03  0.96587576397E+02 0.  0.
          5    1    3    3  501    0  0.67716413690E+01  0.18077232073E+02  0.15993899266E+03  0.16116827486E+03  0.47000000000E+01 0. -1.
        -11    1    4    4    0    0 -0.39234934411E+02  0.35602702767E+02  0.30682299989E+02  0.61223656010E+02  0.00000000000E+00 0.  1.
         12    1    4    4    0    0 -0.40785840488E+02 -0.44068657618E+02  0.32038265218E+02  0.68058664450E+02  0.00000000000E+00 0. -1.
         -5    1    5    5    0  502 -0.60815612243E+01 -0.34050412840E+02  0.36679838360E+03  0.36845564212E+03  0.47000000000E+01 0.  1.
         13    1    6    6    0    0  0.12108434794E+02  0.34878822087E-01 -0.35174772139E+01  0.12609046579E+02  0.00000000000E+00 0. -1.
        -14    1    6    6    0    0  0.67222259961E+02  0.24404256796E+02  0.33385308748E+03  0.34142683551E+03  0.00000000000E+00 0.  1.
</event>
<event>
12    1  0.8494789E-002  0.2001174E+03  0.7818608E-02  0.1149874E+00
         21   -1    0    0  501  502  0.00000000000E+00  0.00000000000E+00  0.36702317160E+03  0.36702317160E+03  0.00000000000E+00 0.  1.
         21   -1    0    0  502  503 -0.00000000000E+00 -0.00000000000E+00 -0.14532579292E+03  0.14532579292E+03  0.00000000000E+00 0. -1.
         -6    2    1    2    0  503  0.25835402557E+02 -0.96958831354E+02 -0.18318388966E+02  0.19985168619E+03  0.17186229982E+03 0.  0.
        -24    2    3    3    0    0 -0.16030646873E+02 -0.50106995747E+02 -0.69508915861E+02  0.11867028045E+03  0.80519894538E+02 0.  0.
          6    2    1    2  501    0 -0.25835402557E+02  0.96958831354E+02  0.24001576765E+03  0.31249727832E+03  0.17314299649E+03 0.  0.
         24    2    5    5    0    0  0.19396729777E+02 -0.15618866743E+01  0.14458109418E+03  0.16799072284E+03  0.83297764376E+02 0.  0.
          5    1    5    5  501    0 -0.45232132334E+02  0.98520718029E+02  0.95434673467E+02  0.14450655548E+03  0.47000000000E+01 0. -1.
        -13    1    6    6    0    0  0.26856240315E+02  0.33578830199E+02  0.11009323440E+03  0.11819185988E+03  0.00000000000E+00 0.  1.
         14    1    6    6    0    0 -0.74595105384E+01 -0.35140716874E+02  0.34487859783E+02  0.49798862962E+02  0.00000000000E+00 0. -1.
         -5    1    3    3    0  503  0.41866049430E+02 -0.46851835607E+02  0.51190526895E+02  0.81181405743E+02  0.47000000000E+01 0.  1.
         13    1    4    4    0    0  0.11337166701E+02 -0.47134284467E+02 -0.76224098781E+02  0.90334297783E+02  0.00000000000E+00 0. -1.
        -14    1    4    4    0    0 -0.27367813573E+02 -0.29727112796E+01  0.67151829201E+01  0.28335982669E+02  0.00000000000E+00 0.  1.
</event>
<event>
12    1  0.8494789E-002  0.1845664E+03  0.7818608E-02  0.1163796E+00
         21   -1    0    0  503  502  0.00000000000E+00  0.00000000000E+00  0.45965373174E+03  0.45965373174E+03  0.00000000000E+00 0.  1.
         21   -1    0    0  501  503 -0.00000000000E+00 -0.00000000000E+00 -0.12116728028E+03  0.12116728028E+03  0.00000000000E+00 0.  1.
          6    2    1    2  501    0 -0.20656290074E+02 -0.63926538154E+02 -0.13255964217E+02  0.18359627125E+03  0.17034842420E+03 0.  0.
         24    2    3    3    0    0  0.36128358403E+02 -0.82037084124E+02  0.83642360161E+01  0.12001945758E+03  0.79368559902E+02 0.  0.
         -6    2    1    2    0  502  0.20656290074E+02  0.63926538154E+02  0.35174241567E+03  0.39722474078E+03  0.17190544814E+03 0.  0.
        -24    2    5    5    0    0  0.62955963197E+02  0.90261903887E+02  0.26009398669E+03  0.29280090073E+03  0.77284027856E+02 0.  0.
          5    1    3    3  501    0 -0.56784648477E+02  0.18110545971E+02 -0.21620200233E+02  0.63576813667E+02  0.47000000000E+01 0. -1.
        -13    1    4    4    0    0  0.32752678218E+02 -0.78106061330E+02 -0.23373654061E+02  0.87861382023E+02  0.00000000000E+00 0.  1.
         14    1    4    4    0    0  0.33756801849E+01 -0.39310227948E+01  0.31737890077E+02  0.32158075556E+02  0.00000000000E+00 0. -1.
         -5    1    5    5    0  502 -0.42299673123E+02 -0.26335365733E+02  0.91648428986E+02  0.10442384005E+03  0.47000000000E+01 0.  1.
         11    1    6    6    0    0  0.55461703249E+02  0.18306292805E+02  0.82903449498E+02  0.10141056563E+03  0.00000000000E+00 0. -1.
        -12    1    6    6    0    0  0.74942599473E+01  0.71955611082E+02  0.17719053719E+03  0.19139033509E+03  0.00000000000E+00 0.  1.
</event>
<event>
12    1  0.8494789E-002  0.1764859E+03  0.7818608E-02  0.1171250E+00
         21   -1    0    0  501  502  0.00000000000E+00  0.00000000000E+00  0.16830330647E+03  0.16830330647E+03  0.00000000000E+00 0. -1.
         21   -1    0    0  502  503 -0.00000000000E+00 -0.00000000000E+00 -0.18633476859E+03  0.18633476859E+03  0.00000000000E+00 0. -1.
         -6    2    1    2    0  503  0.23419074837E+02  0.27122943971E+02  0.56651344576E+01  0.17657682006E+03  0.17280964231E+03 0.  0.
        -24    2    3    3    0    0  0.41358821444E+02 -0.25055455434E+02 -0.42864858836E+02  0.10294482890E+03  0.80136843683E+02 0.  0.
          6    2    1    2  501    0 -0.23419074837E+02 -0.27122943971E+02 -0.23696596582E+02  0.17806125500E+03  0.17280096842E+03 0.  0.
         24    2    5    5    0    0  0.92990183344E+01  0.49073419002E+02 -0.42189210335E+01  0.92751061031E+02  0.78040296214E+02 0.  0.
          5    1    5    5  501    0 -0.32718093171E+02 -0.76196362973E+02 -0.19477675548E+02  0.85310193973E+02  0.47000000000E+01 0. -1.
        -11    1    6    6    0    0  0.17602457817E+00  0.50528732203E+02 -0.34439786369E+02  0.61149674143E+02  0.00000000000E+00 0.  1.
         12    1    6    6    0    0  0.91229937563E+01 -0.14553132008E+01  0.30220865336E+02  0.31601386888E+02  0.00000000000E+00 0. -1.
         -5    1    3    3    0  503 -0.17939746608E+02  0.52178399405E+02  0.48529993294E+02  0.73631991158E+02  0.47000000000E+01 0.  1.
         11    1    4    4    0    0  0.39697155142E+02  0.12865997854E+02 -0.49143967091E+02  0.64471137174E+02  0.00000000000E+00 0. -1.
        -12    1    4    4    0    0  0.16616663026E+01 -0.37921453288E+02  0.62791082545E+01  0.38473691723E+02  0.00000000000E+00 0.  1.
</event>
<event>
12    1  0.8494789E-002  0.2130589E+03  0.7818608E-02  0.1139634E+00
         21   -1    0    0  503  502  0.00000000000E+00  0.00000000000E+00  0.95140176024E+02  0.95140176024E+02  0.00000000000E+00 0. -1.
         21   -1    0    0  501  503 -0.00000000000E+00 -0.00000000000E+00 -0.52091192416E+03  0.52091192416E+03  0.00000000000E+00 0. -1.
          6    2    1    2  501    0  0.24495229741E+02  0.12274898340E+03 -0.30638574497E+03  0.37182455183E+03  0.16945189115E+03 0.  0.
         24    2    3    3    0    0 -0.38545447149E+02  0.70886300062E+02 -0.24435533140E+03  0.26919060485E+03  0.79015408117E+02 0.  0.
         -6    2    1    2    0  502 -0.24495229741E+02 -0.12274898340E+03 -0.11938600317E+03  0.24422754836E+03  0.17241446696E+03 0.  0.
        -24    2    5    5    0    0 -0.54302887036E+02 -0.13289059971E+03 -0.56580834083E+02  0.17381499210E+03  0.80009659794E+02 0.  0.
          5    1    3    3  501    0  0.63040676891E+02  0.51862683338E+02 -0.62030413568E+02  0.10263394698E+03  0.47000000000E+01 0. -1.
        -11    1    4    4    0    0  0.95705775627E+01 -0.11028344368E+02 -0.14976179003E+02  0.20916650590E+02  0.00000000000E+00 0.  1.
         12    1    4    4    0    0 -0.48116024712E+02  0.81914644430E+02 -0.22937915240E+03  0.24827395426E+03  0.00000000000E+00 0. -1.
         -5    1    5    5    0  502  0.29807657295E+02  0.10141616315E+02 -0.62805169083E+02  0.70412556256E+02  0.47000000000E+01 0.  1.
         13    1    6    6    0    0  0.10993328694E+02 -0.71814871369E+02 -0.39822790802E+02  0.82849765798E+02  0.00000000000E+00 0. -1.
        -14    1    6    6    0    0 -0.65296215730E+02 -0.61075728345E+02 -0.16758043281E+02  0.90965226302E+02  0.00000000000E+00 0.  1.
</event>
<event>
12    1  0.8494789E-002  0.1974928E+03  0.7818608E-02  0.1152545E+00
         21   -1    0    0  501  502  0.00000000000E+00  0.00000000000E+00  0.68827948740E+02  0.68827948740E+02  0.00000000000E+00 0.  1.
         21   -1    0    0  502  503 -0.00000000000E+00 -0.00000000000E+00 -0.60348082469E+03  0.60348082469E+03  0.00000000000E+00 0.  1.
         -6    2    1    2    0  503  0.80934495548E+02 -0.52475597259E+02 -0.35786816353E+03  0.40724980915E+03  0.16875634420E+03 0.  0.
        -24    2    3    3    0    0  0.45005050353E+02 -0.43317962617E+02 -0.35642601652E+03  0.36984717432E+03  0.76456043954E+02 0.  0.
          6    2    1    2  501    0 -0.80934495548E+02  0.52475597259E+02 -0.17678471242E+03  0.26505896428E+03  0.17233496198E+03 0.  0.
         24    2    5    5    0    0 -0.11343893504E+02  0.38434599480E+02 -0.17319187173E+03  0.19381992993E+03  0.77232366572E+02 0.  0.
          5    1    5    5  501    0 -0.69590602043E+02  0.14040997779E+02 -0.35928406921E+01  0.71239034354E+02  0.47000000000E+01 0. -1.
        -13    1    6    6    0    0 -0.30614904762E+02  0.75012790476E+01 -0.22356221677E+02  0.38643786416E+02  0.00000000000E+00 0.  1.
         14    1    6    6    0    0  0.19271011257E+02  0.30933320432E+02 -0.15083565005E+03  0.15517614351E+03  0.00000000000E+00 0. -1.
         -5    1    3    3    0  503  0.35929445194E+02 -0.91576346417E+01 -0.14421470070E+01  0.37402634830E+02  0.47000000000E+01 0.  1.
         13    1    4    4    0    0 -0.74936798330E+01  0.13456549444E+02 -0.23785029131E+02  0.28336576560E+02  0.00000000000E+00 0. -1.
        -14    1    4    4    0    0  0.52498730186E+02 -0.56774512061E+02 -0.33264098739E+03  0.34151059776E+03  0.00000000000E+00 0.  1.
</event>
<event>
12    1  0.8494789E-002  0.3374202E+03  0.7818608E-02  0.1067909E+00
         21   -1    0    0  501  502  0.00000000000E+00  0.00000000000E+00  0.30476555558E+03  0.30476555558E+03  0.00000000000E+00 0. -1.
         21   -1    0    0  502  503 -0.00000000000E+00 -0.00000000000E+00 -0.53851301048E+03  0.53851301048E+03  0.00000000000E+00 0. -1.
         -6    2    1    2    0  503 -0.13446853403E+03 -0.25682184437E+03 -0.35027822475E+03  0.48630266783E+03  0.17249986555E+03 0.  0.
        -24    2    3    3    0    0 -0.70337325813E+02 -0.17216787279E+03 -0.31372404913E+03  0.37388645669E+03  0.82335822538E+02 0.  0.
          6    2    1    2  501    0  0.13446853403E+03  0.25682184437E+03  0.11653076986E+03  0.35697589823E+03  0.17266477697E+03 0.  0.
         24    2    5    5    0    0 -0.27177262846E+01  0.79028239465E+02  0.28929827117E+02  0.11588120494E+03  0.79615765355E+02 0.  0.
          5    1    5    5  501    0  0.13718626031E+03  0.17779360490E+03  0.87600942744E+02  0.24109469329E+03  0.47000000000E+01 0. -1.
        -13    1    6    6    0    0  0.88073699911E+01 -0.12024448392E+02 -0.80408174910E+01  0.16935520991E+02  0.00000000000E+00 0.  1.
         14    1    6    6    0    0 -0.11525096276E+02  0.91052687857E+02  0.36970644608E+02  0.98945683953E+02  0.00000000000E+00 0. -1.
         -5    1    3    3    0  503 -0.64131208213E+02 -0.84653971579E+02 -0.36554175626E+02  0.11241621114E+03  0.47000000000E+01 0.  1.
         13    1    4    4    0    0 -0.56874877802E+02 -0.16516825643E+03 -0.23009869240E+03  0.28889567823E+03  0.00000000000E+00 0. -1.
        -14    1    4    4    0    0 -0.13462448011E+02 -0.69996163616E+01 -0.83625356724E+02  0.84990778458E+02  0.00000000000E+00 0.  1.
</event>
<event>
12    1  0.8494789E-002  0.2184527E+03  0.7818608E-02  0.1135783E+00
         21   -1    0    0  501  502  0.00000000000E+00  0.00000000000E+00  0.72850022343E+02  0.72850022343E+02  0.00000000000E+00 0.  1.
         21   -1    0    0  502  503 -0.00000000000E+00 -0.00000000000E+00 -0.83852007437E+03  0.83852007437E+03  0.00000000000E+00 0. -1.
         -6    2    1    2    0  503  0.11462619938E+03  0.56037499118E+02 -0.60528393293E+03  0.64349841143E+03  0.17731948331E+03 0.  0.
        -24    2    3    3    0    0  0.12466252635E+03  0.74263116883E+02 -0.34237740725E+03  0.37972799564E+03  0.76911024390E+02 0.  0.
          6    2    1    2  501    0 -0.11462619938E+03 -0.56037499118E+02 -0.16038611909E+03  0.26787168528E+03  0.17248816100E+03 0.  0.
         24    2    5    5    0    0 -0.45172914101E+02  0.20510857722E+01 -0.15137710600E+03  0.17676024337E+03  0.79273931990E+02 0.  0.
          5    1    5    5  501    0 -0.69453285275E+02 -0.58088584890E+02 -0.90090130928E+01  0.91111441910E+02  0.47000000000E+01 0. -1.
        -13    1    6    6    0    0 -0.32096371659E+02 -0.37106337710E+02 -0.94541619641E+02  0.10651373252E+03  0.00000000000E+00 0.  1.
         14    1    6    6    0    0 -0.13076542442E+02  0.39157423482E+02 -0.56835486360E+02  0.70246510844E+02  0.00000000000E+00 0. -1.
         -5    1    3    3    0  503 -0.10036326971E+02 -0.18225617765E+02 -0.26290652568E+03  0.26377041579E+03  0.47000000000E+01 0.  1.
         13    1    4    4    0    0  0.76351510852E+02  0.52856096868E+01 -0.20219732295E+03  0.21619724394E+03  0.00000000000E+00 0. -1.
        -14    1    4    4    0    0  0.48311015495E+02  0.68977507196E+02 -0.14018008431E+03  0.16353075170E+03  0.00000000000E+00 0.  1.
</event>
<event>
12    1  0.8494789E-002  0.2206762E+03  0.7818608E-02  0.1133481E+00
         21   -1    0    0  503  502  0.00000000000E+00  0.00000000000E+00  0.71931031003E+03  0.71931031003E+03  0.00000000000E+00 0. -1.
         21   -1    0    0  501  503 -0.00000000000E+00 -0.00000000000E+00 -0.67754387442E+02  0.67754387442E+02  0.00000000000E+00 0. -1.
          6    2    1    2  501    0  0.13488277007E+03 -0.18123872941E+02  0.30291119985E+03  0.37444971031E+03  0.17301894152E+03 0.  0.
         24    2    3    3    0    0  0.10726221880E+03 -0.12453413961E+01  0.31311737395E+03  0.34018550640E+03  0.78593603018E+02 0.  0.
         -6    2    1    2    0  502 -0.13488277007E+03  0.18123872941E+02  0.34864472274E+03  0.41261498717E+03  0.17371283345E+03 0.  0.
        -24    2    5    5    0    0 -0.61274937811E+02 -0.20217090241E+02  0.29838027582E+03  0.31547206641E+03  0.79551787832E+02 0.  0.
          5    1    3    3  501    0  0.27620551273E+02 -0.16878531545E+02 -0.10206174104E+02  0.34264203910E+02  0.47000000000E+01 0. -1.
        -11    1    4    4    0    0 -0.34236226432E+01 -0.20269953846E+02  0.53729573741E+02  0.57527900321E+02  0.00000000000E+00 0.  1.
         12    1    4    4    0    0  0.11068584144E+03  0.19024612450E+02  0.25938780021E+03  0.28265760608E+03  0.00000000000E+00 0. -1.
         -5    1    5    5    0  502 -0.73607832263E+02  0.38340963182E+02  0.50264446925E+02  0.97142920755E+02  0.47000000000E+01 0.  1.
         13    1    6    6    0    0 -0.59071116498E+02 -0.26963453119E+02  0.11587315732E+03  0.13282700477E+03  0.00000000000E+00 0. -1.
        -14    1    6    6    0    0 -0.22038213134E+01  0.67463628780E+01  0.18250711850E+03  0.18264506164E+03  0.00000000000E+00 0.  1.
</event>
<event>
12    1  0.8494789E-002  0.1960818E+03  0.7818608E-02  0.1153524E+00
         21   -1    0    0  503  502  0.00000000000E+00  0.00000000000E+00  0.11372765883E+04  0.11372765883E+04  0.00000000000E+00 0.  1.
         21   -1    0    0  501  503 -0.00000000000E+00 -0.00000000000E+00 -0.33865857696E+02  0.33865857696E+02  0.00000000000E+00 0. -1.
          6    2    1    2  501    0  0.93185005165E+02 -0.39762961066E+01  0.61843377893E+03  0.64877453620E+03  0.17247841541E+03 0.  0.
         24    2    3    3    0    0  0.64024698707E+02 -0.62826269511E+02  0.49113827410E+03  0.50545713184E+03  0.78891099988E+02 0.  0.
         -6    2    1    2    0  502 -0.93185005165E+02  0.39762961066E+01  0.48497695165E+03  0.52236790977E+03  0.17019498644E+03 0.  0.
        -24    2    5    5    0    0 -0.12781763708E+03 -0.11086757743E+02  0.32969389543E+03  0.36248910463E+03  0.78993808266E+02 0.  0.
          5    1    3    3  501    0  0.29160306458E+02  0.58849973405E+02  0.12729550482E+03  0.14331740435E+03  0.47000000000E+01 0. -1.
        -11    1    4    4    0    0  0.89767062003E+01 -0.62171173456E+02  0.22030986727E+03  0.22909009948E+03  0.00000000000E+00 0.  1.
         12    1    4    4    0    0  0.55047992507E+02 -0.65509605534E+00  0.27082840683E+03  0.27636703236E+03  0.00000000000E+00 0. -1.
         -5    1    5    5    0  502  0.34632631916E+02  0.15063053850E+02  0.15528305623E+03  0.15987880515E+03  0.47000000000E+01 0.  1.
         13    1    6    6    0    0 -0.55729623013E+02 -0.34173045228E+02  0.21778174038E+03  0.22738178103E+03  0.00000000000E+00 0. -1.
        -14    1    6    6    0    0 -0.72088014068E+02  0.23086287485E+02  0.11191215505E+03  0.13510732360E+03  0.00000000000E+00 0.  1.
</event>
<event>
12    1  0.8494789E-002  0.1985509E+03  0.7818608E-02  0.1151024E+00
         21   -1    0    0  503  502  0.00000000000E+00  0.00000000000E+00  0.60409643896E+03  0.60409643896E+03  0.00000000000E+00 0. -1.
         21   -1    0    0  501  503 -0.00000000000E+00 -0.00000000000E+00 -0.66270607575E+02  0.66270607575E+02  0.00000000000E+00 0.  1.
          6    2    1    2  501    0  0.96008179032E+02  0.22848423642E+02  0.31189912517E+03  0.36959249815E+03  0.17198235230E+03 0.  0.
         24    2    3    3    0    0  0.57939281903E+02  0.63576300278E+02  0.11290795796E+03  0.16288600214E+03  0.79904545422E+02 0.  0.
         -6    2    1    2    0  502 -0.96008179032E+02 -0.22848423642E+02  0.22592670622E+03  0.30077454839E+03  0.17228706124E+03 0.  0.
        -24    2    5    5    0    0 -0.11646985610E+03  0.17251191138E+02  0.11918686695E+03  0.18483429385E+03  0.78072888732E+02 0.  0.
          5    1    3    3  501    0  0.38068897129E+02 -0.40727876636E+02  0.19899116721E+03  0.20670649601E+03  0.47000000000E+01 0. -1.
        -11    1    4    4    0    0 -0.18515293538E+02  0.89984952950E+01  0.36050679239E+02  0.41514340727E+02  0.00000000000E+00 0.  1.
         12    1    4    4    0    0  0.76454575441E+02  0.54577804983E+02  0.76857278719E+02  0.12137166142E+03  0.00000000000E+00 0. -1.
         -5    1    5    5    0  502  0.20461677069E+02 -0.40099614780E+02  0.10673983927E+03  0.11594025454E+03  0.47000000000E+01 0.  1.
         11    1    6    6    0    0  0.69095871474E+01  0.94459693982E+00  0.32320228974E+02  0.33064056903E+02  0.00000000000E+00 0. -1.
        -12    1    6    6    0    0 -0.12337944325E+03  0.16306594198E+02  0.86866637971E+02  0.15177023695E+03  0.00000000000E+00 0.  1.
</event>
<event>
12    1  0.8494789E-002  0.1727503E+03  0.7818608E-02  0.1175499E+00
         21   -1    0    0  501  502  0.00000000000E+00  0.00000000000E+00  0.35313441206E+03  0.35313441206E+03  0.00000000000E+00 0. -1.
         21   -1    0    0  502  503 -0.00000000000E+00 -0.00000000000E+00 -0.83864579832E+02  0.83864579832E+02  0.00000000000E+00 0. -1.
         -6    2    1    2    0  503 -0.14450749950E+00  0.18774386450E+02  0.12263516326E+03  0.21185382957E+03  0.17172700244E+03 0.  0.
        -24    2    3    3    0    0  0.46299813128E+02 -0.34903052153E+02  0.54493044914E+02  0.11334606020E+03  0.80721383001E+02 0.  0.
          6    2    1    2  501    0  0.14450749950E+00 -0.18774386450E+02  0.14663466897E+03  0.22514516232E+03  0.16981201225E+03 0.  0.
         24    2    5    5    0    0 -0.36516728864E+02 -0.68572870438E+02  0.11359720358E+03  0.15487782014E+03  0.71042976152E+02 0.  0.
          5    1    5    5  501    0  0.36661236364E+02  0.49798483988E+02  0.33037465385E+02  0.70267342189E+02  0.47000000000E+01 0. -1.
        -11    1    6    6    0    0 -0.37556931550E+02 -0.11123789835E+01  0.45642808388E+02  0.59118748735E+02  0.00000000000E+00 0.  1.
         12    1    6    6    0    0  0.10402026854E+01 -0.67460491455E+02  0.67954395197E+02  0.95759071400E+02  0.00000000000E+00 0. -1.
         -5    1    3    3    0  503 -0.46444320628E+02  0.53677438603E+02  0.68142118345E+02  0.98507769369E+02  0.47000000000E+01 0.  1.
         13    1    4    4    0    0 -0.92747333392E+01 -0.30629345410E+02  0.47351308133E+02  0.57151761658E+02  0.00000000000E+00 0. -1.
        -14    1    4    4    0    0  0.55574546467E+02 -0.42737067427E+01  0.71417367817E+01  0.56194298542E+02  0.00000000000E+00 0.  1.
</event>
<event>
12    1  0.8494789E-002  0.2068541E+03  0.7818608E-02  0.1144089E+00
         21   -1    0    0  501  502  0.00000000000E+00  0.00000000000E+00  0.99070073550E+03  0.99070073550E+03  0.00000000000E+00 0. -1.
         21   -1    0    0  502  503 -0.00000000000E+00 -0.00000000000E+00 -0.91056503554E+02  0.91056503554E+02  0.00000000000E+00 0. -1.
         -6    2    1    2    0  503 -0.10892382092E+03  0.34707556478E+02  0.57619146621E+02  0.21469618663E+03  0.17235275818E+03 0.  0.
        -24    2    3    3    0    0 -0.22217431916E+02  0.54603506777E+02  0.74571166278E+02  0.12401373130E+03  0.79645398350E+02 0.  0.
          6    2    1    2  501    0  0.10892382092E+03 -0.34707556478E+02  0.84202508533E+03  0.86706105243E+03  0.17239376751E+03 0.  0.
         24    2    5    5    0    0  0.44990845785E+02 -0.38680336048E+02  0.17986835872E+03  0.20179657203E+03  0.69633938660E+02 0.  0.
          5    1    5    5  501    0  0.63932975139E+02  0.39727795700E+01  0.66215672661E+03  0.66526448040E+03  0.47000000000E+01 0. -1.
        -11    1    6    6    0    0  0.18199117550E+02  0.17684112206E+02  0.29029029260E+02  0.38556714641E+02  0.00000000000E+00 0.  1.
         12    1    6    6    0    0  0.26791728235E+02 -0.56364448254E+02  0.15083932945E+03  0.16323985738E+03  0.00000000000E+00 0. -1.
         -5    1    3    3    0  503 -0.86706389009E+02 -0.19895950299E+02 -0.16952019656E+02  0.90682455325E+02  0.47000000000E+01 0.  1.
         13    1    4    4    0    0 -0.40340473837E+02  0.17354584570E+02  0.65909051833E+01  0.44406930384E+02  0.00000000000E+00 0. -1.
        -14    1    4    4    0    0  0.18123041921E+02  0.37248922207E+02  0.67980261094E+02  0.79606800918E+02  0.00000000000E+00 0.  1.
</event>
<event>
12    1  0.8494789E-002  0.1768980E+03  0.7818608E-02  0.1170876E+00
         21   -1    0    0  503  502  0.00000000000E+00  0.00000000000E+00  0.19903796130E+03  0.19903796130E+03  0.00000000000E+00 0. -1.
         21   -1    0    0  501  503 -0.00000000000E+00 -0.00000000000E+00 -0.18530129757E+03  0.18530129757E+03  0.00000000000E+00 0. -1.
          6    2    1    2  501    0 -0.42084919043E+02 -0.78194343448E+01 -0.68115661234E+02  0.18942208753E+03  0.17148964976E+03 0.  0.
         24    2    3    3    0    0  0.45028189249E+02  0.28166392071E+01 -0.41666981637E+02  0.97642774229E+02  0.75911150149E+02 0.  0.
         -6    2    1    2    0  502  0.42084919043E+02  0.78194343448E+01  0.81852324960E+02  0.19491717134E+03  0.17164095263E+03 0.  0.
        -24    2    5    5    0    0  0.71989349870E+02  0.34392501074E+02  0.99507627926E+02  0.15093760130E+03  0.80716050731E+02 0.  0.
          5    1    3    3  501    0 -0.87113108292E+02 -0.10636073552E+02 -0.26448679598E+02  0.91779313298E+02  0.47000000000E+01 0. -1.
        -11    1    4    4    0    0  0.23563552649E+01  0.56578604516E+00  0.21359361203E+02  0.21496391208E+02  0.00000000000E+00 0.  1.
         12    1    4    4    0    0  0.42671833984E+02  0.22508531619E+01 -0.63026342839E+02  0.76146383021E+02  0.00000000000E+00 0. -1.
         -5    1    5    5    0  502 -0.29904430827E+02 -0.26573066729E+02 -0.17655302965E+02  0.43979570044E+02  0.47000000000E+01 0.  1.
         13    1    6    6    0    0  0.37069850011E+02 -0.19715633881E+02  0.66314183001E+02  0.78488539713E+02  0.00000000000E+00 0. -1.
        -14    1    6    6    0    0  0.34919499859E+02  0.54108134955E+02  0.33193444924E+02  0.72449061586E+02  0.00000000000E+00 0.  1.
</event>
<event>
12    1  0.8494789E-002  0.3575082E+03  0.7818608E-02  0.1059585E+00
         21   -1    0    0  503  502  0.00000000000E+00  0.00000000000E+00  0.11603387355E+03  0.11603387355E+03  0.00000000000E+00 0. -1.
         21   -1    0    0  501  503 -0.00000000000E+00 -0.00000000000E+00 -0.15177663710E+04  0.15177663710E+04  0.00000000000E+00 0.  1.
          6    2    1    2  501    0  0.23303373416E+02  0.31257655428E+03 -0.11287596868E+04  0.11839933311E+04  0.17174000133E+03 0.  0.
         24    2    3    3    0    0 -0.24455078849E+02  0.14507247600E+03 -0.37984926066E+03  0.41508020052E+03  0.79762383775E+02 0.  0.
         -6    2    1    2    0  502 -0.23303373416E+02 -0.31257655428E+03 -0.27297281061E+03  0.44980691341E+03  0.17194462631E+03 0.  0.
        -24    2    5    5    0    0 -0.72980178215E+02 -0.23049716563E+03 -0.15743689459E+03  0.29955562767E+03  0.80573869908E+02 0.  0.
          5    1    3    3  501    0  0.47758452265E+02  0.16750407829E+03 -0.74891042617E+03  0.76891313062E+03  0.47000000000E+01 0. -1.
        -13    1    4    4    0    0  0.16790063413E+02  0.17061032569E+01 -0.56696124172E+02  0.59154606869E+02  0.00000000000E+00 0.  1.
         14    1    4    4    0    0 -0.41245142262E+02  0.14336637274E+03 -0.32315313649E+03  0.35592559365E+03  0.00000000000E+00 0. -1.
         -5    1    5    5    0  502  0.49676804799E+02 -0.82079388653E+02 -0.11553591601E+03  0.15025128574E+03  0.47000000000E+01 0.  1.
         11    1    6    6    0    0 -0.32812840955E+02 -0.20165255876E+03 -0.11534818305E+03  0.23461807330E+03  0.00000000000E+00 0. -1.
        -12    1    6    6    0    0 -0.40167337261E+02 -0.28844606874E+02 -0.42088711540E+02  0.64937554369E+02  0.00000000000E+00 0.  1.
</event>
<event>
12    1  0.8494789E-002  0.1979652E+03  0.7818608E-02  0.1151723E+00
         21   -1    0    0  503  502  0.00000000000E+00  0.00000000000E+00  0.37690913562E+02  0.37690913562E+02  0.00000000000E+00 0.  1.
         21   -1    0    0  501  503 -0.00000000000E+00 -0.00000000000E+00 -0.15918676159E+04  0.15918676159E+04  0.00000000000E+00 0. -1.
          6    2    1    2  501    0  0.18352706931E+02  0.95342378301E+02 -0.12581061857E+04  0.12734012806E+04  0.17115097472E+03 0.  0.
         24    2    3    3    0    0  0.34708317784E+02  0.11419787324E+02 -0.33660539903E+03  0.34793042909E+03  0.80108114219E+02 0.  0.
         -6    2    1    2    0  502 -0.18352706931E+02 -0.95342378301E+02 -0.29607051669E+03  0.35615724885E+03  0.17252027157E+03 0.  0.
        -24    2    5    5    0    0 -0.64375742735E+02 -0.69168274126E+02 -0.27011937063E+03  0.29700696960E+03  0.79499554718E+02 0.  0.
          5    1    3    3  501    0 -0.16355610852E+02  0.83922590977E+02 -0.92150078665E+03  0.92547085156E+03  0.47000000000E+01 0. -1.
        -13    1    4    4    0    0  0.43222973340E+02 -0.14509951184E+02 -0.29272975898E+03  0.29625913640E+03  0.00000000000E+00 0.  1.
         14    1    4    4    0    0 -0.85146555566E+01  0.25929738509E+02 -0.43875640051E+02  0.51671292690E+02  0.00000000000E+00 0. -1.
         -5    1    5    5    0  502  0.46023035804E+02 -0.26174104174E+02 -0.25951146058E+02  0.59150279253E+02  0.47000000000E+01 0.  1.
         13    1    6    6    0    0  0.52864041503E+01  0.30533827785E+01 -0.94849869304E+02  0.95046130496E+02  0.00000000000E+00 0. -1.
        -14    1    6    6    0    0 -0.69662146885E+02 -0.72221656905E+02 -0.17526950133E+03  0.20196083910E+03  0.00000000000E+00 0.  1.
</event>
<event>
12    1  0.8494789E-002  0.1816618E+03  0.7818608E-02  0.1166542E+00
         21   -1    0    0  503  502  0.00000000000E+00  0.00000000000E+00  0.27255413256E+03  0.27255413256E+03  0.00000000000E+00 0.  1.
         21   -1    0    0  501  503 -0.00000000000E+00 -0.00000000000E+00 -0.33530088570E+03  0.33530088570E+03  0.00000000000E+00 0.  1.
          6    2    1    2  501    0 -0.49565831301E+02  0.18740979826E+02 -0.27487694956E+03  0.32948193458E+03  0.17376136470E+03 0.  0.
         24    2    3    3    0    0 -0.80696239751E+02  0.56933727469E+02 -0.16277195989E+03  0.20693640423E+03  0.81084104689E+02 0.  0.
         -6    2    1    2    0  502  0.49565831301E+02 -0.18740979826E+02  0.21213019641E+03  0.27837308368E+03  0.17229149001E+03 0.  0.
        -24    2    5    5    0    0  0.18344520303E+02  0.44221660133E+02  0.17913470256E+03  0.20059225760E+03  0.76524084437E+02 0.  0.
          5    1    3    3  501    0  0.31130408450E+02 -0.38192747643E+02 -0.11210498966E+03  0.12254553036E+03  0.47000000000E+01 0. -1.
        -11    1    4    4    0    0 -0.26890825419E+02  0.55657938448E+02 -0.12993638319E+03  0.14389018827E+03  0.00000000000E+00 0.  1.
         12    1    4    4    0    0 -0.53805414332E+02  0.12757890211E+01 -0.32835576706E+02  0.63046215959E+02  0.00000000000E+00 0. -1.
         -5    1    5    5    0  502  0.31221310998E+02 -0.62962639959E+02  0.32995493853E+02  0.77780826080E+02  0.47000000000E+01 0.  1.
         13    1    6    6    0    0  0.26364999153E+02 -0.11496961785E+02  0.31843842614E+02  0.42910646967E+02  0.00000000000E+00 0. -1.
        -14    1    6    6    0    0 -0.80204788506E+01  0.55718621918E+02  0.14729085994E+03  0.15768161063E+03  0.00000000000E+00 0.  1.
</event>
<event>
12    1  0.8494789E-002  0.1927864E+03  0.7818608E-02  0.1157018E+00
         21   -1    0    0  501  502  0.00000000000E+00  0.00000000000E+00  0.21208412372E+03  0.21208412372E+03  0.00000000000E+00 0.  1.
         21   -1    0    0  502  503 -0.00000000000E+00 -0.00000000000E+00 -0.20715127906E+03  0.20715127906E+03  0.00000000000E+00 0.  1.
         -6    2    1    2    0  503  0.74409183396E+02  0.31745719431E+02 -0.85035802253E+02  0.21070761189E+03  0.17499169343E+03 0.  0.
        -24    2    3    3    0    0  0.20588296164E+02 -0.40082563544E+02 -0.79063917743E+02  0.12063129124E+03  0.79185323754E+02 0.  0.
          6    2    1    2  501    0 -0.74409183396E+02 -0.31745719431E+02  0.89968646912E+02  0.20852779089E+03  0.16983805484E+03 0.  0.
         24    2    5    5    0    0  0.17197842178E+02  0.24595969101E+01  0.74682458968E+02  0.10944394588E+03  0.78094124106E+02 0.  0.
          5    1    5    5  501    0 -0.91607025574E+02 -0.34205316341E+02  0.15286187944E+02  0.99083845012E+02  0.47000000000E+01 0. -1.
        -13    1    6    6    0    0 -0.16019109345E+02  0.13816075156E+02  0.71072870155E+02  0.74154222192E+02  0.00000000000E+00 0.  1.
         14    1    6    6    0    0  0.33216951523E+02 -0.11356478246E+02  0.36095888131E+01  0.35289723688E+02  0.00000000000E+00 0. -1.
         -5    1    3    3    0  503  0.53820887232E+02  0.71828282975E+02 -0.59718845096E+01  0.90076320652E+02  0.47000000000E+01 0.  1.
         13    1    4    4    0    0 -0.27962140678E+02 -0.25082328243E+02 -0.48454433125E+02  0.61309351578E+02  0.00000000000E+00 0. -1.
        -14    1    4    4    0    0  0.48550436842E+02 -0.15000235301E+02 -0.30609484618E+02  0.59321939662E+02  0.00000000000E+00 0.  1.
</event>
<event>
12    1  0.8494789E-002  0.2581642E+03  0.7818608E-02  0.1108310E+00
         21   -1    0    0  503  502  0.00000000000E+00  0.00000000000E+00  0.63358825585E+03  0.63358825585E+03  0.00000000000E+00 0.  1.
         21   -1    0    0  501  503 -0.00000000000E+00 -0.00000000000E+00 -0.13856297616E+03  0.13856297616E+03  0.00000000000E+00 0.  1.
          6    2    1    2  501    0 -0.72860675224E+02 -0.17759403016E+03  0.57454824048E+02  0.26409942797E+03  0.17204398712E+03 0.  0.
         24    2    3    3    0    0  0.54049321659E+00 -0.56661705997E+02  0.66356871376E+02  0.12227666885E+03  0.85659256988E+02 0.  0.
         -6    2    1    2    0  502  0.72860675224E+02  0.17759403016E+03  0.43757045564E+03  0.50805180404E+03  0.17262796528E+03 0.  0.
        -24    2    5    5    0    0  0.55332865297E+02  0.28392895953E+02  0.23497247701E+03  0.25578957240E+03  0.79676582950E+02 0.  0.
          5    1    3    3  501    0 -0.73401168441E+02 -0.12093232416E+03 -0.89020473275E+01  0.14182275911E+03  0.47000000000E+01 0. -1.
        -11    1    4    4    0    0  0.13426441561E+02 -0.75766433704E+02  0.38246650267E+02  0.85928040044E+02  0.00000000000E+00 0.  1.
         12    1    4    4    0    0 -0.12885948345E+02  0.19104727707E+02  0.28110221109E+02  0.36348628809E+02  0.00000000000E+00 0. -1.
         -5    1    5    5    0  502  0.17527809927E+02  0.14920113421E+03  0.20259797863E+03  0.25226223165E+03  0.47000000000E+01 0.  1.
         11    1    6    6    0    0 -0.11597807323E+02  0.22447896553E+02  0.25894405409E+02  0.36179240261E+02  0.00000000000E+00 0. -1.
        -12    1    6    6    0    0  0.66930672620E+02  0.59449994003E+01  0.20907807160E+03  0.21961033214E+03  0.00000000000E+00 0.  1.
</event>
<event>
12    1  0.8494789E-002  0.2346589E+03  0.7818608E-02  0.1123434E+00
         21   -1    0    0  503  502  0.00000000000E+00  0.00000000000E+00  0.20562266287E+03  0.20562266287E+03  0.00000000000E+00 0.  1.
         21   -1    0    0  501  503 -0.00000000000E+00 -0.00000000000E+00 -0.34324762405E+03  0.34324762405E+03  0.00000000000E+00 0. -1.
          6    2    1    2  501    0  0.56764466692E+02 -0.14872487488E+03 -0.19763513990E+03  0.30665963138E+03  0.17216035521E+03 0.  0.
         24    2    3    3    0    0 -0.42611600538E+02 -0.70652231273E+02 -0.87880577070E+02  0.13921084972E+03  0.69636043602E+02 0.  0.
         -6    2    1    2    0  502 -0.56764466692E+02  0.14872487488E+03  0.60010178723E+02  0.24221065555E+03  0.17240500869E+03 0.  0.
        -24    2    5    5    0    0 -0.65187695560E+02  0.14678731866E+03  0.96099792474E+02  0.20480403675E+03  0.83147885032E+02 0.  0.
          5    1    3    3  501    0  0.99376067230E+02 -0.78072643612E+02 -0.10975456283E+03  0.16744878166E+03  0.47000000000E+01 0. -1.
        -13    1    4    4    0    0 -0.33688332336E+02 -0.12019610361E+02 -0.67692287451E+02  0.76561220923E+02  0.00000000000E+00 0.  1.
         14    1    4    4    0    0 -0.89232682014E+01 -0.58632620911E+02 -0.20188289620E+02  0.62649628795E+02  0.00000000000E+00 0. -1.
         -5    1    5    5    0  502  0.84232288679E+01  0.19375562245E+01 -0.36089613751E+02  0.37406618791E+02  0.47000000000E+01 0.  1.
         11    1    6    6    0    0 -0.84575244954E+02  0.11108616236E+03  0.81318061880E+02  0.16157269173E+03  0.00000000000E+00 0. -1.
        -12    1    6    6    0    0  0.19387549394E+02  0.35701156304E+02  0.14781730594E+02  0.43231345021E+02  0.00000000000E+00 0.  1.
</event>
<event>
12    1  0.8494789E-002  0.2078299E+03  0.7818608E-02  0.1143987E+00
         21   -1    0    0  501  502  0.00000000000E+00  0.00000000000E+00  0.20613809451E+03  0.20613809451E+03  0.00000000000E+00 0.  1.
         21   -1    0    0  502  503 -0.00000000000E+00 -0.00000000000E+00 -0.22048652380E+03  0.22048652380E+03  0.00000000000E+00 0.  1.
         -6    2    1    2    0  503  0.35425524479E+02  0.10428798044E+03  0.47238221230E+02  0.21313075511E+03  0.17624505264E+03 0.  0.
        -24    2    3    3    0    0  0.55703067965E+02 -0.27242117231E+01  0.32821298984E+02  0.10316382513E+03  0.80344782272E+02 0.  0.
          6    2    1    2  501    0 -0.35425524479E+02 -0.10428798044E+03 -0.61586650519E+02  0.21349386321E+03  0.17220848834E+03 0.  0.
         24    2    5    5    0    0  0.26288914566E+02 -0.93036982904E+01 -0.39789831959E+02  0.98047437789E+02  0.85161044490E+02 0.  0.
          5    1    5    5  501    0 -0.61714439045E+02 -0.94984282151E+02 -0.21796818560E+02  0.11544642542E+03  0.47000000000E+01 0. -1.
        -11    1    6    6    0    0 -0.31136706600E+02 -0.23319422430E+01 -0.88910525045E+01  0.32465108458E+02  0.00000000000E+00 0.  1.
         12    1    6    6    0    0  0.57425621166E+02 -0.69717560474E+01 -0.30898779455E+02  0.65582329331E+02  0.00000000000E+00 0. -1.
         -5    1    3    3    0  503 -0.20277543485E+02  0.10701219216E+03  0.14416922245E+02  0.10996692998E+03  0.47000000000E+01 0.  1.
         13    1    4    4    0    0 -0.16887209868E+02 -0.81304720865E+01 -0.72213914404E+01  0.20085590054E+02  0.00000000000E+00 0. -1.
        -14    1    4    4    0    0  0.72590277833E+02  0.54062603634E+01  0.40042690425E+02  0.83078235076E+02  0.00000000000E+00 0.  1.
</event>
<event>
12    1  0.8494789E-002  0.1994601E+03  0.7818608E-02  0.1150199E+00
         21   -1    0    0  501  502  0.00000000000E+00  0.00000000000E+00  0.24021642270E+03  0.24021642270E+03  0.00000000000E+00 0.  1.
         21   -1    0    0  502  503 -0.00000000000E+00 -0.00000000000E+00 -0.20282879387E+03  0.20282879387E+03  0.00000000000E+00 0.  1.
         -6    2    1    2    0  503 -0.68912886598E+02 -0.72889878161E+02  0.11359548655E+03  0.22952246073E+03  0.17237953805E+03 0.  0.
        -24    2    3    3    0    0  0.16638776995E+02 -0.13919096768E+02  0.12077802437E+02  0.84179520105E+02  0.80434620275E+02 0.  0.
          6    2    1    2  501    0  0.68912886598E+02  0.72889878161E+02 -0.76207857719E+02  0.21352275585E+03  0.17240188343E+03 0.  0.
         24    2    5    5    0    0  0.97015389328E+02  0.70919144197E+02 -0.10024997574E+03  0.17618982279E+03  0.80940010118E+02 0.  0.
          5    1    5    5  501    0 -0.28102502730E+02  0.19707339638E+01  0.24042118019E+02  0.37332933060E+02  0.47000000000E+01 0. -1.
        -13    1    6    6    0    0  0.81252924382E+02  0.43764037586E+02 -0.26475748053E+02  0.96011946868E+02  0.00000000000E+00 0.  1.
         14    1    6    6    0    0  0.15762464946E+02  0.27155106611E+02 -0.73774227685E+02  0.80177875918E+02  0.00000000000E+00 0. -1.
         -5    1    3    3    0  503 -0.85551663593E+02 -0.58970781393E+02  0.10151768411E+03  0.14534294062E+03  0.47000000000E+01 0.  1.
         11    1    4    4    0    0  0.34051875456E+02 -0.21102609023E+02  0.35911785523E+02  0.53800619597E+02  0.00000000000E+00 0. -1.
        -12    1    4    4    0    0 -0.17413098460E+02  0.71835122548E+01 -0.23833983086E+02  0.30378900508E+02  0.00000000000E+00 0.  1.
</event>
<event>
12    1  0.8494789E-002  0.1939981E+03  0.7818608E-02  0.1154966E+00
         21   -1    0    0  501  502  0.00000000000E+00  0.00000000000E+00  0.11796981136E+04  0.11796981136E+04  0.00000000000E+00 0.  1.
         21   -1    0    0  502  503 -0.00000000000E+00 -0.00000000000E+00 -0.41577148132E+02  0.41577148132E+02  0.00000000000E+00 0. -1.
         -6    2    1    2    0  503  0.73639300685E+02  0.51680119799E+02  0.27411102522E+03  0.33581560630E+03  0.17187694989E+03 0.  0.
        -24    2    3    3    0    0  0.11272554701E+03  0.17983466911E+02  0.17378427845E+03  0.22289640871E+03  0.80320480269E+02 0.  0.
          6    2    1    2  501    0 -0.73639300685E+02 -0.51680119799E+02  0.86400994025E+03  0.88545965543E+03  0.17155769628E+03 0.  0.
         24    2    5    5    0    0 -0.26661335475E+02  0.11224982904E+02  0.68280477783E+03  0.68792135016E+03  0.78591299304E+02 0.  0.
          5    1    5    5  501    0 -0.46977965210E+02 -0.62905102703E+02  0.18120516242E+03  0.19753830527E+03  0.47000000000E+01 0. -1.
        -13    1    6    6    0    0  0.10286232609E+02  0.27164334495E+02  0.11217857555E+03  0.11587812763E+03  0.00000000000E+00 0.  1.
         14    1    6    6    0    0 -0.36947568084E+02 -0.15939351591E+02  0.57062620228E+03  0.57204322253E+03  0.00000000000E+00 0. -1.
         -5    1    3    3    0  503 -0.39086246320E+02  0.33696652888E+02  0.10032674677E+03  0.11291919759E+03  0.47000000000E+01 0.  1.
         13    1    4    4    0    0  0.28023313150E+02 -0.17267576553E+02  0.87241606375E+01  0.34052698259E+02  0.00000000000E+00 0. -1.
        -14    1    4    4    0    0  0.84702233856E+02  0.35251043464E+02  0.16506011781E+03  0.18884371045E+03  0.00000000000E+00 0.  1.
</event>
<event>
12    1  0.8494789E-002  0.2157826E+03  0.7818608E-02  0.1137362E+00
         21   -1    0    0  503  502  0.00000000000E+00  0.00000000000E+00  0.20227209036E+03  0.20227209036E+03  0.00000000000E+00 0.  1.
         21   -1    0    0  501  503 -0.00000000000E+00 -0.00000000000E+00 -0.37162602265E+03  0.37162602265E+03  0.00000000000E+00 0.  1.
          6    2    1    2  501    0  0.11150931516E+02 -0.12843285745E+03 -0.26253323119E+03  0.33885663781E+03  0.17111628024E+03 0.  0.
         24    2    3    3    0    0 -0.46104443432E+02 -0.11501560229E+03 -0.22498252826E+03  0.26892562905E+03  0.79684675199E+02 0.  0.
         -6    2    1    2    0  502 -0.11150931516E+02  0.12843285745E+03  0.93179298909E+02  0.23504147520E+03  0.17303979649E+03 0.  0.
        -24    2    5    5    0    0  0.89131261089E+01  0.11342336937E+03  0.11474760749E+01  0.13954384405E+03  0.80789004044E+02 0.  0.
          5    1    3    3  501    0  0.57255374947E+02 -0.13417255159E+02 -0.37550702934E+02  0.69931008767E+02  0.47000000000E+01 0. -1.
        -11    1    4    4    0    0 -0.40130898523E+02 -0.12371488367E+03 -0.22304637760E+03  0.25819672348E+03  0.00000000000E+00 0.  1.
         12    1    4    4    0    0 -0.59735449087E+01  0.86992813757E+01 -0.19361506607E+01  0.10728905564E+02  0.00000000000E+00 0. -1.
         -5    1    5    5    0  502 -0.20064057624E+02  0.15009488086E+02  0.92031822834E+02  0.95497631149E+02  0.47000000000E+01 0.  1.
         13    1    6    6    0    0  0.64631927741E+00 -0.74337891687E+01 -0.15560870627E+02  0.17257451860E+02  0.00000000000E+00 0. -1.
        -14    1    6    6    0    0  0.82668068315E+01  0.12085715854E+03  0.16708346702E+02  0.12228639219E+03  0.00000000000E+00 0.  1.
</event>
<event>
12    1  0.8494789E-002  0.2040285E+03  0.7818608E-02  0.1146661E+00
         21   -1    0    0  503  502  0.00000000000E+00  0.00000000000E+00  0.44094253158E+03  0.44094253158E+03  0.00000000000E+00 0.  1.
         21   -1    0    0  501  503 -0.00000000000E+00 -0.00000000000E+00 -0.10381302587E+03  0.10381302587E+03  0.00000000000E+00 0. -1.
          6    2    1    2  501    0 -0.98417726269E+02 -0.43838157441E+02  0.83404360975E+02  0.21917289499E+03  0.17167596680E+03 0.  0.
         24    2    3    3    0    0  0.12202432159E+02 -0.38676819625E+02  0.58374917290E+02  0.10554181689E+03  0.78016975181E+02 0.  0.
         -6    2    1    2    0  502  0.98417726269E+02  0.43838157441E+02  0.25372514474E+03  0.32558266247E+03  0.17326219476E+03 0.  0.
        -24    2    5    5    0    0  0.47498956996E+02  0.21240253498E+02  0.48771904980E+02  0.11314136042E+03  0.87834898749E+02 0.  0.
          5    1    3    3  501    0 -0.11062015843E+03 -0.51613378161E+01  0.25029443684E+02  0.11363107810E+03  0.47000000000E+01 0. -1.
        -11    1    4    4    0    0 -0.15082835067E+02  0.12521341842E+02  0.40236074739E+02  0.44757319241E+02  0.00000000000E+00 0.  1.
         12    1    4    4    0    0  0.27285267226E+02 -0.51198161466E+02  0.18138842551E+02  0.60784497647E+02  0.00000000000E+00 0. -1.
         -5    1    5    5    0  502  0.50918769274E+02  0.22597903943E+02  0.20495323976E+03  0.21244130204E+03  0.47000000000E+01 0.  1.
         13    1    6    6    0    0  0.22028937866E+02  0.53791151339E+02  0.15708093599E+02  0.60212177094E+02  0.00000000000E+00 0. -1.
        -14    1    6    6    0    0  0.25470019130E+02 -0.32550897841E+02  0.33063811380E+02  0.52929183327E+02  0.00000000000E+00 0.  1.
</event>
<event>
12    1  0.8494789E-002  0.2327047E+03  0.7818608E-02  0.1125160E+00
         21   -1    0    0  501  502  0.00000000000E+00  0.00000000000E+00  0.14131486165E+03  0.14131486165E+03  0.00000000000E+00 0. -1.
         21   -1    0    0  502  503 -0.00000000000E+00 -0.00000000000E+00 -0.60394559249E+03  0.60394559249E+03  0.00000000000E+00 0.  1.
         -6    2    1    2    0  503  0.14846438033E+03  0.48806378723E+02 -0.45929735794E+03  0.51488402218E+03  0.17241739603E+03 0.  0.
        -24    2    3    3    0    0  0.53847408366E+02 -0.19106082529E+02 -0.11448217288E+03  0.15090040218E+03  0.80001110585E+02 0.  0.
          6    2    1    2  501    0 -0.14846438033E+03 -0.48806378723E+02 -0.33333728958E+01  0.23037643196E+03  0.16922899928E+03 0.  0.
         24    2    5    5    0    0 -0.25906069023E+02 -0.60964405858E+02 -0.24036871022E+01  0.10712339301E+03  0.84153790318E+02 0.  0.
          5    1    5    5  501    0 -0.12255831131E+03  0.12158027135E+02 -0.92968579362E+00  0.12325303895E+03  0.47000000000E+01 0. -1.
        -13    1    6    6    0    0 -0.74697770109E+01 -0.41647063397E+01 -0.37090300672E+02  0.38063535718E+02  0.00000000000E+00 0.  1.
         14    1    6    6    0    0 -0.18436292012E+02 -0.56799699518E+02  0.34686613569E+02  0.69059857294E+02  0.00000000000E+00 0. -1.
         -5    1    3    3    0  503  0.94616971966E+02  0.67912461251E+02 -0.34481518506E+03  0.36398362000E+03  0.47000000000E+01 0.  1.
         11    1    4    4    0    0  0.40503915248E+01  0.28394656928E+02 -0.42877798182E+02  0.51586507834E+02  0.00000000000E+00 0. -1.
        -12    1    4    4    0    0  0.49797016841E+02 -0.47500739457E+02 -0.71604374698E+02  0.99313894351E+02  0.00000000000E+00 0.  1.
</event>
<event>
12    1  0.8494789E-002  0.1782599E+03  0.7818608E-02  0.1169574E+00
         21   -1    0    0  501  502  0.00000000000E+00  0.00000000000E+00  0.71042951469E+02  0.71042951469E+02  0.00000000000E+00 0. -1.
         21   -1    0    0  502  503 -0.00000000000E+00 -0.00000000000E+00 -0.64733830956E+03  0.64733830956E+03  0.00000000000E+00 0.  1.
         -6    2    1    2    0  503 -0.33417066429E+02 -0.30524936628E+02 -0.48838848737E+03  0.51990374026E+03  0.17241842261E+03 0.  0.
        -24    2    3    3    0    0  0.47494043504E+02 -0.28930907221E+02 -0.23231383770E+03  0.25130466199E+03  0.78048910264E+02 0.  0.
          6    2    1    2  501    0  0.33417066429E+02  0.30524936628E+02 -0.87906870722E+02  0.19847752077E+03  0.17209658987E+03 0.  0.
         24    2    5    5    0    0  0.31592236392E+02  0.19869201492E+02 -0.12771592016E+03  0.15695975213E+03  0.83259551750E+02 0.  0.
          5    1    5    5  501    0  0.18248300370E+01  0.10655735136E+02  0.39809049437E+02  0.41517768643E+02  0.47000000000E+01 0. -1.
        -13    1    6    6    0    0  0.42337477807E+02  0.18819757605E+02 -0.23068962145E+02  0.51757340714E+02  0.00000000000E+00 0.  1.
         14    1    6    6    0    0 -0.10745241415E+02  0.10494438870E+01 -0.10464695801E+03  0.10520241141E+03  0.00000000000E+00 0. -1.
         -5    1    3    3    0  503 -0.80911109933E+02 -0.15940294073E+01 -0.25607464967E+03  0.26859907827E+03  0.47000000000E+01 0.  1.
         13    1    4    4    0    0  0.13921416864E+02  0.18977440954E+02 -0.19402501479E+02  0.30502560160E+02  0.00000000000E+00 0. -1.
        -14    1    4    4    0    0  0.33572626640E+02 -0.47908348175E+02 -0.21291133622E+03  0.22080210183E+03  0.00000000000E+00 0.  1.
</event>
<event>
12    1  0.8494789E-002  0.1722680E+03  0.7818608E-02  0.1175652E+00
         21   -1    0    0  501  502  0.00000000000E+00  0.00000000000E+00  0.96811856425E+02  0.96811856425E+02  0.00000000000E+00 0. -1.
         21   -1    0    0  502  503 -0.00000000000E+00 -0.00000000000E+00 -0.34500704363E+03  0.34500704363E+03  0.00000000000E+00 0. -1.
         -6    2    1    2    0  503  0.87986246348E+01  0.37710524958E+01 -0.19903197855E+03  0.26322989200E+03  0.17200177593E+03 0.  0.
        -24    2    3    3    0    0 -0.60655283626E+01 -0.28912585160E+02 -0.20874105794E+03  0.22573963410E+03  0.80702075056E+02 0.  0.
          6    2    1    2  501    0 -0.87986246348E+01 -0.37710524958E+01 -0.49163208656E+02  0.17858900805E+03  0.17142163247E+03 0.  0.
         24    2    5    5    0    0  0.56136248497E+02  0.23462760700E+02 -0.15177268894E+02  0.10026051751E+03  0.78230699503E+02 0.  0.
          5    1    5    5  501    0 -0.64934873132E+02 -0.27233813196E+02 -0.33985939762E+02  0.78328490547E+02  0.47000000000E+01 0. -1.
        -11    1    6    6    0    0  0.55297234248E+02  0.41853973833E+01 -0.40322283372E+02  0.68565211318E+02  0.00000000000E+00 0.  1.
         12    1    6    6    0    0  0.83901424877E+00  0.19277363317E+02  0.25145014478E+02  0.31695306190E+02  0.00000000000E+00 0. -1.
         -5    1    3    3    0  503  0.14864152997E+02  0.32683637656E+02  0.97090793926E+01  0.37490257900E+02  0.47000000000E+01 0.  1.
         13    1    4    4    0    0 -0.13050432845E+02 -0.15356230834E+02 -0.20950351813E+03  0.21047054838E+03  0.00000000000E+00 0. -1.
        -14    1    4    4    0    0  0.69849044822E+01 -0.13556354326E+02  0.76246019591E+00  0.15269085722E+02  0.00000000000E+00 0.  1.
</event>
<event>
12    1  0.8494789E-002  0.3121867E+03  0.7818608E-02  0.1079319E+00
         21   -1    0    0  503  502  0.00000000000E+00  0.00000000000E+00  0.25678043442E+03  0.25678043442E+03  0.00000000000E+00 0. -1.
         21   -1    0    0  501  503 -0.00000000000E+00 -0.00000000000E+00 -0.48103619326E+03  0.48103619326E+03  0.00000000000E+00 0.  1.
          6    2    1    2  501    0  0.14052864841E+03  0.21877238646E+03 -0.28170010316E+03  0.42038883919E+03  0.17251715826E+03 0.  0.
         24    2    3    3    0    0  0.57031914278E+02  0.81230418146E+02 -0.20681983468E+03  0.24285393483E+03  0.79703008518E+02 0.  0.
         -6    2    1    2    0  502 -0.14052864841E+03 -0.21877238646E+03  0.57444344312E+02  0.31742778849E+03  0.17277410138E+03 0.  0.
        -24    2    5    5    0    0 -0.14319045839E+03 -0.14745102352E+03 -0.13423391282E+01  0.22484384715E+03  0.91146267142E+02 0.  0.
          5    1    3    3  501    0  0.83496734135E+02  0.13754196832E+03 -0.74880268476E+02  0.17753490436E+03  0.47000000000E+01 0. -1.
        -11    1    4    4    0    0 -0.43091722638E+01  0.62838181832E+02 -0.94673916600E+02  0.11371172563E+03  0.00000000000E+00 0.  1.
         12    1    4    4    0    0  0.61341086542E+02  0.18392236314E+02 -0.11214591808E+03  0.12914220920E+03  0.00000000000E+00 0. -1.
         -5    1    5    5    0  502  0.26618099802E+01 -0.71321362944E+02  0.58786683440E+02  0.92583941342E+02  0.47000000000E+01 0.  1.
         13    1    6    6    0    0 -0.44622374800E+02 -0.20927236989E+02 -0.35651127205E+02  0.60828516764E+02  0.00000000000E+00 0. -1.
        -14    1    6    6    0    0 -0.98568083594E+02 -0.12652378653E+03  0.34308788077E+02  0.16401533038E+03  0.00000000000E+00 0.  1.
</event>
<event>
12    1  0.8494789E-002  0.1960608E+03  0.7818608E-02  0.1153521E+00
         21   -1    0    0  501  502  0.00000000000E+00  0.00000000000E+00  0.34186194434E+03  0.34186194434E+03  0.00000000000E+00 0.  1.
         21   -1    0    0  502  503 -0.00000000000E+00 -0.00000000000E+00 -0.14745887810E+03  0.14745887810E+03  0.00000000000E+00 0. -1.
         -6    2    1    2    0  503  0.45464898757E+02 -0.79992697997E+02 -0.24226938668E+02  0.19565618976E+03  0.17096347938E+03 0.  0.
        -24    2    3    3    0    0  0.60777083864E+02 -0.89732220987E+02 -0.62333035375E+02  0.15318872072E+03  0.88519215141E+02 0.  0.
          6    2    1    2  501    0 -0.45464898757E+02  0.79992697997E+02  0.21863000491E+03  0.29366463267E+03  0.17312986075E+03 0.  0.
         24    2    5    5    0    0  0.21140549092E+02  0.14470353038E+02  0.16626522899E+03  0.18645631616E+03  0.80408441920E+02 0.  0.
          5    1    5    5  501    0 -0.66605447849E+02  0.65522344960E+02  0.52364775914E+02  0.10720831651E+03  0.47000000000E+01 0. -1.
        -13    1    6    6    0    0  0.39795089604E+02  0.23286412057E+02  0.48583675999E+02  0.66979696301E+02  0.00000000000E+00 0.  1.
         14    1    6    6    0    0 -0.18654540512E+02 -0.88160590196E+01  0.11768155299E+03  0.11947661986E+03  0.00000000000E+00 0. -1.
         -5    1    3    3    0  503 -0.15312185107E+02  0.97395229894E+01  0.38106096707E+02  0.42467469045E+02  0.47000000000E+01 0.  1.
         11    1    4    4    0    0  0.21937975596E+01 -0.43033079281E+02 -0.65272634704E+02  0.78212374350E+02  0.00000000000E+00 0. -1.
        -12    1    4    4    0    0  0.58583286304E+02 -0.46699141706E+02  0.29395993291E+01  0.74976346366E+02  0.00000000000E+00 0.  1.
</event>
<event>
12    1  0.8494789E-002  0.3058908E+03  0.7818608E-02  0.1082667E+00
         21   -1    0    0  501  502  0.00000000000E+00  0.00000000000E+00  0.14406800026E+04  0.14406800026E+04  0.00000000000E+00 0.  1.
         21   -1    0    0  502  503 -0.00000000000E+00 -0.00000000000E+00 -0.69674561126E+02  0.69674561126E+02  0.00000000000E+00 0. -1.
         -6    2    1    2    0  503 -0.20841021991E+03 -0.14535662089E+03  0.47427930212E+03  0.56289114777E+03  0.16535483307E+03 0.  0.
        -24    2    3    3    0    0 -0.14545955377E+03 -0.25907457819E+02  0.27321524943E+03  0.32065214965E+03  0.79633852106E+02 0.  0.
          6    2    1    2  501    0  0.20841021991E+03  0.14535662089E+03  0.89672613932E+03  0.94746341593E+03  0.17031085864E+03 0.  0.
         24    2    5    5    0    0  0.22116464766E+03  0.11297514321E+03  0.84972048478E+03  0.88878755135E+03  0.79001422952E+02 0.  0.
          5    1    5    5  501    0 -0.12754427753E+02  0.32381477682E+02  0.47005654542E+02  0.58675864570E+02  0.47000000000E+01 0. -1.
        -13    1    6    6    0    0  0.13364106395E+03  0.24199044999E+02  0.45712539368E+03  0.47687435799E+03  0.00000000000E+00 0.  1.
         14    1    6    6    0    0  0.87523583712E+02  0.88776098208E+02  0.39259509110E+03  0.41191319337E+03  0.00000000000E+00 0. -1.
         -5    1    3    3    0  503 -0.62950666143E+02 -0.11944916307E+03  0.20106405269E+03  0.24223899812E+03  0.47000000000E+01 0.  1.
         13    1    4    4    0    0 -0.11176641874E+03 -0.43174672987E+02  0.24722711612E+03  0.27473083499E+03  0.00000000000E+00 0. -1.
        -14    1    4    4    0    0 -0.33693135029E+02  0.17267215169E+02  0.25988133308E+02  0.45921314666E+02  0.00000000000E+00 0.  1.
</event>
<event>
12    1  0.8494789E-002  0.2650597E+03  0.7818608E-02  0.1104152E+00
         21   -1    0    0  501  502  0.00000000000E+00  0.00000000000E+00  0.11241812959E+03  0.11241812959E+03  0.00000000000E+00 0. -1.
         21   -1    0    0  502  503 -0.00000000000E+00 -0.00000000000E+00 -0.10763548730E+04  0.10763548730E+04  0.00000000000E+00 0. -1.
         -6    2    1    2    0  503  0.18491896225E+03 -0.79998741026E+02 -0.86700362921E+03  0.90661566087E+03  0.17222613716E+03 0.  0.
        -24    2    3    3    0    0  0.37225076015E+02  0.13582219050E+02 -0.31693155537E+03  0.32940490514E+03  0.80571693434E+02 0.  0.
          6    2    1    2  501    0 -0.18491896225E+03  0.79998741026E+02 -0.96933114179E+02  0.28215734170E+03  0.17211018472E+03 0.  0.
         24    2    5    5    0    0 -0.18937087876E+03  0.67554924806E+02 -0.36014836128E+02  0.21964498513E+03  0.80757993314E+02 0.  0.
          5    1    5    5  501    0  0.44519165131E+01  0.12443816220E+02 -0.60918278051E+02  0.62512356566E+02  0.47000000000E+01 0. -1.
        -13    1    6    6    0    0  0.66127459466E+01  0.86511565596E+01 -0.70230509010E+01  0.12957397992E+02  0.00000000000E+00 0.  1.
         14    1    6    6    0    0 -0.19598362471E+03  0.58903768246E+02 -0.28991785227E+02  0.20668758714E+03  0.00000000000E+00 0. -1.
         -5    1    3    3    0  503  0.14769388623E+03 -0.93580960076E+02 -0.55007207384E+03  0.57721075573E+03  0.47000000000E+01 0.  1.
         11    1    4    4    0    0  0.50265628836E+02 -0.16227747482E+02 -0.14271653073E+03  0.15217746671E+03  0.00000000000E+00 0. -1.
        -12    1    4    4    0    0 -0.13040552820E+02  0.29809966532E+02 -0.17421502464E+03  0.17722743843E+03  0.00000000000E+00 0.  1.
</event>
<event>
12    1  0.8494789E-002  0.2553320E+03  0.7818608E-02  0.1110140E+00
         21   -1    0    0  503  502  0.00000000000E+00  0.00000000000E+00  0.67929108082E+03  0.67929108082E+03  0.00000000000E+00 0. -1.
         21   -1    0    0  501  503 -0.00000000000E+00 -0.00000000000E+00 -0.10507895805E+03  0.10507895805E+03  0.00000000000E+00 0.  1.
          6    2    1    2  501    0  0.25252418501E+02 -0.18546849945E+03  0.16869839855E+03  0.30516674742E+03  0.17213757617E+03 0.  0.
         24    2    3    3    0    0 -0.49050073484E+02 -0.72638123461E+02  0.78621009689E+02  0.14272420360E+03  0.80664294696E+02 0.  0.
         -6    2    1    2    0  502 -0.25252418501E+02  0.18546849945E+03  0.40551372423E+03  0.47920329145E+03  0.17366106379E+03 0.  0.
        -24    2    5    5    0    0 -0.15746694291E+02  0.12615539824E+02  0.10161378590E+03  0.12942369377E+03  0.77575903457E+02 0.  0.
          5    1    3    3  501    0  0.74302491985E+02 -0.11283037598E+03  0.90077388859E+02  0.16244254382E+03  0.47000000000E+01 0. -1.
        -13    1    4    4    0    0 -0.56044324038E+02 -0.67546451768E+02  0.91769550350E+02  0.12698480135E+03  0.00000000000E+00 0.  1.
         14    1    4    4    0    0  0.69942505542E+01 -0.50916716931E+01 -0.13148540661E+02  0.15739402242E+02  0.00000000000E+00 0. -1.
         -5    1    5    5    0  502 -0.95057242109E+01  0.17285295962E+03  0.30389993833E+03  0.34977959769E+03  0.47000000000E+01 0.  1.
         13    1    6    6    0    0 -0.17821085286E+02 -0.17952063477E+02  0.94693557051E+02  0.98013965387E+02  0.00000000000E+00 0. -1.
        -14    1    6    6    0    0  0.20743909959E+01  0.30567603301E+02  0.69202288491E+01  0.31409728380E+02  0.00000000000E+00 0.  1.
</event>
<event>
12    1  0.8494789E-002  0.2337975E+03  0.7818608E-02  0.1124195E+00
         21   -1    0    0  501  502  0.00000000000E+00  0.00000000000E+00  0.57680009886E+03  0.57680009886E+03  0.00000000000E+00 0. -1.
         21   -1    0    0  502  503 -0.00000000000E+00 -0.00000000000E+00 -0.12182820497E+03  0.12182820497E+03  0.00000000000E+00 0.  1.
         -6    2    1    2    0  503 -0.11172501346E+03  0.11082123564E+03  0.61868533618E+02  0.24184498291E+03  0.17290880662E+03 0.  0.
        -24    2    3    3    0    0 -0.64500566955E+02  0.11001652692E+03  0.10083697398E+03  0.18043305209E+03  0.78256192295E+02 0.  0.
          6    2    1    2  501    0  0.11172501346E+03 -0.11082123564E+03  0.39310336027E+03  0.45678332091E+03  0.17133862819E+03 0.  0.
         24    2    5    5    0    0  0.10142593684E+02 -0.57229413306E+02  0.97321196588E+02  0.13945029430E+03  0.81221249197E+02 0.  0.
          5    1    5    5  501    0  0.10158241977E+03 -0.53591822335E+02  0.29578216368E+03  0.31733302661E+03  0.47000000000E+01 0. -1.
        -13    1    6    6    0    0 -0.11209113534E+02 -0.64024187249E+02  0.97336731266E+02  0.11704349633E+03  0.00000000000E+00 0.  1.
         14    1    6    6    0    0  0.21351707218E+02  0.67947739425E+01 -0.15534678165E-01  0.22406797972E+02  0.00000000000E+00 0. -1.
         -5    1    3    3    0  503 -0.47224446503E+02  0.80470871870E+00 -0.38968440358E+02  0.61411930824E+02  0.47000000000E+01 0.  1.
         13    1    4    4    0    0 -0.75701410480E+02  0.55232358942E+02  0.63191181543E+02  0.11302407906E+03  0.00000000000E+00 0. -1.
        -14    1    4    4    0    0  0.11200843524E+02  0.54784167981E+02  0.37645792433E+02  0.67408973029E+02  0.00000000000E+00 0.  1.
</event>
<event>
12    1  0.8494789E-002  0.1931220E+03  0.7818608E-02  0.1155815E+00
         21   -1    0    0  501  502  0.00000000000E+00  0.00000000000E+00  0.11530856701E+03  0.11530856701E+03  0.00000000000E+00 0. -1.
         21   -1    0    0  502  503 -0.00000000000E+00 -0.00000000000E+00 -0.64974623609E+03  0.64974623609E+03  0.00000000000E+00 0. -1.
         -6    2    1    2    0  503 -0.72425928025E+01 -0.80343379433E+02 -0.53895752807E+03  0.57251315903E+03  0.17546676732E+03 0.  0.
        -24    2    3    3    0    0 -0.14788525756E+02 -0.10446000194E+03 -0.52767890505E+03  0.54444449461E+03  0.82729610028E+02 0.  0.
          6    2    1    2  501    0  0.72425928025E+01  0.80343379433E+02  0.45198589879E+01  0.19254164408E+03  0.17476939609E+03 0.  0.
         24    2    5    5    0    0 -0.20032570445E+01  0.12139559912E+03 -0.15693001904E+02  0.14562234926E+03  0.78858694965E+02 0.  0.
          5    1    5    5  501    0  0.92458498469E+01 -0.41052219687E+02  0.20212860891E+02  0.46919294816E+02  0.47000000000E+01 0. -1.
        -13    1    6    6    0    0  0.22835064837E+02  0.38316046466E+02 -0.35106263857E+02  0.56762746277E+02  0.00000000000E+00 0.  1.
         14    1    6    6    0    0 -0.24838321882E+02  0.83079552654E+02  0.19413261953E+02  0.88859602986E+02  0.00000000000E+00 0. -1.
         -5    1    3    3    0  503  0.75459329533E+01  0.24116622506E+02 -0.11278623017E+02  0.28068664421E+02  0.47000000000E+01 0.  1.
         11    1    4    4    0    0 -0.77282210742E+01 -0.11823527453E+03 -0.45955813300E+03  0.47458717129E+03  0.00000000000E+00 0. -1.
        -12    1    4    4    0    0 -0.70603046815E+01  0.13775272586E+02 -0.68120772048E+02  0.69857323320E+02  0.00000000000E+00 0.  1.
</event>
<event>
12    1  0.8494789E-002  0.1983374E+03  0.7818608E-02  0.1151761E+00
         21   -1    0    0  501  502  0.00000000000E+00  0.00000000000E+00  0.63952564065E+03  0.63952564065E+03  0.00000000000E+00 0.  1.
         21   -1    0    0  502  503 -0.00000000000E+00 -0.00000000000E+00 -0.12891606456E+03  0.12891606456E+03  0.00000000000E+00 0.  1.
         -6    2    1    2    0  503  0.30984928588E+02 -0.88454217877E+02 -0.23457329318E+02  0.19971976148E+03  0.17479565889E+03 0.  0.
        -24    2    3    3    0    0 -0.18697289369E+02 -0.66698599468E+01  0.38432692072E+02  0.85660703400E+02  0.73936517538E+02 0.  0.
          6    2    1    2  501    0 -0.30984928588E+02  0.88454217877E+02  0.53406690540E+03  0.56872194373E+03  0.17156041319E+03 0.  0.
         24    2    5    5    0    0 -0.37805767586E+02  0.10177122445E+03  0.24703059238E+03  0.28125750853E+03  0.79341126446E+02 0.  0.
          5    1    5    5  501    0  0.68208389986E+01 -0.13317006577E+02  0.28703631303E+03  0.28746443520E+03  0.47000000000E+01 0. -1.
        -11    1    6    6    0    0  0.48338251192E+01  0.60839325198E+02  0.61929528893E+02  0.86948581960E+02  0.00000000000E+00 0.  1.
         12    1    6    6    0    0 -0.42639592705E+02  0.40931899255E+02  0.18510106348E+03  0.19430892657E+03  0.00000000000E+00 0. -1.
         -5    1    3    3    0  503  0.49682217957E+02 -0.81784357930E+02 -0.61890021390E+02  0.11405905808E+03  0.47000000000E+01 0.  1.
         11    1    4    4    0    0 -0.35467149163E+02  0.35437959663E+01  0.51093179492E+02  0.62297593455E+02  0.00000000000E+00 0. -1.
        -12    1    4    4    0    0  0.16769859793E+02 -0.10213655913E+02 -0.12660487420E+02  0.23363109945E+02  0.00000000000E+00 0.  1.
</event>
<event>
12    1  0.8494789E-002  0.1917293E+03  0.7818608E-02  0.1158078E+00
         21   -1    0    0  503  502  0.00000000000E+00  0.00000000000E+00  0.17757328427E+03  0.17757328427E+03  0.00000000000E+00 0. -1.
         21   -1    0    0  501  503 -0.00000000000E+00 -0.00000000000E+00 -0.30334018626E+03  0.30334018626E+03  0.00000000000E+00 0. -1.
          6    2    1    2  501    0 -0.47013242474E+02 -0.67868366256E+02 -0.20164562073E+03  0.27471529310E+03  0.16730563588E+03 0.  0.
         24    2    3    3    0    0 -0.89149305860E+02 -0.36370160487E+02 -0.10152544735E+03  0.16151757261E+03  0.80685330112E+02 0.  0.
         -6    2    1    2    0  502  0.47013242474E+02  0.67868366256E+02  0.75878718745E+02  0.20619817743E+03  0.17304261993E+03 0.  0.
        -24    2    5    5    0    0  0.35124600697E+02 -0.30486735698E+02  0.34589898269E+02  0.98764837262E+02  0.79967827215E+02 0.  0.
          5    1    3    3  501    0  0.42136063386E+02 -0.31498205769E+02 -0.10012017338E+03  0.11319772048E+03  0.47000000000E+01 0. -1.
        -13    1    4    4    0    0 -0.21328942134E+02  0.24025145015E+02 -0.42222834281E+02  0.53055622702E+02  0.00000000000E+00 0.  1.
         14    1    4    4    0    0 -0.67820363726E+02 -0.60395305502E+02 -0.59302613066E+02  0.10846194991E+03  0.00000000000E+00 0. -1.
         -5    1    5    5    0  502  0.11888641777E+02  0.98355101954E+02  0.41288820475E+02  0.10743334017E+03  0.47000000000E+01 0.  1.
         13    1    6    6    0    0  0.82493613545E+01  0.27304605142E+02  0.14093839004E+02  0.31815557870E+02  0.00000000000E+00 0. -1.
        -14    1    6    6    0    0  0.26875239342E+02 -0.57791340840E+02  0.20496059266E+02  0.66949279392E+02  0.00000000000E+00 0.  1.
</event>
<event>
12    1  0.8494789E-002  0.2154144E+03  0.7818608E-02  0.1137577E+00
         21   -1    0    0  503  502  0.00000000000E+00  0.00000000000E+00  0.19375293716E+03  0.19375293716E+03  0.00000000000E+00 0.  1.
         21   -1    0    0  501  503 -0.00000000000E+00 -0.00000000000E+00 -0.53605506607E+03  0.53605506607E+03  0.00000000000E+00 0.  1.
          6    2    1    2  501    0 -0.32382078208E+02 -0.12455441430E+03 -0.44337585014E+03  0.49293558625E+03  0.17274532293E+03 0.  0.
         24    2    3    3    0    0 -0.89593221525E+02 -0.85937842440E+02 -0.31600243243E+03  0.34798582916E+03  0.76317376054E+02 0.  0.
         -6    2    1    2    0  502  0.32382078208E+02  0.12455441430E+03  0.10107372122E+03  0.23687241698E+03  0.17126074768E+03 0.  0.
        -24    2    5    5    0    0  0.22598737268E+02  0.10281316596E+03  0.13946471369E+03  0.19143725502E+03  0.78208479243E+02 0.  0.
          5    1    3    3  501    0  0.57211143317E+02 -0.38616571857E+02 -0.12737341771E+03  0.14494975709E+03  0.47000000000E+01 0. -1.
        -11    1    4    4    0    0 -0.54194087065E+02 -0.94354162248E+02 -0.22335542201E+03  0.24844989746E+03  0.00000000000E+00 0.  1.
         12    1    4    4    0    0 -0.35399134460E+02  0.84163198085E+01 -0.92647010418E+02  0.99535931698E+02  0.00000000000E+00 0. -1.
         -5    1    5    5    0  502  0.97833409398E+01  0.21741248339E+02 -0.38390992473E+02  0.45435161960E+02  0.47000000000E+01 0.  1.
         11    1    6    6    0    0 -0.69041662834E+01 -0.62818348777E+01 -0.28015756009E+01  0.97456547932E+01  0.00000000000E+00 0. -1.
        -12    1    6    6    0    0  0.29502903551E+02  0.10909500084E+03  0.14226628929E+03  0.18169160023E+03  0.00000000000E+00 0.  1.
</event>
<event>
12    1  0.8494789E-002  0.1754337E+03  0.7818608E-02  0.1172313E+00
         21   -1    0    0  501  502  0.00000000000E+00  0.00000000000E+00  0.29636542160E+03  0.29636542160E+03  0.00000000000E+00 0. -1.
         21   -1    0    0  502  503 -0.00000000000E+00 -0.00000000000E+00 -0.10499897861E+03  0.10499897861E+03  0.00000000000E+00 0. -1.
         -6    2    1    2    0  503 -0.17943079242E+01  0.33818167831E+02  0.11702194797E+03  0.21082807356E+03  0.17206816172E+03 0.  0.
        -24    2    3    3    0    0 -0.42216737005E+02 -0.26668254664E+02  0.92244639382E+02  0.13383076776E+03  0.83115294710E+02 0.  0.
          6    2    1    2  501    0  0.17943079242E+01 -0.33818167831E+02  0.74344495017E+02  0.19053632665E+03  0.17213395894E+03 0.  0.
         24    2    5    5    0    0  0.15039820601E+02 -0.80639819336E+02  0.16569745017E+02  0.11485460896E+03  0.78664147378E+02 0.  0.
          5    1    5    5  501    0 -0.13245512676E+02  0.46821651506E+02  0.57774750000E+02  0.75681717695E+02  0.47000000000E+01 0. -1.
        -11    1    6    6    0    0 -0.19116490088E+02 -0.25249831752E+02 -0.22594398305E+02  0.38903740586E+02  0.00000000000E+00 0.  1.
         12    1    6    6    0    0  0.34156310689E+02 -0.55389987584E+02  0.39164143322E+02  0.75950868373E+02  0.00000000000E+00 0. -1.
         -5    1    3    3    0  503  0.40422429080E+02  0.60486422495E+02  0.24777308588E+02  0.76997305796E+02  0.47000000000E+01 0.  1.
         11    1    4    4    0    0 -0.44536082494E+02 -0.78002529202E+01  0.10264482449E+03  0.11216178754E+03  0.00000000000E+00 0. -1.
        -12    1    4    4    0    0  0.23193454890E+01 -0.18868001744E+02 -0.10400185112E+02  0.21668980218E+02  0.00000000000E+00 0.  1.
</event>
<event>
12    1  0.8494789E-002  0.5101521E+03  0.7818608E-02  0.1011206E+00
         21   -1    0    0  501  502  0.00000000000E+00  0.00000000000E+00  0.57360394680E+03  0.57360394680E+03  0.00000000000E+00 0.  1.
         21   -1    0    0  502  503 -0.00000000000E+00 -0.00000000000E+00 -0.56505693156E+03  0.56505693156E+03  0.00000000000E+00 0. -1.
         -6    2    1    2    0  503  0.21665952985E+03  0.42808735528E+03 -0.24913671269E+03  0.56712253914E+03  0.17134391490E+03 0.  0.
        -24    2    3    3    0    0  0.14633315200E+03  0.30958030089E+03 -0.24620990065E+03  0.42920815415E+03  0.79667875165E+02 0.  0.
          6    2    1    2  501    0 -0.21665952985E+03 -0.42808735528E+03  0.25768372794E+03  0.57153833922E+03  0.17336387723E+03 0.  0.
         24    2    5    5    0    0 -0.22132819618E+03 -0.39558029329E+03  0.27278261706E+03  0.53508875791E+03  0.80247640566E+02 0.  0.
          5    1    5    5  501    0  0.46686663284E+01 -0.32507061989E+02 -0.15098889120E+02  0.36449581302E+02  0.47000000000E+01 0. -1.
        -11    1    6    6    0    0 -0.20011464760E+02 -0.96805121261E+02  0.43159336228E+02  0.10786296180E+03  0.00000000000E+00 0.  1.
         12    1    6    6    0    0 -0.20131673141E+03 -0.29877517203E+03  0.22962328083E+03  0.42722579612E+03  0.00000000000E+00 0. -1.
         -5    1    3    3    0  503  0.70326377842E+02  0.11850705439E+03 -0.29268120390E+01  0.13791438500E+03  0.47000000000E+01 0.  1.
         13    1    4    4    0    0  0.11740901293E+03  0.15658376735E+03 -0.13089325013E+03  0.23544934794E+03  0.00000000000E+00 0. -1.
        -14    1    4    4    0    0  0.28924139075E+02  0.15299653354E+03 -0.11531665053E+03  0.19375880621E+03  0.00000000000E+00 0.  1.
</event>
<event>
12    1  0.8494789E-002  0.2083938E+03  0.7818608E-02  0.1143059E+00
         21   -1    0    0  501  502  0.00000000000E+00  0.00000000000E+00  0.16576641017E+03  0.16576641017E+03  0.00000000000E+00 0. -1.
         21   -1    0    0  502  503 -0.00000000000E+00 -0.00000000000E+00 -0.27413014842E+03  0.27413014842E+03  0.00000000000E+00 0.  1.
         -6    2    1    2    0  503 -0.62644422532E+02 -0.97679625614E+02 -0.10284085000E+03  0.23142954277E+03  0.17180733367E+03 0.  0.
        -24    2    3    3    0    0 -0.46566212871E+02 -0.40451115058E+02  0.14842873070E+02  0.99500926003E+02  0.76651278553E+02 0.  0.
          6    2    1    2  501    0  0.62644422532E+02  0.97679625614E+02 -0.55228882540E+01  0.20846701583E+03  0.17309639354E+03 0.  0.
         24    2    5    5    0    0  0.72584250861E+02  0.13119104718E+03 -0.18919105646E+02  0.17073951653E+03  0.79463737712E+02 0.  0.
          5    1    5    5  501    0 -0.99398283290E+01 -0.33511421570E+02  0.13396217392E+02  0.37727499298E+02  0.47000000000E+01 0. -1.
        -13    1    6    6    0    0  0.55119820569E+02  0.70142630380E+02  0.26046363902E+02  0.92933289453E+02  0.00000000000E+00 0.  1.
         14    1    6    6    0    0  0.17464430292E+02  0.61048416805E+02 -0.44965469548E+02  0.77806227074E+02  0.00000000000E+00 0. -1.
         -5    1    3    3    0  503 -0.16078209661E+02 -0.57228510556E+02 -0.11768372307E+03  0.13192861676E+03  0.47000000000E+01 0.  1.
         13    1    4    4    0    0  0.93153382855E+01 -0.88215192715E+01  0.30774863965E+02  0.33341970273E+02  0.00000000000E+00 0. -1.
        -14    1    4    4    0    0 -0.55881551157E+02 -0.31629595787E+02 -0.15931990895E+02  0.66158955729E+02  0.00000000000E+00 0.  1.
</event>
<event>
12    1  0.8494789E-002  0.2776322E+03  0.7818608E-02  0.1097342E+00
         21   -1    0    0  503  502  0.00000000000E+00  0.00000000000E+00  0.23681170836E+03  0.23681170836E+03  0.00000000000E+00 0.  1.
         21   -1    0    0  501  503 -0.00000000000E+00 -0.00000000000E+00 -0.46414065720E+03  0.46414065720E+03  0.00000000000E+00 0. -1.
          6    2    1    2  501    0  0.21026271408E+03  0.21275165009E+02 -0.30762578309E+03  0.41438300817E+03  0.18004614260E+03 0.  0.
         24    2    3    3    0    0  0.85653478450E+02  0.66395233603E+01 -0.26214739253E+03  0.28084635546E+03  0.52657557132E+02 0.  0.
         -6    2    1    2    0  502 -0.21026271408E+03 -0.21275165009E+02  0.80296834248E+02  0.28656935739E+03  0.17610046402E+03 0.  0.
        -24    2    5    5    0    0 -0.15468337977E+03 -0.77365166209E+02  0.80239411512E+02  0.20746661449E+03  0.81802909780E+02 0.  0.
          5    1    3    3  501    0  0.12460923563E+03  0.14635641649E+02 -0.45478390556E+02  0.13353665271E+03  0.47000000000E+01 0. -1.
        -13    1    4    4    0    0  0.30136192337E+02  0.10154414085E+02 -0.17201244512E+03  0.17492736633E+03  0.00000000000E+00 0.  1.
         14    1    4    4    0    0  0.55517286113E+02 -0.35148907251E+01 -0.90134947415E+02  0.10591898914E+03  0.00000000000E+00 0. -1.
         -5    1    5    5    0  502 -0.55579334302E+02  0.56090001200E+02  0.57422735927E-01  0.79102742895E+02  0.47000000000E+01 0.  1.
         11    1    6    6    0    0  0.24911581698E+01  0.55182184481E+01  0.18325258616E+02  0.19299526087E+02  0.00000000000E+00 0. -1.
        -12    1    6    6    0    0 -0.15717453794E+03 -0.82883384657E+02  0.61914152897E+02  0.18816708841E+03  0.00000000000E+00 0.  1.
</event>
<event>
12    1  0.8494789E-002  0.3203723E+03  0.7818608E-02  0.1076102E+00
         21   -1    0    0  501  502  0.00000000000E+00  0.00000000000E+00  0.26690044147E+04  0.26690044147E+04  0.00000000000E+00 0.  1.
         21   -1    0    0  502  503 -0.00000000000E+00 -0.00000000000E+00 -0.67222772582E+02  0.67222772582E+02  0.00000000000E+00 0.  1.
         -6    2    1    2    0  503 -0.14104244732E+03 -0.23027751180E+03  0.38978745999E+03  0.50115298205E+03  0.16217072197E+03 0.  0.
        -24    2    3    3    0    0 -0.12104350007E+03 -0.84341208017E+02  0.19154196607E+03  0.25412924126E+03  0.78283958895E+02 0.  0.
          6    2    1    2  501    0  0.14104244732E+03  0.23027751180E+03  0.22119941822E+04  0.22350742053E+04  0.17238833122E+03 0.  0.
         24    2    5    5    0    0  0.25852500558E+02  0.98582023685E+02  0.13124673714E+04  0.13186774578E+04  0.77154841912E+02 0.  0.
          5    1    5    5  501    0  0.11518994677E+03  0.13169548812E+03  0.89952681079E+03  0.91639674746E+03  0.47000000000E+01 0. -1.
        -11    1    6    6    0    0  0.48225208890E+01  0.10500349509E+03  0.10273354046E+04  0.10326989030E+04  0.00000000000E+00 0.  1.
         12    1    6    6    0    0  0.21029979669E+02 -0.64214714098E+01  0.28513196680E+03  0.28597855484E+03  0.00000000000E+00 0. -1.
         -5    1    3    3    0  503 -0.19998947256E+02 -0.14593630378E+03  0.19824549392E+03  0.24702374079E+03  0.47000000000E+01 0.  1.
         13    1    4    4    0    0 -0.55837396734E+02 -0.21758042235E+02  0.25589421244E+02  0.65161689324E+02  0.00000000000E+00 0. -1.
        -14    1    4    4    0    0 -0.65206103333E+02 -0.62583165782E+02  0.16595254483E+03  0.18896755194E+03  0.00000000000E+00 0.  1.
</event>
<event>
12    1  0.8494789E-002  0.1882049E+03  0.7818608E-02  0.1161084E+00
         21   -1    0    0  501  502  0.00000000000E+00  0.00000000000E+00  0.95031656869E+02  0.95031656869E+02  0.00000000000E+00 0.  1.
         21   -1    0    0  502  503 -0.00000000000E+00 -0.00000000000E+00 -0.39258738943E+03  0.39258738943E+03  0.00000000000E+00 0.  1.
         -6    2    1    2    0  503  0.15145526634E+02  0.74802788739E+02 -0.21585430984E+03  0.28638118755E+03  0.17203562807E+03 0.  0.
        -24    2    3    3    0    0 -0.52323995885E+02 -0.20939938225E+01 -0.72130906355E+02  0.10990524487E+03  0.64297043806E+02 0.  0.
          6    2    1    2  501    0 -0.15145526634E+02 -0.74802788739E+02 -0.81701422722E+02  0.20123785875E+03  0.16732217169E+03 0.  0.
         24    2    5    5    0    0 -0.55111626534E+02 -0.85504207490E+02 -0.24208799142E+02  0.13024982264E+03  0.77657513893E+02 0.  0.
          5    1    5    5  501    0  0.39966099901E+02  0.10701418751E+02 -0.57492623580E+02  0.70988036109E+02  0.47000000000E+01 0. -1.
        -13    1    6    6    0    0 -0.34306931934E+02 -0.10378283496E+02 -0.36703609964E+02  0.51301357988E+02  0.00000000000E+00 0.  1.
         14    1    6    6    0    0 -0.20804694600E+02 -0.75125923994E+02  0.12494810822E+02  0.78948464651E+02  0.00000000000E+00 0. -1.
         -5    1    3    3    0  503  0.67469522518E+02  0.76896782561E+02 -0.14372340349E+03  0.17647594269E+03  0.47000000000E+01 0.  1.
         11    1    4    4    0    0  0.77216946365E+01 -0.81222676806E+01  0.47468811055E+01  0.12170812650E+02  0.00000000000E+00 0. -1.
        -12    1    4    4    0    0 -0.60045690521E+02  0.60282738580E+01 -0.76877787460E+02  0.97734432217E+02  0.00000000000E+00 0.  1.
</event>
<event>
12    1  0.8494789E-002  0.1741745E+03  0.7818608E-02  0.1174056E+00
         21   -1    0    0  501  502  0.00000000000E+00  0.00000000000E+00  0.12324550451E+03  0.12324550451E+03  0.00000000000E+00 0.  1.
         21   -1    0    0  502  503 -0.00000000000E+00 -0.00000000000E+00 -0.34029963975E+03  0.34029963975E+03  0.00000000000E+00 0.  1.
         -6    2    1    2    0  503  0.10357014061E+02  0.29685926949E+02 -0.23175948121E+03  0.28875093318E+03  0.16934025593E+03 0.  0.
        -24    2    3    3    0    0 -0.15523997283E+02  0.15066094246E+02 -0.36885005026E+02  0.91566456796E+02  0.80968702144E+02 0.  0.
          6    2    1    2  501    0 -0.10357014061E+02 -0.29685926949E+02  0.14705345970E+02  0.17479421109E+03  0.17131330080E+03 0.  0.
         24    2    5    5    0    0 -0.47571566777E+02  0.55220716121E+01  0.56581003731E+02  0.10846030717E+03  0.79175002412E+02 0.  0.
          5    1    5    5  501    0  0.37214552716E+02 -0.35207998561E+02 -0.41875657762E+02  0.66333903921E+02  0.47000000000E+01 0. -1.
        -11    1    6    6    0    0 -0.53829429280E+02  0.33699644313E+02  0.35906849709E+02  0.72955982205E+02  0.00000000000E+00 0.  1.
         12    1    6    6    0    0  0.62578625037E+01 -0.28177572701E+02  0.20674154022E+02  0.35504324961E+02  0.00000000000E+00 0. -1.
         -5    1    3    3    0  503  0.25881011344E+02  0.14619832702E+02 -0.19487447619E+03  0.19718447638E+03  0.47000000000E+01 0.  1.
         13    1    4    4    0    0 -0.11776132268E+02 -0.31387439932E+02 -0.28944583384E+02  0.44290378007E+02  0.00000000000E+00 0. -1.
        -14    1    4    4    0    0 -0.37478650145E+01  0.46453534179E+02 -0.79404216419E+01  0.47276078789E+02  0.00000000000E+00 0.  1.
</event>
<event>
12    1  0.8494789E-002  0.2076694E+03  0.7818608E-02  0.1144143E+00
         21   -1    0    0  503  502  0.00000000000E+00  0.00000000000E+00  0.12258380000E+03  0.12258380000E+03  0.00000000000E+00 0. -1.
         21   -1    0    0  501  503 -0.00000000000E+00 -0.00000000000E+00 -0.47653385212E+03  0.47653385212E+03  0.00000000000E+00 0. -1.
          6    2    1    2  501    0  0.66410079955E+02 -0.96677010408E+02 -0.33274463795E+03  0.39036839894E+03  0.16706809912E+03 0.  0.
         24    2    3    3    0    0  0.67677206061E+01 -0.11154559910E+03 -0.18101598476E+03  0.22659428572E+03  0.78038201311E+02 0.  0.
         -6    2    1    2    0  502 -0.66410079955E+02  0.96677010408E+02 -0.21205414177E+02  0.20874925319E+03  0.17137630540E+03 0.  0.
        -24    2    5    5    0    0 -0.71878618007E+02  0.13222019498E+03 -0.23878738169E+02  0.17238361640E+03  0.80605219299E+02 0.  0.
          5    1    3    3  501    0  0.59642359349E+02  0.14868588697E+02 -0.15172865319E+03  0.16377411321E+03  0.47000000000E+01 0. -1.
        -11    1    4    4    0    0  0.20125588121E+02  0.18840028997E+01 -0.15387233888E+02  0.25403852677E+02  0.00000000000E+00 0.  1.
         12    1    4    4    0    0 -0.13357867515E+02 -0.11342960200E+03 -0.16562875087E+03  0.20119043305E+03  0.00000000000E+00 0. -1.
         -5    1    5    5    0  502  0.54685380518E+01 -0.35543184572E+02  0.26733239911E+01  0.36365636790E+02  0.47000000000E+01 0.  1.
         11    1    6    6    0    0 -0.40179334181E+02  0.58374452178E+02  0.28583513974E+02  0.76413171858E+02  0.00000000000E+00 0. -1.
        -12    1    6    6    0    0 -0.31699283826E+02  0.73845742802E+02 -0.52462252142E+02  0.95970444539E+02  0.00000000000E+00 0.  1.
</event>
<event>
12    1  0.8494789E-002  0.2113495E+03  0.7818608E-02  0.1140552E+00
         21   -1    0    0  503  502  0.00000000000E+00  0.00000000000E+00  0.67361719697E+03  0.67361719697E+03  0.00000000000E+00 0. -1.
         21   -1    0    0  501  503 -0.00000000000E+00 -0.00000000000E+00 -0.80232608913E+02  0.80232608913E+02  0.00000000000E+00 0. -1.
          6    2    1    2  501    0 -0.35549099486E+02 -0.11938769965E+03  0.13909273802E+03  0.25280121659E+03  0.17042448191E+03 0.  0.
         24    2    3    3    0    0 -0.36257765418E+02 -0.13771845602E+03  0.15729049908E+03  0.22653779441E+03  0.79360396393E+02 0.  0.
         -6    2    1    2    0  502  0.35549099486E+02  0.11938769965E+03  0.45429185004E+03  0.50104858930E+03  0.17073793523E+03 0.  0.
        -24    2    5    5    0    0 -0.19344425792E+02  0.38383435861E+02  0.33430987067E+03  0.34615263957E+03  0.78810312125E+02 0.  0.
          5    1    3    3  501    0  0.70866593199E+00  0.18330756376E+02 -0.18197761056E+02  0.26263422172E+02  0.47000000000E+01 0. -1.
        -11    1    4    4    0    0 -0.16375456259E+02 -0.75238949621E+00  0.46339841098E+02  0.49153865876E+02  0.00000000000E+00 0.  1.
         12    1    4    4    0    0 -0.19882309158E+02 -0.13696606653E+03  0.11095065798E+03  0.17738392854E+03  0.00000000000E+00 0. -1.
         -5    1    5    5    0  502  0.54893525277E+02  0.81004263787E+02  0.11998197937E+03  0.15489594973E+03  0.47000000000E+01 0.  1.
         11    1    6    6    0    0 -0.14435039521E+02  0.43789238781E+02  0.84702583566E+02  0.96438557962E+02  0.00000000000E+00 0. -1.
        -12    1    6    6    0    0 -0.49093862704E+01 -0.54058029205E+01  0.24960728710E+03  0.24971408161E+03  0.00000000000E+00 0.  1.
</event>
<event>
12    1  0.8494789E-002  0.1784589E+03  0.7818608E-02  0.1170338E+00
         21   -1    0    0  501  502  0.00000000000E+00  0.00000000000E+00  0.15172400444E+03  0.15172400444E+03  0.00000000000E+00 0. -1.
         21   -1    0    0  502  503 -0.00000000000E+00 -0.00000000000E+00 -0.28722558675E+03  0.28722558675E+03  0.00000000000E+00 0. -1.
         -6    2    1    2    0  503 -0.24405141870E+02 -0.32779230335E-01 -0.18458797018E+03  0.25386294682E+03  0.17256322033E+03 0.  0.
        -24    2    3    3    0    0  0.53852957803E+02  0.75134685768E-01 -0.93806345154E+02  0.13391406082E+03  0.78950608520E+02 0.  0.
          6    2    1    2  501    0  0.24405141870E+02  0.32779230335E-01  0.49086387863E+02  0.18508664437E+03  0.17678229670E+03 0.  0.
         24    2    5    5    0    0 -0.21865573165E+02  0.10452523367E+02 -0.32635462977E+02  0.90481670704E+02  0.80836258913E+02 0.  0.
          5    1    5    5  501    0  0.46270715035E+02 -0.10419744137E+02  0.81721850840E+02  0.94604973667E+02  0.47000000000E+01 0. -1.
        -13    1    6    6    0    0  0.25462658303E+02  0.23822119775E+02 -0.95526872679E+01  0.36153757653E+02  0.00000000000E+00 0.  1.
         14    1    6    6    0    0 -0.47328231468E+02 -0.13369596408E+02 -0.23082775709E+02  0.54327913051E+02  0.00000000000E+00 0. -1.
         -5    1    3    3    0  503 -0.78258099673E+02 -0.10791391610E+00 -0.90781625025E+02  0.11994888600E+03  0.47000000000E+01 0.  1.
         13    1    4    4    0    0  0.29835804869E+02  0.31205888454E+02 -0.82315774923E+02  0.92950898476E+02  0.00000000000E+00 0. -1.
        -14    1    4    4    0    0  0.24017152934E+02 -0.31130753768E+02 -0.11490570231E+02  0.40963162347E+02  0.00000000000E+00 0.  1.
</event>
<event>
12    1  0.8494789E-002  0.1838646E+03  0.7818608E-02  0.1165396E+00
         21   -1    0    0  503  502  0.00000000000E+00  0.00000000000E+00  0.34586333389E+03  0.34586333389E+03  0.00000000000E+00 0. -1.
         21   -1    0    0  501  503 -0.00000000000E+00 -0.00000000000E+00 -0.16136077730E+03  0.16136077730E+03  0.00000000000E+00 0. -1.
          6    2    1    2  501    0 -0.42396970541E+02  0.33469098682E+02  0.25578510850E+03  0.31501147271E+03  0.17575130875E+03 0.  0.
         24    2    3    3    0    0 -0.24497749830E+02  0.97505343844E+02  0.18016676033E+03  0.21420845997E+03  0.57600095225E+02 0.  0.
         -6    2    1    2    0  502  0.42396970541E+02 -0.33469098682E+02 -0.71282551913E+02  0.19221263849E+03  0.17013762814E+03 0.  0.
        -24    2    5    5    0    0  0.36622385119E+02  0.21731127834E+01  0.25557372048E+02  0.88753593704E+02  0.76668765598E+02 0.  0.
          5    1    3    3  501    0 -0.17899220711E+02 -0.64036245161E+02  0.75618348172E+02  0.10080301274E+03  0.47000000000E+01 0. -1.
        -11    1    4    4    0    0 -0.23997238403E+02  0.30831342652E+02  0.27976726421E+02  0.48053473984E+02  0.00000000000E+00 0.  1.
         12    1    4    4    0    0 -0.50051142654E+00  0.66674001192E+02  0.15219003391E+03  0.16615498599E+03  0.00000000000E+00 0. -1.
         -5    1    5    5    0  502  0.57745854219E+01 -0.35642211466E+02 -0.96839923961E+02  0.10345904478E+03  0.47000000000E+01 0.  1.
         11    1    6    6    0    0  0.33035943144E+02  0.15224593909E+02 -0.19803294618E+02  0.41416570076E+02  0.00000000000E+00 0. -1.
        -12    1    6    6    0    0  0.35864419752E+01 -0.13051481125E+02  0.45360666666E+02  0.47337023628E+02  0.00000000000E+00 0.  1.
</event>
<event>
12    1  0.8494789E-002  0.1962612E+03  0.7818608E-02  0.1152989E+00
         21   -1    0    0  501  502  0.00000000000E+00  0.00000000000E+00  0.16744223514E+03  0.16744223514E+03  0.00000000000E+00 0. -1.
         21   -1    0    0  502  503 -0.00000000000E+00 -0.00000000000E+00 -0.23090479104E+03  0.23090479104E+03  0.00000000000E+00 0.  1.
         -6    2    1    2    0  503 -0.93443653512E+02  0.54078735365E+01 -0.45888753458E+02  0.20130060627E+03  0.17220683758E+03 0.  0.
        -24    2    3    3    0    0  0.13920862539E+02  0.10716505868E+02 -0.45866956186E+02  0.93702226355E+02  0.79797842341E+02 0.  0.
          6    2    1    2  501    0  0.93443653512E+02 -0.54078735365E+01 -0.17573802438E+02  0.19704641991E+03  0.17250359877E+03 0.  0.
         24    2    5    5    0    0  0.95945869678E+02 -0.64538999758E+02 -0.19803279248E+01  0.13566240227E+03  0.70918779552E+02 0.  0.
          5    1    5    5  501    0 -0.25022161661E+01  0.59131126222E+02 -0.15593474513E+02  0.61384017638E+02  0.47000000000E+01 0. -1.
        -13    1    6    6    0    0  0.35248171573E+02 -0.91088560656E+01 -0.31682289001E+02  0.48261499090E+02  0.00000000000E+00 0.  1.
         14    1    6    6    0    0  0.60697698106E+02 -0.55430143693E+02  0.29701961076E+02  0.87400903181E+02  0.00000000000E+00 0. -1.
         -5    1    3    3    0  503 -0.10736451605E+03 -0.53086323310E+01 -0.21797272267E-01  0.10759837991E+03  0.47000000000E+01 0.  1.
         13    1    4    4    0    0 -0.16210755640E+02  0.47021260527E+01  0.16858181490E+02  0.23855751318E+02  0.00000000000E+00 0. -1.
        -14    1    4    4    0    0  0.30131618179E+02  0.60143798149E+01 -0.62725137676E+02  0.69846475037E+02  0.00000000000E+00 0.  1.
</event>
<event>
12    1  0.8494789E-002  0.1960913E+03  0.7818608E-02  0.1153322E+00
         21   -1    0    0  503  502  0.00000000000E+00  0.00000000000E+00  0.14201445892E+03  0.14201445892E+03  0.00000000000E+00 0. -1.
         21   -1    0    0  501  503 -0.00000000000E+00 -0.00000000000E+00 -0.94151622992E+03  0.94151622992E+03  0.00000000000E+00 0. -1.
          6    2    1    2  501    0  0.90950244502E+02 -0.18746237934E+02 -0.85788037296E+03  0.88000599343E+03  0.17270913627E+03 0.  0.
         24    2    3    3    0    0  0.33280970726E+02 -0.38220519525E+02 -0.75125868762E+03  0.75714319774E+03  0.79421502299E+02 0.  0.
         -6    2    1    2    0  502 -0.90950244502E+02  0.18746237934E+02  0.58378601970E+02  0.20352469541E+03  0.17143766232E+03 0.  0.
        -24    2    5    5    0    0 -0.42791508253E+02 -0.58576529510E+01  0.99748997660E+02  0.13527357847E+03  0.80521135245E+02 0.  0.
          5    1    3    3  501    0  0.57669273776E+02  0.19474281591E+02 -0.10662168534E+03  0.12286279570E+03  0.47000000000E+01 0. -1.
        -13    1    4    4    0    0 -0.20961397871E+02  0.65617091043E+01 -0.12159476372E+03  0.12356262700E+03  0.00000000000E+00 0.  1.
         14    1    4    4    0    0  0.54242368597E+02 -0.44782228630E+02 -0.62966392390E+03  0.63358057073E+03  0.00000000000E+00 0. -1.
         -5    1    5    5    0  502 -0.48158736249E+02  0.24603890885E+02 -0.41370395691E+02  0.68251116938E+02  0.47000000000E+01 0.  1.
         13    1    6    6    0    0 -0.95565456540E+01 -0.14568327507E+01  0.10125432065E+03  0.10171473530E+03  0.00000000000E+00 0. -1.
        -14    1    6    6    0    0 -0.33234962599E+02 -0.44008202004E+01 -0.15053229943E+01  0.33558843167E+02  0.00000000000E+00 0.  1.
</event>
<event>
12    1  0.8494789E-002  0.1879043E+03  0.7818608E-02  0.1162545E+00
         21   -1    0    0  501  502  0.00000000000E+00  0.00000000000E+00  0.19566811624E+03  0.19566811624E+03  0.00000000000E+00 0. -1.
         21   -1    0    0  502  503 -0.00000000000E+00 -0.00000000000E+00 -0.17427455077E+03  0.17427455077E+03  0.00000000000E+00 0.  1.
         -6    2    1    2    0  503  0.16047735442E+01 -0.65189379495E+02 -0.12249613997E+02  0.17905033550E+03  0.16630315422E+03 0.  0.
        -24    2    3    3    0    0  0.18161682908E+02 -0.17503292985E+02  0.51611060434E+02  0.97512799157E+02  0.78796144887E+02 0.  0.
          6    2    1    2  501    0 -0.16047735442E+01  0.65189379495E+02  0.33643179476E+02  0.19089233151E+03  0.17622652526E+03 0.  0.
         24    2    5    5    0    0 -0.19660046209E+02 -0.25303062584E+02 -0.13075875867E+02  0.87356660956E+02  0.80208760685E+02 0.  0.
          5    1    5    5  501    0  0.18055272665E+02  0.90492442079E+02  0.46719055343E+02  0.10353567055E+03  0.47000000000E+01 0. -1.
        -11    1    6    6    0    0 -0.46014297917E+02  0.44353957080E+01 -0.11261982098E+02  0.47579623670E+02  0.00000000000E+00 0.  1.
         12    1    6    6    0    0  0.26354251708E+02 -0.29738458292E+02 -0.18138937689E+01  0.39777037286E+02  0.00000000000E+00 0. -1.
         -5    1    3    3    0  503 -0.16556909364E+02 -0.47686086510E+02 -0.63860674431E+02  0.81537536344E+02  0.47000000000E+01 0.  1.
         13    1    4    4    0    0  0.39519469708E+02 -0.36741721990E+02  0.34902720115E+02  0.64264628624E+02  0.00000000000E+00 0. -1.
        -14    1    4    4    0    0 -0.21357786800E+02  0.19238429005E+02  0.16708340319E+02  0.33248170533E+02  0.00000000000E+00 0.  1.
</event>
<event>
12    1  0.8494789E-002  0.2068636E+03  0.7818608E-02  0.1144130E+00
         21   -1    0    0  501  502  0.00000000000E+00  0.00000000000E+00  0.20413921993E+03  0.20413921993E+03  0.00000000000E+00 0.  1.
         21   -1    0    0  502  503 -0.00000000000E+00 -0.00000000000E+00 -0.31087115658E+03  0.31087115658E+03  0.00000000000E+00 0.  1.
         -6    2    1    2    0  503  0.58404623786E+02 -0.99516388016E+02 -0.20054986892E+03  0.28811943581E+03  0.17169143195E+03 0.  0.
        -24    2    3    3    0    0 -0.32939204650E+02 -0.67899530161E+02 -0.98290191545E+02  0.14732720481E+03  0.79680650871E+02 0.  0.
          6    2    1    2  501    0 -0.58404623786E+02  0.99516388016E+02  0.93817932269E+02  0.22689094070E+03  0.17135659600E+03 0.  0.
         24    2    5    5    0    0  0.11908597081E+02  0.82108765656E+02  0.10229381760E+03  0.15380944525E+03  0.79433344690E+02 0.  0.
          5    1    5    5  501    0 -0.70313220867E+02  0.17407622360E+02 -0.84758853279E+01  0.73081495449E+02  0.47000000000E+01 0. -1.
        -13    1    6    6    0    0 -0.39927696247E+01  0.93932598679E+02  0.91733062347E+02  0.13135535783E+03  0.00000000000E+00 0.  1.
         14    1    6    6    0    0  0.15901366705E+02 -0.11823833023E+02  0.10560755250E+02  0.22454087421E+02  0.00000000000E+00 0. -1.
         -5    1    3    3    0  503  0.91343828436E+02 -0.31616857855E+02 -0.10225967737E+03  0.14079223100E+03  0.47000000000E+01 0.  1.
         11    1    4    4    0    0  0.14282426835E+02 -0.60118214387E+02 -0.58446922197E+02  0.85054277562E+02  0.00000000000E+00 0. -1.
        -12    1    4    4    0    0 -0.47221631484E+02 -0.77813157737E+01 -0.39843269348E+02  0.62272927244E+02  0.00000000000E+00 0.  1.
</event>
<event>
12    1  0.8494789E-002  0.2029217E+03  0.7818608E-02  0.1147450E+00
         21   -1    0    0  501  502  0.00000000000E+00  0.00000000000E+00  0.92576547202E+03  0.92576547202E+03  0.00000000000E+00 0. -1.
         21   -1    0    0  502  503 -0.00000000000E+00 -0.00000000000E+00 -0.54255123231E+02  0.54255123231E+02  0.00000000000E+00 0. -1.
         -6    2    1    2    0  503 -0.90359399432E+02 -0.57222075208E+02  0.22668920774E+03  0.30424533882E+03  0.17244721607E+03 0.  0.
        -24    2    3    3    0    0 -0.10946789481E+03  0.68398387031E+01  0.15354118278E+03  0.20503955791E+03  0.80226692015E+02 0.  0.
          6    2    1    2  501    0  0.90359399432E+02  0.57222075208E+02  0.64482114104E+03  0.67577525643E+03  0.17157711476E+03 0.  0.
         24    2    5    5    0    0 -0.87171535465E+01  0.15411093430E+02  0.17464264857E+03  0.19343281964E+03  0.81257063976E+02 0.  0.
          5    1    5    5  501    0  0.99076552979E+02  0.41810981778E+02  0.47017849247E+03  0.48234243679E+03  0.47000000000E+01 0. -1.
        -11    1    6    6    0    0  0.59408277766E+01  0.26599155608E+01  0.17386751846E+03  0.17398931738E+03  0.00000000000E+00 0.  1.
         12    1    6    6    0    0 -0.14657981323E+02  0.12751177869E+02  0.77513011286E+00  0.19443502262E+02  0.00000000000E+00 0. -1.
         -5    1    3    3    0  503  0.19108495378E+02 -0.64061913911E+02  0.73148024966E+02  0.99205780910E+02  0.47000000000E+01 0.  1.
         11    1    4    4    0    0 -0.61793711440E+02 -0.36152893256E+02  0.76985954198E+02  0.10513006995E+03  0.00000000000E+00 0. -1.
        -12    1    4    4    0    0 -0.47674183370E+02  0.42992731959E+02  0.76555228580E+02  0.99909487959E+02  0.00000000000E+00 0.  1.
</event>
<event>
12    1  0.8494789E-002  0.2594653E+03  0.7818608E-02  0.1107619E+00
         21   -1    0    0  501  502  0.00000000000E+00  0.00000000000E+00  0.40703834113E+03  0.40703834113E+03  0.00000000000E+00 0.  1.
         21   -1    0    0  502  503 -0.00000000000E+00 -0.00000000000E+00 -0.17673005352E+03  0.17673005352E+03  0.00000000000E+00 0.  1.
         -6    2    1    2    0  503  0.17409338542E+03 -0.82638501557E+02  0.39355909791E+02  0.26243305507E+03  0.17373713468E+03 0.  0.
        -24    2    3    3    0    0  0.96188984406E+02 -0.85101346078E+02 -0.31109014457E+02  0.15725436497E+03  0.85244382199E+02 0.  0.
          6    2    1    2  501    0 -0.17409338542E+03  0.82638501557E+02  0.19095237781E+03  0.32133533958E+03  0.17220906214E+03 0.  0.
         24    2    5    5    0    0 -0.76301059544E+02  0.82403821948E+02  0.43548539172E+02  0.14437948146E+03  0.79603503974E+02 0.  0.
          5    1    5    5  501    0 -0.97792325880E+02  0.23467960887E+00  0.14740383864E+03  0.17695585812E+03  0.47000000000E+01 0. -1.
        -13    1    6    6    0    0 -0.56106545586E+02  0.35085664996E+01  0.17644336144E+02  0.58920090753E+02  0.00000000000E+00 0.  1.
         14    1    6    6    0    0 -0.20194513958E+02  0.78895255448E+02  0.25904203028E+02  0.85459390712E+02  0.00000000000E+00 0. -1.
         -5    1    3    3    0  503  0.77904401018E+02  0.24628445214E+01  0.70464924248E+02  0.10517869010E+03  0.47000000000E+01 0.  1.
         11    1    4    4    0    0 -0.89805679307E+01 -0.17595000638E+02 -0.25367070911E+02  0.32151561928E+02  0.00000000000E+00 0. -1.
        -12    1    4    4    0    0  0.10516955234E+03 -0.67506345440E+02 -0.57419435459E+01  0.12510280304E+03  0.00000000000E+00 0.  1.
</event>
<event>
12    1  0.8494789E-002  0.2422965E+03  0.7818608E-02  0.1119057E+00
         21   -1    0    0  503  502  0.00000000000E+00  0.00000000000E+00  0.86716603424E+03  0.86716603424E+03  0.00000000000E+00 0. -1.
         21   -1    0    0  501  503 -0.00000000000E+00 -0.00000000000E+00 -0.67262019859E+02  0.67262019859E+02  0.00000000000E+00 0.  1.
          6    2    1    2  501    0 -0.44092371199E+02 -0.17087004640E+03  0.45707226391E+03  0.51732258225E+03  0.16603279713E+03 0.  0.
         24    2    3    3    0    0 -0.23703720424E+02 -0.43270131673E+02  0.29661230316E+03  0.31124753690E+03  0.80386567148E+02 0.  0.
         -6    2    1    2    0  502  0.44092371199E+02  0.17087004640E+03  0.34283175048E+03  0.41710547185E+03  0.15906808466E+03 0.  0.
        -24    2    5    5    0    0  0.68652238419E+01  0.17714696695E+03  0.30742114377E+03  0.36513181218E+03  0.85937776513E+02 0.  0.
          5    1    3    3  501    0 -0.20388650775E+02 -0.12759991472E+03  0.16045996074E+03  0.20607504536E+03  0.47000000000E+01 0. -1.
        -13    1    4    4    0    0  0.28402910535E+02 -0.45035623951E+01  0.10817520062E+03  0.11193248604E+03  0.00000000000E+00 0.  1.
         14    1    4    4    0    0 -0.52106630959E+02 -0.38766569278E+02  0.18843710254E+03  0.19931505086E+03  0.00000000000E+00 0. -1.
         -5    1    5    5    0  502  0.37227147357E+02 -0.62769205530E+01  0.35410606705E+02  0.51973659667E+02  0.47000000000E+01 0.  1.
         11    1    6    6    0    0 -0.39012649232E+02  0.65963159150E+02  0.12528716842E+03  0.14686728613E+03  0.00000000000E+00 0. -1.
        -12    1    6    6    0    0  0.45877873074E+02  0.11118380780E+03  0.18213397535E+03  0.21826452605E+03  0.00000000000E+00 0.  1.
</event>
<event>
12    1  0.8494789E-002  0.2333222E+03  0.7818608E-02  0.1124459E+00
         21   -1    0    0  501  502  0.00000000000E+00  0.00000000000E+00  0.18382348837E+03  0.18382348837E+03  0.00000000000E+00 0.  1.
         21   -1    0    0  502  503 -0.00000000000E+00 -0.00000000000E+00 -0.29536431860E+03  0.29536431860E+03  0.00000000000E+00 0. -1.
         -6    2    1    2    0  503 -0.27333744230E+02  0.15411675361E+03 -0.62077695351E+02  0.24068023336E+03  0.17197158822E+03 0.  0.
        -24    2    3    3    0    0 -0.10652575548E+02  0.24154592362E+02 -0.54665785149E+02  0.10935829629E+03  0.90961350051E+02 0.  0.
          6    2    1    2  501    0  0.27333744230E+02 -0.15411675361E+03 -0.49463134874E+02  0.23850757361E+03  0.17303223295E+03 0.  0.
         24    2    5    5    0    0  0.67489557048E+02 -0.55440276543E+02  0.28362979687E+01  0.11973528263E+03  0.81853703315E+02 0.  0.
          5    1    5    5  501    0 -0.40155812818E+02 -0.98676477066E+02 -0.52299432843E+02  0.11877229098E+03  0.47000000000E+01 0. -1.
        -13    1    6    6    0    0 -0.67836317125E+01  0.13914714078E+02 -0.81997581933E+01  0.17517789858E+02  0.00000000000E+00 0.  1.
         14    1    6    6    0    0  0.74273188760E+02 -0.69354990621E+02  0.11036056162E+02  0.10221749277E+03  0.00000000000E+00 0. -1.
         -5    1    3    3    0  503 -0.16681168682E+02  0.12996216125E+03 -0.74119102029E+01  0.13132193708E+03  0.47000000000E+01 0.  1.
         11    1    4    4    0    0 -0.43515710655E+02  0.91837450677E+01 -0.58003963899E+02  0.73091846846E+02  0.00000000000E+00 0. -1.
        -12    1    4    4    0    0  0.32863135107E+02  0.14970847294E+02  0.33381787506E+01  0.36266449442E+02  0.00000000000E+00 0.  1.
</event>
<event>
12    1  0.8494789E-002  0.1988759E+03  0.7818608E-02  0.1150873E+00
         21   -1    0    0  501  502  0.00000000000E+00  0.00000000000E+00  0.42377869668E+02  0.42377869668E+02  0.00000000000E+00 0. -1.
         21   -1    0    0  502  503 -0.00000000000E+00 -0.00000000000E+00 -0.11760368970E+04  0.11760368970E+04  0.00000000000E+00 0. -1.
         -6    2    1    2    0  503  0.86699538342E+02 -0.47587105758E+02 -0.84490968299E+03  0.86780412746E+03  0.17155258276E+03 0.  0.
        -24    2    3    3    0    0  0.12306520373E+03 -0.58640134734E+02 -0.68255918384E+03  0.70099763586E+03  0.83228217932E+02 0.  0.
          6    2    1    2  501    0 -0.86699538342E+02  0.47587105758E+02 -0.28874934435E+03  0.35061063922E+03  0.17254070211E+03 0.  0.
         24    2    5    5    0    0 -0.22047843819E+02  0.46483048664E+02 -0.52823450135E+02  0.10593906729E+03  0.76065681246E+02 0.  0.
          5    1    5    5  501    0 -0.64651694523E+02  0.11040570939E+01 -0.23592589422E+03  0.24467157193E+03  0.47000000000E+01 0. -1.
        -13    1    6    6    0    0 -0.44206261129E+02  0.11320346241E+02 -0.44123391998E+02  0.63476117426E+02  0.00000000000E+00 0.  1.
         14    1    6    6    0    0  0.22158417310E+02  0.35162702423E+02 -0.87000581372E+01  0.42462949862E+02  0.00000000000E+00 0. -1.
         -5    1    3    3    0  503 -0.36365665389E+02  0.11053028976E+02 -0.16235049914E+03  0.16680649160E+03  0.47000000000E+01 0.  1.
         11    1    4    4    0    0  0.84295720382E+02 -0.23550941772E+02 -0.57245616355E+03  0.57910834437E+03  0.00000000000E+00 0. -1.
        -12    1    4    4    0    0  0.38769483349E+02 -0.35089192962E+02 -0.11010302029E+03  0.12188929149E+03  0.00000000000E+00 0.  1.
</event>
<event>
12    1  0.8494789E-002  0.2007889E+03  0.7818608E-02  0.1149089E+00
         21   -1    0    0  503  502  0.00000000000E+00  0.00000000000E+00  0.80348085184E+03  0.80348085184E+03  0.00000000000E+00 0.  1.
         21   -1    0    0  501  503 -0.00000000000E+00 -0.00000000000E+00 -0.58592118162E+02  0.58592118162E+02  0.00000000000E+00 0.  1.
          6    2    1    2  501    0  0.61580341085E+02 -0.84952530093E+02  0.20898522321E+03  0.28981202470E+03  0.17119321063E+03 0.  0.
         24    2    3    3    0    0  0.36525526774E+02 -0.24992438726E+02  0.30394579567E+02  0.99707673696E+02  0.84018174386E+02 0.  0.
         -6    2    1    2    0  502 -0.61580341085E+02  0.84952530093E+02  0.53590351047E+03  0.57226094530E+03  0.17111676189E+03 0.  0.
        -24    2    5    5    0    0  0.15231490181E+02  0.19332396356E+02  0.35670806589E+03  0.36649613603E+03  0.80455165224E+02 0.  0.
          5    1    3    3  501    0  0.25054814310E+02 -0.59960091367E+02  0.17859064364E+03  0.19010435101E+03  0.47000000000E+01 0. -1.
        -13    1    4    4    0    0  0.39342576009E+02 -0.51722705439E+02  0.95271494405E+01  0.65679853239E+02  0.00000000000E+00 0.  1.
         14    1    4    4    0    0 -0.28170492351E+01  0.26730266713E+02  0.20867430127E+02  0.34027820457E+02  0.00000000000E+00 0. -1.
         -5    1    5    5    0  502 -0.76811831266E+02  0.65620133737E+02  0.17919544458E+03  0.20576480926E+03  0.47000000000E+01 0.  1.
         13    1    6    6    0    0 -0.80735186562E+00 -0.15726728267E+02  0.12419251867E+02  0.20055413632E+02  0.00000000000E+00 0. -1.
        -14    1    6    6    0    0  0.16038842047E+02  0.35059124623E+02  0.34428881403E+03  0.34644072240E+03  0.00000000000E+00 0.  1.
</event>
<event>
12    1  0.8494789E-002  0.3135213E+03  0.7818608E-02  0.1078701E+00
         21   -1    0    0  501  502  0.00000000000E+00  0.00000000000E+00  0.19876663855E+03  0.19876663855E+03  0.00000000000E+00 0.  1.
         21   -1    0    0  502  503 -0.00000000000E+00 -0.00000000000E+00 -0.72549411755E+03  0.72549411755E+03  0.00000000000E+00 0. -1.
         -6    2    1    2    0  503 -0.15901530318E+03  0.20840123151E+03 -0.52441705624E+03  0.61099006550E+03  0.17198450897E+03 0.  0.
        -24    2    3    3    0    0 -0.26700861461E+02  0.10809632886E+03 -0.31372660688E+03  0.34269779868E+03  0.81361201085E+02 0.  0.
          6    2    1    2  501    0  0.15901530318E+03 -0.20840123151E+03 -0.23104227490E+01  0.31327069060E+03  0.17151165440E+03 0.  0.
         24    2    5    5    0    0  0.50387461064E+02 -0.46866639563E+02 -0.35768598445E+02  0.11569799006E+03  0.85856008130E+02 0.  0.
          5    1    5    5  501    0  0.10862784211E+03 -0.16153459195E+03  0.33458175696E+02  0.19757270054E+03  0.47000000000E+01 0. -1.
        -11    1    6    6    0    0  0.58328797288E+02 -0.18167376663E+02  0.91821695193E+01  0.61778753669E+02  0.00000000000E+00 0.  1.
         12    1    6    6    0    0 -0.79413362234E+01 -0.28699262899E+02 -0.44950767964E+02  0.53919236387E+02  0.00000000000E+00 0. -1.
         -5    1    3    3    0  503 -0.13231444172E+03  0.10030490266E+03 -0.21069044937E+03  0.26829226683E+03  0.47000000000E+01 0.  1.
         13    1    4    4    0    0  0.18037382639E+02 -0.21660693482E+01 -0.30669431453E+02  0.35646220761E+02  0.00000000000E+00 0. -1.
        -14    1    4    4    0    0 -0.44738244100E+02  0.11026239820E+03 -0.28305717542E+03  0.30705157792E+03  0.00000000000E+00 0.  1.
</event>
<event>
12    1  0.8494789E-002  0.2935904E+03  0.7818608E-02  0.1088598E+00
         21   -1    0    0  501  502  0.00000000000E+00  0.00000000000E+00  0.16242796973E+04  0.16242796973E+04  0.00000000000E+00 0.  1.
         21   -1    0    0  502  503 -0.00000000000E+00 -0.00000000000E+00 -0.58637810300E+02  0.58637810300E+02  0.00000000000E+00 0. -1.
         -6    2    1    2    0  503  0.41866145923E+02  0.23377558605E+03  0.51889361760E+03  0.59577572642E+03  0.17115586754E+03 0.  0.
        -24    2    3    3    0    0  0.28790673532E+02  0.21481228992E+03  0.52278543304E+03  0.57194694538E+03  0.82737395096E+02 0.  0.
          6    2    1    2  501    0 -0.41866145923E+02 -0.23377558605E+03  0.10467482694E+04  0.10871417812E+04  0.17260218447E+03 0.  0.
         24    2    5    5    0    0 -0.34014780650E+02 -0.43851712450E+02  0.46818006325E+03  0.47812948174E+03  0.79594294370E+02 0.  0.
          5    1    5    5  501    0 -0.78513652730E+01 -0.18992387360E+03  0.57856820613E+03  0.60901229942E+03  0.47000000000E+01 0. -1.
        -13    1    6    6    0    0 -0.11079753881E+02 -0.51572012184E+02  0.42790021524E+03  0.43113922066E+03  0.00000000000E+00 0.  1.
         14    1    6    6    0    0 -0.22935026769E+02  0.77202997330E+01  0.40279848010E+02  0.46990261082E+02  0.00000000000E+00 0. -1.
         -5    1    3    3    0  503  0.13075472391E+02  0.18963296135E+02 -0.38918154375E+01  0.23828781042E+02  0.47000000000E+01 0.  1.
         11    1    4    4    0    0  0.69531335740E+01  0.13586417133E+03  0.22344174989E+03  0.26159823148E+03  0.00000000000E+00 0. -1.
        -12    1    4    4    0    0  0.21837539958E+02  0.78948118592E+02  0.29934368314E+03  0.31034871390E+03  0.00000000000E+00 0.  1.
</event>
<event>
12    1  0.8494789E-002  0.2826570E+03  0.7818608E-02  0.1094295E+00
         21   -1    0    0  503  502  0.00000000000E+00  0.00000000000E+00  0.39179909261E+03  0.39179909261E+03  0.00000000000E+00 0. -1.
         21   -1    0    0  501  503 -0.00000000000E+00 -0.00000000000E+00 -0.33090671565E+03  0.33090671565E+03  0.00000000000E+00 0. -1.
          6    2    1    2  501    0  0.11073412614E+03 -0.19563478889E+03 -0.19364788701E+03  0.34233003532E+03  0.17074932392E+03 0.  0.
         24    2    3    3    0    0  0.46664010465E+02 -0.19165150139E+03 -0.17429729359E+03  0.27511856481E+03  0.80017812322E+02 0.  0.
         -6    2    1    2    0  502 -0.11073412614E+03  0.19563478889E+03  0.25454026397E+03  0.38037577295E+03  0.17134749881E+03 0.  0.
        -24    2    5    5    0    0 -0.58764436209E+02  0.19413546368E+03  0.15454313948E+03  0.26757235299E+03  0.81052729165E+02 0.  0.
          5    1    3    3  501    0  0.64070115676E+02 -0.39832874961E+01 -0.19350593421E+02  0.67211470508E+02  0.47000000000E+01 0. -1.
        -11    1    4    4    0    0 -0.86347659129E+01 -0.56564270325E+02 -0.15196973004E+02  0.59203241872E+02  0.00000000000E+00 0.  1.
         12    1    4    4    0    0  0.55298776378E+02 -0.13508723107E+03 -0.15910032059E+03  0.21591532294E+03  0.00000000000E+00 0. -1.
         -5    1    5    5    0  502 -0.51969689932E+02  0.14993252141E+01  0.99997124493E+02  0.11280341996E+03  0.47000000000E+01 0.  1.
         13    1    6    6    0    0 -0.67585784449E+02  0.88263192351E+02  0.66079427400E+02  0.12932408944E+03  0.00000000000E+00 0. -1.
        -14    1    6    6    0    0  0.88213482404E+01  0.10587227133E+03  0.88463712077E+02  0.13824826355E+03  0.00000000000E+00 0.  1.
</event>
<event>
12    1  0.8494789E-002  0.2097035E+03  0.7818608E-02  0.1142040E+00
         21   -1    0    0  501  502  0.00000000000E+00  0.00000000000E+00  0.66485473639E+03  0.66485473639E+03  0.00000000000E+00 0. -1.
         21   -1    0    0  502  503 -0.00000000000E+00 -0.00000000000E+00 -0.68205345721E+02  0.68205345721E+02  0.00000000000E+00 0. -1.
         -6    2    1    2    0  503  0.28010083359E+02  0.11323449431E+03  0.36683249382E+03  0.42194700851E+03  0.17281951276E+03 0.  0.
        -24    2    3    3    0    0 -0.34490271852E+02  0.73115120040E+02  0.30507640716E+03  0.32524249551E+03  0.78585412455E+02 0.  0.
          6    2    1    2  501    0 -0.28010083359E+02 -0.11323449431E+03  0.22981689685E+03  0.31111307361E+03  0.17426681561E+03 0.  0.
         24    2    5    5    0    0  0.47154804196E+02 -0.84698045207E+02  0.16304918121E+03  0.20649898708E+03  0.81605525254E+02 0.  0.
          5    1    5    5  501    0 -0.75164887555E+02 -0.28536449102E+02  0.66767715641E+02  0.10461408653E+03  0.47000000000E+01 0. -1.
        -13    1    6    6    0    0  0.48255179772E+02 -0.12802645768E+02  0.39962274929E+02  0.63948835259E+02  0.00000000000E+00 0.  1.
         14    1    6    6    0    0 -0.11003755766E+01 -0.71895399438E+02  0.12308690628E+03  0.14255015182E+03  0.00000000000E+00 0. -1.
         -5    1    3    3    0  503  0.62500355211E+02  0.40119374269E+02  0.61756086665E+02  0.96704512994E+02  0.47000000000E+01 0.  1.
         13    1    4    4    0    0  0.68737648413E+01  0.33249803977E+02  0.21988752513E+03  0.22249341971E+03  0.00000000000E+00 0. -1.
        -14    1    4    4    0    0 -0.41364036693E+02  0.39865316063E+02  0.85188882033E+02  0.10274907580E+03  0.00000000000E+00 0.  1.
</event>
<event>
12    1  0.8494789E-002  0.2039377E+03  0.7818608E-02  0.1146564E+00
         21   -1    0    0  501  502  0.00000000000E+00  0.00000000000E+00  0.51383684606E+02  0.51383684606E+02  0.00000000000E+00 0. -1.
         21   -1    0    0  502  503 -0.00000000000E+00 -0.00000000000E+00 -0.81732425629E+03  0.81732425629E+03  0.00000000000E+00 0.  1.
         -6    2    1    2    0  503  0.82556731169E+02 -0.67754991068E+02 -0.33461085246E+03  0.39159589783E+03  0.17313743655E+03 0.  0.
        -24    2    3    3    0    0  0.12080804074E+03 -0.41775201929E+02 -0.29205492683E+03  0.32857836904E+03  0.79548187371E+02 0.  0.
          6    2    1    2  501    0 -0.82556731169E+02  0.67754991068E+02 -0.43132971922E+03  0.47711204307E+03  0.17373607075E+03 0.  0.
         24    2    5    5    0    0 -0.28846945842E+02 -0.20491600629E+02 -0.11430182769E+03  0.14364393965E+03  0.79477176631E+02 0.  0.
          5    1    5    5  501    0 -0.53709785327E+02  0.88246591696E+02 -0.31702789153E+03  0.33346810341E+03  0.47000000000E+01 0. -1.
        -11    1    6    6    0    0 -0.54422111980E+02 -0.17641412965E+02 -0.97067354361E+02  0.11267234357E+03  0.00000000000E+00 0.  1.
         12    1    6    6    0    0  0.25575166139E+02 -0.28501876634E+01 -0.17234473325E+02  0.30971596077E+02  0.00000000000E+00 0. -1.
         -5    1    3    3    0  503 -0.38251309571E+02 -0.25979789139E+02 -0.42555925633E+02  0.63017528784E+02  0.47000000000E+01 0.  1.
         13    1    4    4    0    0  0.29705728354E+02  0.18937668255E+01 -0.14304430820E+02  0.33024739074E+02  0.00000000000E+00 0. -1.
        -14    1    4    4    0    0  0.91102312386E+02 -0.43668968754E+02 -0.27775049601E+03  0.29555362997E+03  0.00000000000E+00 0.  1.
</event>
<event>
12    1  0.8494789E-002  0.2058558E+03  0.7818608E-02  0.1145202E+00
         21   -1    0    0  503  502  0.00000000000E+00  0.00000000000E+00  0.16373456368E+03  0.16373456368E+03  0.00000000000E+00 0.  1.
         21   -1    0    0  501  503 -0.00000000000E+00 -0.00000000000E+00 -0.31820970801E+03  0.31820970801E+03  0.00000000000E+00 0.  1.
          6    2    1    2  501    0 -0.88570656786E+02  0.65418205831E+02 -0.18324831063E+03  0.27560217958E+03  0.17393192675E+03 0.  0.
         24    2    3    3    0    0  0.21787065269E+02  0.33402506081E+02 -0.58880700354E+02  0.10621143505E+03  0.78889342974E+02 0.  0.
         -6    2    1    2    0  502  0.88570656786E+02 -0.65418205831E+02  0.28773166300E+02  0.20634209211E+03  0.17211874093E+03 0.  0.
        -24    2    5    5    0    0  0.10284740501E+03  0.14836516610E+01  0.42472836226E+02  0.13641745388E+03  0.78904942589E+02 0.  0.
          5    1    3    3  501    0 -0.11035772206E+03  0.32015699750E+02 -0.12436761028E+03  0.16939074453E+03  0.47000000000E+01 0. -1.
        -11    1    4    4    0    0 -0.20262859127E+02  0.32991042383E+02 -0.68604563595E+01  0.39319946580E+02  0.00000000000E+00 0.  1.
         12    1    4    4    0    0  0.42049924396E+02  0.41146369795E+00 -0.52020243994E+02  0.66891488467E+02  0.00000000000E+00 0. -1.
         -5    1    5    5    0  502 -0.14276748227E+02 -0.66901857492E+02 -0.13699669926E+02  0.69924638232E+02  0.47000000000E+01 0.  1.
         13    1    6    6    0    0  0.76287593093E+01  0.29422732115E+02  0.10622215269E+02  0.32198238942E+02  0.00000000000E+00 0. -1.
        -14    1    6    6    0    0  0.95218645704E+02 -0.27939080454E+02  0.31850620956E+02  0.10421921493E+03  0.00000000000E+00 0.  1.
</event>
<event>
12    1  0.8494789E-002  0.1821617E+03  0.7818608E-02  0.1165791E+00
         21   -1    0    0  503  502  0.00000000000E+00  0.00000000000E+00  0.25122744140E+03  0.25122744140E+03  0.00000000000E+00 0. -1.
         21   -1    0    0  501  503 -0.00000000000E+00 -0.00000000000E+00 -0.53207504758E+03  0.53207504758E+03  0.00000000000E+00 0. -1.
          6    2    1    2  501    0 -0.47756215178E+02 -0.39250872882E+02 -0.48010836469E+03  0.51350456730E+03  0.17135230282E+03 0.  0.
         24    2    3    3    0    0 -0.43659224819E+02  0.27598899142E+01 -0.45533600291E+03  0.46433700249E+03  0.79776133235E+02 0.  0.
         -6    2    1    2    0  502  0.47756215178E+02  0.39250872882E+02  0.19926075851E+03  0.26979792168E+03  0.17106952256E+03 0.  0.
        -24    2    5    5    0    0  0.30728816463E+02  0.35558531410E+02  0.27257100183E+02  0.96850200760E+02  0.80176945313E+02 0.  0.
          5    1    3    3  501    0 -0.40969903586E+01 -0.42010762796E+02 -0.24772361778E+02  0.49167564804E+02  0.47000000000E+01 0. -1.
        -13    1    4    4    0    0 -0.18288012282E+02  0.17927654724E+02 -0.37231527692E+02  0.45188923990E+02  0.00000000000E+00 0.  1.
         14    1    4    4    0    0 -0.25371212537E+02 -0.15167764810E+02 -0.41810447522E+03  0.41914807850E+03  0.00000000000E+00 0. -1.
         -5    1    5    5    0  502  0.17027398714E+02  0.36923414720E+01  0.17200365833E+03  0.17294772092E+03  0.47000000000E+01 0.  1.
         13    1    6    6    0    0  0.50474918560E+02 -0.18031590053E+01  0.11922992882E+02  0.51895342231E+02  0.00000000000E+00 0. -1.
        -14    1    6    6    0    0 -0.19746102096E+02  0.37361690415E+02  0.15334107301E+02  0.44954858529E+02  0.00000000000E+00 0.  1.
</event>
<event>
12    1  0.8494789E-002  0.1998272E+03  0.7818608E-02  0.1151807E+00
         21   -1    0    0  501  502  0.00000000000E+00  0.00000000000E+00  0.16865276305E+04  0.16865276305E+04  0.00000000000E+00 0.  1.
         21   -1    0    0  502  503 -0.00000000000E+00 -0.00000000000E+00 -0.23499032831E+02  0.23499032831E+02  0.00000000000E+00 0.  1.
         -6    2    1    2    0  503  0.68217341810E+02  0.44437010264E+02  0.64942493543E+03  0.67691325891E+03  0.17271525621E+03 0.  0.
        -24    2    3    3    0    0 -0.28928478781E+01 -0.30299778270E+02  0.41716804104E+03  0.42273300470E+03  0.61217429451E+02 0.  0.
          6    2    1    2  501    0 -0.68217341810E+02 -0.44437010264E+02  0.10136036622E+04  0.10331134044E+04  0.18249018790E+03 0.  0.
         24    2    5    5    0    0 -0.43914874184E+02  0.22012310384E+02  0.25896337546E+03  0.27514891015E+03  0.78941971993E+02 0.  0.
          5    1    5    5  501    0 -0.24302467626E+02 -0.66449320648E+02  0.75464028677E+03  0.75796449426E+03  0.47000000000E+01 0. -1.
        -11    1    6    6    0    0 -0.18975278922E+02 -0.18404000116E+02  0.18743529622E+03  0.18929014422E+03  0.00000000000E+00 0.  1.
         12    1    6    6    0    0 -0.24939595262E+02  0.40416310501E+02  0.71528079238E+02  0.85858765923E+02  0.00000000000E+00 0. -1.
         -5    1    3    3    0  503  0.71110189688E+02  0.74736788534E+02  0.23225689439E+03  0.25418025421E+03  0.47000000000E+01 0.  1.
         13    1    4    4    0    0 -0.76560853524E+01 -0.35273861793E+02  0.11599603380E+03  0.12148226548E+03  0.00000000000E+00 0. -1.
        -14    1    4    4    0    0  0.47632374743E+01  0.49740835232E+01  0.30117200724E+03  0.30125073922E+03  0.00000000000E+00 0.  1.
</event>
<event>
12    1  0.8494789E-002  0.1780011E+03  0.7818608E-02  0.1169849E+00
         21   -1    0    0  501  502  0.00000000000E+00  0.00000000000E+00  0.19135129430E+03  0.19135129430E+03  0.00000000000E+00 0.  1.
         21   -1    0    0  502  503 -0.00000000000E+00 -0.00000000000E+00 -0.44504426052E+03  0.44504426052E+03  0.00000000000E+00 0.  1.
         -6    2    1    2    0  503 -0.25487692629E+02 -0.38098771486E+02 -0.37910849428E+03  0.41864924380E+03  0.17158904403E+03 0.  0.
        -24    2    3    3    0    0  0.21508092212E+01 -0.86716097541E+02 -0.29186052711E+03  0.31491000844E+03  0.80383073950E+02 0.  0.
          6    2    1    2  501    0  0.25487692629E+02  0.38098771486E+02  0.12541552806E+03  0.21774631102E+03  0.17199785587E+03 0.  0.
         24    2    5    5    0    0 -0.16427286147E+01 -0.40780693033E+02  0.74744286346E+02  0.12003400670E+03  0.84591317178E+02 0.  0.
          5    1    5    5  501    0  0.27130421244E+02  0.78879464519E+02  0.50671241711E+02  0.97712304324E+02  0.47000000000E+01 0. -1.
        -11    1    6    6    0    0  0.38225402093E+02 -0.23217572058E+01  0.34732346810E+02  0.51700172501E+02  0.00000000000E+00 0.  1.
         12    1    6    6    0    0 -0.39868130708E+02 -0.38458935827E+02  0.40011939536E+02  0.68333834200E+02  0.00000000000E+00 0. -1.
         -5    1    3    3    0  503 -0.27638501850E+02  0.48617326054E+02 -0.87247967172E+02  0.10373923536E+03  0.47000000000E+01 0.  1.
         11    1    4    4    0    0  0.27363638824E+02 -0.83469434771E+02 -0.18122074773E+03  0.20138737468E+03  0.00000000000E+00 0. -1.
        -12    1    4    4    0    0 -0.25212829603E+02 -0.32466627700E+01 -0.11063977938E+03  0.11352263376E+03  0.00000000000E+00 0.  1.
</event>
<event>
12    1  0.8494789E-002  0.2455862E+03  0.7818608E-02  0.1116133E+00
         21   -1    0    0  503  502  0.00000000000E+00  0.00000000000E+00  0.11835268037E+04  0.11835268037E+04  0.00000000000E+00 0.  1.
         21   -1    0    0  501  503 -0.00000000000E+00 -0.00000000000E+00 -0.61913221244E+02  0.61913221244E+02  0.00000000000E+00 0.  1.
          6    2    1    2  501    0 -0.15634433339E+03  0.81142043374E+02  0.82278820974E+03  0.85864655784E+03  0.17107276642E+03 0.  0.
         24    2    3    3    0    0 -0.73212230065E+02  0.10117887817E+03  0.38203388517E+03  0.40964891199E+03  0.79152673068E+02 0.  0.
         -6    2    1    2    0  502  0.15634433339E+03 -0.81142043374E+02  0.29882537270E+03  0.38679346709E+03  0.17112860961E+03 0.  0.
        -24    2    5    5    0    0 -0.23772644131E+01 -0.36644753135E+02  0.10148451544E+03  0.12962026010E+03  0.71790080346E+02 0.  0.
          5    1    3    3  501    0 -0.83132103328E+02 -0.20036834799E+02  0.44075432457E+03  0.44899764585E+03  0.47000000000E+01 0. -1.
        -11    1    4    4    0    0 -0.76863217517E+02  0.50626360114E+02  0.19119989318E+03  0.21219892011E+03  0.00000000000E+00 0.  1.
         12    1    4    4    0    0  0.36509874516E+01  0.50552518059E+02  0.19083399199E+03  0.19744999187E+03  0.00000000000E+00 0. -1.
         -5    1    5    5    0  502  0.15872159781E+03 -0.44497290239E+02  0.19734085725E+03  0.25717320698E+03  0.47000000000E+01 0.  1.
         13    1    6    6    0    0  0.30087805087E+01  0.21619955673E+02  0.22806315384E+02  0.31569023818E+02  0.00000000000E+00 0. -1.
        -14    1    6    6    0    0 -0.53860449218E+01 -0.58264708808E+02  0.78678200059E+02  0.98051236284E+02  0.00000000000E+00 0.  1.
</event>
<event>
12    1  0.8494789E-002  0.1834511E+03  0.7818608E-02  0.1165432E+00
         21   -1    0    0  503  502  0.00000000000E+00  0.00000000000E+00  0.31178236473E+03  0.31178236473E+03  0.00000000000E+00 0. -1.
         21   -1    0    0  501  503 -0.00000000000E+00 -0.00000000000E+00 -0.16656107060E+03  0.16656107060E+03  0.00000000000E+00 0. -1.
          6    2    1    2  501    0  0.40907321843E+02 -0.51106797477E+02 -0.71503984916E+02  0.19689371246E+03  0.17137386154E+03 0.  0.
         24    2    3    3    0    0  0.68233346107E+02  0.18176428249E+02 -0.25036875413E+02  0.10898376288E+03  0.79148236724E+02 0.  0.
         -6    2    1    2    0  502 -0.40907321843E+02  0.51106797477E+02  0.21672527904E+03  0.28144972287E+03  0.16720881017E+03 0.  0.
        -24    2    5    5    0    0 -0.73752126104E+02  0.18192162691E+02  0.20531156071E+03  0.23334029223E+03  0.80774526492E+02 0.  0.
          5    1    3    3  501    0 -0.27326024264E+02 -0.69283225726E+02 -0.46467109503E+02  0.87909949578E+02  0.47000000000E+01 0. -1.
        -13    1    4    4    0    0  0.28082021396E+02 -0.11256228905E+02  0.24367415453E+02  0.38846795888E+02  0.00000000000E+00 0.  1.
         14    1    4    4    0    0  0.40151324711E+02  0.29432657154E+02 -0.49404290866E+02  0.70136966994E+02  0.00000000000E+00 0. -1.
         -5    1    5    5    0  502  0.32844804261E+02  0.32914634786E+02  0.11413718334E+02  0.48109430638E+02  0.47000000000E+01 0.  1.
         13    1    6    6    0    0 -0.18537698446E+02  0.30118185438E+02  0.22300509541E+02  0.41809856297E+02  0.00000000000E+00 0. -1.
        -14    1    6    6    0    0 -0.55214427659E+02 -0.11926022747E+02  0.18301105116E+03  0.19153043593E+03  0.00000000000E+00 0.  1.
</event>
<event>
12    1  0.8494789E-002  0.4992159E+03  0.7818608E-02  0.1014078E+00
         21   -1    0    0  503  502  0.00000000000E+00  0.00000000000E+00  0.35233937587E+03  0.35233937587E+03  0.00000000000E+00 0.  1.
         21   -1    0    0  501  503 -0.00000000000E+00 -0.00000000000E+00 -0.71001711566E+03  0.71001711566E+03  0.00000000000E+00 0. -1.
          6    2    1    2  501    0  0.46550566482E+03  0.38074416359E+02 -0.13517698181E+03  0.51580080063E+03  0.17214082711E+03 0.  0.
         24    2    3    3    0    0  0.32101097713E+03  0.50702567541E+02 -0.28779898852E+02  0.33585465804E+03  0.79694861522E+02 0.  0.
         -6    2    1    2    0  502 -0.46550566482E+03 -0.38074416359E+02 -0.22250075798E+03  0.54655569090E+03  0.17627067477E+03 0.  0.
        -24    2    5    5    0    0 -0.35558356052E+03  0.28686923801E+02 -0.12747880653E+03  0.38658317196E+03  0.77026583873E+02 0.  0.
          5    1    3    3  501    0  0.14449468769E+03 -0.12628151182E+02 -0.10639708296E+03  0.17994614259E+03  0.47000000000E+01 0. -1.
        -11    1    4    4    0    0  0.12263041901E+03  0.23771698685E+02 -0.49967379802E+02  0.13453643510E+03  0.00000000000E+00 0.  1.
         12    1    4    4    0    0  0.19838055812E+03  0.26930868856E+02  0.21187480950E+02  0.20131822294E+03  0.00000000000E+00 0. -1.
         -5    1    5    5    0  502 -0.10992210430E+03 -0.66761340160E+02 -0.95021951458E+02  0.15997251893E+03  0.47000000000E+01 0.  1.
         11    1    6    6    0    0 -0.52937836753E+02  0.18834682874E+02  0.42836700691E+01  0.56351660742E+02  0.00000000000E+00 0. -1.
        -12    1    6    6    0    0 -0.30264572377E+03  0.98522409266E+01 -0.13176247659E+03  0.33023151122E+03  0.00000000000E+00 0.  1.
</event>
<event>
12    1  0.8494789E-002  0.1920542E+03  0.7818608E-02  0.1157620E+00
         21   -1    0    0  503  502  0.00000000000E+00  0.00000000000E+00  0.11002517153E+03  0.11002517153E+03  0.00000000000E+00 0. -1.
         21   -1    0    0  501  503 -0.00000000000E+00 -0.00000000000E+00 -0.42294999788E+03  0.42294999788E+03  0.00000000000E+00 0. -1.
          6    2    1    2  501    0  0.66151736477E+02 -0.51923184055E+02 -0.28443719485E+03  0.34320450888E+03  0.17266368415E+03 0.  0.
         24    2    3    3    0    0  0.11652447074E+02 -0.90570735249E+02 -0.17516590551E+03  0.21504012057E+03  0.84972474332E+02 0.  0.
         -6    2    1    2    0  502 -0.66151736477E+02  0.51923184055E+02 -0.28487631502E+02  0.18977066053E+03  0.16771788565E+03 0.  0.
        -24    2    5    5    0    0 -0.82818822234E+02 -0.17690608856E+02 -0.11235721756E+02  0.11598996996E+03  0.78457101202E+02 0.  0.
          5    1    3    3  501    0  0.54499289403E+02  0.38647551194E+02 -0.10927128934E+03  0.12816438832E+03  0.47000000000E+01 0. -1.
        -11    1    4    4    0    0  0.64803413751E+01 -0.11498813182E+02  0.80237425776E+01  0.15446616908E+02  0.00000000000E+00 0.  1.
         12    1    4    4    0    0  0.51721056989E+01 -0.79071922067E+02 -0.18318964809E+03  0.19959350366E+03  0.00000000000E+00 0. -1.
         -5    1    5    5    0  502  0.16667085757E+02  0.69613792911E+02 -0.17251909747E+02  0.73780690570E+02  0.47000000000E+01 0.  1.
         11    1    6    6    0    0 -0.51562896218E+02  0.25602288135E+02  0.10173485623E+02  0.58461177151E+02  0.00000000000E+00 0. -1.
        -12    1    6    6    0    0 -0.31255926016E+02 -0.43292896991E+02 -0.21409207378E+02  0.57528792805E+02  0.00000000000E+00 0.  1.
</event>
<event>
12    1  0.8494789E-002  0.1808472E+03  0.7818608E-02  0.1167079E+00
         21   -1    0    0  501  502  0.00000000000E+00  0.00000000000E+00  0.11710260199E+04  0.11710260199E+04  0.00000000000E+00 0.  1.
         21   -1    0    0  502  503 -0.00000000000E+00 -0.00000000000E+00 -0.28646293599E+02  0.28646293599E+02  0.00000000000E+00 0.  1.
         -6    2    1    2    0  503  0.53848181098E+02 -0.56766305544E+01  0.47298830824E+03  0.50638289291E+03  0.17255098888E+03 0.  0.
        -24    2    3    3    0    0  0.37405375939E+02  0.24329771214E+02  0.45829023007E+03  0.46884792934E+03  0.88302581812E+02 0.  0.
          6    2    1    2  501    0 -0.53848181098E+02  0.56766305544E+01  0.66939141810E+03  0.69328942063E+03  0.17214383341E+03 0.  0.
         24    2    5    5    0    0 -0.49764853691E+02  0.67526409952E+02  0.34703288480E+03  0.36499202075E+03  0.75835317447E+02 0.  0.
          5    1    5    5  501    0 -0.40833274074E+01 -0.61849779398E+02  0.32235853330E+03  0.32829739988E+03  0.47000000000E+01 0. -1.
        -13    1    6    6    0    0 -0.36150591283E+02  0.61915374079E+01  0.53856438854E+02  0.65159161993E+02  0.00000000000E+00 0.  1.
         14    1    6    6    0    0 -0.13614262408E+02  0.61334872544E+02  0.29317644595E+03  0.29983285875E+03  0.00000000000E+00 0. -1.
         -5    1    3    3    0  503  0.16442805159E+02 -0.30006401768E+02  0.14698078170E+02  0.37534963574E+02  0.47000000000E+01 0.  1.
         13    1    4    4    0    0 -0.21858667094E+02  0.27835001447E+02  0.24134785437E+03  0.24392903771E+03  0.00000000000E+00 0. -1.
        -14    1    4    4    0    0  0.59264043033E+02 -0.35052302331E+01  0.21694237570E+03  0.22491889163E+03  0.00000000000E+00 0.  1.
</event>
<event>
12    1  0.8494789E-002  0.1779478E+03  0.7818608E-02  0.1170033E+00
         21   -1    0    0  501  502  0.00000000000E+00  0.00000000000E+00  0.34668381195E+03  0.34668381195E+03  0.00000000000E+00 0.  1.
         21   -1    0    0  502  503 -0.00000000000E+00 -0.00000000000E+00 -0.18732667989E+03  0.18732667989E+03  0.00000000000E+00 0.  1.
         -6    2    1    2    0  503 -0.40194737052E+02 -0.16750530174E+02 -0.11202743270E+03  0.20948777009E+03  0.17157733823E+03 0.  0.
        -24    2    3    3    0    0 -0.64916786882E+02 -0.27286308771E+02 -0.13990512788E+02  0.10772574356E+03  0.80314192467E+02 0.  0.
          6    2    1    2  501    0  0.40194737052E+02  0.16750530174E+02  0.27138456476E+03  0.32452272175E+03  0.17253758371E+03 0.  0.
         24    2    5    5    0    0  0.61592052518E+02 -0.60793008292E+01  0.77993625986E+02  0.12856050220E+03  0.81328089849E+02 0.  0.
          5    1    5    5  501    0 -0.21397315466E+02  0.22829831003E+02  0.19339093877E+03  0.19596221955E+03  0.47000000000E+01 0. -1.
        -11    1    6    6    0    0  0.57732472409E+02 -0.17655626693E+02  0.91964895119E+02  0.11001046068E+03  0.00000000000E+00 0.  1.
         12    1    6    6    0    0  0.38595801090E+01  0.11576325864E+02 -0.13971269133E+02  0.18550041518E+02  0.00000000000E+00 0. -1.
         -5    1    3    3    0  503  0.24722049830E+02  0.10535778596E+02 -0.98036919914E+02  0.10176202654E+03  0.47000000000E+01 0.  1.
         13    1    4    4    0    0 -0.31347728283E+01 -0.19090739125E+01  0.28388333092E+02  0.28624619117E+02  0.00000000000E+00 0. -1.
        -14    1    4    4    0    0 -0.61782014054E+02 -0.25377234858E+02 -0.42378845880E+02  0.79101124440E+02  0.00000000000E+00 0.  1.
</event>
<event>
12    1  0.8494789E-002  0.1942455E+03  0.7818608E-02  0.1155903E+00
         21   -1    0    0  503  502  0.00000000000E+00  0.00000000000E+00  0.43656094145E+03  0.43656094145E+03  0.00000000000E+00 0. -1.
         21   -1    0    0  501  503 -0.00000000000E+00 -0.00000000000E+00 -0.20432181962E+03  0.20432181962E+03  0.00000000000E+00 0.  1.
          6    2    1    2  501    0 -0.84879500469E+02  0.46426950289E+01 -0.13044032386E+03  0.22946119777E+03  0.16855764290E+03 0.  0.
         24    2    3    3    0    0 -0.93645369534E+02  0.34259057671E+02 -0.70180716442E+02  0.16158425263E+03  0.10602357978E+03 0.  0.
         -6    2    1    2    0  502  0.84879500469E+02 -0.46426950289E+01  0.36267944569E+03  0.41142156330E+03  0.17465748826E+03 0.  0.
        -24    2    5    5    0    0  0.12554545957E+03  0.12913003324E+02  0.28649592590E+03  0.32317224907E+03  0.80199619328E+02 0.  0.
          5    1    3    3  501    0  0.87658690644E+01 -0.29616362642E+02 -0.60259607416E+02  0.67876945148E+02  0.47000000000E+01 0. -1.
        -11    1    4    4    0    0 -0.91299047883E+01 -0.15602715621E+02 -0.60310244816E+02  0.62961301813E+02  0.00000000000E+00 0.  1.
         12    1    4    4    0    0 -0.84515464745E+02  0.49861773292E+02 -0.98704716254E+01  0.98622950813E+02  0.00000000000E+00 0. -1.
         -5    1    5    5    0  502 -0.40665959097E+02 -0.17555698353E+02  0.76183519786E+02  0.88249314223E+02  0.47000000000E+01 0.  1.
         11    1    6    6    0    0  0.56486938484E+02 -0.34070440005E+02  0.13022970759E+03  0.14598406023E+03  0.00000000000E+00 0. -1.
        -12    1    6    6    0    0  0.69058521082E+02  0.46983443329E+02  0.15626621831E+03  0.17718818885E+03  0.00000000000E+00 0.  1.
</event>
<event>
12    1  0.8494789E-002  0.1896707E+03  0.7818608E-02  0.1158873E+00
         21   -1    0    0  501  502  0.00000000000E+00  0.00000000000E+00  0.58288736426E+02  0.58288736426E+02  0.00000000000E+00 0. -1.
         21   -1    0    0  502  503 -0.00000000000E+00 -0.00000000000E+00 -0.96238726147E+03  0.96238726147E+03  0.00000000000E+00 0. -1.
         -6    2    1    2    0  503  0.57231581511E+02 -0.52032519168E+02 -0.75880276074E+03  0.78214870451E+03  0.17318235847E+03 0.  0.
        -24    2    3    3    0    0 -0.68506817226E+01 -0.12793143869E+02 -0.61035371875E+03  0.61569909321E+03  0.79643675278E+02 0.  0.
          6    2    1    2  501    0 -0.57231581511E+02  0.52032519168E+02 -0.14529576431E+03  0.23852729339E+03  0.17263132275E+03 0.  0.
         24    2    5    5    0    0  0.33708681512E+02  0.16488987140E+02 -0.89090301057E+02  0.12576817754E+03  0.80451170496E+02 0.  0.
          5    1    5    5  501    0 -0.90940263023E+02  0.35543532028E+02 -0.56205463252E+02  0.11275911585E+03  0.47000000000E+01 0. -1.
        -11    1    6    6    0    0  0.39741178522E+02 -0.65640464943E+01 -0.93250894534E+02  0.10157842934E+03  0.00000000000E+00 0.  1.
         12    1    6    6    0    0 -0.60324970093E+01  0.23053033634E+02  0.41605934769E+01  0.24189748200E+02  0.00000000000E+00 0. -1.
         -5    1    3    3    0  503  0.64082263234E+02 -0.39239375299E+02 -0.14844904199E+03  0.16644961130E+03  0.47000000000E+01 0.  1.
         13    1    4    4    0    0  0.16879321208E+02 -0.40726013376E+02 -0.35559384416E+03  0.35831620345E+03  0.00000000000E+00 0. -1.
        -14    1    4    4    0    0 -0.23730002931E+02  0.27932869507E+02 -0.25475987459E+03  0.25738288975E+03  0.00000000000E+00 0.  1.
</event>
<event>
12    1  0.8494789E-002  0.1829116E+03  0.7818608E-02  0.1165119E+00
         21   -1    0    0  503  502  0.00000000000E+00  0.00000000000E+00  0.42902837232E+02  0.42902837232E+02  0.00000000000E+00 0. -1.
         21   -1    0    0  501  503 -0.00000000000E+00 -0.00000000000E+00 -0.85480262650E+03  0.85480262650E+03  0.00000000000E+00 0. -1.
          6    2    1    2  501    0 -0.16486400520E+02  0.60980967886E+02 -0.54009053103E+03  0.57008233532E+03  0.17118880654E+03 0.  0.
         24    2    3    3    0    0  0.48123922437E+02  0.30253539323E+02 -0.42057846630E+03  0.43071271052E+03  0.73457498871E+02 0.  0.
         -6    2    1    2    0  502  0.16486400520E+02 -0.60980967886E+02 -0.27180925824E+03  0.32762312841E+03  0.17165710461E+03 0.  0.
        -24    2    5    5    0    0  0.65812846085E+02 -0.26328629081E+02 -0.99272835922E+02  0.14479865018E+03  0.78019393247E+02 0.  0.
          5    1    3    3  501    0 -0.64610322957E+02  0.30727428563E+02 -0.11951206474E+03  0.13936962480E+03  0.47000000000E+01 0. -1.
        -11    1    4    4    0    0  0.71065659893E+01  0.33918477152E+02 -0.74188718724E+02  0.81883651350E+02  0.00000000000E+00 0.  1.
         12    1    4    4    0    0  0.41017356448E+02 -0.36649378297E+01 -0.34638974757E+03  0.34882905917E+03  0.00000000000E+00 0. -1.
         -5    1    5    5    0  502 -0.49326445565E+02 -0.34652338805E+02 -0.17253642232E+03  0.18282447824E+03  0.47000000000E+01 0.  1.
         13    1    6    6    0    0  0.30475025899E+02 -0.50331632906E+02 -0.37780519176E+02  0.69924016645E+02  0.00000000000E+00 0. -1.
        -14    1    6    6    0    0  0.35337820186E+02  0.24003003825E+02 -0.61492316746E+02  0.74874633535E+02  0.00000000000E+00 0.  1.
</event>
<event>
12    1  0.8494789E-002  0.2040937E+03  0.7818608E-02  0.1146659E+00
         21   -1    0    0  501  502  0.00000000000E+00  0.00000000000E+00  0.29788642592E+03  0.29788642592E+03  0.00000000000E+00 0.  1.
         21   -1    0    0  502  503 -0.00000000000E+00 -0.00000000000E+00 -0.18374624919E+03  0.18374624919E+03  0.00000000000E+00 0.  1.
         -6    2    1    2    0  503  0.11861460124E+02 -0.11134140079E+03 -0.61938981126E+02  0.21328546551E+03  0.17063601802E+03 0.  0.
        -24    2    3    3    0    0  0.54064762966E+02 -0.25671160142E+02 -0.85936525631E+00  0.99824818680E+02  0.79888978327E+02 0.  0.
          6    2    1    2  501    0 -0.11861460124E+02  0.11134140079E+03  0.17607915785E+03  0.26834720960E+03  0.16872686005E+03 0.  0.
         24    2    5    5    0    0 -0.61024037433E+02  0.36165986424E+02  0.13073639696E+03  0.16761807827E+03  0.77278088443E+02 0.  0.
          5    1    5    5  501    0  0.49162577309E+02  0.75175414369E+02  0.45342760887E+02  0.10072913133E+03  0.47000000000E+01 0. -1.
        -13    1    6    6    0    0 -0.19541262429E+02  0.17423052760E+01 -0.61011414481E+01  0.20545571103E+02  0.00000000000E+00 0.  1.
         14    1    6    6    0    0 -0.41482775004E+02  0.34423681148E+02  0.13683753841E+03  0.14707250717E+03  0.00000000000E+00 0. -1.
         -5    1    3    3    0  503 -0.42203302842E+02 -0.85670240650E+02 -0.61079615870E+02  0.11346064683E+03  0.47000000000E+01 0.  1.
         13    1    4    4    0    0  0.32338425913E+02 -0.16395857443E+02 -0.40075545196E+02  0.54043013004E+02  0.00000000000E+00 0. -1.
        -14    1    4    4    0    0  0.21726337053E+02 -0.92753026995E+01  0.39216179939E+02  0.45781805676E+02  0.00000000000E+00 0.  1.
</event>
<event>
12    1  0.8494789E-002  0.1898481E+03  0.7818608E-02  0.1158688E+00
         21   -1    0    0  501  502  0.00000000000E+00  0.00000000000E+00  0.15938204277E+03  0.15938204277E+03  0.00000000000E+00 0.  1.
         21   -1    0    0  502  503 -0.00000000000E+00 -0.00000000000E+00 -0.22567656146E+03  0.22567656146E+03  0.00000000000E+00 0.  1.
         -6    2    1    2    0  503  0.29443103719E+02 -0.73896580525E+02 -0.31865496941E+02  0.19211386952E+03  0.17194396760E+03 0.  0.
        -24    2    3    3    0    0  0.26031661924E+02 -0.29490418054E+00 -0.69486202647E+02  0.10925101781E+03  0.80185523271E+02 0.  0.
          6    2    1    2  501    0 -0.29443103719E+02  0.73896580525E+02 -0.34429021745E+02  0.19294473471E+03  0.17237955837E+03 0.  0.
         24    2    5    5    0    0 -0.83302591188E+02  0.39372077489E+02 -0.42432784743E+02  0.12830004489E+03  0.78554936905E+02 0.  0.
          5    1    5    5  501    0  0.53859487469E+02  0.34524503036E+02  0.80037629986E+01  0.64644689825E+02  0.47000000000E+01 0. -1.
        -13    1    6    6    0    0  0.59348394911E+01  0.14689144353E+02 -0.31253259414E+02  0.35039399333E+02  0.00000000000E+00 0.  1.
         14    1    6    6    0    0 -0.89237430679E+02  0.24682933136E+02 -0.11179525329E+02  0.93260645553E+02  0.00000000000E+00 0. -1.
         -5    1    3    3    0  503  0.34114417946E+01 -0.73601676345E+02  0.37620705706E+02  0.82862851711E+02  0.47000000000E+01 0.  1.
         13    1    4    4    0    0 -0.28111330982E+01 -0.36491631749E+02 -0.20891879248E+02  0.42142760654E+02  0.00000000000E+00 0. -1.
        -14    1    4    4    0    0  0.28842795022E+02  0.36196727569E+02 -0.48594323399E+02  0.67108257152E+02  0.00000000000E+00 0.  1.
</event>
<event>
12    1  0.8494789E-002  0.1785914E+03  0.7818608E-02  0.1169328E+00
         21   -1    0    0  501  502  0.00000000000E+00  0.00000000000E+00  0.51327707324E+03  0.51327707324E+03  0.00000000000E+00 0.  1.
         21   -1    0    0  502  503 -0.00000000000E+00 -0.00000000000E+00 -0.10039600091E+03  0.10039600091E+03  0.00000000000E+00 0.  1.
         -6    2    1    2    0  503  0.37773094941E+02  0.26993150954E+02  0.16265274783E+02  0.17870298642E+03  0.17179860678E+03 0.  0.
        -24    2    3    3    0    0  0.38366222292E+01  0.83263169985E+01  0.73062069568E+02  0.10979652252E+03  0.81444233205E+02 0.  0.
          6    2    1    2  501    0 -0.37773094941E+02 -0.26993150954E+02  0.39661579754E+03  0.43497008772E+03  0.17245129588E+03 0.  0.
         24    2    5    5    0    0 -0.14759753708E+02  0.35822434017E+02  0.10937033963E+03  0.13999982705E+03  0.78338900133E+02 0.  0.
          5    1    5    5  501    0 -0.23013341233E+02 -0.62815584972E+02  0.28724545791E+03  0.29497026067E+03  0.47000000000E+01 0. -1.
        -11    1    6    6    0    0  0.15639249464E+02  0.64123935703E+01  0.93194735867E+02  0.94715171479E+02  0.00000000000E+00 0.  1.
         12    1    6    6    0    0 -0.30399003172E+02  0.29410040447E+02  0.16175603767E+02  0.45284655571E+02  0.00000000000E+00 0. -1.
         -5    1    3    3    0  503  0.33936472712E+02  0.18666833956E+02 -0.56796794785E+02  0.68906463905E+02  0.47000000000E+01 0.  1.
         13    1    4    4    0    0  0.15592643814E+02  0.42708399403E+02  0.43961644805E+02  0.63243688496E+02  0.00000000000E+00 0. -1.
        -14    1    4    4    0    0 -0.11756021585E+02 -0.34382082404E+02  0.29100424763E+02  0.46552834021E+02  0.00000000000E+00 0.  1.
</event>
<event>
12    1  0.8494789E-002  0.1874754E+03  0.7818608E-02  0.1161190E+00
         21   -1    0    0  503  502  0.00000000000E+00  0.00000000000E+00  0.59456720616E+03  0.59456720616E+03  0.00000000000E+00 0.  1.
         21   -1    0    0  501  503 -0.00000000000E+00 -0.00000000000E+00 -0.20274827388E+03  0.20274827388E+03  0.00000000000E+00 0.  1.
          6    2    1    2  501    0 -0.71533560753E+02 -0.20416060976E+02 -0.14003784034E+03  0.23400345636E+03  0.17208473204E+03 0.  0.
         24    2    3    3    0    0  0.14058393030E+02  0.15219642344E+02 -0.23497236417E+02  0.85007858218E+02  0.79024932217E+02 0.  0.
         -6    2    1    2    0  502  0.71533560753E+02  0.20416060976E+02  0.53185677261E+03  0.56331202369E+03  0.17004394608E+03 0.  0.
        -24    2    5    5    0    0  0.71863994435E+02  0.12803159858E+02  0.21830858157E+03  0.24963603871E+03  0.96597931831E+02 0.  0.
          5    1    3    3  501    0 -0.85591953783E+02 -0.35635703320E+02 -0.11654060392E+03  0.14899559814E+03  0.47000000000E+01 0. -1.
        -11    1    4    4    0    0 -0.22192997684E+01 -0.18909936995E+02 -0.39576724924E+02  0.43918426251E+02  0.00000000000E+00 0.  1.
         12    1    4    4    0    0  0.16277692799E+02  0.34129579340E+02  0.16079488507E+02  0.41089431967E+02  0.00000000000E+00 0. -1.
         -5    1    5    5    0  502 -0.33043368201E+00  0.76129011181E+01  0.31354819104E+03  0.31367598498E+03  0.47000000000E+01 0.  1.
         11    1    6    6    0    0  0.48327309067E+02 -0.18193490780E+02  0.35339289552E+02  0.62573135565E+02  0.00000000000E+00 0. -1.
        -12    1    6    6    0    0  0.23536685368E+02  0.30996650638E+02  0.18296929202E+03  0.18706290314E+03  0.00000000000E+00 0.  1.
</event>
<event>
12    1  0.8494789E-002  0.3078863E+03  0.7818608E-02  0.1081506E+00
         21   -1    0    0  503  502  0.00000000000E+00  0.00000000000E+00  0.23960243620E+03  0.23960243620E+03  0.00000000000E+00 0. -1.
         21   -1    0    0  501  503 -0.00000000000E+00 -0.00000000000E+00 -0.40258363437E+03  0.40258363437E+03  0.00000000000E+00 0.  1.
          6    2    1    2  501    0  0.21758193766E+03  0.13276492093E+03 -0.12818743143E+03  0.33350557069E+03  0.17270067828E+03 0.  0.
         24    2    3    3    0    0  0.13311974857E+03  0.25187384147E+02 -0.16749524307E+02  0.15701963654E+03  0.77584456673E+02 0.  0.
         -6    2    1    2    0  502 -0.21758193766E+03 -0.13276492093E+03 -0.34793766739E+02  0.30868049989E+03  0.17060076489E+03 0.  0.
        -24    2    5    5    0    0 -0.28590852231E+02 -0.23695923482E+02  0.14710218491E+01  0.87431993753E+02  0.79140735436E+02 0.  0.
          5    1    3    3  501    0  0.84462189090E+02  0.10757753679E+03 -0.11143790712E+03  0.17648593414E+03  0.47000000000E+01 0. -1.
        -13    1    4    4    0    0  0.28386112844E+02 -0.26643161926E+02  0.25541229923E+00  0.38931924114E+02  0.00000000000E+00 0.  1.
         14    1    4    4    0    0  0.10473363572E+03  0.51830546072E+02 -0.17004936606E+02  0.11808771243E+03  0.00000000000E+00 0. -1.
         -5    1    5    5    0  502 -0.18899108543E+03 -0.10906899745E+03 -0.36264788588E+02  0.22124850613E+03  0.47000000000E+01 0.  1.
         13    1    6    6    0    0 -0.10324255311E+02  0.29457747794E+02  0.42795394955E+00  0.31217499858E+02  0.00000000000E+00 0. -1.
        -14    1    6    6    0    0 -0.18266596920E+02 -0.53153671276E+02  0.10430678996E+01  0.56214493894E+02  0.00000000000E+00 0.  1.
</event>
<event>
12    1  0.8494789E-002  0.1749328E+03  0.7818608E-02  0.1173716E+00
         21   -1    0    0  501  502  0.00000000000E+00  0.00000000000E+00  0.49058541851E+03  0.49058541851E+03  0.00000000000E+00 0. -1.
         21   -1    0    0  502  503 -0.00000000000E+00 -0.00000000000E+00 -0.42293089518E+03  0.42293089518E+03  0.00000000000E+00 0. -1.
         -6    2    1    2    0  503 -0.28659528000E+02 -0.68775923799E+01 -0.38870016056E+03  0.42478214461E+03  0.16877021578E+03 0.  0.
        -24    2    3    3    0    0  0.20097275237E+02 -0.35998770915E+02 -0.33395616902E+03  0.34576149217E+03  0.79526565784E+02 0.  0.
          6    2    1    2  501    0  0.28659528000E+02  0.68775923799E+01  0.45635468389E+03  0.48873416909E+03  0.17243207563E+03 0.  0.
         24    2    5    5    0    0  0.15987953531E+02 -0.30182321639E+02  0.17230932499E+03  0.20196272362E+03  0.99658672750E+02 0.  0.
          5    1    5    5  501    0  0.12671574469E+02  0.37059914018E+02  0.28404535890E+03  0.28677144547E+03  0.47000000000E+01 0. -1.
        -13    1    6    6    0    0 -0.36477126366E+02  0.68661540005E+01  0.38180471485E+02  0.53249161698E+02  0.00000000000E+00 0.  1.
         14    1    6    6    0    0  0.52465079898E+02 -0.37048475639E+02  0.13412885351E+03  0.14871356192E+03  0.00000000000E+00 0. -1.
         -5    1    3    3    0  503 -0.48756803237E+02  0.29121178535E+02 -0.54743991545E+02  0.79020652436E+02  0.47000000000E+01 0.  1.
         13    1    4    4    0    0 -0.17071043186E+02 -0.41537288678E+02 -0.24674761720E+03  0.25080102364E+03  0.00000000000E+00 0. -1.
        -14    1    4    4    0    0  0.37168318423E+02  0.55385177638E+01 -0.87208551814E+02  0.94960468527E+02  0.00000000000E+00 0.  1.
</event>
<event>
12    1  0.8494789E-002  0.2788927E+03  0.7818608E-02  0.1096321E+00
         21   -1    0    0  503  502  0.00000000000E+00  0.00000000000E+00  0.20146726042E+03  0.20146726042E+03  0.00000000000E+00 0. -1.
         21   -1    0    0  501  503 -0.00000000000E+00 -0.00000000000E+00 -0.57908776724E+03  0.57908776724E+03  0.00000000000E+00 0.  1.
          6    2    1    2  501    0 -0.18078908033E+03 -0.12411882402E+03 -0.41423900578E+03  0.49926860614E+03  0.17200294511E+03 0.  0.
         24    2    3    3    0    0 -0.91760537470E+02 -0.36659737205E+02 -0.10302053733E+03  0.16392669344E+03  0.80590304264E+02 0.  0.
         -6    2    1    2    0  502  0.18078908033E+03  0.12411882402E+03  0.36618498968E+02  0.28128642151E+03  0.17231065671E+03 0.  0.
        -24    2    5    5    0    0  0.34571352963E+02  0.55126695848E+02  0.57733130989E+02  0.11816850333E+03  0.79978432870E+02 0.  0.
          5    1    3    3  501    0 -0.89028542863E+02 -0.87459086820E+02 -0.31121846845E+03  0.33534191270E+03  0.47000000000E+01 0. -1.
        -13    1    4    4    0    0 -0.56640694062E+02 -0.49141463921E+02 -0.10205493244E+03  0.12664225573E+03  0.00000000000E+00 0.  1.
         14    1    4    4    0    0 -0.35119843408E+02  0.12481726716E+02 -0.96560489193E+00  0.37284437714E+02  0.00000000000E+00 0. -1.
         -5    1    5    5    0  502  0.14621772737E+03  0.68992128177E+02 -0.21114632022E+02  0.16311791819E+03  0.47000000000E+01 0.  1.
         13    1    6    6    0    0  0.57057746936E+02  0.37282289679E+02  0.20540730314E+02  0.71186215035E+02  0.00000000000E+00 0. -1.
        -14    1    6    6    0    0 -0.22486393972E+02  0.17844406169E+02  0.37192400675E+02  0.46982288294E+02  0.00000000000E+00 0.  1.
</event>
<event>
12    1  0.8494789E-002  0.1987987E+03  0.7818608E-02  0.1150881E+00
         21   -1    0    0  501  502  0.00000000000E+00  0.00000000000E+00  0.18417911156E+03  0.18417911156E+03  0.00000000000E+00 0. -1.
         21   -1    0    0  502  503 -0.00000000000E+00 -0.00000000000E+00 -0.21427481953E+03  0.21427481953E+03  0.00000000000E+00 0.  1.
         -6    2    1    2    0  503  0.32188833321E+02  0.94334359155E+02 -0.72791055487E+01  0.19893192727E+03  0.17200533132E+03 0.  0.
        -24    2    3    3    0    0  0.65407737154E+02  0.26891907693E+02  0.38359977199E+02  0.11085811899E+03  0.76267213903E+02 0.  0.
          6    2    1    2  501    0 -0.32188833321E+02 -0.94334359155E+02 -0.22816602418E+02  0.19952200382E+03  0.17132816568E+03 0.  0.
         24    2    5    5    0    0  0.39581882207E+02 -0.30791605458E+02 -0.37619596814E+02  0.10241414730E+03  0.80985030328E+02 0.  0.
          5    1    5    5  501    0 -0.71770715528E+02 -0.63542753696E+02  0.14802994395E+02  0.97107856519E+02  0.47000000000E+01 0. -1.
        -11    1    6    6    0    0  0.19623533106E+01  0.26571445963E+02 -0.97888299034E+01  0.28385097533E+02  0.00000000000E+00 0.  1.
         12    1    6    6    0    0  0.37619528897E+02 -0.57363051421E+02 -0.27830766910E+02  0.74029049768E+02  0.00000000000E+00 0. -1.
         -5    1    3    3    0  503 -0.33218903833E+02  0.67442451462E+02 -0.45639082748E+02  0.88073808281E+02  0.47000000000E+01 0.  1.
         11    1    4    4    0    0  0.21836403926E+02 -0.66882297433E+01 -0.20216902055E+02  0.30500558720E+02  0.00000000000E+00 0. -1.
        -12    1    4    4    0    0  0.43571333228E+02  0.33580137436E+02  0.58576879254E+02  0.80357560271E+02  0.00000000000E+00 0.  1.
</event>
<event>
12    1  0.8494789E-002  0.1841832E+03  0.7818608E-02  0.1163934E+00
         21   -1    0    0  503  502  0.00000000000E+00  0.00000000000E+00  0.28768484461E+03  0.28768484461E+03  0.00000000000E+00 0.  1.
         21   -1    0    0  501  503 -0.00000000000E+00 -0.00000000000E+00 -0.11922093651E+03  0.11922093651E+03  0.00000000000E+00 0.  1.
          6    2    1    2  501    0 -0.41384305269E+02 -0.45452663172E+02  0.60365189849E+02  0.19334368223E+03  0.17308731323E+03 0.  0.
         24    2    3    3    0    0 -0.72754053458E+02  0.88430322749E+00  0.78511893633E+02  0.13433039208E+03  0.81157886291E+02 0.  0.
         -6    2    1    2    0  502  0.41384305269E+02  0.45452663172E+02  0.10809871825E+03  0.21356209890E+03  0.17362267100E+03 0.  0.
        -24    2    5    5    0    0  0.99845571142E+01  0.84588497301E+02  0.11350878280E+03  0.16287761907E+03  0.79937286447E+02 0.  0.
          5    1    3    3  501    0  0.31369748188E+02 -0.46336966400E+02 -0.18146703783E+02  0.59013290153E+02  0.47000000000E+01 0. -1.
        -13    1    4    4    0    0 -0.26305365863E+02  0.40054874577E+02  0.29560614453E+02  0.56304486299E+02  0.00000000000E+00 0.  1.
         14    1    4    4    0    0 -0.46448687595E+02 -0.39170571350E+02  0.48951279179E+02  0.78025905778E+02  0.00000000000E+00 0. -1.
         -5    1    5    5    0  502  0.31399748155E+02 -0.39135834129E+02 -0.54100645480E+01  0.50684479829E+02  0.47000000000E+01 0.  1.
         13    1    6    6    0    0  0.29357009067E+01  0.58266625089E+02  0.14400497061E+02  0.60091532304E+02  0.00000000000E+00 0. -1.
        -14    1    6    6    0    0  0.70488562075E+01  0.26321872212E+02  0.99108285734E+02  0.10278608676E+03  0.00000000000E+00 0.  1.
</event>
<event>
12    1  0.8494789E-002  0.1849075E+03  0.7818608E-02  0.1163472E+00
         21   -1    0    0  503  502  0.00000000000E+00  0.00000000000E+00  0.75363023844E+03  0.75363023844E+03  0.00000000000E+00 0. -1.
         21   -1    0    0  501  503 -0.00000000000E+00 -0.00000000000E+00 -0.51847137398E+02  0.51847137398E+02  0.00000000000E+00 0. -1.
          6    2    1    2  501    0 -0.77820065986E+01 -0.68189207894E+02  0.20353622740E+03  0.27402583613E+03  0.17015532698E+03 0.  0.
         24    2    3    3    0    0  0.56817897017E+01 -0.79607604675E+02  0.22128635875E+03  0.24855407218E+03  0.80260954226E+02 0.  0.
         -6    2    1    2    0  502  0.77820065986E+01  0.68189207894E+02  0.49824687363E+03  0.53145153971E+03  0.17169876025E+03 0.  0.
        -24    2    5    5    0    0  0.39166947012E+02  0.95695145709E+02  0.27943904710E+03  0.30864995522E+03  0.80541934167E+02 0.  0.
          5    1    3    3  501    0 -0.13463796300E+02  0.11418396781E+02 -0.17750131343E+02  0.25471763946E+02  0.47000000000E+01 0. -1.
        -11    1    4    4    0    0 -0.25158621391E+02 -0.62522716607E+02  0.18934003073E+03  0.20097684832E+03  0.00000000000E+00 0.  1.
         12    1    4    4    0    0  0.30840411093E+02 -0.17084888068E+02  0.31946328013E+02  0.47577223859E+02  0.00000000000E+00 0. -1.
         -5    1    5    5    0  502 -0.31384940413E+02 -0.27505937815E+02  0.21880782653E+03  0.22280158449E+03  0.47000000000E+01 0.  1.
         11    1    6    6    0    0 -0.12582650566E+02  0.71964543069E+02  0.13714947732E+03  0.15539368611E+03  0.00000000000E+00 0. -1.
        -12    1    6    6    0    0  0.51749597578E+02  0.23730602641E+02  0.14228956978E+03  0.15325626910E+03  0.00000000000E+00 0.  1.
</event>
<event>
12    1  0.8494789E-002  0.1782097E+03  0.7818608E-02  0.1169859E+00
         21   -1    0    0  503  502  0.00000000000E+00  0.00000000000E+00  0.64263876908E+03  0.64263876908E+03  0.00000000000E+00 0.  1.
         21   -1    0    0  501  503 -0.00000000000E+00 -0.00000000000E+00 -0.49084181747E+02  0.49084181747E+02  0.00000000000E+00 0.  1.
          6    2    1    2  501    0 -0.40860777413E+02  0.16416105457E+02  0.29158113861E+03  0.34172834379E+03  0.17268355136E+03 0.  0.
         24    2    3    3    0    0 -0.67588213762E+02  0.53224819155E+02  0.24808432792E+03  0.27861495537E+03  0.93163359669E+02 0.  0.
         -6    2    1    2    0  502  0.40860777413E+02 -0.16416105457E+02  0.30197344873E+03  0.34999460703E+03  0.17137435505E+03 0.  0.
        -24    2    5    5    0    0 -0.37542157728E+02 -0.53643454062E+01  0.21423559365E+03  0.23171873100E+03  0.79740146094E+02 0.  0.
          5    1    3    3  501    0  0.26727436349E+02 -0.36808713697E+02  0.43496810687E+02  0.63113388420E+02  0.47000000000E+01 0. -1.
        -13    1    4    4    0    0 -0.22855747776E+02  0.17192222116E+02  0.20455464678E+03  0.20654433235E+03  0.00000000000E+00 0.  1.
         14    1    4    4    0    0 -0.44732465986E+02  0.36032597038E+02  0.43529681140E+02  0.72070623021E+02  0.00000000000E+00 0. -1.
         -5    1    5    5    0  502  0.78402935141E+02 -0.11051760051E+02  0.87737855073E+02  0.11827587603E+03  0.47000000000E+01 0.  1.
         13    1    6    6    0    0 -0.23751938564E+02  0.34516207122E+02  0.14208980078E+03  0.14813856563E+03  0.00000000000E+00 0. -1.
        -14    1    6    6    0    0 -0.13790219165E+02 -0.39880552529E+02  0.72145792872E+02  0.83580165373E+02  0.00000000000E+00 0.  1.
</event>
<event>
12    1  0.8494789E-002  0.2494809E+03  0.7818608E-02  0.1113700E+00
         21   -1    0    0  503  502  0.00000000000E+00  0.00000000000E+00  0.52754815764E+03  0.52754815764E+03  0.00000000000E+00 0. -1.
         21   -1    0    0  501  503 -0.00000000000E+00 -0.00000000000E+00 -0.14762170464E+03  0.14762170464E+03  0.00000000000E+00 0. -1.
          6    2    1    2  501    0 -0.89411328537E+02 -0.15659188446E+03  0.38317407518E+02  0.25240632356E+03  0.17241033757E+03 0.  0.
         24    2    3    3    0    0 -0.16894503620E+02 -0.60440444350E+02  0.77957898891E+02  0.12553139345E+03  0.75777471436E+02 0.  0.
         -6    2    1    2    0  502  0.89411328537E+02  0.15659188446E+03  0.34160904548E+03  0.42276353872E+03  0.17180473152E+03 0.  0.
        -24    2    5    5    0    0  0.20203006368E+02  0.15890644792E+03  0.25673572341E+03  0.31312449522E+03  0.80463017443E+02 0.  0.
          5    1    3    3  501    0 -0.72516824917E+02 -0.96151440114E+02 -0.39640491373E+02  0.12687493010E+03  0.47000000000E+01 0. -1.
        -11    1    4    4    0    0  0.28031367868E+02 -0.40405650631E+02  0.37621046420E+02  0.61917019641E+02  0.00000000000E+00 0.  1.
         12    1    4    4    0    0 -0.44925871488E+02 -0.20034793719E+02  0.40336852471E+02  0.63614373813E+02  0.00000000000E+00 0. -1.
         -5    1    5    5    0  502  0.69208322169E+02 -0.23145634541E+01  0.84873322064E+02  0.10963904350E+03  0.47000000000E+01 0.  1.
         11    1    6    6    0    0  0.30020438106E+01  0.13592317194E+03  0.24849837824E+03  0.28325883027E+03  0.00000000000E+00 0. -1.
        -12    1    6    6    0    0  0.17200962557E+02  0.22983275979E+02  0.82373451711E+01  0.29865664953E+02  0.00000000000E+00 0.  1.
</event>
<event>
12    1  0.8494789E-002  0.2263658E+03  0.7818608E-02  0.1129405E+00
         21   -1    0    0  503  502  0.00000000000E+00  0.00000000000E+00  0.10362203240E+03  0.10362203240E+03  0.00000000000E+00 0. -1.
         21   -1    0    0  501  503 -0.00000000000E+00 -0.00000000000E+00 -0.69265679227E+03  0.69265679227E+03  0.00000000000E+00 0.  1.
          6    2    1    2  501    0 -0.12375263522E+03  0.75001784053E+02 -0.50817605679E+03  0.55590493763E+03  0.17276403751E+03 0.  0.
         24    2    3    3    0    0  0.16352360596E+01  0.37274962364E+02 -0.15262838019E+03  0.17698321528E+03  0.81458819252E+02 0.  0.
         -6    2    1    2    0  502  0.12375263522E+03 -0.75001784053E+02 -0.80858703083E+02  0.24037388705E+03  0.17407324140E+03 0.  0.
        -24    2    5    5    0    0  0.75166873462E+02 -0.10762885284E+03 -0.93674103043E+02  0.18027874298E+03  0.80570210133E+02 0.  0.
          5    1    3    3  501    0 -0.12538787128E+03  0.37726821689E+02 -0.35554767660E+03  0.37892172236E+03  0.47000000000E+01 0. -1.
        -11    1    4    4    0    0  0.18331631374E+02  0.21756219152E+02 -0.15151334697E+03  0.15416120164E+03  0.00000000000E+00 0.  1.
         12    1    4    4    0    0 -0.16696395315E+02  0.15518743213E+02 -0.11150332203E+01  0.22822013638E+02  0.00000000000E+00 0. -1.
         -5    1    5    5    0  502  0.48585761762E+02  0.32627068788E+02  0.12815399959E+02  0.60095144062E+02  0.47000000000E+01 0.  1.
         13    1    6    6    0    0  0.36964594389E+02 -0.90127799616E+01  0.13939009221E+01  0.38073014075E+02  0.00000000000E+00 0. -1.
        -14    1    6    6    0    0  0.38202279073E+02 -0.98616072880E+02 -0.95068003965E+02  0.14220572891E+03  0.00000000000E+00 0.  1.
</event>
<event>
12    1  0.8494789E-002  0.1800023E+03  0.7818608E-02  0.1167859E+00
         21   -1    0    0  501  502  0.00000000000E+00  0.00000000000E+00  0.16613611857E+03  0.16613611857E+03  0.00000000000E+00 0.  1.
         21   -1    0    0  502  503 -0.00000000000E+00 -0.00000000000E+00 -0.20469166873E+03  0.20469166873E+03  0.00000000000E+00 0.  1.
         -6    2    1    2    0  503 -0.37508394667E+01 -0.49471525352E+02 -0.60100312725E+02  0.18954069653E+03  0.17277768210E+03 0.  0.
        -24    2    3    3    0    0  0.91014768253E+01 -0.53598870035E+02  0.27084774427E+02  0.10119169297E+03  0.80935146695E+02 0.  0.
          6    2    1    2  501    0  0.37508394667E+01  0.49471525352E+02  0.21544762567E+02  0.18128709078E+03  0.17302985832E+03 0.  0.
         24    2    5    5    0    0 -0.65534195276E+02  0.37395156484E+02  0.28075761003E+02  0.11049868308E+03  0.75687397412E+02 0.  0.
          5    1    5    5  501    0  0.69285034742E+02  0.12076368868E+02 -0.65309984363E+01  0.70788407701E+02  0.47000000000E+01 0. -1.
        -11    1    6    6    0    0 -0.13949194495E+02 -0.23298499201E+02  0.88044055062E+01  0.28546762486E+02  0.00000000000E+00 0.  1.
         12    1    6    6    0    0 -0.51585000780E+02  0.60693655685E+02  0.19271355497E+02  0.81951920592E+02  0.00000000000E+00 0. -1.
         -5    1    3    3    0  503 -0.12852316292E+02  0.41273446826E+01 -0.87185087152E+02  0.88349003559E+02  0.47000000000E+01 0.  1.
         13    1    4    4    0    0  0.26617996406E+01 -0.69880307743E+02  0.38945038326E+02  0.80044104079E+02  0.00000000000E+00 0. -1.
        -14    1    4    4    0    0  0.64396771847E+01  0.16281437708E+02 -0.11860263899E+02  0.21147588889E+02  0.00000000000E+00 0.  1.
</event>
<event>
12    1  0.8494789E-002  0.3383539E+03  0.7818608E-02  0.1067565E+00
         21   -1    0    0  501  502  0.00000000000E+00  0.00000000000E+00  0.33688584784E+03  0.33688584784E+03  0.00000000000E+00 0.  1.
         21   -1    0    0  502  503 -0.00000000000E+00 -0.00000000000E+00 -0.56284536561E+03  0.56284536561E+03  0.00000000000E+00 0.  1.
         -6    2    1    2    0  503 -0.18996726854E+03 -0.22007494273E+03 -0.39660938494E+03  0.52132747858E+03  0.17309763768E+03 0.  0.
        -24    2    3    3    0    0 -0.16942202793E+03 -0.11364391239E+03 -0.32244689055E+03  0.38990511860E+03  0.80219959545E+02 0.  0.
          6    2    1    2  501    0  0.18996726854E+03  0.22007494273E+03  0.17064986716E+03  0.37840373487E+03  0.17189376332E+03 0.  0.
         24    2    5    5    0    0  0.21515093704E+03  0.20402888225E+03  0.15117424588E+03  0.34244427102E+03  0.80602206119E+02 0.  0.
          5    1    5    5  501    0 -0.25183668506E+02  0.16046060475E+02  0.19475621287E+02  0.35959463855E+02  0.47000000000E+01 0. -1.
        -13    1    6    6    0    0  0.11888662632E+03  0.79085703873E+02  0.36332305398E+02  0.14733843657E+03  0.00000000000E+00 0.  1.
         14    1    6    6    0    0  0.96264310723E+02  0.12494317838E+03  0.11484194048E+03  0.19510583445E+03  0.00000000000E+00 0. -1.
         -5    1    3    3    0  503 -0.20545240610E+02 -0.10643103034E+03 -0.74162494385E+02  0.13142235999E+03  0.47000000000E+01 0.  1.
         13    1    4    4    0    0 -0.34258213923E+02 -0.31302673557E+02 -0.14444393678E+03  0.15171530400E+03  0.00000000000E+00 0. -1.
        -14    1    4    4    0    0 -0.13516381400E+03 -0.82341238832E+02 -0.17800295377E+03  0.23818981460E+03  0.00000000000E+00 0.  1.
</event>
<event>
12    1  0.8494789E-002  0.1723361E+03  0.7818608E-02  0.1176103E+00
         21   -1    0    0  503  502  0.00000000000E+00  0.00000000000E+00  0.28181448664E+03  0.28181448664E+03  0.00000000000E+00 0. -1.
         21   -1    0    0  501  503 -0.00000000000E+00 -0.00000000000E+00 -0.11142301108E+03  0.11142301108E+03  0.00000000000E+00 0. -1.
          6    2    1    2  501    0  0.96088975922E+00  0.25828916793E+02  0.34394866112E+02  0.17573481108E+03  0.17038679749E+03 0.  0.
         24    2    3    3    0    0 -0.32067423070E+02  0.39174654237E+02  0.75366402735E+02  0.12123953634E+03  0.80348972321E+02 0.  0.
         -6    2    1    2    0  502 -0.96088975922E+00 -0.25828916793E+02  0.13599660944E+03  0.21750268664E+03  0.16776258422E+03 0.  0.
        -24    2    5    5    0    0 -0.15099873813E+02 -0.59630677743E+02  0.15120351678E+03  0.17755509667E+03  0.69853310229E+02 0.  0.
          5    1    3    3  501    0  0.33028312830E+02 -0.13345737444E+02 -0.40971536623E+02  0.54495274745E+02  0.47000000000E+01 0. -1.
        -13    1    4    4    0    0  0.20810346410E+02  0.17380312655E+02  0.53557157748E+02  0.60029283952E+02  0.00000000000E+00 0.  1.
         14    1    4    4    0    0 -0.52877769480E+02  0.21794341582E+02  0.21809244987E+02  0.61210252385E+02  0.00000000000E+00 0. -1.
         -5    1    5    5    0  502  0.14138984054E+02  0.33801760950E+02 -0.15206907338E+02  0.39947589967E+02  0.47000000000E+01 0.  1.
         13    1    6    6    0    0  0.11857197658E+02 -0.24564992450E+02  0.12090252970E+03  0.12394133160E+03  0.00000000000E+00 0. -1.
        -14    1    6    6    0    0 -0.26957071471E+02 -0.35065685293E+02  0.30300987082E+02  0.53613765075E+02  0.00000000000E+00 0.  1.
</event>
<event>
12    1  0.8494789E-002  0.2191761E+03  0.7818608E-02  0.1135799E+00
         21   -1    0    0  503  502  0.00000000000E+00  0.00000000000E+00  0.53761114000E+02  0.53761114000E+02  0.00000000000E+00 0. -1.
         21   -1    0    0  501  503 -0.00000000000E+00 -0.00000000000E+00 -0.13947300656E+04  0.13947300656E+04  0.00000000000E+00 0.  1.
          6    2    1    2  501    0  0.13422955206E+03  0.13144588727E+02 -0.11098130289E+04  0.11299456877E+04  0.16401812389E+03 0.  0.
         24    2    3    3    0    0  0.14696890739E+03 -0.27827319505E+02 -0.95614670413E+03  0.97033234918E+03  0.70385570824E+02 0.  0.
         -6    2    1    2    0  502 -0.13422955206E+03 -0.13144588727E+02 -0.23115592262E+03  0.31854549192E+03  0.17276520772E+03 0.  0.
        -24    2    5    5    0    0 -0.75717236286E+02 -0.75184255744E+02 -0.13107258322E+03  0.18697278880E+03  0.79956422480E+02 0.  0.
          5    1    3    3  501    0 -0.12739355329E+02  0.40971908232E+02 -0.15366632481E+03  0.15961333848E+03  0.47000000000E+01 0. -1.
        -13    1    4    4    0    0  0.72581237618E+02  0.13422120661E+02 -0.58062259943E+03  0.58529547440E+03  0.00000000000E+00 0.  1.
         14    1    4    4    0    0  0.74387669768E+02 -0.41249440165E+02 -0.37552410470E+03  0.38503687478E+03  0.00000000000E+00 0. -1.
         -5    1    5    5    0  502 -0.58512315771E+02  0.62039667017E+02 -0.10008333940E+03  0.13157270312E+03  0.47000000000E+01 0.  1.
         11    1    6    6    0    0 -0.91332733067E+02 -0.74208480268E+02 -0.11646556856E+03  0.16556809878E+03  0.00000000000E+00 0. -1.
        -12    1    6    6    0    0  0.15615496781E+02 -0.97577547616E+00 -0.14607014656E+02  0.21404690015E+02  0.00000000000E+00 0.  1.
</event>
<event>
12    1  0.8494789E-002  0.2237346E+03  0.7818608E-02  0.1134064E+00
         21   -1    0    0  501  502  0.00000000000E+00  0.00000000000E+00  0.13493338330E+03  0.13493338330E+03  0.00000000000E+00 0.  1.
         21   -1    0    0  502  503 -0.00000000000E+00 -0.00000000000E+00 -0.35627686172E+03  0.35627686172E+03  0.00000000000E+00 0. -1.
         -6    2    1    2    0  503  0.12827680336E+03  0.64298548334E+02 -0.15673435003E+03  0.27317181706E+03  0.17166229510E+03 0.  0.
        -24    2    3    3    0    0  0.27807106564E+02 -0.45100656965E+01 -0.11814868693E+03  0.14534486867E+03  0.79827581423E+02 0.  0.
          6    2    1    2  501    0 -0.12827680336E+03 -0.64298548334E+02 -0.64609128399E+02  0.21803842795E+03  0.15092108863E+03 0.  0.
         24    2    5    5    0    0 -0.76128946688E+02 -0.61478533268E+02  0.11548468966E+02  0.12557534842E+03  0.77849691187E+02 0.  0.
          5    1    5    5  501    0 -0.52147856676E+02 -0.28200150660E+01 -0.76157597365E+02  0.92463079536E+02  0.47000000000E+01 0. -1.
        -13    1    6    6    0    0 -0.86319931425E+02 -0.68964751197E+02  0.17033558272E+02  0.11179181355E+03  0.00000000000E+00 0.  1.
         14    1    6    6    0    0  0.10190984737E+02  0.74862179288E+01 -0.54850893062E+01  0.13783534869E+02  0.00000000000E+00 0. -1.
         -5    1    3    3    0  503  0.10046969680E+03  0.68808614030E+02 -0.38585663095E+02  0.12782694840E+03  0.47000000000E+01 0.  1.
         11    1    4    4    0    0  0.54241232415E+02  0.89610691600E+01 -0.75833981415E+02  0.93665387372E+02  0.00000000000E+00 0. -1.
        -12    1    4    4    0    0 -0.26434125851E+02 -0.13471134856E+02 -0.42314705516E+02  0.51679481293E+02  0.00000000000E+00 0.  1.
</event>
<event>
12    1  0.8494789E-002  0.1787102E+03  0.7818608E-02  0.1169541E+00
         21   -1    0    0  501  502  0.00000000000E+00  0.00000000000E+00  0.85531314315E+03  0.85531314315E+03  0.00000000000E+00 0. -1.
         21   -1    0    0  502  503 -0.00000000000E+00 -0.00000000000E+00 -0.36937211691E+02  0.36937211691E+02  0.00000000000E+00 0. -1.
         -6    2    1    2    0  503  0.21621519240E+02  0.41955621908E+02  0.40067327276E+03  0.43792354860E+03  0.17032380518E+03 0.  0.
        -24    2    3    3    0    0 -0.21221837593E+00  0.45337541409E+02  0.96335659547E+02  0.13274880801E+03  0.79285238412E+02 0.  0.
          6    2    1    2  501    0 -0.21621519240E+02 -0.41955621908E+02  0.41770265871E+03  0.45432680625E+03  0.17236464684E+03 0.  0.
         24    2    5    5    0    0  0.91928007180E+01 -0.24209219202E+01  0.83043888680E+02  0.11590237277E+03  0.80291370141E+02 0.  0.
          5    1    5    5  501    0 -0.30814319958E+02 -0.39534699988E+02  0.33465877003E+03  0.33842443347E+03  0.47000000000E+01 0. -1.
        -11    1    6    6    0    0  0.30704994553E+02 -0.13521808671E+02  0.46685794268E+01  0.33873760259E+02  0.00000000000E+00 0.  1.
         12    1    6    6    0    0 -0.21512193835E+02  0.11100886751E+02  0.78375309253E+02  0.82028612513E+02  0.00000000000E+00 0. -1.
         -5    1    3    3    0  503  0.21833737616E+02 -0.33819195014E+01  0.30433761321E+03  0.30517474059E+03  0.47000000000E+01 0.  1.
         13    1    4    4    0    0  0.26950207031E+02  0.53740982740E+02  0.79613388511E+02  0.99763212233E+02  0.00000000000E+00 0. -1.
        -14    1    4    4    0    0 -0.27162425407E+02 -0.84034413310E+01  0.16722271036E+02  0.32985595777E+02  0.00000000000E+00 0.  1.
</event>
<event>
12    1  0.8494789E-002  0.1869277E+03  0.7818608E-02  0.1161539E+00
         21   -1    0    0  503  502  0.00000000000E+00  0.00000000000E+00  0.57532159351E+03  0.57532159351E+03  0.00000000000E+00 0. -1.
         21   -1    0    0  501  503 -0.00000000000E+00 -0.00000000000E+00 -0.11845338609E+03  0.11845338609E+03  0.00000000000E+00 0. -1.
          6    2    1    2  501    0 -0.65452645988E+02  0.30869132181E+02 -0.14897467016E+02  0.18632566966E+03  0.17105077744E+03 0.  0.
         24    2    3    3    0    0 -0.85016178838E+02  0.72996718130E+02 -0.22124118673E+02  0.13908395282E+03  0.79363705704E+02 0.  0.
         -6    2    1    2    0  502  0.65452645988E+02 -0.30869132181E+02  0.47176567443E+03  0.50744930994E+03  0.17235138061E+03 0.  0.
        -24    2    5    5    0    0  0.61146227655E+02 -0.74167407112E+02  0.23489607991E+03  0.26657054238E+03  0.81510859857E+02 0.  0.
          5    1    3    3  501    0  0.19563532850E+02 -0.42127585949E+02  0.72266516568E+01  0.47241716837E+02  0.47000000000E+01 0. -1.
        -11    1    4    4    0    0 -0.35751529159E+02 -0.48853669164E+01  0.15849695078E+02  0.39411311590E+02  0.00000000000E+00 0.  1.
         12    1    4    4    0    0 -0.49264649679E+02  0.77882085046E+02 -0.37973813751E+02  0.99672641231E+02  0.00000000000E+00 0. -1.
         -5    1    5    5    0  502  0.43064183332E+01  0.43298274931E+02  0.23686959452E+03  0.24087876755E+03  0.47000000000E+01 0.  1.
         11    1    6    6    0    0  0.11316568637E+01  0.14313857139E+02  0.59072310049E+02  0.60792310106E+02  0.00000000000E+00 0. -1.
        -12    1    6    6    0    0  0.60014570791E+02 -0.88481264251E+02  0.17582376986E+03  0.20577823228E+03  0.00000000000E+00 0.  1.
</event>
<event>
12    1  0.8494789E-002  0.2939245E+03  0.7818608E-02  0.1088534E+00
         21   -1    0    0  503  502  0.00000000000E+00  0.00000000000E+00  0.38448109668E+03  0.38448109668E+03  0.00000000000E+00 0. -1.
         21   -1    0    0  501  503 -0.00000000000E+00 -0.00000000000E+00 -0.25633877670E+03  0.25633877670E+03  0.00000000000E+00 0. -1.
          6    2    1    2  501    0 -0.16712795349E+03  0.16687098223E+03 -0.50604614816E+02  0.29824891792E+03  0.17496831842E+03 0.  0.
         24    2    3    3    0    0 -0.23124301508E+02  0.36790675980E+02 -0.49807148831E+02  0.10413383913E+03  0.80466248942E+02 0.  0.
         -6    2    1    2    0  502  0.16712795349E+03 -0.16687098223E+03  0.17874693479E+03  0.34257095546E+03  0.17212412754E+03 0.  0.
        -24    2    5    5    0    0  0.17752086045E+03 -0.13672351699E+03  0.10071712771E+03  0.25814570468E+03  0.79298732916E+02 0.  0.
          5    1    3    3  501    0 -0.14400365198E+03  0.13008030625E+03 -0.79746598543E+00  0.19411507878E+03  0.47000000000E+01 0. -1.
        -13    1    4    4    0    0 -0.33219514955E+02 -0.71123922432E+01  0.37169676368E+01  0.34175110032E+02  0.00000000000E+00 0.  1.
         14    1    4    4    0    0  0.10095213447E+02  0.43903068223E+02 -0.53524116467E+02  0.69958729102E+02  0.00000000000E+00 0. -1.
         -5    1    5    5    0  502 -0.10392906955E+02 -0.30147465243E+02  0.78029807084E+02  0.84425250779E+02  0.47000000000E+01 0.  1.
         11    1    6    6    0    0  0.14896305877E+02 -0.31832953989E+02  0.44348179836E+02  0.56586199229E+02  0.00000000000E+00 0. -1.
        -12    1    6    6    0    0  0.16262455457E+03 -0.10489056300E+03  0.56368947873E+02  0.20155950546E+03  0.00000000000E+00 0.  1.
</event>
<event>
12    1  0.8494789E-002  0.2344767E+03  0.7818608E-02  0.1123538E+00
         21   -1    0    0  501  502  0.00000000000E+00  0.00000000000E+00  0.22087717392E+04  0.22087717392E+04  0.00000000000E+00 0. -1.
         21   -1    0    0  502  503 -0.00000000000E+00 -0.00000000000E+00 -0.34661285447E+02  0.34661285447E+02  0.00000000000E+00 0. -1.
         -6    2    1    2    0  503 -0.25611604932E+02  0.15742595989E+03  0.49122011026E+03  0.54428640074E+03  0.17178941224E+03 0.  0.
        -24    2    3    3    0    0 -0.80128793314E+02  0.76106438985E+02  0.29292167274E+03  0.32308660727E+03  0.79806239509E+02 0.  0.
          6    2    1    2  501    0  0.25611604932E+02 -0.15742595989E+03  0.16828903435E+04  0.16991466239E+04  0.17187336661E+03 0.  0.
         24    2    5    5    0    0 -0.38112687625E+02 -0.10823984686E+03  0.13256958082E+04  0.13329634932E+04  0.78446522492E+02 0.  0.
          5    1    5    5  501    0  0.63724292557E+02 -0.49186113022E+02  0.35719453524E+03  0.36618313066E+03  0.47000000000E+01 0. -1.
        -13    1    6    6    0    0 -0.76627271903E+01 -0.15643778169E+01  0.47504765028E+03  0.47511202332E+03  0.00000000000E+00 0.  1.
         14    1    6    6    0    0 -0.30449960435E+02 -0.10667546905E+03  0.85064815796E+03  0.85785146991E+03  0.00000000000E+00 0. -1.
         -5    1    3    3    0  503  0.54517188383E+02  0.81319520900E+02  0.19829843752E+03  0.22119979347E+03  0.47000000000E+01 0.  1.
         13    1    4    4    0    0  0.61177028293E+01  0.21814638218E+02  0.15268460409E+02  0.27320882339E+02  0.00000000000E+00 0. -1.
        -14    1    4    4    0    0 -0.86246496144E+02  0.54291800767E+02  0.27765321233E+03  0.29576572493E+03  0.00000000000E+00 0.  1.
</event>
<event>
12    1  0.8494789E-002  0.2002153E+03  0.7818608E-02  0.1149883E+00
         21   -1    0    0  503  502  0.00000000000E+00  0.00000000000E+00  0.45979066867E+03  0.45979066867E+03  0.00000000000E+00 0.  1.
         21   -1    0    0  501  503 -0.00000000000E+00 -0.00000000000E+00 -0.10614121553E+03  0.10614121553E+03  0.00000000000E+00 0.  1.
          6    2    1    2  501    0 -0.22016139285E+02  0.97647578039E+02  0.54592286322E+02  0.20604115027E+03  0.17161840808E+03 0.  0.
         24    2    3    3    0    0 -0.17689155524E+02  0.13789310391E+03  0.47357108569E+02  0.16465440193E+03  0.74437638404E+02 0.  0.
         -6    2    1    2    0  502  0.22016139285E+02 -0.97647578039E+02  0.29905716682E+03  0.35989073393E+03  0.17339663046E+03 0.  0.
        -24    2    5    5    0    0  0.25199687334E+02 -0.13526112128E+03  0.26504780470E+03  0.30886485495E+03  0.78845194360E+02 0.  0.
          5    1    3    3  501    0 -0.43269837604E+01 -0.40245525874E+02  0.72351777537E+01  0.41386748344E+02  0.47000000000E+01 0. -1.
        -13    1    4    4    0    0  0.24636177656E+02  0.29989422497E+02  0.26212152981E+02  0.46833574229E+02  0.00000000000E+00 0.  1.
         14    1    4    4    0    0 -0.42325333180E+02  0.10790368142E+03  0.21144955588E+02  0.11782082770E+03  0.00000000000E+00 0. -1.
         -5    1    5    5    0  502 -0.31835480495E+01  0.37613543245E+02  0.34009362114E+02  0.51025878974E+02  0.47000000000E+01 0.  1.
         13    1    6    6    0    0  0.19828874486E+02  0.27966830230E+01  0.41272252382E+02  0.45873788987E+02  0.00000000000E+00 0. -1.
        -14    1    6    6    0    0  0.53708128479E+01 -0.13805780431E+03  0.22377555232E+03  0.26299106597E+03  0.00000000000E+00 0.  1.
</event>
<event>
12    1  0.8494789E-002  0.3268082E+03  0.7818608E-02  0.1072663E+00
         21   -1    0    0  501  502  0.00000000000E+00  0.00000000000E+00  0.43393621312E+03  0.43393621312E+03  0.00000000000E+00 0. -1.
         21   -1    0    0  502  503 -0.00000000000E+00 -0.00000000000E+00 -0.30083685437E+03  0.30083685437E+03  0.00000000000E+00 0.  1.
         -6    2    1    2    0  503  0.10160586598E+03 -0.25848766081E+03 -0.91200681723E+02  0.33839681250E+03  0.17045590506E+03 0.  0.
        -24    2    3    3    0    0  0.10137320702E+03 -0.13931845383E+03 -0.10687987858E+03  0.21810848706E+03  0.80385601971E+02 0.  0.
          6    2    1    2  501    0 -0.10160586598E+03  0.25848766081E+03  0.22430004047E+03  0.39637625500E+03  0.17223241443E+03 0.  0.
         24    2    5    5    0    0 -0.29092030533E+02  0.17029764109E+03  0.20681782679E+03  0.28077584971E+03  0.78827859898E+02 0.  0.
          5    1    5    5  501    0 -0.72513835443E+02  0.88190019717E+02  0.17482213671E+02  0.11560040529E+03  0.47000000000E+01 0. -1.
        -13    1    6    6    0    0  0.17380821392E+02  0.94982732868E+02  0.76222300857E+02  0.12301890767E+03  0.00000000000E+00 0.  1.
         14    1    6    6    0    0 -0.46472851926E+02  0.75314908222E+02  0.13059552594E+03  0.15775694204E+03  0.00000000000E+00 0. -1.
         -5    1    3    3    0  503  0.23265895850E+00 -0.11916920697E+03  0.15679196857E+02  0.12028832543E+03  0.47000000000E+01 0.  1.
         11    1    4    4    0    0  0.11199673287E+03 -0.12276234642E+03 -0.10835781177E+03  0.19838164543E+03  0.00000000000E+00 0. -1.
        -12    1    4    4    0    0 -0.10623525852E+02 -0.16556107414E+02  0.14779331930E+01  0.19726841632E+02  0.00000000000E+00 0.  1.
</event>
<event>
12    1  0.8494789E-002  0.1778809E+03  0.7818608E-02  0.1171134E+00
         21   -1    0    0  503  502  0.00000000000E+00  0.00000000000E+00  0.13948926351E+03  0.13948926351E+03  0.00000000000E+00 0. -1.
         21   -1    0    0  501  503 -0.00000000000E+00 -0.00000000000E+00 -0.27195078185E+03  0.27195078185E+03  0.00000000000E+00 0. -1.
          6    2    1    2  501    0 -0.27221647966E+02 -0.38351613628E+02 -0.15654534407E+03  0.23695580419E+03  0.17155099535E+03 0.  0.
         24    2    3    3    0    0 -0.40835379778E+02  0.40991199383E+01 -0.16817966847E+03  0.19064332231E+03  0.79850763486E+02 0.  0.
         -6    2    1    2    0  502  0.27221647966E+02  0.38351613628E+02  0.24083825730E+02  0.17448424116E+03  0.16629147713E+03 0.  0.
        -24    2    5    5    0    0 -0.66579644604E+01 -0.66534531554E+01  0.66275102755E+02  0.10394717267E+03  0.79523760797E+02 0.  0.
          5    1    3    3  501    0  0.13613731812E+02 -0.42450733567E+02  0.11634324398E+02  0.46312481886E+02  0.47000000000E+01 0. -1.
        -13    1    4    4    0    0 -0.54076441986E+02  0.76096203524E+01 -0.58180020229E+02  0.79794001363E+02  0.00000000000E+00 0.  1.
         14    1    4    4    0    0  0.13241062208E+02 -0.35105004141E+01 -0.10999964824E+03  0.11084932094E+03  0.00000000000E+00 0. -1.
         -5    1    5    5    0  502  0.33879612427E+02  0.45005066784E+02 -0.42191277024E+02  0.70537068491E+02  0.47000000000E+01 0.  1.
         11    1    6    6    0    0 -0.31158151495E+02 -0.27447288126E+02  0.16460264669E+02  0.44666814785E+02  0.00000000000E+00 0. -1.
        -12    1    6    6    0    0  0.24500187034E+02  0.20793834971E+02  0.49814838085E+02  0.59280357885E+02  0.00000000000E+00 0.  1.
</event>
<event>
12    1  0.8494789E-002  0.1962621E+03  0.7818608E-02  0.1153843E+00
         21   -1    0    0  503  502  0.00000000000E+00  0.00000000000E+00  0.22934026019E+04  0.22934026019E+04  0.00000000000E+00 0. -1.
         21   -1    0    0  501  503 -0.00000000000E+00 -0.00000000000E+00 -0.16939800234E+02  0.16939800234E+02  0.00000000000E+00 0.  1.
          6    2    1    2  501    0 -0.84828560815E+02 -0.69364597131E+01  0.13483382995E+04  0.13625472439E+04  0.17684689067E+03 0.  0.
         24    2    3    3    0    0 -0.10408800127E+02 -0.63129305239E+02  0.78476741224E+03  0.79129408492E+03  0.78694251480E+02 0.  0.
         -6    2    1    2    0  502  0.84828560815E+02  0.69364597131E+01  0.92812450219E+03  0.94779515827E+03  0.17221083376E+03 0.  0.
        -24    2    5    5    0    0  0.97757628342E+02  0.14570866858E+02  0.92239303243E+03  0.93105046642E+03  0.79228786924E+02 0.  0.
          5    1    3    3  501    0 -0.74419760688E+02  0.56192845526E+02  0.56357088727E+03  0.57125315898E+03  0.47000000000E+01 0. -1.
        -11    1    4    4    0    0 -0.18725504702E+02 -0.77502986374E+02  0.52756890264E+03  0.53356002892E+03  0.00000000000E+00 0.  1.
         12    1    4    4    0    0  0.83167045755E+01  0.14373681136E+02  0.25719850959E+03  0.25773405600E+03  0.00000000000E+00 0. -1.
         -5    1    5    5    0  502 -0.12929067528E+02 -0.76344071454E+01  0.57314697617E+01  0.16744691852E+02  0.47000000000E+01 0.  1.
         11    1    6    6    0    0  0.29535486729E+02  0.13277516903E+02  0.62876723018E+03  0.62960056161E+03  0.00000000000E+00 0. -1.
        -12    1    6    6    0    0  0.68222141613E+02  0.12933499556E+01  0.29362580225E+03  0.30144990480E+03  0.00000000000E+00 0.  1.
</event>
<event>
12    1  0.8494789E-002  0.1727793E+03  0.7818608E-02  0.1175260E+00
         21   -1    0    0  501  502  0.00000000000E+00  0.00000000000E+00  0.79290162035E+03  0.79290162035E+03  0.00000000000E+00 0. -1.
         21   -1    0    0  502  503 -0.00000000000E+00 -0.00000000000E+00 -0.12305694085E+03  0.12305694085E+03  0.00000000000E+00 0. -1.
         -6    2    1    2    0  503  0.20147642910E+01 -0.10163448409E+02 -0.47470257547E+02  0.17812835201E+03  0.17137365457E+03 0.  0.
        -24    2    3    3    0    0  0.51163376428E+02  0.28677045563E+02 -0.18090540223E+01  0.10046751533E+03  0.81549892274E+02 0.  0.
          6    2    1    2  501    0 -0.20147642910E+01  0.10163448409E+02  0.71731493704E+03  0.73783020920E+03  0.17246838475E+03 0.  0.
         24    2    5    5    0    0  0.65054321518E+02  0.24733267129E+01  0.46605868203E+03  0.47762030176E+03  0.81683997617E+02 0.  0.
          5    1    5    5  501    0 -0.67069085809E+02  0.76901216963E+01  0.25125625501E+03  0.26020990743E+03  0.47000000000E+01 0. -1.
        -11    1    6    6    0    0  0.49361160479E+02 -0.36117246159E+02  0.23457573521E+03  0.24241855371E+03  0.00000000000E+00 0.  1.
         12    1    6    6    0    0  0.15693161039E+02  0.38590572872E+02  0.23148294683E+03  0.23520174806E+03  0.00000000000E+00 0. -1.
         -5    1    3    3    0  503 -0.49148612137E+02 -0.38840493972E+02 -0.45661203525E+02  0.77660836683E+02  0.47000000000E+01 0.  1.
         11    1    4    4    0    0 -0.17539439579E+02  0.22672369291E+02 -0.11381466059E+02  0.30841628356E+02  0.00000000000E+00 0. -1.
        -12    1    4    4    0    0  0.68702816007E+02  0.60046762716E+01  0.95724120367E+01  0.69625886972E+02  0.00000000000E+00 0.  1.
</event>
<event>
12    1  0.8494789E-002  0.2191154E+03  0.7818608E-02  0.1134760E+00
         21   -1    0    0  503  502  0.00000000000E+00  0.00000000000E+00  0.67318258132E+02  0.67318258132E+02  0.00000000000E+00 0.  1.
         21   -1    0    0  501  503 -0.00000000000E+00 -0.00000000000E+00 -0.71479595067E+03  0.71479595067E+03  0.00000000000E+00 0.  1.
          6    2    1    2  501    0 -0.25651547037E+02 -0.13288259362E+03 -0.29080668879E+03  0.36411546316E+03  0.17232456212E+03 0.  0.
         24    2    3    3    0    0  0.29594331471E+02 -0.69198231964E+02 -0.71636894807E+02  0.12924253239E+03  0.76860703345E+02 0.  0.
         -6    2    1    2    0  502  0.25651547037E+02  0.13288259362E+03 -0.35667100374E+03  0.41799874565E+03  0.17085947705E+03 0.  0.
        -24    2    5    5    0    0 -0.12591481905E+02  0.85542057190E+00 -0.12874176623E+03  0.15178918346E+03  0.79411817021E+02 0.  0.
          5    1    3    3  501    0 -0.55245878508E+02 -0.63684361653E+02 -0.21916979398E+03  0.23487293077E+03  0.47000000000E+01 0. -1.
        -11    1    4    4    0    0  0.22182395565E+01 -0.63400705396E+02 -0.78003580986E+02  0.10054416282E+03  0.00000000000E+00 0.  1.
         12    1    4    4    0    0  0.27376091914E+02 -0.57975265673E+01  0.63666861784E+01  0.28698369565E+02  0.00000000000E+00 0. -1.
         -5    1    5    5    0  502  0.38243028942E+02  0.13202717305E+03 -0.22792923751E+03  0.26620956218E+03  0.47000000000E+01 0.  1.
         11    1    6    6    0    0  0.19216114369E+02 -0.90098000312E+01 -0.11296026860E+03  0.11493675578E+03  0.00000000000E+00 0. -1.
        -12    1    6    6    0    0 -0.31807596275E+02  0.98652206031E+01 -0.15781497635E+02  0.36852427680E+02  0.00000000000E+00 0.  1.
</event>
<event>
12    1  0.8494789E-002  0.1819282E+03  0.7818608E-02  0.1166537E+00
         21   -1    0    0  501  502  0.00000000000E+00  0.00000000000E+00  0.45882991111E+03  0.45882991111E+03  0.00000000000E+00 0. -1.
         21   -1    0    0  502  503 -0.00000000000E+00 -0.00000000000E+00 -0.24307080675E+03  0.24307080675E+03  0.00000000000E+00 0. -1.
         -6    2    1    2    0  503  0.55221244649E+02 -0.23476176612E+01 -0.18746584679E+03  0.25953409265E+03  0.17076183522E+03 0.  0.
        -24    2    3    3    0    0  0.47741134431E+02  0.61462826816E+02 -0.92662201001E+02  0.14491495757E+03  0.79731840790E+02 0.  0.
          6    2    1    2  501    0 -0.55221244649E+02  0.23476176612E+01  0.40322495115E+03  0.44236662520E+03  0.17332908786E+03 0.  0.
         24    2    5    5    0    0  0.38830901523E+02  0.10205147682E+02  0.15743424658E+03  0.17903659002E+03  0.75210202886E+02 0.  0.
          5    1    5    5  501    0 -0.94052146172E+02 -0.78575300212E+01  0.24579070457E+03  0.26333003518E+03  0.47000000000E+01 0. -1.
        -11    1    6    6    0    0 -0.14907890721E+02 -0.42764751194E+00  0.30517238427E+01  0.15223045246E+02  0.00000000000E+00 0.  1.
         12    1    6    6    0    0  0.53738792244E+02  0.10632795194E+02  0.15438252274E+03  0.16381354478E+03  0.00000000000E+00 0. -1.
         -5    1    3    3    0  503  0.74801102185E+01 -0.63810444477E+02 -0.94803645786E+02  0.11461913508E+03  0.47000000000E+01 0.  1.
         13    1    4    4    0    0  0.60662490786E+02  0.14314496242E+02 -0.56250598291E+02  0.83958158621E+02  0.00000000000E+00 0. -1.
        -14    1    4    4    0    0 -0.12921356355E+02  0.47148330574E+02 -0.36411602710E+02  0.60956798947E+02  0.00000000000E+00 0.  1.
</event>
<event>
12    1  0.8494789E-002  0.1852687E+03  0.7818608E-02  0.1164515E+00
         21   -1    0    0  501  502  0.00000000000E+00  0.00000000000E+00  0.10342446298E+04  0.10342446298E+04  0.00000000000E+00 0.  1.
         21   -1    0    0  502  503 -0.00000000000E+00 -0.00000000000E+00 -0.55637687458E+02  0.55637687458E+02  0.00000000000E+00 0.  1.
         -6    2    1    2    0  503 -0.40521281576E+02  0.60177369137E+02  0.13903405250E+03  0.23163539734E+03  0.17047345697E+03 0.  0.
        -24    2    3    3    0    0 -0.78133922008E+02  0.31360414829E+02  0.78702480240E+02  0.15477763139E+03  0.10331335536E+03 0.  0.
          6    2    1    2  501    0  0.40521281576E+02 -0.60177369137E+02  0.83957288986E+03  0.85824691993E+03  0.16260949594E+03 0.  0.
         24    2    5    5    0    0 -0.10931733441E+02 -0.72200116058E+02  0.72465347171E+03  0.73167471972E+03  0.69949137721E+02 0.  0.
          5    1    5    5  501    0  0.51453015017E+02  0.12022746921E+02  0.11491941815E+03  0.12657220021E+03  0.47000000000E+01 0. -1.
        -13    1    6    6    0    0  0.22934402455E+02 -0.49249843077E+02  0.28574437716E+03  0.29086316876E+03  0.00000000000E+00 0.  1.
         14    1    6    6    0    0 -0.33866135896E+02 -0.22950272982E+02  0.43890909454E+03  0.44081155096E+03  0.00000000000E+00 0. -1.
         -5    1    3    3    0  503  0.37612640432E+02  0.28816954308E+02  0.60331572260E+02  0.76857765953E+02  0.47000000000E+01 0.  1.
         13    1    4    4    0    0  0.24152750303E+02 -0.22524819008E+01  0.64069077164E+01  0.25089389957E+02  0.00000000000E+00 0. -1.
        -14    1    4    4    0    0 -0.10228667231E+03  0.33612896730E+02  0.72295572523E+02  0.12968824143E+03  0.00000000000E+00 0.  1.
</event>
<event>
12    1  0.8494789E-002  0.2055935E+03  0.7818608E-02  0.1145124E+00
         21   -1    0    0  503  502  0.00000000000E+00  0.00000000000E+00  0.35497523760E+03  0.35497523760E+03  0.00000000000E+00 0. -1.
         21   -1    0    0  501  503 -0.00000000000E+00 -0.00000000000E+00 -0.53359437426E+03  0.53359437426E+03  0.00000000000E+00 0. -1.
          6    2    1    2  501    0  0.10621601444E+03 -0.36933245944E+02 -0.48091856550E+03  0.52298289558E+03  0.17199574429E+03 0.  0.
         24    2    3    3    0    0  0.12496233078E+03 -0.72700979973E+02 -0.37306111261E+03  0.40771765661E+03  0.78473416911E+02 0.  0.
         -6    2    1    2    0  502 -0.10621601444E+03  0.36933245944E+02  0.30229942884E+03  0.36558671628E+03  0.17211274230E+03 0.  0.
        -24    2    5    5    0    0 -0.75768354702E+02  0.77949823848E+02  0.13747397657E+03  0.19296302335E+03  0.80737943574E+02 0.  0.
          5    1    3    3  501    0 -0.18746316339E+02  0.35767734028E+02 -0.10785745289E+03  0.11526523898E+03  0.47000000000E+01 0. -1.
        -13    1    4    4    0    0  0.20995577959E+02 -0.19533671528E+02 -0.17788070818E+02  0.33746023183E+02  0.00000000000E+00 0.  1.
         14    1    4    4    0    0  0.10396675282E+03 -0.53167308444E+02 -0.35527304180E+03  0.37397163342E+03  0.00000000000E+00 0. -1.
         -5    1    5    5    0  502 -0.30447659741E+02 -0.41016577904E+02  0.16482545227E+03  0.17262369293E+03  0.47000000000E+01 0.  1.
         11    1    6    6    0    0 -0.84944609625E+02  0.37330336868E+02  0.10524189841E+03  0.14030323565E+03  0.00000000000E+00 0. -1.
        -12    1    6    6    0    0  0.91762549228E+01  0.40619486980E+02  0.32232078167E+02  0.52659787693E+02  0.00000000000E+00 0.  1.
</event>
<event>
12    1  0.8494789E-002  0.2140643E+03  0.7818608E-02  0.1138480E+00
         21   -1    0    0  503  502  0.00000000000E+00  0.00000000000E+00  0.11551608893E+04  0.11551608893E+04  0.00000000000E+00 0.  1.
         21   -1    0    0  501  503 -0.00000000000E+00 -0.00000000000E+00 -0.57834169197E+02  0.57834169197E+02  0.00000000000E+00 0. -1.
          6    2    1    2  501    0 -0.12665153087E+03 -0.51395861728E-01  0.20834609941E+03  0.29871664815E+03  0.17257730393E+03 0.  0.
         24    2    3    3    0    0 -0.13501577713E+03  0.25188437992E+02  0.10714633581E+03  0.19397653177E+03  0.85339557741E+02 0.  0.
         -6    2    1    2    0  502  0.12665153087E+03  0.51395861728E-01  0.88898062066E+03  0.91427841031E+03  0.17198213493E+03 0.  0.
        -24    2    5    5    0    0  0.80399057470E+02 -0.37299044770E+02  0.79295366235E+03  0.80124030419E+03  0.73179828204E+02 0.  0.
          5    1    3    3  501    0  0.83642462647E+01 -0.25239833854E+02  0.10119976359E+03  0.10474011638E+03  0.47000000000E+01 0. -1.
        -11    1    4    4    0    0 -0.37939315859E+02  0.42361660810E+02  0.66081933839E+02  0.87182131050E+02  0.00000000000E+00 0.  1.
         12    1    4    4    0    0 -0.97076461273E+02 -0.17173222818E+02  0.41064401972E+02  0.10679440072E+03  0.00000000000E+00 0. -1.
         -5    1    5    5    0  502  0.46252473397E+02  0.37350440632E+02  0.96026958315E+02  0.11303810612E+03  0.47000000000E+01 0.  1.
         13    1    6    6    0    0  0.90373328479E+02 -0.20493731069E+02  0.57581467320E+03  0.58322368727E+03  0.00000000000E+00 0. -1.
        -14    1    6    6    0    0 -0.99742710083E+01 -0.16805313701E+02  0.21713898914E+03  0.21801661693E+03  0.00000000000E+00 0.  1.
</event>
<event>
12    1  0.8494789E-002  0.2632527E+03  0.7818608E-02  0.1105723E+00
         21   -1    0    0  503  502  0.00000000000E+00  0.00000000000E+00  0.62093764343E+03  0.62093764343E+03  0.00000000000E+00 0. -1.
         21   -1    0    0  501  503 -0.00000000000E+00 -0.00000000000E+00 -0.15003290446E+03  0.15003290446E+03  0.00000000000E+00 0. -1.
          6    2    1    2  501    0  0.60477348440E+02  0.18083625366E+03  0.37822417822E+02  0.26595587559E+03  0.18150132826E+03 0.  0.
         24    2    3    3    0    0 -0.28444488034E+02  0.40763090756E+02  0.44513348726E+02  0.99840125214E+02  0.74269064357E+02 0.  0.
         -6    2    1    2    0  502 -0.60477348440E+02 -0.18083625366E+03  0.43308232115E+03  0.50501467230E+03  0.17640935926E+03 0.  0.
        -24    2    5    5    0    0  0.13963751783E+02 -0.33629455177E+02  0.10452331023E+03  0.13734031559E+03  0.81309982701E+02 0.  0.
          5    1    3    3  501    0  0.88921836474E+02  0.14007316290E+03 -0.66909309042E+01  0.16611575038E+03  0.47000000000E+01 0. -1.
        -13    1    4    4    0    0 -0.54336832820E+01 -0.18077905514E+02  0.29299305735E+02  0.34853764479E+02  0.00000000000E+00 0.  1.
         14    1    4    4    0    0 -0.23010804752E+02  0.58840996270E+02  0.15214042991E+02  0.64986360735E+02  0.00000000000E+00 0. -1.
         -5    1    5    5    0  502 -0.74441100223E+02 -0.14720679848E+03  0.32855901092E+03  0.36767435670E+03  0.47000000000E+01 0.  1.
         13    1    6    6    0    0 -0.56412748970E+01 -0.44819858153E+02  0.19205437890E+02  0.49086581790E+02  0.00000000000E+00 0. -1.
        -14    1    6    6    0    0  0.19605026680E+02  0.11190402976E+02  0.85317872339E+02  0.88253733804E+02  0.00000000000E+00 0.  1.
</event>
<event>
12    1  0.8494789E-002  0.1865058E+03  0.7818608E-02  0.1161950E+00
         21   -1    0    0  503  502  0.00000000000E+00  0.00000000000E+00  0.61230145376E+03  0.61230145376E+03  0.00000000000E+00 0.  1.
         21   -1    0    0  501  503 -0.00000000000E+00 -0.00000000000E+00 -0.56828874712E+02  0.56828874712E+02  0.00000000000E+00 0.  1.
          6    2    1    2  501    0 -0.54963113464E+02  0.33800586014E+02  0.24831598624E+03  0.30978427169E+03  0.17361463795E+03 0.  0.
         24    2    3    3    0    0 -0.65359638206E+02 -0.32775825483E+02  0.19507302751E+03  0.22377608052E+03  0.81707472783E+02 0.  0.
         -6    2    1    2    0  502  0.54963113464E+02 -0.33800586014E+02  0.30715659281E+03  0.35934605678E+03  0.17498854980E+03 0.  0.
        -24    2    5    5    0    0 -0.34200491220E+02  0.98028801948E+01  0.11990627736E+03  0.14736449791E+03  0.77929518369E+02 0.  0.
          5    1    3    3  501    0  0.10396524742E+02  0.66576411497E+02  0.53242958729E+02  0.86008191172E+02  0.47000000000E+01 0. -1.
        -13    1    4    4    0    0 -0.16554152932E+01 -0.39156211546E+02  0.11351977713E+03  0.12009450072E+03  0.00000000000E+00 0.  1.
         14    1    4    4    0    0 -0.63704222913E+02  0.63803860628E+01  0.81553250378E+02  0.10368157980E+03  0.00000000000E+00 0. -1.
         -5    1    5    5    0  502  0.89163604684E+02 -0.43603466209E+02  0.18725031545E+03  0.21198155887E+03  0.47000000000E+01 0.  1.
         11    1    6    6    0    0 -0.16623913007E+02 -0.10954154754E+02  0.11846611968E+03  0.12012730540E+03  0.00000000000E+00 0. -1.
        -12    1    6    6    0    0 -0.17576578213E+02  0.20757034949E+02  0.14401576782E+01  0.27237192507E+02  0.00000000000E+00 0.  1.
</event>
<event>
12    1  0.8494789E-002  0.2253297E+03  0.7818608E-02  0.1131219E+00
         21   -1    0    0  501  502  0.00000000000E+00  0.00000000000E+00  0.11029754095E+04  0.11029754095E+04  0.00000000000E+00 0.  1.
         21   -1    0    0  502  503 -0.00000000000E+00 -0.00000000000E+00 -0.54471554642E+02  0.54471554642E+02  0.00000000000E+00 0.  1.
         -6    2    1    2    0  503  0.63774436317E+02 -0.13086529449E+03  0.28517979850E+03  0.36345702230E+03  0.17199007400E+03 0.  0.
        -24    2    3    3    0    0 -0.21709608256E+02 -0.70674199046E+02  0.18797563013E+03  0.22062414724E+03  0.88735716159E+02 0.  0.
          6    2    1    2  501    0 -0.63774436317E+02  0.13086529449E+03  0.76332405636E+03  0.79398994185E+03  0.16298315468E+03 0.  0.
         24    2    5    5    0    0 -0.20854469338E+02  0.15020955192E+03  0.62402803901E+03  0.64687843887E+03  0.77736110117E+02 0.  0.
          5    1    5    5  501    0 -0.42919966979E+02 -0.19344257432E+02  0.13929601734E+03  0.14711150298E+03  0.47000000000E+01 0. -1.
        -13    1    6    6    0    0 -0.38452614507E+02  0.51802803029E+02  0.16662471246E+03  0.17867828286E+03  0.00000000000E+00 0.  1.
         14    1    6    6    0    0  0.17598145169E+02  0.98406748893E+02  0.45740332655E+03  0.46820015601E+03  0.00000000000E+00 0. -1.
         -5    1    3    3    0  503  0.85484044574E+02 -0.60191095444E+02  0.97204168375E+02  0.14283287506E+03  0.47000000000E+01 0.  1.
         11    1    4    4    0    0  0.31123959910E+02 -0.69615824037E+01  0.64794649057E+02  0.72218495252E+02  0.00000000000E+00 0. -1.
        -12    1    4    4    0    0 -0.52833568166E+02 -0.63712616642E+02  0.12318098107E+03  0.14840565199E+03  0.00000000000E+00 0.  1.
</event>
<event>
12    1  0.8494789E-002  0.2095897E+03  0.7818608E-02  0.1141913E+00
         21   -1    0    0  503  502  0.00000000000E+00  0.00000000000E+00  0.19655902609E+04  0.19655902609E+04  0.00000000000E+00 0. -1.
         21   -1    0    0  501  503 -0.00000000000E+00 -0.00000000000E+00 -0.25589077271E+02  0.25589077271E+02  0.00000000000E+00 0.  1.
          6    2    1    2  501    0 -0.93862614851E+02 -0.73921928528E+02  0.61528456368E+03  0.65000226135E+03  0.17220105537E+03 0.  0.
         24    2    3    3    0    0 -0.47881304900E+01 -0.85212884567E+02  0.29599736069E+03  0.31829733608E+03  0.80091165129E+02 0.  0.
         -6    2    1    2    0  502  0.93862614851E+02  0.73921928528E+02  0.13247166200E+04  0.13411770769E+04  0.17206738867E+03 0.  0.
        -24    2    5    5    0    0  0.11166114240E+03  0.63339574290E+02  0.12991367365E+04  0.13079326150E+04  0.80320314522E+02 0.  0.
          5    1    3    3  501    0 -0.89074484361E+02  0.11290956039E+02  0.31928720299E+03  0.33170492527E+03  0.47000000000E+01 0. -1.
        -13    1    4    4    0    0  0.20395212064E+02 -0.18424825523E+02  0.22147407386E+02  0.35297967712E+02  0.00000000000E+00 0.  1.
         14    1    4    4    0    0 -0.25183342554E+02 -0.66788059044E+02  0.27384995330E+03  0.28299936837E+03  0.00000000000E+00 0. -1.
         -5    1    5    5    0  502 -0.17798527550E+02  0.10582354237E+02  0.25579883522E+02  0.33244461872E+02  0.47000000000E+01 0.  1.
         13    1    6    6    0    0  0.24647186650E+02  0.56971479169E+02  0.43581294248E+03  0.44021148791E+03  0.00000000000E+00 0. -1.
        -14    1    6    6    0    0  0.87013955750E+02  0.63680951213E+01  0.86332379398E+03  0.86772112708E+03  0.00000000000E+00 0.  1.
</event>
<event>
12    1  0.8494789E-002  0.2053855E+03  0.7818608E-02  0.1146797E+00
         21   -1    0    0  503  502  0.00000000000E+00  0.00000000000E+00  0.22831597517E+02  0.22831597517E+02  0.00000000000E+00 0. -1.
         21   -1    0    0  501  503 -0.00000000000E+00 -0.00000000000E+00 -0.19485064086E+04  0.19485064086E+04  0.00000000000E+00 0.  1.
          6    2    1    2  501    0  0.11238423303E+03 -0.71870130780E+01 -0.12347414814E+04  0.12505245271E+04  0.16292083330E+03 0.  0.
         24    2    3    3    0    0  0.14293057719E+03 -0.12612687749E+02 -0.94598472830E+03  0.96006787015E+03  0.79088427283E+02 0.  0.
         -6    2    1    2    0  502 -0.11238423303E+03  0.71870130780E+01 -0.69093332964E+03  0.72081347900E+03  0.17175953108E+03 0.  0.
        -24    2    5    5    0    0 -0.21238768111E+02  0.55094860203E+02 -0.25993154878E+03  0.27765743121E+03  0.77734870971E+02 0.  0.
          5    1    3    3  501    0 -0.30546344164E+02  0.54256746706E+01 -0.28875675314E+03  0.29045665695E+03  0.47000000000E+01 0. -1.
        -11    1    4    4    0    0  0.15444634729E+02 -0.30450815595E+02 -0.24407916378E+03  0.24645573051E+03  0.00000000000E+00 0.  1.
         12    1    4    4    0    0  0.12748594246E+03  0.17838127847E+02 -0.70190556452E+03  0.71361213963E+03  0.00000000000E+00 0. -1.
         -5    1    5    5    0  502 -0.91145464915E+02 -0.47907847125E+02 -0.43100178086E+03  0.44315604779E+03  0.47000000000E+01 0.  1.
         13    1    6    6    0    0  0.39501854502E+01  0.96644590432E+01  0.19950115561E+01  0.10629478106E+02  0.00000000000E+00 0. -1.
        -14    1    6    6    0    0 -0.25188953561E+02  0.45430401159E+02 -0.26192656034E+03  0.26702795311E+03  0.00000000000E+00 0.  1.
</event>
<event>
12    1  0.8494789E-002  0.4087397E+03  0.7818608E-02  0.1041082E+00
         21   -1    0    0  503  502  0.00000000000E+00  0.00000000000E+00  0.15791856078E+04  0.15791856078E+04  0.00000000000E+00 0. -1.
         21   -1    0    0  501  503 -0.00000000000E+00 -0.00000000000E+00 -0.35455929208E+03  0.35455929208E+03  0.00000000000E+00 0.  1.
          6    2    1    2  501    0 -0.21009214779E+03 -0.30540737238E+03 -0.19823299918E+03  0.45427355828E+03  0.17220850768E+03 0.  0.
         24    2    3    3    0    0 -0.10439802406E+03 -0.23749029755E+03 -0.18385735836E+03  0.32773215836E+03  0.79399310702E+02 0.  0.
         -6    2    1    2    0  502  0.21009214779E+03  0.30540737238E+03  0.14228593149E+04  0.14794713416E+04  0.16399526499E+03 0.  0.
        -24    2    5    5    0    0  0.20936158153E+03  0.32170227956E+03  0.13450576195E+04  0.13998393660E+04  0.55187157829E+02 0.  0.
          5    1    3    3  501    0 -0.10569412373E+03 -0.67917074833E+02 -0.14375640817E+02  0.12654139992E+03  0.47000000000E+01 0. -1.
        -11    1    4    4    0    0 -0.17108120774E+02 -0.10804982005E+03 -0.43281699084E+02  0.11764674617E+03  0.00000000000E+00 0.  1.
         12    1    4    4    0    0 -0.87289903290E+02 -0.12944047749E+03 -0.14057565928E+03  0.21008541218E+03  0.00000000000E+00 0. -1.
         -5    1    5    5    0  502  0.73056626143E+00 -0.16294907179E+02  0.77801695439E+02  0.79631975615E+02  0.47000000000E+01 0.  1.
         11    1    6    6    0    0  0.11648730145E+03  0.16187478975E+03  0.60392552629E+03  0.63600218574E+03  0.00000000000E+00 0. -1.
        -12    1    6    6    0    0  0.92874280080E+02  0.15982748981E+03  0.74113209317E+03  0.76383718025E+03  0.00000000000E+00 0.  1.
</event>
<event>
12    1  0.8494789E-002  0.1772279E+03  0.7818608E-02  0.1170573E+00
         21   -1    0    0  503  502  0.00000000000E+00  0.00000000000E+00  0.29588914464E+03  0.29588914464E+03  0.00000000000E+00 0. -1.
         21   -1    0    0  501  503 -0.00000000000E+00 -0.00000000000E+00 -0.14744706298E+03  0.14744706298E+03  0.00000000000E+00 0.  1.
          6    2    1    2  501    0 -0.38719679313E+02  0.14603313317E+02 -0.43254196405E+02  0.18242988727E+03  0.17232895270E+03 0.  0.
         24    2    3    3    0    0 -0.56385505420E+01  0.71910766063E+02 -0.46020138202E+02  0.11603526659E+03  0.78379706845E+02 0.  0.
         -6    2    1    2    0  502  0.38719679313E+02 -0.14603313317E+02  0.19169627807E+03  0.26090632035E+03  0.17208188354E+03 0.  0.
        -24    2    5    5    0    0 -0.58884797831E+01 -0.35744375105E+02  0.19177302197E+03  0.21131873882E+03  0.81033220825E+02 0.  0.
          5    1    3    3  501    0 -0.33081128771E+02 -0.57307452746E+02  0.27659417978E+01  0.66394620679E+02  0.47000000000E+01 0. -1.
        -13    1    4    4    0    0  0.27545705665E+01  0.56242708491E+02 -0.67663033327E+02  0.88029063362E+02  0.00000000000E+00 0.  1.
         14    1    4    4    0    0 -0.83931211085E+01  0.15668057572E+02  0.21642895125E+02  0.28006203231E+02  0.00000000000E+00 0. -1.
         -5    1    5    5    0  502  0.44608159096E+02  0.21141061788E+02 -0.76743899615E-01  0.49587581521E+02  0.47000000000E+01 0.  1.
         11    1    6    6    0    0  0.73000405931E+01 -0.53178752046E+02  0.17693475206E+03  0.18489774673E+03  0.00000000000E+00 0. -1.
        -12    1    6    6    0    0 -0.13188520376E+02  0.17434376942E+02  0.14838269913E+02  0.26420992091E+02  0.00000000000E+00 0.  1.
</event>
<event>
12    1  0.8494789E-002  0.2119528E+03  0.7818608E-02  0.1140105E+00
         21   -1    0    0  503  502  0.00000000000E+00  0.00000000000E+00  0.93529468614E+03  0.93529468614E+03  0.00000000000E+00 0. -1.
         21   -1    0    0  501  503 -0.00000000000E+00 -0.00000000000E+00 -0.15750770803E+03  0.15750770803E+03  0.00000000000E+00 0. -1.
          6    2    1    2  501    0 -0.56114943951E+02  0.10996583929E+03 -0.66713600063E+02  0.22220419147E+03  0.17228646356E+03 0.  0.
         24    2    3    3    0    0  0.67989589482E+01  0.90414192453E+01  0.97787307375E+01  0.80722516290E+02  0.79325455918E+02 0.  0.
         -6    2    1    2    0  502  0.56114943951E+02 -0.10996583929E+03  0.84450057817E+03  0.87059820270E+03  0.17180986956E+03 0.  0.
        -24    2    5    5    0    0 -0.21730872743E+02 -0.79728082454E+02  0.62850768953E+03  0.63897499347E+03  0.80239195628E+02 0.  0.
          5    1    3    3  501    0 -0.62913902900E+02  0.10092442004E+03 -0.76492330800E+02  0.14148167518E+03  0.47000000000E+01 0. -1.
        -13    1    4    4    0    0  0.13572921102E+02 -0.21384140971E+02 -0.23906208877E+02  0.34828328918E+02  0.00000000000E+00 0.  1.
         14    1    4    4    0    0 -0.67739621536E+01  0.30425560217E+02  0.33684939615E+02  0.45894187373E+02  0.00000000000E+00 0. -1.
         -5    1    5    5    0  502  0.77845816694E+02 -0.30237756836E+02  0.21599288863E+03  0.23162320923E+03  0.47000000000E+01 0.  1.
         11    1    6    6    0    0 -0.16931758735E+02 -0.96057401377E+02  0.50897624169E+03  0.51823790234E+03  0.00000000000E+00 0. -1.
        -12    1    6    6    0    0 -0.47991140077E+01  0.16329318924E+02  0.11953144784E+03  0.12073709113E+03  0.00000000000E+00 0.  1.
</event>
<event>
12    1  0.8494789E-002  0.2795254E+03  0.7818608E-02  0.1096279E+00
         21   -1    0    0  503  502  0.00000000000E+00  0.00000000000E+00  0.59519107405E+03  0.59519107405E+03  0.00000000000E+00 0. -1.
         21   -1    0    0  501  503 -0.00000000000E+00 -0.00000000000E+00 -0.55602077612E+03  0.55602077612E+03  0.00000000000E+00 0.  1.
          6    2    1    2  501    0 -0.36663890226E+02  0.21591580569E+03 -0.48418805538E+03  0.55788359593E+03  0.16980034643E+03 0.  0.
         24    2    3    3    0    0 -0.23439136427E+02  0.23673524655E+03 -0.43072778788E+03  0.49882063434E+03  0.81869578738E+02 0.  0.
         -6    2    1    2    0  502  0.36663890226E+02 -0.21591580569E+03  0.52335835330E+03  0.59332825424E+03  0.17369679132E+03 0.  0.
        -24    2    5    5    0    0 -0.22604307091E+02 -0.17682197074E+03  0.32865023212E+03  0.38602560207E+03  0.96061575791E+02 0.  0.
          5    1    3    3  501    0 -0.13224753799E+02 -0.20819440855E+02 -0.53460267497E+02  0.59062961586E+02  0.47000000000E+01 0. -1.
        -13    1    4    4    0    0 -0.49372916880E+02  0.20336847353E+03 -0.36203402368E+03  0.41816869234E+03  0.00000000000E+00 0.  1.
         14    1    4    4    0    0  0.25933780453E+02  0.33366773022E+02 -0.68693764195E+02  0.80651942008E+02  0.00000000000E+00 0. -1.
         -5    1    5    5    0  502  0.59268197316E+02 -0.39093834952E+02  0.19470812118E+03  0.20730265217E+03  0.47000000000E+01 0.  1.
         13    1    6    6    0    0  0.36877313302E+02 -0.61358339385E+02  0.13582767846E+03  0.15353807438E+03  0.00000000000E+00 0. -1.
        -14    1    6    6    0    0 -0.59481620393E+02 -0.11546363135E+03  0.19282255366E+03  0.23248752769E+03  0.00000000000E+00 0.  1.
</event>
<event>
12    1  0.8494789E-002  0.2436027E+03  0.7818608E-02  0.1117438E+00
         21   -1    0    0  503  502  0.00000000000E+00  0.00000000000E+00  0.55210559222E+02  0.55210559222E+02  0.00000000000E+00 0.  1.
         21   -1    0    0  501  503 -0.00000000000E+00 -0.00000000000E+00 -0.11870271013E+04  0.11870271013E+04  0.00000000000E+00 0.  1.
          6    2    1    2  501    0  0.11003178346E+03 -0.13232240239E+03 -0.75723057501E+03  0.79540778718E+03  0.17221844450E+03 0.  0.
         24    2    3    3    0    0  0.84668936895E+02 -0.14097229882E+03 -0.43308915728E+03  0.47012661130E+03  0.80067437734E+02 0.  0.
         -6    2    1    2    0  502 -0.11003178346E+03  0.13232240239E+03 -0.37458596709E+03  0.44682987337E+03  0.17241252115E+03 0.  0.
        -24    2    5    5    0    0  0.64010782066E+00  0.77201983693E+02 -0.23734354090E+03  0.26204864699E+03  0.79856001377E+02 0.  0.
          5    1    3    3  501    0  0.25362846564E+02  0.86498964331E+01 -0.32414141773E+03  0.32528117588E+03  0.47000000000E+01 0. -1.
        -11    1    4    4    0    0  0.11881814394E+02 -0.11634881866E+02 -0.55033942598E+01  0.17516715951E+02  0.00000000000E+00 0.  1.
         12    1    4    4    0    0  0.72787122501E+02 -0.12933741696E+03 -0.42758576302E+03  0.45260989535E+03  0.00000000000E+00 0. -1.
         -5    1    5    5    0  502 -0.11067189128E+03  0.55120418696E+02 -0.13724242619E+03  0.18478122638E+03  0.47000000000E+01 0.  1.
         11    1    6    6    0    0 -0.80390580778E+01 -0.99695362207E+01 -0.87849705577E+02  0.88778313101E+02  0.00000000000E+00 0. -1.
        -12    1    6    6    0    0  0.86791658985E+01  0.87171519914E+02 -0.14949383533E+03  0.17327033389E+03  0.00000000000E+00 0.  1.
</event>
<event>
12    1  0.8494789E-002  0.2651465E+03  0.7818608E-02  0.1104231E+00
         21   -1    0    0  501  502  0.00000000000E+00  0.00000000000E+00  0.18943549281E+03  0.18943549281E+03  0.00000000000E+00 0. -1.
         21   -1    0    0  502  503 -0.00000000000E+00 -0.00000000000E+00 -0.51860081717E+03  0.51860081717E+03  0.00000000000E+00 0. -1.
         -6    2    1    2    0  503  0.59174349464E+01  0.20024839298E+03 -0.35402040376E+03  0.44172742560E+03  0.17221567095E+03 0.  0.
        -24    2    3    3    0    0  0.15282635798E+02  0.14748668477E+03 -0.13711002590E+03  0.21824653858E+03  0.82743647844E+02 0.  0.
          6    2    1    2  501    0 -0.59174349464E+01 -0.20024839298E+03  0.24855079399E+02  0.26630888438E+03  0.17368998820E+03 0.  0.
         24    2    5    5    0    0 -0.59676079619E+01 -0.19387784911E+02 -0.19395213001E+01  0.83413825137E+02  0.80886376681E+02 0.  0.
          5    1    5    5  501    0  0.50173015551E-01 -0.18086060807E+03  0.26794600699E+02  0.18289505924E+03  0.47000000000E+01 0. -1.
        -11    1    6    6    0    0 -0.24815477976E+02 -0.32139584664E+02  0.25359854222E+02  0.47873615445E+02  0.00000000000E+00 0.  1.
         12    1    6    6    0    0  0.18847870014E+02  0.12751799753E+02 -0.27299375522E+02  0.35540209692E+02  0.00000000000E+00 0. -1.
         -5    1    3    3    0  503 -0.93652008519E+01  0.52761708209E+02 -0.21691037786E+03  0.22348088702E+03  0.47000000000E+01 0.  1.
         13    1    4    4    0    0  0.30606481099E+02  0.81487449972E+02 -0.12020910155E+03  0.14841559649E+03  0.00000000000E+00 0. -1.
        -14    1    4    4    0    0 -0.15323845300E+02  0.65999234799E+02 -0.16900924356E+02  0.69830942088E+02  0.00000000000E+00 0.  1.
</event>
<event>
12    1  0.8494789E-002  0.1769837E+03  0.7818608E-02  0.1170797E+00
         21   -1    0    0  501  502  0.00000000000E+00  0.00000000000E+00  0.32901229370E+03  0.32901229370E+03  0.00000000000E+00 0.  1.
         21   -1    0    0  502  503 -0.00000000000E+00 -0.00000000000E+00 -0.14632213861E+03  0.14632213861E+03  0.00000000000E+00 0.  1.
         -6    2    1    2    0  503  0.25394537817E+02 -0.35657676089E+02 -0.49287589249E+02  0.18355215160E+03  0.17130608129E+03 0.  0.
        -24    2    3    3    0    0 -0.35778521772E+02 -0.64486023160E+02 -0.32916940683E+02  0.11381475167E+03  0.80198023109E+02 0.  0.
          6    2    1    2  501    0 -0.25394537817E+02  0.35657676089E+02  0.23197774433E+03  0.29178228071E+03  0.17148432306E+03 0.  0.
         24    2    5    5    0    0  0.44534353529E+02  0.38112926940E+02  0.92154413401E+02  0.13535743622E+03  0.79958087686E+02 0.  0.
          5    1    5    5  501    0 -0.69928891346E+02 -0.24552508506E+01  0.13982333093E+03  0.15642484449E+03  0.47000000000E+01 0. -1.
        -13    1    6    6    0    0  0.11370420676E+02  0.53068636180E+02  0.26730032370E+02  0.60498440003E+02  0.00000000000E+00 0.  1.
         14    1    6    6    0    0  0.33163932853E+02 -0.14955709240E+02  0.65424381031E+02  0.74858996216E+02  0.00000000000E+00 0. -1.
         -5    1    3    3    0  503  0.61173059589E+02  0.28828347070E+02 -0.16370648566E+02  0.69737399928E+02  0.47000000000E+01 0.  1.
         13    1    4    4    0    0 -0.25355222939E+02 -0.20536351286E+02  0.24469387761E+02  0.40784555800E+02  0.00000000000E+00 0. -1.
        -14    1    4    4    0    0 -0.10423298833E+02 -0.43949671874E+02 -0.57386328444E+02  0.73030195869E+02  0.00000000000E+00 0.  1.
</event>
<event>
12    1  0.8494789E-002  0.2173642E+03  0.7818608E-02  0.1136213E+00
         21   -1    0    0  501  502  0.00000000000E+00  0.00000000000E+00  0.32031573440E+03  0.32031573440E+03  0.00000000000E+00 0. -1.
         21   -1    0    0  502  503 -0.00000000000E+00 -0.00000000000E+00 -0.22457023216E+03  0.22457023216E+03  0.00000000000E+00 0. -1.
         -6    2    1    2    0  503 -0.10688289831E+03 -0.77758162497E+02 -0.11314361414E+03  0.24341978200E+03  0.17023932290E+03 0.  0.
        -24    2    3    3    0    0  0.60738802618E+01 -0.47744109645E+02 -0.22008187584E+02  0.95136832314E+02  0.79058614425E+02 0.  0.
          6    2    1    2  501    0  0.10688289831E+03  0.77758162497E+02  0.20888911639E+03  0.30146618456E+03  0.17255987859E+03 0.  0.
         24    2    5    5    0    0  0.26825549597E+02  0.15120622394E+02  0.19177853231E+02  0.86187077624E+02  0.78180425697E+02 0.  0.
          5    1    5    5  501    0  0.80057348710E+02  0.62637540103E+02  0.18971126316E+03  0.21527910693E+03  0.47000000000E+01 0. -1.
        -13    1    6    6    0    0  0.25385263859E+01  0.22332790946E+02  0.44819911148E+02  0.50140024959E+02  0.00000000000E+00 0.  1.
         14    1    6    6    0    0  0.24287023211E+02 -0.72121685514E+01 -0.25642057916E+02  0.36047052665E+02  0.00000000000E+00 0. -1.
         -5    1    3    3    0  503 -0.11295677857E+03 -0.30014052852E+02 -0.91135426560E+02  0.14828294969E+03  0.47000000000E+01 0.  1.
         13    1    4    4    0    0 -0.94193752984E+01 -0.49896005158E+02  0.16647225730E+02  0.53436561324E+02  0.00000000000E+00 0. -1.
        -14    1    4    4    0    0  0.15493255560E+02  0.21518955121E+01 -0.38655413314E+02  0.41700270990E+02  0.00000000000E+00 0.  1.
</event>
<event>
12    1  0.8494789E-002  0.1726458E+03  0.7818608E-02  0.1175249E+00
         21   -1    0    0  501  502  0.00000000000E+00  0.00000000000E+00  0.30446364890E+02  0.30446364890E+02  0.00000000000E+00 0. -1.
         21   -1    0    0  502  503 -0.00000000000E+00 -0.00000000000E+00 -0.21630516250E+04  0.21630516250E+04  0.00000000000E+00 0. -1.
         -6    2    1    2    0  503 -0.63332385226E+01 -0.12019071834E+02 -0.18780336864E+04  0.18859052869E+04  0.17159153742E+03 0.  0.
        -24    2    3    3    0    0  0.53542085589E+01  0.12672260403E+02 -0.39614715089E+03  0.40375952734E+03  0.76811047550E+02 0.  0.
          6    2    1    2  501    0  0.63332385226E+01  0.12019071834E+02 -0.25457157370E+03  0.30759270303E+03  0.17211047854E+03 0.  0.
         24    2    5    5    0    0  0.53972434071E+02 -0.12605477976E+02 -0.22695492024E+03  0.24708955473E+03  0.80453654490E+02 0.  0.
          5    1    5    5  501    0 -0.47639195548E+02  0.24624549810E+02 -0.27616653455E+02  0.60503148297E+02  0.47000000000E+01 0. -1.
        -11    1    6    6    0    0 -0.15011032397E+02  0.90446297006E+01 -0.95207605394E+02  0.96807151311E+02  0.00000000000E+00 0.  1.
         12    1    6    6    0    0  0.68983466467E+02 -0.21650107677E+02 -0.13174731485E+03  0.15028240342E+03  0.00000000000E+00 0. -1.
         -5    1    3    3    0  503 -0.11687447082E+02 -0.24691332237E+02 -0.14818865355E+04  0.14821457595E+04  0.47000000000E+01 0.  1.
         11    1    4    4    0    0 -0.69683807651E+01  0.36137159203E+02 -0.33628123892E+03  0.33828911342E+03  0.00000000000E+00 0. -1.
        -12    1    4    4    0    0  0.12322589324E+02 -0.23464898800E+02 -0.59865911971E+02  0.65470413924E+02  0.00000000000E+00 0.  1.
</event>
<event>
12    1  0.8494789E-002  0.1957954E+03  0.7818608E-02  0.1153691E+00
         21   -1    0    0  501  502  0.00000000000E+00  0.00000000000E+00  0.76819946436E+03  0.76819946436E+03  0.00000000000E+00 0.  1.
         21   -1    0    0  502  503 -0.00000000000E+00 -0.00000000000E+00 -0.17015951945E+03  0.17015951945E+03  0.00000000000E+00 0.  1.
         -6    2    1    2    0  503 -0.91139289375E+02 -0.13678778640E+02 -0.96446602499E+02  0.21679997504E+03  0.17089997949E+03 0.  0.
        -24    2    3    3    0    0 -0.67816419597E+02 -0.54510158427E+02 -0.11576433729E+03  0.16574683892E+03  0.80623871679E+02 0.  0.
          6    2    1    2  501    0  0.91139289375E+02  0.13678778640E+02  0.69448654741E+03  0.72155900878E+03  0.17274941263E+03 0.  0.
         24    2    5    5    0    0  0.73712723560E+02  0.60190889306E+02  0.31622826361E+03  0.34002463169E+03  0.80993374314E+02 0.  0.
          5    1    5    5  501    0  0.17426565815E+02 -0.46512110666E+02  0.37825828380E+03  0.38153437708E+03  0.47000000000E+01 0. -1.
        -11    1    6    6    0    0  0.60795941880E+02  0.23402170288E+01  0.20691753806E+03  0.21567682008E+03  0.00000000000E+00 0.  1.
         12    1    6    6    0    0  0.12916781680E+02  0.57850672278E+02  0.10931072555E+03  0.12434781161E+03  0.00000000000E+00 0. -1.
         -5    1    3    3    0  503 -0.23322869777E+02  0.40831379787E+02  0.19317734791E+02  0.51053136117E+02  0.47000000000E+01 0.  1.
         11    1    4    4    0    0 -0.83131481029E+01 -0.42883273288E+01  0.12551750349E+02  0.15653901095E+02  0.00000000000E+00 0. -1.
        -12    1    4    4    0    0 -0.59503271495E+02 -0.50221831098E+02 -0.12831608764E+03  0.15009293782E+03  0.00000000000E+00 0.  1.
</event>
<event>
12    1  0.8494789E-002  0.1739175E+03  0.7818608E-02  0.1174319E+00
         21   -1    0    0  501  502  0.00000000000E+00  0.00000000000E+00  0.14192878384E+03  0.14192878384E+03  0.00000000000E+00 0.  1.
         21   -1    0    0  502  503 -0.00000000000E+00 -0.00000000000E+00 -0.24422636978E+03  0.24422636978E+03  0.00000000000E+00 0.  1.
         -6    2    1    2    0  503  0.17629708538E+02 -0.23058035252E+01  0.20100812180E+02  0.17507522970E+03  0.17300627171E+03 0.  0.
        -24    2    3    3    0    0  0.22986293054E+02 -0.65149982328E+02 -0.44447047148E+01  0.10723235088E+03  0.81890975139E+02 0.  0.
          6    2    1    2  501    0 -0.17629708538E+02  0.23058035252E+01 -0.12239839812E+03  0.21107992391E+03  0.17104748775E+03 0.  0.
         24    2    5    5    0    0 -0.94747224473E+01 -0.33401017508E+01 -0.15605098996E+03  0.17568265026E+03  0.80072189223E+02 0.  0.
          5    1    5    5  501    0 -0.81549860912E+01  0.56459052761E+01  0.33652591846E+02  0.35397273659E+02  0.47000000000E+01 0. -1.
        -13    1    6    6    0    0 -0.17362575339E+02 -0.30056622831E+02 -0.13844186032E+03  0.14272704120E+03  0.00000000000E+00 0.  1.
         14    1    6    6    0    0  0.78878528921E+01  0.26716521080E+02 -0.17609129640E+02  0.32955609061E+02  0.00000000000E+00 0. -1.
         -5    1    3    3    0  503 -0.53565845157E+01  0.62844178802E+02  0.24545516895E+02  0.67842878821E+02  0.47000000000E+01 0.  1.
         13    1    4    4    0    0 -0.18944371440E+02 -0.61996635273E+02  0.98645934404E+00  0.64833981032E+02  0.00000000000E+00 0. -1.
        -14    1    4    4    0    0  0.41930664494E+02 -0.31533470543E+01 -0.54311640589E+01  0.42398369846E+02  0.00000000000E+00 0.  1.
</event>
<event>
12    1  0.8494789E-002  0.2387161E+03  0.7818608E-02  0.1120717E+00
         21   -1    0    0  501  502  0.00000000000E+00  0.00000000000E+00  0.64736090835E+02  0.64736090835E+02  0.00000000000E+00 0.  1.
         21   -1    0    0  502  503 -0.00000000000E+00 -0.00000000000E+00 -0.19239405821E+04  0.19239405821E+04  0.00000000000E+00 0. -1.
         -6    2    1    2    0  503  0.15820787450E+03 -0.48527163142E+02 -0.16621108230E+04  0.16791103933E+04  0.17150716573E+03 0.  0.
        -24    2    3    3    0    0  0.33510466534E+02 -0.24295443157E+02 -0.10535679383E+04  0.10574327016E+04  0.80282613086E+02 0.  0.
          6    2    1    2  501    0 -0.15820787450E+03  0.48527163142E+02 -0.19709366833E+03  0.30956627968E+03  0.17204868585E+03 0.  0.
         24    2    5    5    0    0 -0.98045319026E+02  0.19067447352E+01 -0.19535049173E+03  0.23328964395E+03  0.81521304553E+02 0.  0.
          5    1    5    5  501    0 -0.60162555475E+02  0.46620418407E+02 -0.17431765960E+01  0.76276635730E+02  0.47000000000E+01 0. -1.
        -11    1    6    6    0    0 -0.22642393581E+02 -0.33645474083E+02 -0.39873357926E+02  0.56873373258E+02  0.00000000000E+00 0.  1.
         12    1    6    6    0    0 -0.75402925445E+02  0.35552218819E+02 -0.15547713381E+03  0.17641627069E+03  0.00000000000E+00 0. -1.
         -5    1    3    3    0  503  0.12469740797E+03 -0.24231719985E+02 -0.60854288468E+03  0.62167769166E+03  0.47000000000E+01 0.  1.
         11    1    4    4    0    0  0.56086642450E+02 -0.33899397592E+02 -0.72984985632E+03  0.73278625355E+03  0.00000000000E+00 0. -1.
        -12    1    4    4    0    0 -0.22576175915E+02  0.96039544346E+01 -0.32371808195E+03  0.32464644807E+03  0.00000000000E+00 0.  1.
</event>
<event>
12    1  0.8494789E-002  0.2058368E+03  0.7818608E-02  0.1146012E+00
         21   -1    0    0  501  502  0.00000000000E+00  0.00000000000E+00  0.93274661985E+02  0.93274661985E+02  0.00000000000E+00 0. -1.
         21   -1    0    0  502  503 -0.00000000000E+00 -0.00000000000E+00 -0.44960466021E+03  0.44960466021E+03  0.00000000000E+00 0.  1.
         -6    2    1    2    0  503  0.10126779075E+03  0.55664333314E+01 -0.21466809849E+03  0.29740742555E+03  0.17911625732E+03 0.  0.
        -24    2    3    3    0    0  0.13237898266E+03  0.39237498913E+02 -0.16960483788E+03  0.23295252367E+03  0.80232791786E+02 0.  0.
          6    2    1    2  501    0 -0.10126779075E+03 -0.55664333314E+01 -0.14166189974E+03  0.24547189665E+03  0.17292254793E+03 0.  0.
         24    2    5    5    0    0 -0.55984118884E+02  0.64052805603E+02 -0.82492815001E+02  0.14339094859E+03  0.80739805168E+02 0.  0.
          5    1    5    5  501    0 -0.45283671868E+02 -0.69619238935E+02 -0.59169084737E+02  0.10208094806E+03  0.47000000000E+01 0. -1.
        -13    1    6    6    0    0 -0.34056598870E+02  0.48891456675E+01 -0.71495534153E+02  0.79343349285E+02  0.00000000000E+00 0.  1.
         14    1    6    6    0    0 -0.21927520014E+02  0.59163659936E+02 -0.10997280848E+02  0.64047599307E+02  0.00000000000E+00 0. -1.
         -5    1    3    3    0  503 -0.31111191912E+02 -0.33671065581E+02 -0.45063260605E+02  0.64454901876E+02  0.47000000000E+01 0.  1.
         11    1    4    4    0    0  0.17319120231E+02 -0.22304049665E+02 -0.40669442064E+02  0.49511878119E+02  0.00000000000E+00 0. -1.
        -12    1    4    4    0    0  0.11505986243E+03  0.61541548578E+02 -0.12893539582E+03  0.18344064555E+03  0.00000000000E+00 0.  1.
</event>
<event>
12    1  0.8494789E-002  0.1908112E+03  0.7818608E-02  0.1157887E+00
         21   -1    0    0  503  502  0.00000000000E+00  0.00000000000E+00  0.94470642310E+02  0.94470642310E+02  0.00000000000E+00 0.  1.
         21   -1    0    0  501  503 -0.00000000000E+00 -0.00000000000E+00 -0.71021946800E+03  0.71021946800E+03  0.00000000000E+00 0. -1.
          6    2    1    2  501    0 -0.59035904814E+02  0.49012598832E+02 -0.58085916991E+03  0.61139699475E+03  0.17470385519E+03 0.  0.
         24    2    3    3    0    0 -0.82391337375E+02 -0.16306595195E+02 -0.28663507556E+03  0.30906938927E+03  0.79435403452E+02 0.  0.
         -6    2    1    2    0  502  0.59035904814E+02 -0.49012598832E+02 -0.34889655781E+02  0.19329311556E+03  0.17394673766E+03 0.  0.
        -24    2    5    5    0    0  0.25590073196E+02 -0.28923378638E+02 -0.89708409351E+02  0.12584397796E+03  0.79358014098E+02 0.  0.
          5    1    3    3  501    0  0.23355432562E+02  0.65319194027E+02 -0.29422409435E+03  0.30232760548E+03  0.47000000000E+01 0. -1.
        -11    1    4    4    0    0 -0.56249425020E+02 -0.44618110207E+02 -0.13848809602E+03  0.15599271237E+03  0.00000000000E+00 0.  1.
         12    1    4    4    0    0 -0.26141912355E+02  0.28311515012E+02 -0.14814697955E+03  0.15307667691E+03  0.00000000000E+00 0. -1.
         -5    1    5    5    0  502  0.33445831618E+02 -0.20089220193E+02  0.54818753571E+02  0.67449137605E+02  0.47000000000E+01 0.  1.
         13    1    6    6    0    0  0.11475394000E+02  0.18237156654E+02 -0.69267272581E+02  0.72541254477E+02  0.00000000000E+00 0. -1.
        -14    1    6    6    0    0  0.14114679195E+02 -0.47160535293E+02 -0.20441136771E+02  0.53302723480E+02  0.00000000000E+00 0.  1.
</event>
<event>
12    1  0.8494789E-002  0.1729183E+03  0.7818608E-02  0.1175672E+00
         21   -1    0    0  501  502  0.00000000000E+00  0.00000000000E+00  0.27622168945E+03  0.27622168945E+03  0.00000000000E+00 0.  1.
         21   -1    0    0  502  503 -0.00000000000E+00 -0.00000000000E+00 -0.37006299768E+03  0.37006299768E+03  0.00000000000E+00 0.  1.
         -6    2    1    2    0  503 -0.65690898223E+01 -0.48488126617E+01 -0.31963668648E+03  0.36188304962E+03  0.16948470824E+03 0.  0.
        -24    2    3    3    0    0  0.33977701803E+02 -0.26060827151E+02 -0.87462928519E+02  0.12519605007E+03  0.78680595798E+02 0.  0.
          6    2    1    2  501    0  0.65690898223E+01  0.48488126617E+01  0.22579537825E+03  0.28440163751E+03  0.17272543141E+03 0.  0.
         24    2    5    5    0    0  0.48214281830E+02  0.50876065361E+02  0.11169304275E+03  0.15442370486E+03  0.80363883846E+02 0.  0.
          5    1    5    5  501    0 -0.41645192008E+02 -0.46027252700E+02  0.11410233550E+03  0.12997793265E+03  0.47000000000E+01 0. -1.
        -13    1    6    6    0    0  0.12700350836E+01  0.55704814074E+02  0.39991006238E+02  0.68585128710E+02  0.00000000000E+00 0.  1.
         14    1    6    6    0    0  0.46944246747E+02 -0.48287487130E+01  0.71702036508E+02  0.85838576154E+02  0.00000000000E+00 0. -1.
         -5    1    3    3    0  503 -0.40546791626E+02  0.21212014489E+02 -0.23217375796E+03  0.23668699955E+03  0.47000000000E+01 0.  1.
         11    1    4    4    0    0 -0.35456071169E+00 -0.20662019511E+02 -0.88044373443E+02  0.90437030350E+02  0.00000000000E+00 0. -1.
        -12    1    4    4    0    0  0.34332262515E+02 -0.53988076399E+01  0.58144492382E+00  0.34759019715E+02  0.00000000000E+00 0.  1.
</event>
<event>
12    1  0.8494789E-002  0.2114228E+03  0.7818608E-02  0.1140776E+00
         21   -1    0    0  501  502  0.00000000000E+00  0.00000000000E+00  0.92676793544E+03  0.92676793544E+03  0.00000000000E+00 0.  1.
         21   -1    0    0  502  503 -0.00000000000E+00 -0.00000000000E+00 -0.60437400597E+03  0.60437400597E+03  0.00000000000E+00 0. -1.
         -6    2    1    2    0  503 -0.94976436983E+02  0.75619732767E+02 -0.57339242359E+03  0.61112884254E+03  0.17309166124E+03 0.  0.
        -24    2    3    3    0    0 -0.10570262415E+03  0.10888600676E+03 -0.41840002954E+03  0.45217467214E+03  0.79838225067E+02 0.  0.
          6    2    1    2  501    0  0.94976436983E+02 -0.75619732767E+02  0.89578635306E+03  0.92001309887E+03  0.17103228990E+03 0.  0.
         24    2    5    5    0    0  0.12721416432E+03 -0.36146615337E+02  0.76525523658E+03  0.77980660674E+03  0.70659361761E+02 0.  0.
          5    1    5    5  501    0 -0.32237727337E+02 -0.39473117430E+02  0.13053111649E+03  0.14020649213E+03  0.47000000000E+01 0. -1.
        -13    1    6    6    0    0  0.10831598637E+03 -0.11957067930E+02  0.68966352049E+03  0.69821994806E+03  0.00000000000E+00 0.  1.
         14    1    6    6    0    0  0.18898177945E+02 -0.24189547407E+02  0.75591716093E+02  0.81586658684E+02  0.00000000000E+00 0. -1.
         -5    1    3    3    0  503  0.10726187164E+02 -0.33266273995E+02 -0.15499239405E+03  0.15895417040E+03  0.47000000000E+01 0.  1.
         13    1    4    4    0    0 -0.27981100690E+02  0.85144618711E+02 -0.23796395979E+03  0.25428211548E+03  0.00000000000E+00 0. -1.
        -14    1    4    4    0    0 -0.77721523457E+02  0.23741388051E+02 -0.18043606975E+03  0.19789255666E+03  0.00000000000E+00 0.  1.
</event>
<event>
12    1  0.8494789E-002  0.1789897E+03  0.7818608E-02  0.1169338E+00
         21   -1    0    0  503  502  0.00000000000E+00  0.00000000000E+00  0.51521030011E+03  0.51521030011E+03  0.00000000000E+00 0.  1.
         21   -1    0    0  501  503 -0.00000000000E+00 -0.00000000000E+00 -0.83816791563E+02  0.83816791563E+02  0.00000000000E+00 0.  1.
          6    2    1    2  501    0  0.32821045929E+02 -0.20653428048E+02  0.61813064532E+02  0.18936253943E+03  0.17473846527E+03 0.  0.
         24    2    3    3    0    0  0.72621152305E+02  0.30204395016E+02  0.25280909025E+02  0.11501702833E+03  0.80022841770E+02 0.  0.
         -6    2    1    2    0  502 -0.32821045929E+02  0.20653428048E+02  0.36958044402E+03  0.40966455225E+03  0.17242840723E+03 0.  0.
        -24    2    5    5    0    0 -0.23296579749E+02  0.17578555131E+01  0.66583683643E+02  0.10589344612E+03  0.78957040981E+02 0.  0.
          5    1    3    3  501    0 -0.39800106376E+02 -0.50857823065E+02  0.36532155506E+02  0.74345511097E+02  0.47000000000E+01 0. -1.
        -11    1    4    4    0    0  0.29131695990E+02 -0.80437671050E+01 -0.24298165669E+02  0.38778328424E+02  0.00000000000E+00 0.  1.
         12    1    4    4    0    0  0.43489456315E+02  0.38248162121E+02  0.49579074694E+02  0.76238699909E+02  0.00000000000E+00 0. -1.
         -5    1    5    5    0  502 -0.95244661804E+01  0.18895572535E+02  0.30299676037E+03  0.30377110612E+03  0.47000000000E+01 0.  1.
         11    1    6    6    0    0 -0.35448681012E+02 -0.86199305848E+01  0.78096857650E+02  0.86197629687E+02  0.00000000000E+00 0. -1.
        -12    1    6    6    0    0  0.12152101263E+02  0.10377786098E+02 -0.11513174007E+02  0.19695816437E+02  0.00000000000E+00 0.  1.
</event>
<event>
12    1  0.8494789E-002  0.2447114E+03  0.7818608E-02  0.1116815E+00
         21   -1    0    0  501  502  0.00000000000E+00  0.00000000000E+00  0.35855979980E+03  0.35855979980E+03  0.00000000000E+00 0.  1.
         21   -1    0    0  502  503 -0.00000000000E+00 -0.00000000000E+00 -0.17907395776E+03  0.17907395776E+03  0.00000000000E+00 0. -1.
         -6    2    1    2    0  503 -0.14197609409E+03 -0.10185718226E+03  0.18382740561E+02  0.24465270631E+03  0.17024959525E+03 0.  0.
        -24    2    3    3    0    0 -0.10859818186E+03 -0.89473923913E+02 -0.46920600617E+02  0.17012723093E+03  0.83322168580E+02 0.  0.
          6    2    1    2  501    0  0.14197609409E+03  0.10185718226E+03  0.16110310148E+03  0.29298105125E+03  0.17132305803E+03 0.  0.
         24    2    5    5    0    0  0.16854146231E+02  0.73347882196E+02  0.41283335079E+02  0.11734748826E+03  0.80013406243E+02 0.  0.
          5    1    5    5  501    0  0.12512194786E+03  0.28509300063E+02  0.11981976640E+03  0.17563356298E+03  0.47000000000E+01 0. -1.
        -11    1    6    6    0    0 -0.18855823072E+02 -0.83216293741E+01  0.58196533230E+01  0.21416347587E+02  0.00000000000E+00 0.  1.
         12    1    6    6    0    0  0.35709969304E+02  0.81669511570E+02  0.35463681756E+02  0.95931140676E+02  0.00000000000E+00 0. -1.
         -5    1    3    3    0  503 -0.33377912229E+02 -0.12383258345E+02  0.65303341178E+02  0.74525475383E+02  0.47000000000E+01 0.  1.
         13    1    4    4    0    0 -0.63345834495E+02 -0.98739077172E+02 -0.35025439550E+02  0.12242908774E+03  0.00000000000E+00 0. -1.
        -14    1    4    4    0    0 -0.45252347363E+02  0.92651532585E+01 -0.11895161067E+02  0.47698143188E+02  0.00000000000E+00 0.  1.
</event>
<event>
12    1  0.8494789E-002  0.1946964E+03  0.7818608E-02  0.1154743E+00
         21   -1    0    0  501  502  0.00000000000E+00  0.00000000000E+00  0.21709005429E+04  0.21709005429E+04  0.00000000000E+00 0.  1.
         21   -1    0    0  502  503 -0.00000000000E+00 -0.00000000000E+00 -0.31067986505E+02  0.31067986505E+02  0.00000000000E+00 0.  1.
         -6    2    1    2    0  503  0.81777201878E+02  0.42667659209E+02  0.33955681558E+03  0.39141479042E+03  0.17146039563E+03 0.  0.
        -24    2    3    3    0    0 -0.18982241457E+02 -0.77754382660E+01  0.15612852634E+03  0.17608945797E+03  0.78807344456E+02 0.  0.
          6    2    1    2  501    0 -0.81777201878E+02 -0.42667659209E+02  0.18002757409E+04  0.18105537390E+04  0.16912734513E+03 0.  0.
         24    2    5    5    0    0 -0.10367318353E+03 -0.35355052239E+02  0.17474488557E+04  0.17527119027E+04  0.80146128295E+02 0.  0.
          5    1    5    5  501    0  0.21895981650E+02 -0.73126069700E+01  0.52826885136E+02  0.57841836298E+02  0.47000000000E+01 0. -1.
        -13    1    6    6    0    0 -0.31700477511E+01 -0.12540576941E+02  0.71813146989E+03  0.71824795393E+03  0.00000000000E+00 0.  1.
         14    1    6    6    0    0 -0.10050313578E+03 -0.22814475298E+02  0.10293173858E+04  0.10344639488E+04  0.00000000000E+00 0. -1.
         -5    1    3    3    0  503  0.10075944333E+03  0.50443097475E+02  0.18342828924E+03  0.21532533246E+03  0.47000000000E+01 0.  1.
         13    1    4    4    0    0  0.14060171901E+02 -0.11837784508E+02  0.13589389615E+03  0.13713122397E+03  0.00000000000E+00 0. -1.
        -14    1    4    4    0    0 -0.33042413358E+02  0.40623462420E+01  0.20234630184E+02  0.38958233997E+02  0.00000000000E+00 0.  1.
</event>
<event>
12    1  0.8494789E-002  0.2015648E+03  0.7818608E-02  0.1148477E+00
         21   -1    0    0  503  502  0.00000000000E+00  0.00000000000E+00  0.12531170899E+03  0.12531170899E+03  0.00000000000E+00 0.  1.
         21   -1    0    0  501  503 -0.00000000000E+00 -0.00000000000E+00 -0.34661608559E+03  0.34661608559E+03  0.00000000000E+00 0. -1.
          6    2    1    2  501    0 -0.10464939729E+03  0.11685206370E+02 -0.17122631839E+03  0.26447462119E+03  0.17187301343E+03 0.  0.
         24    2    3    3    0    0 -0.20695115579E+02 -0.79680052405E+01 -0.15608974650E+03  0.17680606382E+03  0.80028734365E+02 0.  0.
         -6    2    1    2    0  502  0.10464939729E+03 -0.11685206370E+02 -0.50078058198E+02  0.20745317338E+03  0.17158370212E+03 0.  0.
        -24    2    5    5    0    0  0.98955997214E+02 -0.61993548162E+02 -0.61818688964E+02  0.15526815188E+03  0.81554639879E+02 0.  0.
          5    1    3    3  501    0 -0.83954281709E+02  0.19653211611E+02 -0.15136571895E+02  0.87668557378E+02  0.47000000000E+01 0. -1.
        -13    1    4    4    0    0 -0.22390248802E+02  0.13852003300E+01 -0.21087555468E+01  0.22531952231E+02  0.00000000000E+00 0.  1.
         14    1    4    4    0    0  0.16951332237E+01 -0.93532055705E+01 -0.15398099095E+03  0.15427411159E+03  0.00000000000E+00 0. -1.
         -5    1    5    5    0  502  0.56934000733E+01  0.50308341791E+02  0.11740630766E+02  0.52185021500E+02  0.47000000000E+01 0.  1.
         11    1    6    6    0    0  0.52893673096E+02  0.18848420600E+01 -0.54825168207E+02  0.76204280405E+02  0.00000000000E+00 0. -1.
        -12    1    6    6    0    0  0.46062324119E+02 -0.63878390222E+02 -0.69935207567E+01  0.79063871478E+02  0.00000000000E+00 0.  1.
</event>
<event>
12    1  0.8494789E-002  0.2145641E+03  0.7818608E-02  0.1138024E+00
         21   -1    0    0  503  502  0.00000000000E+00  0.00000000000E+00  0.90190953031E+03  0.90190953031E+03  0.00000000000E+00 0. -1.
         21   -1    0    0  501  503 -0.00000000000E+00 -0.00000000000E+00 -0.60665114949E+02  0.60665114949E+02  0.00000000000E+00 0. -1.
          6    2    1    2  501    0  0.28374925877E+02 -0.12572055165E+03  0.22859484208E+03  0.31343887102E+03  0.17139874712E+03 0.  0.
         24    2    3    3    0    0  0.39495054891E+02 -0.15598498075E+03  0.20896437302E+03  0.27539891501E+03  0.79292367966E+02 0.  0.
         -6    2    1    2    0  502 -0.28374925877E+02  0.12572055165E+03  0.61264957327E+03  0.64913577423E+03  0.17154288161E+03 0.  0.
        -24    2    5    5    0    0 -0.39805613737E+02  0.50941783941E+02  0.51606092169E+03  0.52635962696E+03  0.80969313679E+02 0.  0.
          5    1    3    3  501    0 -0.11120129014E+02  0.30264429094E+02  0.19630469061E+02  0.38039956009E+02  0.47000000000E+01 0. -1.
        -13    1    4    4    0    0  0.20927350048E+02 -0.92692039928E+02  0.17961730861E+03  0.20320468941E+03  0.00000000000E+00 0.  1.
         14    1    4    4    0    0  0.18567704844E+02 -0.63292940819E+02  0.29347064413E+02  0.72194225602E+02  0.00000000000E+00 0. -1.
         -5    1    5    5    0  502  0.11430687860E+02  0.74778767712E+02  0.96588651580E+02  0.12277614727E+03  0.47000000000E+01 0.  1.
         13    1    6    6    0    0  0.21292297536E+02  0.11845905727E+02  0.22833625139E+03  0.22963260029E+03  0.00000000000E+00 0. -1.
        -14    1    6    6    0    0 -0.61097911273E+02  0.39095878214E+02  0.28772467030E+03  0.29672702667E+03  0.00000000000E+00 0.  1.
</event>
<event>
12    1  0.8494789E-002  0.2336327E+03  0.7818608E-02  0.1124273E+00
         21   -1    0    0  503  502  0.00000000000E+00  0.00000000000E+00  0.18021425209E+03  0.18021425209E+03  0.00000000000E+00 0.  1.
         21   -1    0    0  501  503 -0.00000000000E+00 -0.00000000000E+00 -0.13226701162E+04  0.13226701162E+04  0.00000000000E+00 0.  1.
          6    2    1    2  501    0  0.15125063578E+03  0.40441247266E+02 -0.12311783546E+04  0.12529725892E+04  0.17212762518E+03 0.  0.
         24    2    3    3    0    0  0.13071821328E+03  0.89877434550E+02 -0.10545294109E+04  0.10683311630E+04  0.64296118600E+02 0.  0.
         -6    2    1    2    0  502 -0.15125063578E+03 -0.40441247266E+02  0.88722490426E+02  0.24991177906E+03  0.17341270918E+03 0.  0.
        -24    2    5    5    0    0 -0.85955282138E+02 -0.32168027107E+02  0.12388254151E+03  0.17514381420E+03  0.83098610492E+02 0.  0.
          5    1    3    3  501    0  0.20532422499E+02 -0.49436187285E+02 -0.17664894364E+03  0.18464142622E+03  0.47000000000E+01 0. -1.
        -11    1    4    4    0    0  0.60698351182E+02  0.58499385783E+01 -0.32900787700E+03  0.33461125914E+03  0.00000000000E+00 0.  1.
         12    1    4    4    0    0  0.70019862095E+02  0.84027495972E+02 -0.72552153392E+03  0.73371990388E+03  0.00000000000E+00 0. -1.
         -5    1    5    5    0  502 -0.65295353637E+02 -0.82732201580E+01 -0.35160051080E+02  0.74767964867E+02  0.47000000000E+01 0.  1.
         11    1    6    6    0    0 -0.26697060605E+02 -0.50946963629E+02  0.82102768320E+02  0.10024565184E+03  0.00000000000E+00 0. -1.
        -12    1    6    6    0    0 -0.59258221533E+02  0.18778936521E+02  0.41779773186E+02  0.74898162351E+02  0.00000000000E+00 0.  1.
</event>
<event>
12    1  0.8494789E-002  0.1959349E+03  0.7818608E-02  0.1153274E+00
         21   -1    0    0  501  502  0.00000000000E+00  0.00000000000E+00  0.20303764191E+03  0.20303764191E+03  0.00000000000E+00 0. -1.
         21   -1    0    0  502  503 -0.00000000000E+00 -0.00000000000E+00 -0.23786047868E+03  0.23786047868E+03  0.00000000000E+00 0. -1.
         -6    2    1    2    0  503 -0.72185546056E+02  0.62267555322E+02 -0.11750422455E+03  0.22823244333E+03  0.17086487028E+03 0.  0.
        -24    2    3    3    0    0 -0.78506908496E+02  0.58929399376E+02 -0.15402516086E+02  0.12577293045E+03  0.77107611431E+02 0.  0.
          6    2    1    2  501    0  0.72185546056E+02 -0.62267555322E+02  0.82681387773E+02  0.21266567725E+03  0.17117966261E+03 0.  0.
         24    2    5    5    0    0  0.89235706796E+02 -0.30931548257E+02  0.11101266456E+03  0.16686824759E+03  0.81249174248E+02 0.  0.
          5    1    5    5  501    0 -0.17050160740E+02 -0.31336007065E+02 -0.28331276783E+02  0.45797429668E+02  0.47000000000E+01 0. -1.
        -13    1    6    6    0    0 -0.13153524536E+02 -0.11286968509E+02  0.46827714160E+01  0.17953807785E+02  0.00000000000E+00 0.  1.
         14    1    6    6    0    0  0.10238923133E+03 -0.19644579748E+02  0.10632989314E+03  0.14891443980E+03  0.00000000000E+00 0. -1.
         -5    1    3    3    0  503  0.63213624400E+01  0.33381559467E+01 -0.10210170846E+03  0.10245951288E+03  0.47000000000E+01 0.  1.
         11    1    4    4    0    0 -0.35031432642E+02  0.71047099163E+01 -0.40137864962E+02  0.53746873207E+02  0.00000000000E+00 0. -1.
        -12    1    4    4    0    0 -0.43475475855E+02  0.51824689459E+02  0.24735348875E+02  0.72026057245E+02  0.00000000000E+00 0.  1.
</event>
<event>
12    1  0.8494789E-002  0.1901406E+03  0.7818608E-02  0.1158424E+00
         21   -1    0    0  503  502  0.00000000000E+00  0.00000000000E+00  0.75629252047E+02  0.75629252047E+02  0.00000000000E+00 0. -1.
         21   -1    0    0  501  503 -0.00000000000E+00 -0.00000000000E+00 -0.56777229427E+03  0.56777229427E+03  0.00000000000E+00 0. -1.
          6    2    1    2  501    0 -0.68533163614E+01  0.79113495408E+02 -0.37488445481E+03  0.42034723985E+03  0.17276439011E+03 0.  0.
         24    2    3    3    0    0  0.23273188483E+01  0.55686036706E+02 -0.80732193927E+02  0.12508333676E+03  0.77600276431E+02 0.  0.
         -6    2    1    2    0  502  0.68533163614E+01 -0.79113495408E+02 -0.11725858742E+03  0.22305430647E+03  0.17233030555E+03 0.  0.
        -24    2    5    5    0    0  0.10624953266E+01 -0.28230382356E+02  0.10093769124E+02  0.85710440505E+02  0.80288928577E+02 0.  0.
          5    1    3    3  501    0 -0.91806352097E+01  0.23427458702E+02 -0.29415226088E+03  0.29526390308E+03  0.47000000000E+01 0. -1.
        -13    1    4    4    0    0 -0.28081899642E+02 -0.26995772035E+01 -0.14574887197E+02  0.31753868133E+02  0.00000000000E+00 0.  1.
         14    1    4    4    0    0  0.30409218491E+02  0.58385613909E+02 -0.66157306730E+02  0.93329468629E+02  0.00000000000E+00 0. -1.
         -5    1    5    5    0  502  0.57908210348E+01 -0.50883113051E+02 -0.12735235654E+03  0.13734386597E+03  0.47000000000E+01 0.  1.
         11    1    6    6    0    0  0.27624495376E+02 -0.35623963292E+02  0.27781602012E+02  0.52952780058E+02  0.00000000000E+00 0. -1.
        -12    1    6    6    0    0 -0.26562000050E+02  0.73935809361E+01 -0.17687832888E+02  0.32757660447E+02  0.00000000000E+00 0.  1.
</event>
<event>
12    1  0.8494789E-002  0.4111751E+03  0.7818608E-02  0.1040137E+00
         21   -1    0    0  503  502  0.00000000000E+00  0.00000000000E+00  0.13921951906E+04  0.13921951906E+04  0.00000000000E+00 0.  1.
         21   -1    0    0  501  503 -0.00000000000E+00 -0.00000000000E+00 -0.17267946850E+03  0.17267946850E+03  0.00000000000E+00 0. -1.
          6    2    1    2  501    0 -0.41698062176E+02  0.37065991432E+03  0.18218869293E+03  0.44973069378E+03  0.17302449718E+03 0.  0.
         24    2    3    3    0    0 -0.70421084828E+02  0.14031489851E+03  0.47936644123E+02  0.18153386131E+03  0.77519165500E+02 0.  0.
         -6    2    1    2    0  502  0.41698062176E+02 -0.37065991432E+03  0.10373270291E+04  0.11151439653E+04  0.16843751797E+03 0.  0.
        -24    2    5    5    0    0 -0.35813199274E+00 -0.72050058157E+02  0.26687696257E+03  0.28776740970E+03  0.79971431107E+02 0.  0.
          5    1    3    3  501    0  0.28723022651E+02  0.23034501581E+03  0.13425204880E+03  0.26819683247E+03  0.47000000000E+01 0. -1.
        -13    1    4    4    0    0 -0.52550496661E+02  0.14343981317E+03  0.29342154043E+02  0.15555544576E+03  0.00000000000E+00 0.  1.
         14    1    4    4    0    0 -0.17870588167E+02 -0.31249146611E+01  0.18594490081E+02  0.25978415549E+02  0.00000000000E+00 0. -1.
         -5    1    5    5    0  502  0.42056194169E+02 -0.29860985617E+03  0.77045006656E+03  0.82737655558E+03  0.47000000000E+01 0.  1.
         11    1    6    6    0    0 -0.33955203497E+02 -0.31317660845E+02  0.69503597256E+02  0.83453590438E+02  0.00000000000E+00 0. -1.
        -12    1    6    6    0    0  0.33597071504E+02 -0.40732397311E+02  0.19737336532E+03  0.20431381926E+03  0.00000000000E+00 0.  1.
</event>
<event>
12    1  0.8494789E-002  0.3603389E+03  0.7818608E-02  0.1058486E+00
         21   -1    0    0  503  502  0.00000000000E+00  0.00000000000E+00  0.99128009390E+02  0.99128009390E+02  0.00000000000E+00 0.  1.
         21   -1    0    0  501  503 -0.00000000000E+00 -0.00000000000E+00 -0.14186537732E+04  0.14186537732E+04  0.00000000000E+00 0. -1.
          6    2    1    2  501    0 -0.94913215178E+02  0.30213394542E+03 -0.87149881925E+03  0.94305582613E+03  0.17190305364E+03 0.  0.
         24    2    3    3    0    0  0.10795555793E+02  0.17304353951E+03 -0.40794136229E+03  0.45036293694E+03  0.79686945653E+02 0.  0.
         -6    2    1    2    0  502  0.94913215178E+02 -0.30213394542E+03 -0.44802694451E+03  0.57472595642E+03  0.17113837260E+03 0.  0.
        -24    2    5    5    0    0  0.35162772474E+02 -0.12643793315E+03 -0.29707531191E+03  0.33546106238E+03  0.84008403870E+02 0.  0.
          5    1    3    3  501    0 -0.10570877097E+03  0.12909040591E+03 -0.46355745696E+03  0.49269288919E+03  0.47000000000E+01 0. -1.
        -13    1    4    4    0    0 -0.29007502349E+02  0.57607092245E+02 -0.98896533647E+02  0.11807004970E+03  0.00000000000E+00 0.  1.
         14    1    4    4    0    0  0.39803058142E+02  0.11543644726E+03 -0.30904482864E+03  0.33229288723E+03  0.00000000000E+00 0. -1.
         -5    1    5    5    0  502  0.59750442705E+02 -0.17569601227E+03 -0.15095163261E+03  0.23926489403E+03  0.47000000000E+01 0.  1.
         13    1    6    6    0    0 -0.22735632467E+02 -0.49370349219E+02 -0.68885764393E+02  0.87747301393E+02  0.00000000000E+00 0. -1.
        -14    1    6    6    0    0  0.57898404941E+02 -0.77067583934E+02 -0.22818954751E+03  0.24771376099E+03  0.00000000000E+00 0.  1.
</event>
<event>
12    1  0.8494789E-002  0.1844501E+03  0.7818608E-02  0.1164219E+00
         21   -1    0    0  501  502  0.00000000000E+00  0.00000000000E+00  0.25176466453E+04  0.25176466453E+04  0.00000000000E+00 0. -1.
         21   -1    0    0  502  503 -0.00000000000E+00 -0.00000000000E+00 -0.10561820866E+03  0.10561820866E+03  0.00000000000E+00 0. -1.
         -6    2    1    2    0  503  0.27480623199E+02  0.48946409617E+02 -0.19028219475E+02  0.18542903597E+03  0.17570121963E+03 0.  0.
        -24    2    3    3    0    0  0.30486663464E+02 -0.14811213627E+02  0.40242551554E+02  0.98198392855E+02  0.82913525467E+02 0.  0.
          6    2    1    2  501    0 -0.27480623199E+02 -0.48946409617E+02  0.24310566561E+04  0.24378358180E+04  0.17278910433E+03 0.  0.
         24    2    5    5    0    0  0.47398933836E+02 -0.50441327657E+01  0.10559277697E+04  0.10599621292E+04  0.79146436042E+02 0.  0.
          5    1    5    5  501    0 -0.74879557036E+02 -0.43902276851E+02  0.13751288864E+04  0.13778736888E+04  0.47000000000E+01 0. -1.
        -11    1    6    6    0    0  0.44784433606E+02 -0.36981250795E+02  0.56110852252E+03  0.56410640171E+03  0.00000000000E+00 0.  1.
         12    1    6    6    0    0  0.26145002306E+01  0.31937118029E+02  0.49481924721E+03  0.49585572754E+03  0.00000000000E+00 0. -1.
         -5    1    3    3    0  503 -0.30060402642E+01  0.63757623244E+02 -0.59270771030E+02  0.87230643115E+02  0.47000000000E+01 0.  1.
         11    1    4    4    0    0  0.50176927029E+02  0.12308422782E+02  0.91220233610E+01  0.52463631095E+02  0.00000000000E+00 0. -1.
        -12    1    4    4    0    0 -0.19690263565E+02 -0.27119636409E+02  0.31120528193E+02  0.45734761760E+02  0.00000000000E+00 0.  1.
</event>
<event>
12    1  0.8494789E-002  0.2196153E+03  0.7818608E-02  0.1134383E+00
         21   -1    0    0  503  502  0.00000000000E+00  0.00000000000E+00  0.28037903761E+03  0.28037903761E+03  0.00000000000E+00 0.  1.
         21   -1    0    0  501  503 -0.00000000000E+00 -0.00000000000E+00 -0.28587007025E+03  0.28587007025E+03  0.00000000000E+00 0. -1.
          6    2    1    2  501    0  0.11754984631E+03 -0.65011181912E+02 -0.18211984572E+03  0.28530426715E+03  0.17374252937E+03 0.  0.
         24    2    3    3    0    0  0.47698909060E+02  0.27615401247E+02 -0.11776966952E+03  0.15255686598E+03  0.79787881204E+02 0.  0.
         -6    2    1    2    0  502 -0.11754984631E+03  0.65011181912E+02  0.17662881307E+03  0.28094484071E+03  0.17230161279E+03 0.  0.
        -24    2    5    5    0    0 -0.20354109580E+02  0.87378205930E+02  0.96056464994E+02  0.15264328859E+03  0.77613712932E+02 0.  0.
          5    1    3    3  501    0  0.69850937247E+02 -0.92626583159E+02 -0.64350176195E+02  0.13274740117E+03  0.47000000000E+01 0. -1.
        -13    1    4    4    0    0  0.52865328993E+02  0.44151233947E+02 -0.57117215326E+02  0.89478772651E+02  0.00000000000E+00 0.  1.
         14    1    4    4    0    0 -0.51664199333E+01 -0.16535832701E+02 -0.60652454197E+02  0.63078093330E+02  0.00000000000E+00 0. -1.
         -5    1    5    5    0  502 -0.97195736727E+02 -0.22367024018E+02  0.80572348080E+02  0.12830155212E+03  0.47000000000E+01 0.  1.
         11    1    6    6    0    0 -0.34323400621E+02  0.80296291937E+02  0.43027154439E+02  0.97349506152E+02  0.00000000000E+00 0. -1.
        -12    1    6    6    0    0  0.13969291041E+02  0.70819139938E+01  0.53029310555E+02  0.55293782435E+02  0.00000000000E+00 0.  1.
</event>
<event>
12    1  0.8494789E-002  0.2653805E+03  0.7818608E-02  0.1104080E+00
         21   -1    0    0  503  502  0.00000000000E+00  0.00000000000E+00  0.39625075913E+03  0.39625075913E+03  0.00000000000E+00 0. -1.
         21   -1    0    0  501  503 -0.00000000000E+00 -0.00000000000E+00 -0.18949404132E+03  0.18949404132E+03  0.00000000000E+00 0.  1.
          6    2    1    2  501    0  0.11620222541E+03  0.16347163305E+03  0.17795895695E+03  0.31880637910E+03  0.17245922704E+03 0.  0.
         24    2    3    3    0    0  0.14127894671E+03  0.96632943239E+02  0.94905330184E+02  0.20918773412E+03  0.73856752627E+02 0.  0.
         -6    2    1    2    0  502 -0.11620222541E+03 -0.16347163305E+03  0.28797760871E+02  0.26693842136E+03  0.17378399743E+03 0.  0.
        -24    2    5    5    0    0  0.10919248577E+02 -0.57279989394E+02  0.13310610220E+02  0.10050982956E+03  0.80776397046E+02 0.  0.
          5    1    3    3  501    0 -0.25076721301E+02  0.66838689815E+02  0.83053626763E+02  0.10961864497E+03  0.47000000000E+01 0. -1.
        -11    1    4    4    0    0  0.74832784251E+02  0.84337304325E+02  0.32839760382E+02  0.11743583934E+03  0.00000000000E+00 0.  1.
         12    1    4    4    0    0  0.66446162456E+02  0.12295638914E+02  0.62065569802E+02  0.91751894783E+02  0.00000000000E+00 0. -1.
         -5    1    5    5    0  502 -0.12712147398E+03 -0.10619164366E+03  0.15487150651E+02  0.16642859179E+03  0.47000000000E+01 0.  1.
         11    1    6    6    0    0 -0.97462391508E+01 -0.32859145353E+02  0.44272701284E+02  0.55989147966E+02  0.00000000000E+00 0. -1.
        -12    1    6    6    0    0  0.20665487728E+02 -0.24420844041E+02 -0.30962091065E+02  0.44520681596E+02  0.00000000000E+00 0.  1.
</event>
<event>
12    1  0.8494789E-002  0.1830178E+03  0.7818608E-02  0.1165437E+00
         21   -1    0    0  501  502  0.00000000000E+00  0.00000000000E+00  0.68551336969E+02  0.68551336969E+02  0.00000000000E+00 0. -1.
         21   -1    0    0  502  503 -0.00000000000E+00 -0.00000000000E+00 -0.66935504619E+03  0.66935504619E+03  0.00000000000E+00 0. -1.
         -6    2    1    2    0  503  0.38221121031E+02 -0.46134548624E+02 -0.49649598451E+03  0.52915383267E+03  0.17293428037E+03 0.  0.
        -24    2    3    3    0    0  0.60160203441E+02  0.96801785979E+01 -0.17474187809E+03  0.20182463735E+03  0.80532629088E+02 0.  0.
          6    2    1    2  501    0 -0.38221121031E+02  0.46134548624E+02 -0.10430772471E+03  0.20875255049E+03  0.17061147450E+03 0.  0.
         24    2    5    5    0    0  0.20826286677E+02  0.63776785142E+02 -0.10328048114E+03  0.14693839276E+03  0.80142503965E+02 0.  0.
          5    1    5    5  501    0 -0.59047407708E+02 -0.17642236518E+02 -0.10272435717E+01  0.61814157729E+02  0.47000000000E+01 0. -1.
        -13    1    6    6    0    0  0.24425298282E+02  0.20540138249E+02  0.30870178287E+01  0.32062784572E+02  0.00000000000E+00 0.  1.
         14    1    6    6    0    0 -0.35990116050E+01  0.43236646893E+02 -0.10636749897E+03  0.11487560819E+03  0.00000000000E+00 0. -1.
         -5    1    3    3    0  503 -0.21939082410E+02 -0.55814727222E+02 -0.32175410642E+03  0.32732919532E+03  0.47000000000E+01 0.  1.
         13    1    4    4    0    0  0.26183774709E+02 -0.26165243144E+02 -0.13005336988E+03  0.13521867114E+03  0.00000000000E+00 0. -1.
        -14    1    4    4    0    0  0.33976428733E+02  0.35845421742E+02 -0.44688508207E+02  0.66605966212E+02  0.00000000000E+00 0.  1.
</event>
<event>
12    1  0.8494789E-002  0.2710652E+03  0.7818608E-02  0.1100775E+00
         21   -1    0    0  503  502  0.00000000000E+00  0.00000000000E+00  0.25781240317E+03  0.25781240317E+03  0.00000000000E+00 0. -1.
         21   -1    0    0  501  503 -0.00000000000E+00 -0.00000000000E+00 -0.33719516360E+03  0.33719516360E+03  0.00000000000E+00 0. -1.
          6    2    1    2  501    0 -0.16001327178E+03  0.13393085898E+03 -0.15764058223E+03  0.31357123263E+03  0.17301630742E+03 0.  0.
         24    2    3    3    0    0 -0.80338144598E+01  0.26038313766E+02  0.12634188108E+02  0.61075402617E+02  0.53179376991E+02 0.  0.
         -6    2    1    2    0  502  0.16001327178E+03 -0.13393085898E+03  0.78257821799E+02  0.28143633414E+03  0.17187321306E+03 0.  0.
        -24    2    5    5    0    0  0.13772162466E+02 -0.82220955039E+02  0.31087880648E+02  0.11924055871E+03  0.79384485958E+02 0.  0.
          5    1    3    3  501    0 -0.15197945732E+03  0.10789254521E+03 -0.17027477033E+03  0.25249583001E+03  0.47000000000E+01 0. -1.
        -13    1    4    4    0    0 -0.26395179759E+02 -0.14513128112E+01  0.84561507765E+01  0.27754608795E+02  0.00000000000E+00 0.  1.
         14    1    4    4    0    0  0.18361365300E+02  0.27489626577E+02  0.41780373315E+01  0.33320793822E+02  0.00000000000E+00 0. -1.
         -5    1    5    5    0  502  0.14624110932E+03 -0.51709903936E+02  0.47169941151E+02  0.16219577543E+03  0.47000000000E+01 0.  1.
         11    1    6    6    0    0  0.37147241218E+02 -0.79270545379E+02  0.36855147288E+02  0.94984413334E+02  0.00000000000E+00 0. -1.
        -12    1    6    6    0    0 -0.23375078752E+02 -0.29504096607E+01 -0.57672666393E+01  0.24256145373E+02  0.00000000000E+00 0.  1.
</event>
<event>
12    1  0.8494789E-002  0.3024510E+03  0.7818608E-02  0.1084091E+00
         21   -1    0    0  501  502  0.00000000000E+00  0.00000000000E+00  0.42846321729E+03  0.42846321729E+03  0.00000000000E+00 0.  1.
         21   -1    0    0  502  503 -0.00000000000E+00 -0.00000000000E+00 -0.21512121428E+03  0.21512121428E+03  0.00000000000E+00 0.  1.
         -6    2    1    2    0  503 -0.23663522050E+03 -0.75525915545E+02  0.75439381612E+02  0.31117843976E+03  0.17158242793E+03 0.  0.
        -24    2    3    3    0    0 -0.14855364386E+03 -0.11407365621E+03  0.70709501074E+02  0.21480025642E+03  0.77835290653E+02 0.  0.
          6    2    1    2  501    0  0.23663522050E+03  0.75525915545E+02  0.13790262140E+03  0.33240599182E+03  0.17255787118E+03 0.  0.
         24    2    5    5    0    0  0.21118888002E+03  0.31876582456E+02  0.16061862493E+03  0.27681024253E+03  0.72171380345E+02 0.  0.
          5    1    5    5  501    0  0.25446340478E+02  0.43649333089E+02 -0.22716003524E+02  0.55595749289E+02  0.47000000000E+01 0. -1.
        -11    1    6    6    0    0  0.68908985298E+02  0.36531814976E+02  0.85942155150E+02  0.11605634749E+03  0.00000000000E+00 0.  1.
         12    1    6    6    0    0  0.14227989472E+03 -0.46552325201E+01  0.74676469776E+02  0.16075389504E+03  0.00000000000E+00 0. -1.
         -5    1    3    3    0  503 -0.88081576635E+02  0.38547740667E+02  0.47298805377E+01  0.96378183335E+02  0.47000000000E+01 0. -1.
         13    1    4    4    0    0 -0.14854040059E+02 -0.26074830090E+01  0.33584967727E+02  0.36815642476E+02  0.00000000000E+00 0. -1.
        -14    1    4    4    0    0 -0.13369960380E+03 -0.11146617320E+03  0.37124533347E+02  0.17798461395E+03  0.00000000000E+00 0.  1.
</event>
<event>
12    1  0.8494789E-002  0.2195373E+03  0.7818608E-02  0.1134291E+00
         21   -1    0    0  503  502  0.00000000000E+00  0.00000000000E+00  0.16316661895E+03  0.16316661895E+03  0.00000000000E+00 0. -1.
         21   -1    0    0  501  503 -0.00000000000E+00 -0.00000000000E+00 -0.40360396129E+03  0.40360396129E+03  0.00000000000E+00 0. -1.
          6    2    1    2  501    0 -0.86084339969E+02 -0.10597663253E+03  0.26896574825E+02  0.22084568568E+03  0.17148711589E+03 0.  0.
         24    2    3    3    0    0 -0.67264675868E+02 -0.10831394683E+03 -0.36076616434E+02  0.15491120599E+03  0.80246568709E+02 0.  0.
         -6    2    1    2    0  502  0.86084339969E+02  0.10597663253E+03 -0.26733391717E+03  0.34592489457E+03  0.17191582005E+03 0.  0.
        -24    2    5    5    0    0  0.37221076794E+02  0.12768346590E+03 -0.14621051337E+03  0.21344178602E+03  0.80569260747E+02 0.  0.
          5    1    3    3  501    0 -0.18819664101E+02  0.23373143070E+01  0.62973191259E+02  0.65934479693E+02  0.47000000000E+01 0. -1.
        -11    1    4    4    0    0 -0.52409099773E+02 -0.13313497304E+02 -0.74434669458E+01  0.54583588648E+02  0.00000000000E+00 0.  1.
         12    1    4    4    0    0 -0.14855576095E+02 -0.95000449529E+02 -0.28633149488E+02  0.10032761734E+03  0.00000000000E+00 0. -1.
         -5    1    5    5    0  502  0.48863263175E+02 -0.21706833372E+02 -0.12112340380E+03  0.13248310855E+03  0.47000000000E+01 0.  1.
         13    1    6    6    0    0  0.27662907981E+02  0.71485208976E+00 -0.19847474819E+02  0.34053924123E+02  0.00000000000E+00 0. -1.
        -14    1    6    6    0    0  0.95581688122E+01  0.12696861381E+03 -0.12636303855E+03  0.17938786189E+03  0.00000000000E+00 0.  1.
</event>
<event>
12    1  0.8494789E-002  0.1784959E+03  0.7818608E-02  0.1170280E+00
         21   -1    0    0  503  502  0.00000000000E+00  0.00000000000E+00  0.32947110911E+03  0.32947110911E+03  0.00000000000E+00 0. -1.
         21   -1    0    0  501  503 -0.00000000000E+00 -0.00000000000E+00 -0.17959632616E+03  0.17959632616E+03  0.00000000000E+00 0. -1.
          6    2    1    2  501    0  0.22034223280E+02  0.40504438270E+02 -0.99807347322E+02  0.20450501205E+03  0.17243745782E+03 0.  0.
         24    2    3    3    0    0 -0.11038913652E+02  0.16802592662E+02  0.14280009468E+02  0.83287749041E+02  0.79553414353E+02 0.  0.
         -6    2    1    2    0  502 -0.22034223280E+02 -0.40504438270E+02  0.24968213028E+03  0.30456242322E+03  0.16819924775E+03 0.  0.
        -24    2    5    5    0    0  0.14934384339E+02 -0.53596090071E+02  0.70261329481E+02  0.12084529540E+03  0.81063890194E+02 0.  0.
          5    1    3    3  501    0  0.33073136932E+02  0.23701845607E+02 -0.11408735679E+03  0.12121726301E+03  0.47000000000E+01 0. -1.
        -11    1    4    4    0    0  0.25709561899E+02  0.25947336109E+02 -0.10530328324E+02  0.38014913374E+02  0.00000000000E+00 0.  1.
         12    1    4    4    0    0 -0.36748475551E+02 -0.91447434464E+01  0.24810337792E+02  0.45272835668E+02  0.00000000000E+00 0. -1.
         -5    1    5    5    0  502 -0.36968607619E+02  0.13091651802E+02  0.17942080080E+03  0.18371712782E+03  0.47000000000E+01 0.  1.
         11    1    6    6    0    0  0.14591742378E+02  0.84806607419E+00 -0.14185763385E+02  0.20368457097E+02  0.00000000000E+00 0. -1.
        -12    1    6    6    0    0  0.34264196083E+00 -0.54444156145E+02  0.84447092866E+02  0.10047683830E+03  0.00000000000E+00 0.  1.
</event>
<event>
12    1  0.8494789E-002  0.2351360E+03  0.7818608E-02  0.1123654E+00
         21   -1    0    0  503  502  0.00000000000E+00  0.00000000000E+00  0.47943523861E+03  0.47943523861E+03  0.00000000000E+00 0. -1.
         21   -1    0    0  501  503 -0.00000000000E+00 -0.00000000000E+00 -0.33566748321E+03  0.33566748321E+03  0.00000000000E+00 0. -1.
          6    2    1    2  501    0  0.90057723048E+02 -0.13213510436E+03 -0.25936661843E+03  0.35008569929E+03  0.17239163206E+03 0.  0.
         24    2    3    3    0    0  0.11121931508E+03 -0.13607457576E+03 -0.16884158628E+03  0.25691808765E+03  0.81322790701E+02 0.  0.
         -6    2    1    2    0  502 -0.90057723048E+02  0.13213510436E+03  0.40313437384E+03  0.46501702253E+03  0.16778983457E+03 0.  0.
        -24    2    5    5    0    0 -0.11961522855E+03  0.13601319642E+03  0.37021206111E+03  0.42035546854E+03  0.82670171386E+02 0.  0.
          5    1    3    3  501    0 -0.21161592034E+02  0.39394713977E+01 -0.90525032156E+02  0.93167611643E+02  0.47000000000E+01 0. -1.
        -13    1    4    4    0    0  0.40543561056E+02 -0.19114818185E+02 -0.74432291410E+01  0.45437410549E+02  0.00000000000E+00 0.  1.
         14    1    4    4    0    0  0.70675754026E+02 -0.11695975758E+03 -0.16139835713E+03  0.21148067710E+03  0.00000000000E+00 0. -1.
         -5    1    5    5    0  502  0.29557505503E+02 -0.38780920553E+01  0.32922312727E+02  0.44661553990E+02  0.47000000000E+01 0.  1.
         11    1    6    6    0    0 -0.31912163209E+02  0.23702621921E+02  0.17015812722E+03  0.17473977426E+03  0.00000000000E+00 0. -1.
        -12    1    6    6    0    0 -0.87703065341E+02  0.11231057450E+03  0.20005393389E+03  0.24561569428E+03  0.00000000000E+00 0.  1.
</event>
<event>
12    1  0.8494789E-002  0.1963260E+03  0.7818608E-02  0.1153182E+00
         21   -1    0    0  501  502  0.00000000000E+00  0.00000000000E+00  0.61912817294E+02  0.61912817294E+02  0.00000000000E+00 0. -1.
         21   -1    0    0  502  503 -0.00000000000E+00 -0.00000000000E+00 -0.84174720332E+03  0.84174720332E+03  0.00000000000E+00 0. -1.
         -6    2    1    2    0  503 -0.85096838229E+02  0.42116585329E+02 -0.62178811527E+03  0.65162328394E+03  0.17022680533E+03 0.  0.
        -24    2    3    3    0    0 -0.10437703507E+03  0.34535618813E+01 -0.30582492312E+03  0.33268538377E+03  0.79020177395E+02 0.  0.
          6    2    1    2  501    0  0.85096838229E+02 -0.42116585329E+02 -0.15804627076E+03  0.25203673667E+03  0.17183891962E+03 0.  0.
         24    2    5    5    0    0  0.69273174033E+02 -0.53689188069E+02 -0.31379669183E+02  0.12377594205E+03  0.81575110390E+02 0.  0.
          5    1    5    5  501    0  0.15823664196E+02  0.11572602740E+02 -0.12666660158E+03  0.12826079463E+03  0.47000000000E+01 0. -1.
        -13    1    6    6    0    0  0.93366268110E+01  0.21009573894E+02 -0.12470164563E+02  0.26154919225E+02  0.00000000000E+00 0.  1.
         14    1    6    6    0    0  0.59936547222E+02 -0.74698761963E+02 -0.18909504619E+02  0.97621022821E+02  0.00000000000E+00 0. -1.
         -5    1    3    3    0  503  0.19280196845E+02  0.38663023448E+02 -0.31596319215E+03  0.31893790017E+03  0.47000000000E+01 0.  1.
         13    1    4    4    0    0 -0.45631583848E+02 -0.29217651301E+02 -0.20087281120E+03  0.20805239454E+03  0.00000000000E+00 0. -1.
        -14    1    4    4    0    0 -0.58745451226E+02  0.32671213182E+02 -0.10495211192E+03  0.12463298924E+03  0.00000000000E+00 0.  1.
</event>
<event>
12    1  0.8494789E-002  0.6449622E+03  0.7818608E-02  0.9816458E-01
         21   -1    0    0  501  502  0.00000000000E+00  0.00000000000E+00  0.12290096545E+04  0.12290096545E+04  0.00000000000E+00 0.  1.
         21   -1    0    0  502  503 -0.00000000000E+00 -0.00000000000E+00 -0.43022828475E+03  0.43022828475E+03  0.00000000000E+00 0.  1.
         -6    2    1    2    0  503 -0.49611392018E+03 -0.37459669194E+03  0.78304455932E+03  0.10144629149E+04  0.17182700724E+03 0.  0.
        -24    2    3    3    0    0 -0.27576599671E+03 -0.29287915991E+03  0.51659354247E+03  0.65914728507E+03  0.76033992708E+02 0.  0.
          6    2    1    2  501    0  0.49611392018E+03  0.37459669194E+03  0.15736810413E+02  0.64477502433E+03  0.17039800877E+03 0.  0.
         24    2    5    5    0    0  0.48921233079E+03  0.36691066525E+03 -0.90111306331E+01  0.61754897929E+03  0.85635275921E+02 0.  0.
          5    1    5    5  501    0  0.69015893884E+01  0.76860266959E+01  0.24747941046E+02  0.27226045039E+02  0.47000000000E+01 0. -1.
        -11    1    6    6    0    0  0.42181960979E+03  0.27515535315E+03 -0.60879255120E+01  0.50366587576E+03  0.00000000000E+00 0.  1.
         12    1    6    6    0    0  0.67392721004E+02  0.91755312098E+02 -0.29232051211E+01  0.11388310353E+03  0.00000000000E+00 0. -1.
         -5    1    3    3    0  503 -0.22034792347E+03 -0.81717532032E+02  0.26645101685E+03  0.35531562983E+03  0.47000000000E+01 0.  1.
         13    1    4    4    0    0 -0.55850952626E+02 -0.34104078338E+02  0.12278765261E+03  0.13913743099E+03  0.00000000000E+00 0. -1.
        -14    1    4    4    0    0 -0.21991504408E+03 -0.25877508157E+03  0.39380588986E+03  0.52000985408E+03  0.00000000000E+00 0.  1.
</event>
<event>
12    1  0.8494789E-002  0.2123107E+03  0.7818608E-02  0.1139828E+00
         21   -1    0    0  503  502  0.00000000000E+00  0.00000000000E+00  0.39435252800E+03  0.39435252800E+03  0.00000000000E+00 0.  1.
         21   -1    0    0  501  503 -0.00000000000E+00 -0.00000000000E+00 -0.14952092200E+03  0.14952092200E+03  0.00000000000E+00 0. -1.
          6    2    1    2  501    0 -0.95554670434E+02  0.76876217332E+02 -0.98777721357E+01  0.21254032053E+03  0.17330657701E+03 0.  0.
         24    2    3    3    0    0 -0.50507646222E+02 -0.23990997458E+02  0.17486850337E+02  0.98635351482E+02  0.79350818152E+02 0.  0.
         -6    2    1    2    0  502  0.95554670434E+02 -0.76876217332E+02  0.25470937814E+03  0.33133312948E+03  0.17281240565E+03 0.  0.
        -24    2    5    5    0    0  0.69730136863E+02  0.18606548965E+02  0.10584818740E+03  0.15254384204E+03  0.82808751462E+02 0.  0.
          5    1    3    3  501    0 -0.45047024212E+02  0.10086721479E+03 -0.27364622473E+02  0.11390496904E+03  0.47000000000E+01 0. -1.
        -11    1    4    4    0    0 -0.36185584859E+02  0.43017655782E+01  0.44120453539E+02  0.57223388218E+02  0.00000000000E+00 0.  1.
         12    1    4    4    0    0 -0.14322061364E+02 -0.28292763036E+02 -0.26633603201E+02  0.41411963265E+02  0.00000000000E+00 0. -1.
         -5    1    5    5    0  502  0.25824533571E+02 -0.95482766297E+02  0.14886119074E+03  0.17878928744E+03  0.47000000000E+01 0.  1.
         11    1    6    6    0    0  0.34416633126E+02 -0.30400941049E+02  0.65151335001E+02  0.79708332719E+02  0.00000000000E+00 0. -1.
        -12    1    6    6    0    0  0.35313503737E+02  0.49007490014E+02  0.40696852397E+02  0.72835509325E+02  0.00000000000E+00 0.  1.
</event>
<event>
12    1  0.8494789E-002  0.1891412E+03  0.7818608E-02  0.1161385E+00
         21   -1    0    0  501  502  0.00000000000E+00  0.00000000000E+00  0.20075429562E+03  0.20075429562E+03  0.00000000000E+00 0. -1.
         21   -1    0    0  502  503 -0.00000000000E+00 -0.00000000000E+00 -0.19028481067E+03  0.19028481067E+03  0.00000000000E+00 0. -1.
         -6    2    1    2    0  503  0.25730489485E+02 -0.57677200828E+02 -0.59287755695E+02  0.18944431838E+03  0.16847965517E+03 0.  0.
        -24    2    3    3    0    0 -0.88562274299E+01  0.32784384376E+02 -0.14249843653E+02  0.82532939629E+02  0.73860540592E+02 0.  0.
          6    2    1    2  501    0 -0.25730489485E+02  0.57677200828E+02  0.69757240644E+02  0.20159478791E+03  0.17828535639E+03 0.  0.
         24    2    5    5    0    0  0.93116913473E+01  0.75064608673E+02 -0.17397870932E+02  0.10594762452E+03  0.72116642729E+02 0.  0.
          5    1    5    5  501    0 -0.35042180832E+02 -0.17387407845E+02  0.87155111577E+02  0.95647163382E+02  0.47000000000E+01 0. -1.
        -11    1    6    6    0    0 -0.23845328571E+02  0.65742827893E+02 -0.14164575641E+02  0.71353726722E+02  0.00000000000E+00 0.  1.
         12    1    6    6    0    0  0.33157019918E+02  0.93217807803E+01 -0.32332952918E+01  0.34593897803E+02  0.00000000000E+00 0. -1.
         -5    1    3    3    0  503  0.34586716915E+02 -0.90461585204E+02 -0.45037912042E+02  0.10691137875E+03  0.47000000000E+01 0.  1.
         13    1    4    4    0    0 -0.31680554953E+02 -0.14884424999E+01  0.11763693222E+02  0.33826875431E+02  0.00000000000E+00 0. -1.
        -14    1    4    4    0    0  0.22824327523E+02  0.34272826876E+02 -0.26013536875E+02  0.48706064198E+02  0.00000000000E+00 0.  1.
</event>
<event>
12    1  0.8494789E-002  0.1971163E+03  0.7818608E-02  0.1152228E+00
         21   -1    0    0  503  502  0.00000000000E+00  0.00000000000E+00  0.41740277968E+02  0.41740277968E+02  0.00000000000E+00 0.  1.
         21   -1    0    0  501  503 -0.00000000000E+00 -0.00000000000E+00 -0.11887783893E+04  0.11887783893E+04  0.00000000000E+00 0. -1.
          6    2    1    2  501    0  0.48457438160E+02 -0.82204983484E+02 -0.86066844804E+03  0.88295243157E+03  0.17247908954E+03 0.  0.
         24    2    3    3    0    0 -0.13855758278E+02  0.59872441185E+01 -0.49895428955E+03  0.50543418576E+03  0.79249630585E+02 0.  0.
         -6    2    1    2    0  502 -0.48457438160E+02  0.82204983484E+02 -0.28636966326E+03  0.34756623567E+03  0.17230473447E+03 0.  0.
        -24    2    5    5    0    0  0.15201145082E+02  0.72855413211E+02 -0.24934392056E+03  0.27318327185E+03  0.83172851647E+02 0.  0.
          5    1    3    3  501    0  0.62313196438E+02 -0.88192227603E+02 -0.36171415849E+03  0.37751824580E+03  0.47000000000E+01 0. -1.
        -11    1    4    4    0    0  0.89587698576E+01  0.30175772537E+02 -0.39588163415E+03  0.39713109305E+03  0.00000000000E+00 0.  1.
         12    1    4    4    0    0 -0.22814528135E+02 -0.24188528418E+02 -0.10307265539E+03  0.10830309271E+03  0.00000000000E+00 0. -1.
         -5    1    5    5    0  502 -0.63658583242E+02  0.93495702736E+01 -0.37025742697E+02  0.74382963822E+02  0.47000000000E+01 0.  1.
         11    1    6    6    0    0 -0.38899653038E+01  0.83279796028E+02 -0.15123959258E+03  0.17269646963E+03  0.00000000000E+00 0. -1.
        -12    1    6    6    0    0  0.19091110386E+02 -0.10424382817E+02 -0.98104327979E+02  0.10048680222E+03  0.00000000000E+00 0.  1.
</event>
<event>
12    1  0.8494789E-002  0.1881796E+03  0.7818608E-02  0.1162771E+00
         21   -1    0    0  503  502  0.00000000000E+00  0.00000000000E+00  0.79579176517E+02  0.79579176517E+02  0.00000000000E+00 0. -1.
         21   -1    0    0  501  503 -0.00000000000E+00 -0.00000000000E+00 -0.41920013487E+03  0.41920013487E+03  0.00000000000E+00 0. -1.
          6    2    1    2  501    0  0.26284834870E+02 -0.28092278402E+02 -0.18319989462E+03  0.26262858236E+03  0.18420505486E+03 0.  0.
         24    2    3    3    0    0  0.69482159261E+02  0.18016171511E+02 -0.58340233767E+02  0.12261421561E+03  0.80487950049E+02 0.  0.
         -6    2    1    2    0  502 -0.26284834870E+02  0.28092278402E+02 -0.15642106373E+03  0.23615072902E+03  0.17268337786E+03 0.  0.
        -24    2    5    5    0    0  0.37152070838E+02  0.43651197157E+02 -0.47685324920E+02  0.10921818058E+03  0.79806123676E+02 0.  0.
          5    1    3    3  501    0 -0.43197324392E+02 -0.46108449913E+02 -0.12485966085E+03  0.14001436675E+03  0.47000000000E+01 0. -1.
        -13    1    4    4    0    0  0.29770043339E+02  0.24125870820E+02  0.13228945982E+02  0.40537860514E+02  0.00000000000E+00 0.  1.
         14    1    4    4    0    0  0.39712115922E+02 -0.61096993094E+01 -0.71569179748E+02  0.82076355100E+02  0.00000000000E+00 0. -1.
         -5    1    5    5    0  502 -0.63436905708E+02 -0.15558918755E+02 -0.10873573881E+03  0.12693254844E+03  0.47000000000E+01 0.  1.
         11    1    6    6    0    0 -0.52431925254E+01  0.44945631709E+02 -0.49110720656E+02  0.66779216534E+02  0.00000000000E+00 0. -1.
        -12    1    6    6    0    0  0.42395263364E+02 -0.12944345523E+01  0.14253957355E+01  0.42438964048E+02  0.00000000000E+00 0.  1.
</event>
<event>
12    1  0.8494789E-002  0.2104661E+03  0.7818608E-02  0.1141204E+00
         21   -1    0    0  503  502  0.00000000000E+00  0.00000000000E+00  0.13494424094E+04  0.13494424094E+04  0.00000000000E+00 0. -1.
         21   -1    0    0  501  503 -0.00000000000E+00 -0.00000000000E+00 -0.33738201400E+02  0.33738201400E+02  0.00000000000E+00 0. -1.
          6    2    1    2  501    0  0.33820210118E+02  0.11656045870E+03  0.54372888697E+03  0.58302946465E+03  0.17190726274E+03 0.  0.
         24    2    3    3    0    0 -0.28683501425E+02  0.74299217373E+02  0.44532747297E+03  0.45894217782E+03  0.77254433209E+02 0.  0.
         -6    2    1    2    0  502 -0.33820210118E+02 -0.11656045870E+03  0.77197532104E+03  0.80015114616E+03  0.17194712344E+03 0.  0.
        -24    2    5    5    0    0  0.36778231840E+02 -0.27931218439E+02  0.33592388925E+03  0.34959346572E+03  0.85076087147E+02 0.  0.
          5    1    3    3  501    0  0.62503711543E+02  0.42261241323E+02  0.98401414004E+02  0.12408728683E+03  0.47000000000E+01 0. -1.
        -13    1    4    4    0    0  0.27626146958E+01  0.35391684731E+02  0.34512377898E+03  0.34694470194E+03  0.00000000000E+00 0.  1.
         14    1    4    4    0    0 -0.31446116121E+02  0.38907532641E+02  0.10020369399E+03  0.11199747588E+03  0.00000000000E+00 0. -1.
         -5    1    5    5    0  502 -0.70598441958E+02 -0.88629240256E+02  0.43605143180E+03  0.45055768044E+03  0.47000000000E+01 0.  1.
         11    1    6    6    0    0 -0.15549428844E+02 -0.11629553768E+02  0.16439236884E+02  0.25441693488E+02  0.00000000000E+00 0. -1.
        -12    1    6    6    0    0  0.52327660684E+02 -0.16301664672E+02  0.31948465236E+03  0.32415177223E+03  0.00000000000E+00 0.  1.
</event>
<event>
12    1  0.8494789E-002  0.2316028E+03  0.7818608E-02  0.1125626E+00
         21   -1    0    0  503  502  0.00000000000E+00  0.00000000000E+00  0.33861837355E+03  0.33861837355E+03  0.00000000000E+00 0.  1.
         21   -1    0    0  501  503 -0.00000000000E+00 -0.00000000000E+00 -0.16274466111E+03  0.16274466111E+03  0.00000000000E+00 0. -1.
          6    2    1    2  501    0 -0.86811563308E+02 -0.12772614518E+03  0.13072090452E+03  0.26539982492E+03  0.17175242793E+03 0.  0.
         24    2    3    3    0    0 -0.45292428260E+02 -0.13103919864E+03  0.15459891631E+03  0.21716016960E+03  0.63521954477E+02 0.  0.
         -6    2    1    2    0  502  0.86811563308E+02  0.12772614518E+03  0.45152807924E+02  0.23596320974E+03  0.17259676881E+03 0.  0.
        -24    2    5    5    0    0 -0.11681257841E+02  0.12336797729E+02  0.19205175321E+02  0.81979746474E+02  0.77866499278E+02 0.  0.
          5    1    3    3  501    0 -0.41519135048E+02  0.33130534577E+01 -0.23878011781E+02  0.48239655316E+02  0.47000000000E+01 0. -1.
        -13    1    4    4    0    0 -0.10650612925E+00 -0.68191139990E+01  0.44818097006E+02  0.45334021204E+02  0.00000000000E+00 0.  1.
         14    1    4    4    0    0 -0.45185922131E+02 -0.12422008464E+03  0.10978081930E+03  0.17182614840E+03  0.00000000000E+00 0. -1.
         -5    1    5    5    0  502  0.98492821150E+02  0.11538934745E+03  0.25947632603E+02  0.15398346327E+03  0.47000000000E+01 0.  1.
         11    1    6    6    0    0  0.21425324637E+02 -0.14608720892E+02 -0.12519245892E+02  0.28795672932E+02  0.00000000000E+00 0. -1.
        -12    1    6    6    0    0 -0.33106582478E+02  0.26945518621E+02  0.31724421214E+02  0.53184073542E+02  0.00000000000E+00 0.  1.
</event>
<event>
12    1  0.8494789E-002  0.1885520E+03  0.7818608E-02  0.1160495E+00
         21   -1    0    0  503  502  0.00000000000E+00  0.00000000000E+00  0.45725654912E+02  0.45725654912E+02  0.00000000000E+00 0.  1.
         21   -1    0    0  501  503 -0.00000000000E+00 -0.00000000000E+00 -0.88010827617E+03  0.88010827617E+03  0.00000000000E+00 0.  1.
          6    2    1    2  501    0  0.49552113901E+02  0.45517225969E+02 -0.58183460114E+03  0.61066356794E+03  0.17277517262E+03 0.  0.
         24    2    3    3    0    0  0.96827250700E+02  0.32893446415E+02 -0.36705112645E+03  0.39032671362E+03  0.84681276835E+02 0.  0.
         -6    2    1    2    0  502 -0.49552113901E+02 -0.45517225969E+02 -0.25254802012E+03  0.31517036314E+03  0.17613808641E+03 0.  0.
        -24    2    5    5    0    0 -0.43949031123E+01  0.11182435495E+02 -0.41162806029E+02  0.91653419640E+02  0.81003769632E+02 0.  0.
          5    1    3    3  501    0 -0.47275136799E+02  0.12623779554E+02 -0.21478347469E+03  0.22033685431E+03  0.47000000000E+01 0. -1.
        -11    1    4    4    0    0  0.78036122138E+02  0.22917118618E+02 -0.35814304802E+03  0.36726185962E+03  0.00000000000E+00 0.  1.
         12    1    4    4    0    0  0.18791128562E+02  0.99763277965E+01 -0.89080784227E+01  0.23064854002E+02  0.00000000000E+00 0. -1.
         -5    1    5    5    0  502 -0.45157210789E+02 -0.56699661463E+02 -0.21138521409E+03  0.22351694350E+03  0.47000000000E+01 0.  1.
         13    1    6    6    0    0 -0.35192100565E+01 -0.25805999479E+02  0.10522533966E+02  0.28090179238E+02  0.00000000000E+00 0. -1.
        -14    1    6    6    0    0 -0.87569305584E+00  0.36988434974E+02 -0.51685339995E+02  0.63563240403E+02  0.00000000000E+00 0.  1.
</event>
<event>
12    1  0.8494789E-002  0.2248243E+03  0.7818608E-02  0.1130650E+00
         21   -1    0    0  501  502  0.00000000000E+00  0.00000000000E+00  0.93641853206E+03  0.93641853206E+03  0.00000000000E+00 0.  1.
         21   -1    0    0  502  503 -0.00000000000E+00 -0.00000000000E+00 -0.54516546095E+02  0.54516546095E+02  0.00000000000E+00 0. -1.
         -6    2    1    2    0  503  0.10401038823E+03 -0.96055586485E+02  0.50473617862E+03  0.55184507170E+03  0.17242255245E+03 0.  0.
        -24    2    3    3    0    0  0.42299868441E+02 -0.10730993070E+03  0.43977732007E+03  0.46142056274E+03  0.78740995507E+02 0.  0.
          6    2    1    2  501    0 -0.10401038823E+03  0.96055586485E+02  0.37716580735E+03  0.43909000646E+03  0.17464578720E+03 0.  0.
         24    2    5    5    0    0 -0.50743416915E+02  0.10782168052E+03  0.34939985936E+03  0.37769905379E+03  0.79849260260E+02 0.  0.
          5    1    5    5  501    0 -0.53266971315E+02 -0.11766094039E+02  0.27765947991E+02  0.61390952671E+02  0.47000000000E+01 0. -1.
        -11    1    6    6    0    0 -0.64545411473E+02  0.47400291935E+02  0.17055309237E+03  0.18841776757E+03  0.00000000000E+00 0.  1.
         12    1    6    6    0    0  0.13801994559E+02  0.60421388588E+02  0.17884676698E+03  0.18928128622E+03  0.00000000000E+00 0. -1.
         -5    1    3    3    0  503  0.61710519789E+02  0.11254344215E+02  0.64958858554E+02  0.90424508961E+02  0.47000000000E+01 0.  1.
         11    1    4    4    0    0 -0.22552185697E+02 -0.18289532631E+02  0.76997398575E+02  0.82290385045E+02  0.00000000000E+00 0. -1.
        -12    1    4    4    0    0  0.64852054137E+02 -0.89020398069E+02  0.36277992149E+03  0.37913017769E+03  0.00000000000E+00 0.  1.
</event>
<event>
12    1  0.8494789E-002  0.2152604E+03  0.7818608E-02  0.1137538E+00
         21   -1    0    0  501  502  0.00000000000E+00  0.00000000000E+00  0.57443669918E+02  0.57443669918E+02  0.00000000000E+00 0. -1.
         21   -1    0    0  502  503 -0.00000000000E+00 -0.00000000000E+00 -0.11691359311E+04  0.11691359311E+04  0.00000000000E+00 0. -1.
         -6    2    1    2    0  503 -0.37419798076E+02  0.12280779142E+03 -0.89766014054E+03  0.92302270089E+03  0.17232290481E+03 0.  0.
        -24    2    3    3    0    0 -0.64707989023E+02  0.14569413906E+03 -0.77294676613E+03  0.79323847215E+03  0.79791380640E+02 0.  0.
          6    2    1    2  501    0  0.37419798076E+02 -0.12280779142E+03 -0.21403212063E+03  0.30355690012E+03  0.17278613377E+03 0.  0.
         24    2    5    5    0    0 -0.24046319160E+02 -0.43412094746E+02 -0.16859813149E+03  0.19324779991E+03  0.80352640234E+02 0.  0.
          5    1    5    5  501    0  0.61466117235E+02 -0.79395696677E+02 -0.45433989136E+02  0.11030910020E+03  0.47000000000E+01 0. -1.
        -11    1    6    6    0    0  0.24784068214E+02 -0.12308881309E+01 -0.79189902831E+02  0.82986781075E+02  0.00000000000E+00 0.  1.
         12    1    6    6    0    0 -0.48830387373E+02 -0.42181206615E+02 -0.89408228663E+02  0.11026101884E+03  0.00000000000E+00 0. -1.
         -5    1    3    3    0  503  0.27288190947E+02 -0.22886347640E+02 -0.12471337440E+03  0.12978422874E+03  0.47000000000E+01 0.  1.
         13    1    4    4    0    0  0.38757856467E+01  0.47080873888E+02 -0.36285211623E+03  0.36591431873E+03  0.00000000000E+00 0. -1.
        -14    1    4    4    0    0 -0.68583774669E+02  0.98613265175E+02 -0.41009464991E+03  0.42732415342E+03  0.00000000000E+00 0.  1.
</event>
<event>
12    1  0.8494789E-002  0.2358654E+03  0.7818608E-02  0.1122741E+00
         21   -1    0    0  501  502  0.00000000000E+00  0.00000000000E+00  0.34763704694E+02  0.34763704694E+02  0.00000000000E+00 0. -1.
         21   -1    0    0  502  503 -0.00000000000E+00 -0.00000000000E+00 -0.15940929643E+04  0.15940929643E+04  0.00000000000E+00 0.  1.
         -6    2    1    2    0  503 -0.92799248753E+02  0.13143438890E+03 -0.76822125080E+03  0.80333599983E+03  0.17116699242E+03 0.  0.
        -24    2    3    3    0    0 -0.45195892198E+02 -0.63104942772E+01 -0.31614623425E+03  0.32832690204E+03  0.75944862661E+02 0.  0.
          6    2    1    2  501    0  0.92799248753E+02 -0.13143438890E+03 -0.79110800877E+03  0.82552066912E+03  0.17246969142E+03 0.  0.
         24    2    5    5    0    0  0.13418127161E+02 -0.11895947795E+03 -0.62675806540E+03  0.64251799222E+03  0.75314635044E+02 0.  0.
          5    1    5    5  501    0  0.79381121593E+02 -0.12474910947E+02 -0.16434994337E+03  0.18300267690E+03  0.47000000000E+01 0. -1.
        -13    1    6    6    0    0  0.25764073228E+02 -0.97822622681E+02 -0.34032991777E+03  0.35504578001E+03  0.00000000000E+00 0.  1.
         14    1    6    6    0    0 -0.12345946068E+02 -0.21136855269E+02 -0.28642814763E+03  0.28747221220E+03  0.00000000000E+00 0. -1.
         -5    1    3    3    0  503 -0.47603356555E+02  0.13774488317E+03 -0.45207501655E+03  0.47500909779E+03  0.47000000000E+01 0.  1.
         13    1    4    4    0    0 -0.11015669012E+02 -0.18281057226E+02 -0.17803244865E+02  0.27793840051E+02  0.00000000000E+00 0. -1.
        -14    1    4    4    0    0 -0.34180223186E+02  0.11970562949E+02 -0.29834298939E+03  0.30053306199E+03  0.00000000000E+00 0.  1.
</event>
<event>
12    1  0.8494789E-002  0.3924872E+03  0.7818608E-02  0.1046617E+00
         21   -1    0    0  503  502  0.00000000000E+00  0.00000000000E+00  0.20360333456E+04  0.20360333456E+04  0.00000000000E+00 0. -1.
         21   -1    0    0  501  503 -0.00000000000E+00 -0.00000000000E+00 -0.90834316726E+02  0.90834316726E+02  0.00000000000E+00 0.  1.
          6    2    1    2  501    0  0.47624220630E+02  0.34681360375E+03  0.53402305140E+03  0.66274190466E+03  0.17747808492E+03 0.  0.
         24    2    3    3    0    0  0.50437835073E+02  0.34954507662E+03  0.44736012987E+03  0.57586308480E+03  0.82228163379E+02 0.  0.
         -6    2    1    2    0  502 -0.47624220630E+02 -0.34681360375E+03  0.14111759774E+04  0.14641257576E+04  0.17233355080E+03 0.  0.
        -24    2    5    5    0    0 -0.96630684979E+02 -0.20411701033E+03  0.86728758313E+03  0.89967857075E+03  0.78946409821E+02 0.  0.
          5    1    3    3  501    0 -0.28136144429E+01 -0.27314728670E+01  0.86662921534E+02  0.86878819853E+02  0.47000000000E+01 0. -1.
        -13    1    4    4    0    0  0.42535323259E+02  0.95578777111E+02  0.94068177051E+02  0.14068894161E+03  0.00000000000E+00 0.  1.
         14    1    4    4    0    0  0.79025118141E+01  0.25396629951E+03  0.35329195282E+03  0.43517414319E+03  0.00000000000E+00 0. -1.
         -5    1    5    5    0  502  0.49006464349E+02 -0.14269659342E+03  0.54388839430E+03  0.56444718688E+03  0.47000000000E+01 0.  1.
         13    1    6    6    0    0 -0.75370468661E+01 -0.10437587207E+03  0.34350117441E+03  0.35908799280E+03  0.00000000000E+00 0. -1.
        -14    1    6    6    0    0 -0.89093638113E+02 -0.99741138251E+02  0.52378640872E+03  0.54059057795E+03  0.00000000000E+00 0.  1.
</event>
<event>
12    1  0.8494789E-002  0.2436291E+03  0.7818608E-02  0.1117991E+00
         21   -1    0    0  503  502  0.00000000000E+00  0.00000000000E+00  0.48252395732E+03  0.48252395732E+03  0.00000000000E+00 0. -1.
         21   -1    0    0  501  503 -0.00000000000E+00 -0.00000000000E+00 -0.20025503334E+03  0.20025503334E+03  0.00000000000E+00 0.  1.
          6    2    1    2  501    0  0.85674965406E+02 -0.15045012585E+03 -0.73993995986E+02  0.25117917345E+03  0.16625409970E+03 0.  0.
         24    2    3    3    0    0  0.64425582328E+02 -0.78602268964E+02 -0.10802630001E+03  0.16875382215E+03  0.80493469612E+02 0.  0.
         -6    2    1    2    0  502 -0.85674965406E+02  0.15045012585E+03  0.35626291996E+03  0.43159981721E+03  0.17140505832E+03 0.  0.
        -24    2    5    5    0    0 -0.63540789153E+02  0.17069049939E+03  0.34869786596E+03  0.40031220750E+03  0.74074174177E+02 0.  0.
          5    1    3    3  501    0  0.21249383078E+02 -0.71847856883E+02  0.34032304025E+02  0.82425351301E+02  0.47000000000E+01 0. -1.
        -11    1    4    4    0    0  0.51839778623E+02 -0.40679701660E+02 -0.15102840602E+02  0.67603968590E+02  0.00000000000E+00 0.  1.
         12    1    4    4    0    0  0.12585803705E+02 -0.37922567303E+02 -0.92923459409E+02  0.10114985356E+03  0.00000000000E+00 0. -1.
         -5    1    5    5    0  502 -0.22134176253E+02 -0.20240373546E+02  0.75650540027E+01  0.31287609716E+02  0.47000000000E+01 0.  1.
         13    1    6    6    0    0 -0.20138019177E+02  0.97389247714E+02  0.25485274696E+03  0.27356923807E+03  0.00000000000E+00 0. -1.
        -14    1    6    6    0    0 -0.43402769976E+02  0.73301251679E+02  0.93845118998E+02  0.12674296943E+03  0.00000000000E+00 0.  1.
</event>
<event>
12    1  0.8494789E-002  0.1900326E+03  0.7818608E-02  0.1158609E+00
         21   -1    0    0  501  502  0.00000000000E+00  0.00000000000E+00  0.48373206996E+03  0.48373206996E+03  0.00000000000E+00 0. -1.
         21   -1    0    0  502  503 -0.00000000000E+00 -0.00000000000E+00 -0.79200637034E+02  0.79200637034E+02  0.00000000000E+00 0. -1.
         -6    2    1    2    0  503 -0.53945045097E+02 -0.60521770743E+02  0.27234763321E+03  0.33209276885E+03  0.17187036157E+03 0.  0.
        -24    2    3    3    0    0 -0.62493233639E+02 -0.89431769215E+02  0.13414264950E+03  0.19055985021E+03  0.80095945595E+02 0.  0.
          6    2    1    2  501    0  0.53945045097E+02  0.60521770743E+02  0.13218379972E+03  0.23083993815E+03  0.17100165938E+03 0.  0.
         24    2    5    5    0    0 -0.35827189252E+01  0.74198704036E+02  0.30067660592E+02  0.11274549285E+03  0.79304466393E+02 0.  0.
          5    1    5    5  501    0  0.57527764022E+02 -0.13676933293E+02  0.10211613913E+03  0.11809444529E+03  0.47000000000E+01 0. -1.
        -11    1    6    6    0    0 -0.33374236761E+02  0.81721975084E+01  0.19598007549E+02  0.39556369795E+02  0.00000000000E+00 0.  1.
         12    1    6    6    0    0  0.29791517836E+02  0.66026506528E+02  0.10469653043E+02  0.73189123058E+02  0.00000000000E+00 0. -1.
         -5    1    3    3    0  503  0.85481885417E+01  0.28909998472E+02  0.13820498371E+03  0.14153291864E+03  0.47000000000E+01 0.  1.
         13    1    4    4    0    0 -0.52382396229E+02 -0.87893029658E+01  0.42144350312E+02  0.67803492126E+02  0.00000000000E+00 0. -1.
        -14    1    4    4    0    0 -0.10110837410E+02 -0.80642466249E+02  0.91998299188E+02  0.12275635808E+03  0.00000000000E+00 0.  1.
</event>
<event>
12    1  0.8494789E-002  0.2211770E+03  0.7818608E-02  0.1133184E+00
         21   -1    0    0  501  502  0.00000000000E+00  0.00000000000E+00  0.50647567986E+02  0.50647567986E+02  0.00000000000E+00 0.  1.
         21   -1    0    0  502  503 -0.00000000000E+00 -0.00000000000E+00 -0.10529436684E+04  0.10529436684E+04  0.00000000000E+00 0. -1.
         -6    2    1    2    0  503  0.55613318217E+02  0.12644666104E+03 -0.66452899368E+03  0.70036993374E+03  0.17273581388E+03 0.  0.
        -24    2    3    3    0    0  0.32280358545E+02  0.46743639804E+02 -0.54849988658E+03  0.55760494400E+03  0.82729429995E+02 0.  0.
          6    2    1    2  501    0 -0.55613318217E+02 -0.12644666104E+03 -0.33776710673E+03  0.40322130265E+03  0.17152026489E+03 0.  0.
         24    2    5    5    0    0  0.26812170544E+02 -0.95063761339E+02 -0.23396168835E+03  0.26692565900E+03  0.82190173432E+02 0.  0.
          5    1    5    5  501    0 -0.82425488760E+02 -0.31382899696E+02 -0.10380541838E+03  0.13629564364E+03  0.47000000000E+01 0. -1.
        -11    1    6    6    0    0 -0.29457518521E+02 -0.26015748084E+02 -0.66338512982E+02  0.77106179068E+02  0.00000000000E+00 0.  1.
         12    1    6    6    0    0  0.56269689065E+02 -0.69048013255E+02 -0.16762317537E+03  0.18981947993E+03  0.00000000000E+00 0. -1.
         -5    1    3    3    0  503  0.23332959672E+02  0.79703021232E+02 -0.11602910710E+03  0.14276498974E+03  0.47000000000E+01 0.  1.
         13    1    4    4    0    0  0.33493428525E+02  0.68555890733E+02 -0.37092119725E+03  0.37868754202E+03  0.00000000000E+00 0. -1.
        -14    1    4    4    0    0 -0.12130699803E+01 -0.21812250929E+02 -0.17757868933E+03  0.17891740199E+03  0.00000000000E+00 0.  1.
</event>
<event>
12    1  0.8494789E-002  0.1871520E+03  0.7818608E-02  0.1161132E+00
         21   -1    0    0  503  502  0.00000000000E+00  0.00000000000E+00  0.38013260850E+02  0.38013260850E+02  0.00000000000E+00 0. -1.
         21   -1    0    0  501  503 -0.00000000000E+00 -0.00000000000E+00 -0.11497427836E+04  0.11497427836E+04  0.00000000000E+00 0.  1.
          6    2    1    2  501    0 -0.52071852789E+02 -0.51531307700E+02 -0.82107331881E+03  0.84205836132E+03  0.17185440197E+03 0.  0.
         24    2    3    3    0    0 -0.10799341904E+02  0.14238440123E+02 -0.63597857420E+03  0.64128178309E+03  0.80338157292E+02 0.  0.
         -6    2    1    2    0  502  0.52071852789E+02  0.51531307700E+02 -0.29065620393E+03  0.34569768312E+03  0.17221761149E+03 0.  0.
        -24    2    5    5    0    0  0.31393413623E+02  0.91400889641E+02 -0.13508401041E+03  0.18370392150E+03  0.78484214063E+02 0.  0.
          5    1    3    3  501    0 -0.41272510885E+02 -0.65769747823E+02 -0.18509474462E+03  0.20077657824E+03  0.47000000000E+01 0. -1.
        -13    1    4    4    0    0 -0.42575690270E+01  0.26452388510E+02 -0.61801521181E+03  0.61859571433E+03  0.00000000000E+00 0.  1.
         14    1    4    4    0    0 -0.65417728768E+01 -0.12213948387E+02 -0.17963362386E+02  0.22686068760E+02  0.00000000000E+00 0. -1.
         -5    1    5    5    0  502  0.20678439166E+02 -0.39869581941E+02 -0.15557219352E+03  0.16199376163E+03  0.47000000000E+01 0.  1.
         13    1    6    6    0    0 -0.12423892961E+02  0.75431882468E+02 -0.70138499194E+02  0.10374840277E+03  0.00000000000E+00 0. -1.
        -14    1    6    6    0    0  0.43817306583E+02  0.15969007172E+02 -0.64945511221E+02  0.79955518722E+02  0.00000000000E+00 0.  1.
</event>
<event>
12    1  0.8494789E-002  0.2262506E+03  0.7818608E-02  0.1129447E+00
         21   -1    0    0  503  502  0.00000000000E+00  0.00000000000E+00  0.18619876538E+03  0.18619876538E+03  0.00000000000E+00 0.  1.
         21   -1    0    0  501  503 -0.00000000000E+00 -0.00000000000E+00 -0.41773486894E+03  0.41773486894E+03  0.00000000000E+00 0.  1.
          6    2    1    2  501    0 -0.13599705577E+02  0.14634125905E+03 -0.29278405376E+03  0.36953944481E+03  0.17098591475E+03 0.  0.
         24    2    3    3    0    0 -0.15854678767E+02  0.17514128465E+03 -0.27303070668E+03  0.33422923241E+03  0.78978304491E+02 0.  0.
         -6    2    1    2    0  502  0.13599705577E+02 -0.14634125905E+03  0.61247950196E+02  0.23439418951E+03  0.17201339651E+03 0.  0.
        -24    2    5    5    0    0  0.32328929155E+02 -0.17070364374E+03  0.65749729128E+02  0.20298295558E+03  0.81817844797E+02 0.  0.
          5    1    3    3  501    0  0.22549731901E+01 -0.28800025600E+02 -0.19753347077E+02  0.35310212395E+02  0.47000000000E+01 0. -1.
        -11    1    4    4    0    0  0.23687878341E+02  0.25356696723E+02 -0.29215963472E+02  0.45361329021E+02  0.00000000000E+00 0.  1.
         12    1    4    4    0    0 -0.39542557108E+02  0.14978458793E+03 -0.24381474321E+03  0.28886790339E+03  0.00000000000E+00 0. -1.
         -5    1    5    5    0  502 -0.18729223579E+02  0.24362384689E+02 -0.45017789312E+01  0.31411233932E+02  0.47000000000E+01 0.  1.
         13    1    6    6    0    0  0.32484947670E+02 -0.14748206193E+02  0.17480374996E+02  0.39728389359E+02  0.00000000000E+00 0. -1.
        -14    1    6    6    0    0 -0.15601851471E+00 -0.15595543755E+03  0.48269354132E+02  0.16325456622E+03  0.00000000000E+00 0.  1.
</event>
<event>
12    1  0.8494789E-002  0.3138356E+03  0.7818608E-02  0.1078717E+00
         21   -1    0    0  501  502  0.00000000000E+00  0.00000000000E+00  0.10958208226E+03  0.10958208226E+03  0.00000000000E+00 0. -1.
         21   -1    0    0  502  503 -0.00000000000E+00 -0.00000000000E+00 -0.89749796088E+03  0.89749796088E+03  0.00000000000E+00 0. -1.
         -6    2    1    2    0  503 -0.17415809486E+03 -0.19407512174E+03 -0.42600517316E+03  0.52912495236E+03  0.17463279407E+03 0.  0.
        -24    2    3    3    0    0 -0.14053287705E+03 -0.19608507633E+03 -0.27599739945E+03  0.37530974712E+03  0.80523258048E+02 0.  0.
          6    2    1    2  501    0  0.17415809486E+03  0.19407512174E+03 -0.36191070546E+03  0.47795509078E+03  0.17165522185E+03 0.  0.
         24    2    5    5    0    0  0.61050850610E+02  0.63839040762E+02 -0.23667896962E+03  0.26474213819E+03  0.79175978583E+02 0.  0.
          5    1    5    5  501    0  0.11310724425E+03  0.13023608098E+03 -0.12523173583E+03  0.21321295259E+03  0.47000000000E+01 0. -1.
        -13    1    6    6    0    0 -0.65861537633E+01  0.19071203518E+01  0.34652893191E+01  0.76826271219E+01  0.00000000000E+00 0.  1.
         14    1    6    6    0    0  0.67637004374E+02  0.61931920410E+02 -0.24014425894E+03  0.25705951106E+03  0.00000000000E+00 0. -1.
         -5    1    3    3    0  503 -0.33625217816E+02  0.20099545845E+01 -0.15000777371E+03  0.15381520524E+03  0.47000000000E+01 0.  1.
         13    1    4    4    0    0 -0.77822141084E+02 -0.47976791268E+02 -0.77663518139E+02  0.11995699310E+03  0.00000000000E+00 0. -1.
        -14    1    4    4    0    0 -0.62710735964E+02 -0.14810828506E+03 -0.19833388131E+03  0.25535275402E+03  0.00000000000E+00 0.  1.
</event>
<event>
12    1  0.8494789E-002  0.2569766E+03  0.7818608E-02  0.1109423E+00
         21   -1    0    0  503  502  0.00000000000E+00  0.00000000000E+00  0.16339411459E+03  0.16339411459E+03  0.00000000000E+00 0. -1.
         21   -1    0    0  501  503 -0.00000000000E+00 -0.00000000000E+00 -0.68270427502E+03  0.68270427502E+03  0.00000000000E+00 0.  1.
          6    2    1    2  501    0 -0.13517970070E+03  0.12896365644E+03 -0.53122371798E+03  0.58884581712E+03  0.17214988127E+03 0.  0.
         24    2    3    3    0    0 -0.91780378761E+02  0.98099966112E+02 -0.50624162078E+03  0.52983510871E+03  0.79983889212E+02 0.  0.
         -6    2    1    2    0  502  0.13517970070E+03 -0.12896365644E+03  0.11913557552E+02  0.25725257249E+03  0.17644199340E+03 0.  0.
        -24    2    5    5    0    0  0.29837576812E+02 -0.36722461460E+02  0.57993409718E+02  0.10977089942E+03  0.80296915397E+02 0.  0.
          5    1    3    3  501    0 -0.43399321942E+02  0.30863690330E+02 -0.24982097198E+02  0.59010708403E+02  0.47000000000E+01 0. -1.
        -11    1    4    4    0    0 -0.44047221183E+02  0.87541989743E+02 -0.24165083777E+03  0.26076595840E+03  0.00000000000E+00 0.  1.
         12    1    4    4    0    0 -0.47733157577E+02  0.10557976370E+02 -0.26459078301E+03  0.26906915032E+03  0.00000000000E+00 0. -1.
         -5    1    5    5    0  502  0.10534212389E+03 -0.92241194982E+02 -0.46079852167E+02  0.14748167308E+03  0.47000000000E+01 0.  1.
         11    1    6    6    0    0  0.18793891390E+02 -0.61345152680E+02  0.50819278714E+02  0.81847646271E+02  0.00000000000E+00 0. -1.
        -12    1    6    6    0    0  0.11043685422E+02  0.24622691220E+02  0.71741310041E+01  0.27923253146E+02  0.00000000000E+00 0.  1.
</event>
<event>
12    1  0.8494789E-002  0.2068537E+03  0.7818608E-02  0.1144492E+00
         21   -1    0    0  501  502  0.00000000000E+00  0.00000000000E+00  0.76759199395E+02  0.76759199395E+02  0.00000000000E+00 0.  1.
         21   -1    0    0  502  503 -0.00000000000E+00 -0.00000000000E+00 -0.12410285594E+04  0.12410285594E+04  0.00000000000E+00 0.  1.
         -6    2    1    2    0  503 -0.68830253516E+02  0.91033321373E+02 -0.10718159617E+04  0.10912131145E+04  0.17009390420E+03 0.  0.
        -24    2    3    3    0    0 -0.20876429141E+02  0.12079072197E+03 -0.69660692259E+03  0.71175430891E+03  0.79415161265E+02 0.  0.
          6    2    1    2  501    0  0.68830253516E+02 -0.91033321373E+02 -0.92453398377E+02  0.22657464430E+03  0.17252179332E+03 0.  0.
         24    2    5    5    0    0  0.29938160744E+02 -0.11299717343E+03 -0.22044221953E+02  0.14306088614E+03  0.79472100447E+02 0.  0.
          5    1    5    5  501    0  0.38892092772E+02  0.21963852057E+02 -0.70409176424E+02  0.83513758160E+02  0.47000000000E+01 0. -1.
        -11    1    6    6    0    0  0.43128965941E+02 -0.54929576040E+02 -0.40484529605E+02  0.80723993734E+02  0.00000000000E+00 0.  1.
         12    1    6    6    0    0 -0.13190805197E+02 -0.58067597391E+02  0.18440307652E+02  0.62336892405E+02  0.00000000000E+00 0. -1.
         -5    1    3    3    0  503 -0.47953824375E+02 -0.29757400601E+02 -0.37520903907E+03  0.37945880562E+03  0.47000000000E+01 0.  1.
         13    1    4    4    0    0 -0.18133259839E+02  0.42682654173E+02 -0.46519053548E+03  0.46749637259E+03  0.00000000000E+00 0. -1.
        -14    1    4    4    0    0 -0.27431693021E+01  0.78108067801E+02 -0.23141638711E+03  0.24425793632E+03  0.00000000000E+00 0.  1.
</event>
<event>
12    1  0.8494789E-002  0.1805248E+03  0.7818608E-02  0.1168454E+00
         21   -1    0    0  503  502  0.00000000000E+00  0.00000000000E+00  0.18060363871E+03  0.18060363871E+03  0.00000000000E+00 0.  1.
         21   -1    0    0  501  503 -0.00000000000E+00 -0.00000000000E+00 -0.18244724455E+03  0.18244724455E+03  0.00000000000E+00 0.  1.
          6    2    1    2  501    0  0.33767498081E+02 -0.30559093873E+01  0.33884058286E+02  0.17902464986E+03  0.17248800927E+03 0.  0.
         24    2    3    3    0    0 -0.34924590925E+01  0.17615545444E+02  0.80201825167E+02  0.11591332772E+03  0.81737764041E+02 0.  0.
         -6    2    1    2    0  502 -0.33767498081E+02  0.30559093873E+01 -0.35727664133E+02  0.18402623341E+03  0.17731217129E+03 0.  0.
        -24    2    5    5    0    0  0.31234678001E+02 -0.39080543271E+02 -0.48049347760E+02  0.10544711770E+03  0.79419524289E+02 0.  0.
          5    1    3    3  501    0  0.37259957174E+02 -0.20671454831E+02 -0.46317766881E+02  0.63111322140E+02  0.47000000000E+01 0. -1.
        -13    1    4    4    0    0  0.22292034451E+01 -0.10972165524E+02 -0.13640117348E+02  0.17646828768E+02  0.00000000000E+00 0.  1.
         14    1    4    4    0    0 -0.57216625375E+01  0.28587710968E+02  0.93841942515E+02  0.98266498949E+02  0.00000000000E+00 0. -1.
         -5    1    5    5    0  502 -0.65002176083E+02  0.42136452658E+02  0.12321683627E+02  0.78579115708E+02  0.47000000000E+01 0.  1.
         13    1    6    6    0    0  0.33846436276E+02  0.23973739449E+00 -0.55821049707E+02  0.65281148220E+02  0.00000000000E+00 0. -1.
        -14    1    6    6    0    0 -0.26117582747E+01 -0.39320280665E+02  0.77717019463E+01  0.40165969477E+02  0.00000000000E+00 0.  1.
</event>
<event>
12    1  0.8494789E-002  0.1735595E+03  0.7818608E-02  0.1174385E+00
         21   -1    0    0  501  502  0.00000000000E+00  0.00000000000E+00  0.81528436581E+02  0.81528436581E+02  0.00000000000E+00 0.  1.
         21   -1    0    0  502  503 -0.00000000000E+00 -0.00000000000E+00 -0.42002828462E+03  0.42002828462E+03  0.00000000000E+00 0.  1.
         -6    2    1    2    0  503 -0.15606645009E+02 -0.11934961106E+02 -0.25733522483E+03  0.30995663639E+03  0.17165572475E+03 0.  0.
        -24    2    3    3    0    0 -0.60227547756E+02 -0.29275519976E+01 -0.84806561857E+02  0.13146185235E+03  0.80337647592E+02 0.  0.
          6    2    1    2  501    0  0.15606645009E+02  0.11934961106E+02 -0.81164623207E+02  0.19160008481E+03  0.17244386267E+03 0.  0.
         24    2    5    5    0    0  0.60657848585E+01  0.69245715477E+02 -0.81604354581E+02  0.13330914261E+03  0.79248305715E+02 0.  0.
          5    1    5    5  501    0  0.95408601504E+01 -0.57310754371E+02  0.43973137416E+00  0.58290942201E+02  0.47000000000E+01 0. -1.
        -13    1    6    6    0    0  0.36743122556E+02  0.24405939880E+02 -0.13379149155E+02  0.46094561379E+02  0.00000000000E+00 0.  1.
         14    1    6    6    0    0 -0.30677337697E+02  0.44839775597E+02 -0.68225205426E+02  0.87214581231E+02  0.00000000000E+00 0. -1.
         -5    1    3    3    0  503  0.44620902747E+02 -0.90074091084E+01 -0.17252866297E+03  0.17849478404E+03  0.47000000000E+01 0.  1.
         13    1    4    4    0    0  0.10549575964E+02  0.16873364713E+02 -0.41834213193E+02  0.46326076709E+02  0.00000000000E+00 0. -1.
        -14    1    4    4    0    0 -0.70777123721E+02 -0.19800916711E+02 -0.42972348664E+02  0.85135775644E+02  0.00000000000E+00 0.  1.
</event>
<event>
12    1  0.8494789E-002  0.2460353E+03  0.7818608E-02  0.1115847E+00
         21   -1    0    0  501  502  0.00000000000E+00  0.00000000000E+00  0.25268938153E+03  0.25268938153E+03  0.00000000000E+00 0.  1.
         21   -1    0    0  502  503 -0.00000000000E+00 -0.00000000000E+00 -0.38541315226E+03  0.38541315226E+03  0.00000000000E+00 0. -1.
         -6    2    1    2    0  503 -0.16224548035E+03 -0.68573297268E+02 -0.26267144547E+03  0.35985843849E+03  0.17168551044E+03 0.  0.
        -24    2    3    3    0    0 -0.52851783810E+02  0.27811521568E+02 -0.10342419058E+03  0.14389827472E+03  0.80270533116E+02 0.  0.
          6    2    1    2  501    0  0.16224548035E+03  0.68573297268E+02  0.12994767474E+03  0.27824409530E+03  0.17177742985E+03 0.  0.
         24    2    5    5    0    0  0.19009057225E+03  0.71588587183E+02  0.11556723434E+03  0.24641127918E+03  0.78124140861E+02 0.  0.
          5    1    5    5  501    0 -0.27845091893E+02 -0.30152899148E+01  0.14380440401E+02  0.31832816116E+02  0.47000000000E+01 0. -1.
        -11    1    6    6    0    0  0.70479389377E+02  0.55338336168E+02  0.18461246295E+02  0.91490400543E+02  0.00000000000E+00 0.  1.
         12    1    6    6    0    0  0.11961118287E+03  0.16250251015E+02  0.97105988041E+02  0.15492087864E+03  0.00000000000E+00 0. -1.
         -5    1    3    3    0  503 -0.10939369654E+03 -0.96384818836E+02 -0.15924725489E+03  0.21596016377E+03  0.47000000000E+01 0.  1.
         11    1    4    4    0    0 -0.16684730617E+01  0.12447669407E+02  0.11581000329E+02  0.17083554801E+02  0.00000000000E+00 0. -1.
        -12    1    4    4    0    0 -0.51183310749E+02  0.15363852160E+02 -0.11500519091E+03  0.12681471992E+03  0.00000000000E+00 0.  1.
</event>
<event>
12    1  0.8494789E-002  0.2096119E+03  0.7818608E-02  0.1142105E+00
         21   -1    0    0  503  502  0.00000000000E+00  0.00000000000E+00  0.26703241954E+03  0.26703241954E+03  0.00000000000E+00 0. -1.
         21   -1    0    0  501  503 -0.00000000000E+00 -0.00000000000E+00 -0.17023742973E+03  0.17023742973E+03  0.00000000000E+00 0. -1.
          6    2    1    2  501    0  0.90186522365E+02  0.79591693652E+02  0.91610597123E+02  0.22875674651E+03  0.17166450144E+03 0.  0.
         24    2    3    3    0    0  0.51313821906E+02  0.27408642254E+02  0.12188161417E+03  0.15683608073E+03  0.79737609423E+02 0.  0.
         -6    2    1    2    0  502 -0.90186522365E+02 -0.79591693652E+02  0.51843926819E+01  0.20851310276E+03  0.17024214983E+03 0.  0.
        -24    2    5    5    0    0 -0.87160301306E+02 -0.70834371748E+02  0.58051110898E+02  0.15463519823E+03  0.89037557868E+02 0.  0.
          5    1    3    3  501    0  0.38872700459E+02  0.52183051398E+02 -0.30271017045E+02  0.71920665786E+02  0.47000000000E+01 0. -1.
        -13    1    4    4    0    0 -0.14944294980E+02 -0.90385523853E+01  0.48149001279E+02  0.51218685124E+02  0.00000000000E+00 0.  1.
         14    1    4    4    0    0  0.66258116885E+02  0.36447194639E+02  0.73732612889E+02  0.10561739560E+03  0.00000000000E+00 0. -1.
         -5    1    5    5    0  502 -0.30262210583E+01 -0.87573219039E+01 -0.52866718216E+02  0.53877904523E+02  0.47000000000E+01 0.  1.
         13    1    6    6    0    0 -0.88022645411E+02 -0.19797676644E+02  0.49408752241E+02  0.10286476026E+03  0.00000000000E+00 0. -1.
        -14    1    6    6    0    0  0.86234410478E+00 -0.51036695104E+02  0.86423586567E+01  0.51770437971E+02  0.00000000000E+00 0.  1.
</event>
<event>
12    1  0.8494789E-002  0.1802728E+03  0.7818608E-02  0.1171347E+00
         21   -1    0    0  501  502  0.00000000000E+00  0.00000000000E+00  0.47287543528E+02  0.47287543528E+02  0.00000000000E+00 0. -1.
         21   -1    0    0  502  503 -0.00000000000E+00 -0.00000000000E+00 -0.63887634103E+03  0.63887634103E+03  0.00000000000E+00 0. -1.
         -6    2    1    2    0  503 -0.27844007707E+02  0.44241678690E+02 -0.27064079130E+03  0.32518415967E+03  0.17252734532E+03 0.  0.
        -24    2    3    3    0    0  0.38981289502E+01 -0.38767959338E+02 -0.15235596218E+03  0.17715864144E+03  0.81576313637E+02 0.  0.
          6    2    1    2  501    0  0.27844007707E+02 -0.44241678690E+02 -0.32094800620E+03  0.36097972489E+03  0.15673584210E+03 0.  0.
         24    2    5    5    0    0 -0.44213176438E+01  0.32740154491E+01 -0.83031363609E+02  0.11618346015E+03  0.81080958569E+02 0.  0.
          5    1    5    5  501    0  0.32265325350E+02 -0.47515694139E+02 -0.23791664259E+03  0.24479626474E+03  0.47000000000E+01 0. -1.
        -13    1    6    6    0    0  0.32566195588E+02 -0.18160537071E+02 -0.28720235231E+02  0.47066061164E+02  0.00000000000E+00 0.  1.
         14    1    6    6    0    0 -0.36987513231E+02  0.21434552520E+02 -0.54311128378E+02  0.69117398985E+02  0.00000000000E+00 0. -1.
         -5    1    3    3    0  503 -0.31742136657E+02  0.83009638027E+02 -0.11828482913E+03  0.14802551823E+03  0.47000000000E+01 0.  1.
         13    1    4    4    0    0  0.25744734710E+02 -0.26039940673E+02 -0.18670114948E+02  0.41102835276E+02  0.00000000000E+00 0. -1.
        -14    1    4    4    0    0 -0.21846605760E+02 -0.12728018664E+02 -0.13368584723E+03  0.13605580617E+03  0.00000000000E+00 0.  1.
</event>
<event>
12    1  0.8494789E-002  0.1742011E+03  0.7818608E-02  0.1173827E+00
         21   -1    0    0  501  502  0.00000000000E+00  0.00000000000E+00  0.44192803102E+02  0.44192803102E+02  0.00000000000E+00 0.  1.
         21   -1    0    0  502  503 -0.00000000000E+00 -0.00000000000E+00 -0.11302748279E+04  0.11302748279E+04  0.00000000000E+00 0.  1.
         -6    2    1    2    0  503  0.25714188695E+02 -0.79653110664E+01 -0.91171099671E+03  0.92798988145E+03  0.17094915289E+03 0.  0.
        -24    2    3    3    0    0  0.79846383051E+02 -0.21538294768E+02 -0.53557006520E+03  0.54770234457E+03  0.79392823844E+02 0.  0.
          6    2    1    2  501    0 -0.25714188695E+02  0.79653110664E+01 -0.17437102806E+03  0.24647774952E+03  0.17210857010E+03 0.  0.
         24    2    5    5    0    0 -0.51017790752E+02 -0.33292174265E+01 -0.30162465020E+02  0.99555871285E+02  0.79923078953E+02 0.  0.
          5    1    5    5  501    0  0.25303602057E+02  0.11294528493E+02 -0.14420856304E+03  0.14692187824E+03  0.47000000000E+01 0. -1.
        -11    1    6    6    0    0 -0.39631456747E+02  0.34646415696E+02 -0.28533704379E+02  0.59876529376E+02  0.00000000000E+00 0.  1.
         12    1    6    6    0    0 -0.11386334005E+02 -0.37975633122E+02 -0.16287606411E+01  0.39679341909E+02  0.00000000000E+00 0. -1.
         -5    1    3    3    0  503 -0.54132194355E+02  0.13572983702E+02 -0.37614093151E+03  0.38028753688E+03  0.47000000000E+01 0.  1.
         11    1    4    4    0    0  0.11304258077E+02  0.15011814639E+01 -0.32240097249E+03  0.32260258346E+03  0.00000000000E+00 0. -1.
        -12    1    4    4    0    0  0.68542124974E+02 -0.23039476232E+02 -0.21316909272E+03  0.22509976111E+03  0.00000000000E+00 0.  1.
</event>
<event>
12    1  0.8494789E-002  0.2106445E+03  0.7818608E-02  0.1141165E+00
         21   -1    0    0  501  502  0.00000000000E+00  0.00000000000E+00  0.15497399515E+03  0.15497399515E+03  0.00000000000E+00 0.  1.
         21   -1    0    0  502  503 -0.00000000000E+00 -0.00000000000E+00 -0.35895547432E+03  0.35895547432E+03  0.00000000000E+00 0.  1.
         -6    2    1    2    0  503 -0.10919476657E+03  0.49912574946E+02 -0.21828674659E+03  0.30334832506E+03  0.17307900045E+03 0.  0.
        -24    2    3    3    0    0 -0.11437913180E+03  0.83847724327E+02 -0.13022947122E+03  0.20871933504E+03  0.80566860304E+02 0.  0.
          6    2    1    2  501    0  0.10919476657E+03 -0.49912574946E+02  0.14305267417E+02  0.21058114441E+03  0.17240944151E+03 0.  0.
         24    2    5    5    0    0  0.12268711793E+03 -0.38660028779E+02  0.58815496236E+02  0.16249877956E+03  0.79999150172E+02 0.  0.
          5    1    5    5  501    0 -0.13492351363E+02 -0.11252546167E+02 -0.44510228819E+02  0.48082364855E+02  0.47000000000E+01 0. -1.
        -13    1    6    6    0    0  0.10331255850E+03 -0.53585032628E+02  0.22221762658E+02  0.11848479734E+03  0.00000000000E+00 0.  1.
         14    1    6    6    0    0  0.19374559428E+02  0.14925003849E+02  0.36593733578E+02  0.44013982211E+02  0.00000000000E+00 0. -1.
         -5    1    3    3    0  503  0.51843652309E+01 -0.33935149381E+02 -0.88057275375E+02  0.94628990023E+02  0.47000000000E+01 0.  1.
         11    1    4    4    0    0  0.90413952145E+01  0.68359288163E+01  0.27052813031E+01  0.11653123922E+02  0.00000000000E+00 0. -1.
        -12    1    4    4    0    0 -0.12342052701E+03  0.77011795510E+02 -0.13293475252E+03  0.19706621112E+03  0.00000000000E+00 0.  1.
</event>
<event>
12    1  0.8494789E-002  0.1894692E+03  0.7818608E-02  0.1159147E+00
         21   -1    0    0  503  502  0.00000000000E+00  0.00000000000E+00  0.24305055474E+03  0.24305055474E+03  0.00000000000E+00 0. -1.
         21   -1    0    0  501  503 -0.00000000000E+00 -0.00000000000E+00 -0.17158104445E+03  0.17158104445E+03  0.00000000000E+00 0. -1.
          6    2    1    2  501    0 -0.72441678559E+02 -0.35339566439E+02 -0.42669631032E+02  0.19421448279E+03  0.17146978208E+03 0.  0.
         24    2    3    3    0    0  0.18814157658E+02 -0.19664171776E+02  0.12210185227E+02  0.86477628031E+02  0.81170433944E+02 0.  0.
         -6    2    1    2    0  502  0.72441678559E+02  0.35339566439E+02  0.11413914132E+03  0.22041711640E+03  0.17046782651E+03 0.  0.
        -24    2    5    5    0    0  0.36033586914E+02 -0.11320256928E+02  0.13148669187E+03  0.15856474568E+03  0.80171446492E+02 0.  0.
          5    1    3    3  501    0 -0.91255836217E+02 -0.15675394664E+02 -0.54879816259E+02  0.10773685476E+03  0.47000000000E+01 0. -1.
        -11    1    4    4    0    0 -0.22551716809E+02  0.13580186501E+02  0.19703665789E+02  0.32882150811E+02  0.00000000000E+00 0.  1.
         12    1    4    4    0    0  0.41365874466E+02 -0.33244358277E+02 -0.74934805618E+01  0.53595477221E+02  0.00000000000E+00 0. -1.
         -5    1    5    5    0  502  0.36408091645E+02  0.46659823368E+02 -0.17347550544E+02  0.61852370721E+02  0.47000000000E+01 0.  1.
         13    1    6    6    0    0  0.40958167572E+01 -0.43260281520E+02  0.64136026173E+02  0.77470365466E+02  0.00000000000E+00 0. -1.
        -14    1    6    6    0    0  0.31937770157E+02  0.31940024592E+02  0.67350665693E+02  0.81094380217E+02  0.00000000000E+00 0.  1.
</event>
<event>
12    1  0.8494789E-002  0.1903095E+03  0.7818608E-02  0.1159211E+00
         21   -1    0    0  503  502  0.00000000000E+00  0.00000000000E+00  0.17823338536E+03  0.17823338536E+03  0.00000000000E+00 0.  1.
         21   -1    0    0  501  503 -0.00000000000E+00 -0.00000000000E+00 -0.43430964825E+03  0.43430964825E+03  0.00000000000E+00 0.  1.
          6    2    1    2  501    0  0.52397123137E+02  0.40908456379E+02 -0.35304682119E+03  0.39895234125E+03  0.17349914214E+03 0.  0.
         24    2    3    3    0    0  0.38727129124E+02 -0.22083195656E+02 -0.29221593567E+03  0.31019816617E+03  0.94049408141E+02 0.  0.
         -6    2    1    2    0  502 -0.52397123137E+02 -0.40908456379E+02  0.96970558301E+02  0.21359069235E+03  0.17832199631E+03 0.  0.
        -24    2    5    5    0    0 -0.30976895905E+02 -0.97746253889E+02  0.71727153311E+02  0.14764616373E+03  0.78362662740E+02 0.  0.
          5    1    3    3  501    0  0.13669994013E+02  0.62991652035E+02 -0.60830885519E+02  0.88754175088E+02  0.47000000000E+01 0. -1.
        -11    1    4    4    0    0  0.10934826178E+02  0.25794086885E+02 -0.25782221658E+02  0.38073984496E+02  0.00000000000E+00 0.  1.
         12    1    4    4    0    0  0.27792302946E+02 -0.47877282541E+02 -0.26643371401E+03  0.27212418167E+03  0.00000000000E+00 0. -1.
         -5    1    5    5    0  502 -0.21420227232E+02  0.56837797509E+02  0.25243404990E+02  0.65944528627E+02  0.47000000000E+01 0.  1.
         11    1    6    6    0    0 -0.23711705056E+02 -0.97323750619E+02  0.28972233439E+02  0.10427630460E+03  0.00000000000E+00 0. -1.
        -12    1    6    6    0    0 -0.72651908486E+01 -0.42250326999E+00  0.42754919872E+02  0.43369859123E+02  0.00000000000E+00 0.  1.
</event>
<event>
12    1  0.8494789E-002  0.1879207E+03  0.7818608E-02  0.1160356E+00
         21   -1    0    0  501  502  0.00000000000E+00  0.00000000000E+00  0.10923665302E+03  0.10923665302E+03  0.00000000000E+00 0.  1.
         21   -1    0    0  502  503 -0.00000000000E+00 -0.00000000000E+00 -0.32881802302E+03  0.32881802302E+03  0.00000000000E+00 0.  1.
         -6    2    1    2    0  503  0.74563976989E+02 -0.12786944196E+02 -0.13832486475E+03  0.23331869802E+03  0.17198998235E+03 0.  0.
        -24    2    3    3    0    0  0.76217108590E+02 -0.74000644201E+01 -0.17373441023E+02  0.11214490456E+03  0.80067687434E+02 0.  0.
          6    2    1    2  501    0 -0.74563976989E+02  0.12786944196E+02 -0.81256505248E+02  0.20473597802E+03  0.17202008151E+03 0.  0.
         24    2    5    5    0    0 -0.30271992485E+02 -0.54094392482E+02 -0.72210920763E+02  0.12387309601E+03  0.79293946879E+02 0.  0.
          5    1    5    5  501    0 -0.44291984503E+02  0.66881336678E+02 -0.90455844858E+01  0.80862882003E+02  0.47000000000E+01 0. -1.
        -11    1    6    6    0    0 -0.24007529823E+02 -0.20491554139E+02  0.11388645668E+02  0.33555424739E+02  0.00000000000E+00 0.  1.
         12    1    6    6    0    0 -0.62644626618E+01 -0.33602838343E+02 -0.83599566431E+02  0.90317671275E+02  0.00000000000E+00 0. -1.
         -5    1    3    3    0  503 -0.16531316016E+01 -0.53868797761E+01 -0.12095142373E+03  0.12117379345E+03  0.47000000000E+01 0.  1.
         11    1    4    4    0    0  0.41432803372E+02 -0.37535799764E+02 -0.31285066214E+02  0.64065348100E+02  0.00000000000E+00 0. -1.
        -12    1    4    4    0    0  0.34784305218E+02  0.30135735343E+02  0.13911625190E+02  0.48079556462E+02  0.00000000000E+00 0.  1.
</event>
<event>
12    1  0.8494789E-002  0.1969028E+03  0.7818608E-02  0.1152390E+00
         21   -1    0    0  503  502  0.00000000000E+00  0.00000000000E+00  0.43390799125E+02  0.43390799125E+02  0.00000000000E+00 0.  1.
         21   -1    0    0  501  503 -0.00000000000E+00 -0.00000000000E+00 -0.91717106004E+03  0.91717106004E+03  0.00000000000E+00 0.  1.
          6    2    1    2  501    0 -0.94942627126E+02  0.17397804845E+02 -0.51434412900E+03  0.55072644803E+03  0.17156034351E+03 0.  0.
         24    2    3    3    0    0 -0.59502982666E+02 -0.27605145582E+02 -0.45992265775E+03  0.47157456568E+03  0.80938685918E+02 0.  0.
         -6    2    1    2    0  502  0.94942627126E+02 -0.17397804845E+02 -0.35943613192E+03  0.40983541114E+03  0.17162151740E+03 0.  0.
        -24    2    5    5    0    0  0.34971693583E+02 -0.43842211573E+02 -0.29938547177E+03  0.32081860766E+03  0.10073608810E+03 0.  0.
          5    1    3    3  501    0 -0.35439644460E+02  0.45002950427E+02 -0.54421471252E+02  0.79151882351E+02  0.47000000000E+01 0. -1.
        -11    1    4    4    0    0 -0.61463809570E+02  0.76038626061E+01 -0.36693696946E+03  0.37212680388E+03  0.00000000000E+00 0.  1.
         12    1    4    4    0    0  0.19608269041E+01 -0.35209008188E+02 -0.92985688290E+02  0.99447761797E+02  0.00000000000E+00 0. -1.
         -5    1    5    5    0  502  0.59970933543E+02  0.26444406728E+02 -0.60050660153E+02  0.89016803482E+02  0.47000000000E+01 0.  1.
         11    1    6    6    0    0 -0.34697134235E+01 -0.63651393700E+02 -0.23321459260E+03  0.24176969420E+03  0.00000000000E+00 0. -1.
        -12    1    6    6    0    0  0.38441407006E+02  0.19809182127E+02 -0.66170879165E+02  0.79048913456E+02  0.00000000000E+00 0.  1.
</event>
<event>
12    1  0.8494789E-002  0.1913276E+03  0.7818608E-02  0.1157273E+00
         21   -1    0    0  501  502  0.00000000000E+00  0.00000000000E+00  0.13558338507E+03  0.13558338507E+03  0.00000000000E+00 0. -1.
         21   -1    0    0  502  503 -0.00000000000E+00 -0.00000000000E+00 -0.37038001151E+03  0.37038001151E+03  0.00000000000E+00 0. -1.
         -6    2    1    2    0  503 -0.11618666821E+02 -0.82467470620E+02 -0.24911820678E+03  0.31410049368E+03  0.17223054912E+03 0.  0.
        -24    2    3    3    0    0 -0.20645241064E+02 -0.11136149423E+03 -0.12916334584E+03  0.19029579948E+03  0.81863990947E+02 0.  0.
          6    2    1    2  501    0  0.11618666821E+02  0.82467470620E+02  0.14321580338E+02  0.19186290290E+03  0.17225094692E+03 0.  0.
         24    2    5    5    0    0 -0.32212070972E+01  0.57057216381E+02  0.77336199551E+02  0.12215755796E+03  0.75337103005E+02 0.  0.
          5    1    5    5  501    0  0.14839873918E+02  0.25410254239E+02 -0.63014619213E+02  0.69705344939E+02  0.47000000000E+01 0. -1.
        -11    1    6    6    0    0 -0.35737463135E+02  0.47028281310E+02  0.38417540078E+02  0.70460860767E+02  0.00000000000E+00 0.  1.
         12    1    6    6    0    0  0.32516256038E+02  0.10028935071E+02  0.38918659474E+02  0.51696697193E+02  0.00000000000E+00 0. -1.
         -5    1    3    3    0  503  0.90265742433E+01  0.28894023612E+02 -0.11995486094E+03  0.12380469420E+03  0.47000000000E+01 0.  1.
         11    1    4    4    0    0 -0.14276461644E+02 -0.97165368667E+02 -0.14023176313E+03  0.17120126639E+03  0.00000000000E+00 0. -1.
        -12    1    4    4    0    0 -0.63687794198E+01 -0.14196125565E+02  0.11068417288E+02  0.19094533082E+02  0.00000000000E+00 0.  1.
</event>
<event>
12    1  0.8494789E-002  0.2188385E+03  0.7818608E-02  0.1134811E+00
         21   -1    0    0  503  502  0.00000000000E+00  0.00000000000E+00  0.69832285596E+03  0.69832285596E+03  0.00000000000E+00 0.  1.
         21   -1    0    0  501  503 -0.00000000000E+00 -0.00000000000E+00 -0.77288696187E+02  0.77288696187E+02  0.00000000000E+00 0. -1.
          6    2    1    2  501    0  0.13542489979E+03  0.12889559925E+02  0.17940709906E+03  0.28273760478E+03  0.17101930221E+03 0.  0.
         24    2    3    3    0    0  0.28724808003E+02 -0.47202449119E+02  0.35924853540E+02  0.94044192296E+02  0.67085983670E+02 0.  0.
         -6    2    1    2    0  502 -0.13542489979E+03 -0.12889559925E+02  0.44162706072E+03  0.49287394737E+03  0.17141826915E+03 0.  0.
        -24    2    5    5    0    0 -0.16237164900E+03  0.48099688462E+01  0.33246996077E+03  0.37895835106E+03  0.81764716279E+02 0.  0.
          5    1    3    3  501    0  0.10670009178E+03  0.60092009044E+02  0.14348224552E+03  0.18869341249E+03  0.47000000000E+01 0. -1.
        -13    1    4    4    0    0 -0.14304881414E+02 -0.36906568886E+02  0.29433963731E+02  0.49326287921E+02  0.00000000000E+00 0.  1.
         14    1    4    4    0    0  0.43029689417E+02 -0.10295880234E+02  0.64908898088E+01  0.44717904374E+02  0.00000000000E+00 0. -1.
         -5    1    5    5    0  502  0.26946749213E+02 -0.17699528771E+02  0.10915709995E+03  0.11391559630E+03  0.47000000000E+01 0.  1.
         13    1    6    6    0    0 -0.52326788086E+02  0.16448201419E+02  0.45076082090E+02  0.70996403134E+02  0.00000000000E+00 0. -1.
        -14    1    6    6    0    0 -0.11004486091E+03 -0.11638232573E+02  0.28739387868E+03  0.30796194793E+03  0.00000000000E+00 0.  1.
</event>
<event>
12    1  0.8494789E-002  0.1764486E+03  0.7818608E-02  0.1172179E+00
         21   -1    0    0  501  502  0.00000000000E+00  0.00000000000E+00  0.78048237447E+02  0.78048237447E+02  0.00000000000E+00 0.  1.
         21   -1    0    0  502  503 -0.00000000000E+00 -0.00000000000E+00 -0.49158680378E+03  0.49158680378E+03  0.00000000000E+00 0.  1.
         -6    2    1    2    0  503  0.80187265599E+01 -0.28778044181E+02 -0.33733920240E+03  0.38069914959E+03  0.17390120536E+03 0.  0.
        -24    2    3    3    0    0  0.21603136806E+02 -0.72948658353E+01 -0.34403854457E+03  0.35399644675E+03  0.80193849997E+02 0.  0.
          6    2    1    2  501    0 -0.80187265599E+01  0.28778044181E+02 -0.76199363936E+02  0.18893589163E+03  0.17028785124E+03 0.  0.
         24    2    5    5    0    0  0.88508923253E+01  0.76699732918E+02 -0.20608233404E+02  0.11348036773E+03  0.80572372761E+02 0.  0.
          5    1    5    5  501    0 -0.16869618885E+02 -0.47921688736E+02 -0.55591130532E+02  0.75455523897E+02  0.47000000000E+01 0. -1.
        -11    1    6    6    0    0 -0.27489107097E+02  0.50238573629E+02  0.11276988134E+02  0.58367248956E+02  0.00000000000E+00 0.  1.
         12    1    6    6    0    0  0.36339999422E+02  0.26461159289E+02 -0.31885221538E+02  0.55113118778E+02  0.00000000000E+00 0. -1.
         -5    1    3    3    0  503 -0.13584410246E+02 -0.21483178346E+02  0.66993421715E+01  0.26702702843E+02  0.47000000000E+01 0.  1.
         11    1    4    4    0    0  0.46794747170E+02  0.41616728411E+01 -0.13102530933E+03  0.13919302988E+03  0.00000000000E+00 0. -1.
        -12    1    4    4    0    0 -0.25191610364E+02 -0.11456538676E+02 -0.21301323524E+03  0.21480341687E+03  0.00000000000E+00 0.  1.
</event>
<event>
12    1  0.8494789E-002  0.2908843E+03  0.7818608E-02  0.1089977E+00
         21   -1    0    0  503  502  0.00000000000E+00  0.00000000000E+00  0.56599592765E+03  0.56599592765E+03  0.00000000000E+00 0.  1.
         21   -1    0    0  501  503 -0.00000000000E+00 -0.00000000000E+00 -0.19857882375E+03  0.19857882375E+03  0.00000000000E+00 0. -1.
          6    2    1    2  501    0 -0.29396587783E+02  0.23255870679E+03  0.37461065678E+03  0.47428556039E+03  0.17223802466E+03 0.  0.
         24    2    3    3    0    0 -0.16000984435E+02  0.24367300700E+03  0.37668479041E+03  0.45613723021E+03  0.80852802097E+02 0.  0.
         -6    2    1    2    0  502  0.29396587783E+02 -0.23255870679E+03 -0.71935528771E+01  0.29028919101E+03  0.17107996884E+03 0.  0.
        -24    2    5    5    0    0  0.53679886613E+02 -0.93834645674E+02  0.41892919271E+02  0.14107251807E+03  0.80373924346E+02 0.  0.
          5    1    3    3  501    0 -0.13395603348E+02 -0.11114300206E+02 -0.20741336295E+01  0.18148330183E+02  0.47000000000E+01 0. -1.
        -11    1    4    4    0    0 -0.33177361881E+02  0.50741236050E+02  0.62716058678E+02  0.87227945026E+02  0.00000000000E+00 0.  1.
         12    1    4    4    0    0  0.17176377446E+02  0.19293177095E+03  0.31396873174E+03  0.36890928518E+03  0.00000000000E+00 0. -1.
         -5    1    5    5    0  502 -0.24283298830E+02 -0.13872406112E+03 -0.49086472148E+02  0.14921667294E+03  0.47000000000E+01 0.  1.
         11    1    6    6    0    0  0.39358355816E+02 -0.93915552934E+02  0.55168702562E+01  0.10197866009E+03  0.00000000000E+00 0. -1.
        -12    1    6    6    0    0  0.14321530797E+02  0.80907260454E-01  0.36376049015E+02  0.39093857987E+02  0.00000000000E+00 0.  1.
</event>
<event>
12    1  0.8494789E-002  0.4240818E+03  0.7818608E-02  0.1035773E+00
         21   -1    0    0  501  502  0.00000000000E+00  0.00000000000E+00  0.14245308963E+04  0.14245308963E+04  0.00000000000E+00 0.  1.
         21   -1    0    0  502  503 -0.00000000000E+00 -0.00000000000E+00 -0.12987312639E+03  0.12987312639E+03  0.00000000000E+00 0. -1.
         -6    2    1    2    0  503  0.26035929623E+03  0.28724977877E+03  0.51598857715E+03  0.66789938684E+03  0.17188944314E+03 0.  0.
        -24    2    3    3    0    0  0.21691039249E+03  0.25626843639E+03  0.34221332332E+03  0.48605445385E+03  0.80095840039E+02 0.  0.
          6    2    1    2  501    0 -0.26035929623E+03 -0.28724977877E+03  0.77866919274E+03  0.88650463583E+03  0.17107121059E+03 0.  0.
         24    2    5    5    0    0 -0.22548668339E+03 -0.18440896748E+03  0.46387039494E+03  0.55346904511E+03  0.79380910267E+02 0.  0.
          5    1    5    5  501    0 -0.34872612835E+02 -0.10284081129E+03  0.31479879780E+03  0.33303559073E+03  0.47000000000E+01 0. -1.
        -11    1    6    6    0    0 -0.27709582662E+02 -0.11724424573E+02  0.10225280593E+03  0.10658761383E+03  0.00000000000E+00 0.  1.
         12    1    6    6    0    0 -0.19777710073E+03 -0.17268454291E+03  0.36161758901E+03  0.44688143127E+03  0.00000000000E+00 0. -1.
         -5    1    3    3    0  503  0.43448903738E+02  0.30981342383E+02  0.17377525383E+03  0.18184493299E+03  0.47000000000E+01 0.  1.
         11    1    4    4    0    0  0.69063190331E+02  0.12511639941E+03  0.18346193940E+03  0.23255562962E+03  0.00000000000E+00 0. -1.
        -12    1    4    4    0    0  0.14784720216E+03  0.13115203698E+03  0.15875138392E+03  0.25349882423E+03  0.00000000000E+00 0.  1.
</event>
<event>
12    1  0.8494789E-002  0.1942043E+03  0.7818608E-02  0.1154952E+00
         21   -1    0    0  501  502  0.00000000000E+00  0.00000000000E+00  0.61063259740E+02  0.61063259740E+02  0.00000000000E+00 0. -1.
         21   -1    0    0  502  503 -0.00000000000E+00 -0.00000000000E+00 -0.10609464243E+04  0.10609464243E+04  0.00000000000E+00 0. -1.
         -6    2    1    2    0  503  0.85391081892E+02  0.21159940929E+02 -0.86314745443E+03  0.88449765443E+03  0.17196858040E+03 0.  0.
        -24    2    3    3    0    0  0.35170695421E+02 -0.44913657197E+02 -0.61401300080E+03  0.62186126402E+03  0.80282327526E+02 0.  0.
          6    2    1    2  501    0 -0.85391081892E+02 -0.21159940929E+02 -0.13673571012E+03  0.23751202959E+03  0.17313558217E+03 0.  0.
         24    2    5    5    0    0 -0.92437502663E+02  0.41979418514E+02 -0.87090082618E+02  0.15674688187E+03  0.81718657654E+02 0.  0.
          5    1    5    5  501    0  0.70464207711E+01 -0.63139359444E+02 -0.49645627499E+02  0.80765147721E+02  0.47000000000E+01 0. -1.
        -13    1    6    6    0    0 -0.41663356082E+02  0.38500932213E+02 -0.89311780253E+02  0.10580525088E+03  0.00000000000E+00 0.  1.
         14    1    6    6    0    0 -0.50774146581E+02  0.34784863011E+01  0.22216976353E+01  0.50941630994E+02  0.00000000000E+00 0. -1.
         -5    1    3    3    0  503  0.50220386471E+02  0.66073598126E+02 -0.24913445363E+03  0.26263639041E+03  0.47000000000E+01 0.  1.
         11    1    4    4    0    0 -0.12208105796E+02  0.10344930090E+02 -0.25732160988E+03  0.25781866948E+03  0.00000000000E+00 0. -1.
        -12    1    4    4    0    0  0.47378801217E+02 -0.55258587287E+02 -0.35669139093E+03  0.36404259454E+03  0.00000000000E+00 0.  1.
</event>
<event>
12    1  0.8494789E-002  0.2222131E+03  0.7818608E-02  0.1133307E+00
         21   -1    0    0  503  502  0.00000000000E+00  0.00000000000E+00  0.34775506741E+03  0.34775506741E+03  0.00000000000E+00 0. -1.
         21   -1    0    0  501  503 -0.00000000000E+00 -0.00000000000E+00 -0.20218899732E+03  0.20218899732E+03  0.00000000000E+00 0.  1.
          6    2    1    2  501    0 -0.31974632587E+02  0.12911131524E+03 -0.81039974895E+02  0.23652934873E+03  0.17800715274E+03 0.  0.
         24    2    3    3    0    0  0.36874309982E+02  0.58197868679E+02 -0.86648660886E+02  0.13742111923E+03  0.81423994755E+02 0.  0.
         -6    2    1    2    0  502  0.31974632587E+02 -0.12911131524E+03  0.22660604498E+03  0.31341471600E+03  0.17084020525E+03 0.  0.
        -24    2    5    5    0    0  0.24129046072E+02 -0.56821385203E+02  0.26912637558E+02  0.10084253018E+03  0.75060276796E+02 0.  0.
          5    1    3    3  501    0 -0.68848942569E+02  0.70913446563E+02  0.56086859910E+01  0.99108229501E+02  0.47000000000E+01 0. -1.
        -13    1    4    4    0    0  0.28558813710E+02  0.45837507680E+02 -0.10238262258E+03  0.11575355008E+03  0.00000000000E+00 0.  1.
         14    1    4    4    0    0  0.83154962712E+01  0.12360361000E+02  0.15733961692E+02  0.21667569148E+02  0.00000000000E+00 0. -1.
         -5    1    5    5    0  502  0.78455865150E+01 -0.72289930039E+02  0.19969340743E+03  0.21257218582E+03  0.47000000000E+01 0.  1.
         13    1    6    6    0    0  0.31028720743E+02 -0.31288692345E+02 -0.18896627517E+02  0.47946285686E+02  0.00000000000E+00 0. -1.
        -14    1    6    6    0    0 -0.68996746707E+01 -0.25532692859E+02  0.45809265076E+02  0.52896244498E+02  0.00000000000E+00 0.  1.
</event>
<event>
12    1  0.8494789E-002  0.1708140E+03  0.7818608E-02  0.1177319E+00
         21   -1    0    0  501  502  0.00000000000E+00  0.00000000000E+00  0.49021872511E+03  0.49021872511E+03  0.00000000000E+00 0. -1.
         21   -1    0    0  502  503 -0.00000000000E+00 -0.00000000000E+00 -0.44340683216E+03  0.44340683216E+03  0.00000000000E+00 0. -1.
         -6    2    1    2    0  503 -0.81428238618E+00 -0.16553534114E+02 -0.41117653355E+03  0.44524551848E+03  0.17000808050E+03 0.  0.
        -24    2    3    3    0    0  0.21513744374E+02  0.10029684488E+02 -0.40031363348E+03  0.40856717489E+03  0.78183729013E+02 0.  0.
          6    2    1    2  501    0  0.81428238618E+00  0.16553534114E+02  0.45798842650E+03  0.48838003879E+03  0.16878086662E+03 0.  0.
         24    2    5    5    0    0 -0.32877202040E+02 -0.35296338823E+00  0.10966637754E+03  0.13799270231E+03  0.77033995934E+02 0.  0.
          5    1    5    5  501    0  0.33691484427E+02  0.16906497502E+02  0.34832204896E+03  0.35038733649E+03  0.47000000000E+01 0. -1.
        -11    1    6    6    0    0 -0.50451792846E+02  0.39272055682E+00  0.35304870012E+02  0.61578985680E+02  0.00000000000E+00 0.  1.
         12    1    6    6    0    0  0.17574590806E+02 -0.74568394505E+00  0.74361507529E+02  0.76413716625E+02  0.00000000000E+00 0. -1.
         -5    1    3    3    0  503 -0.22328026760E+02 -0.26583218603E+02 -0.10862900071E+02  0.36678343586E+02  0.47000000000E+01 0.  1.
         13    1    4    4    0    0  0.20764179651E+02 -0.13535671611E+02 -0.37274900226E+02  0.44763643165E+02  0.00000000000E+00 0. -1.
        -14    1    4    4    0    0  0.74956472282E+00  0.23565356100E+02 -0.36303873325E+03  0.36380353173E+03  0.00000000000E+00 0.  1.
</event>
<event>
12    1  0.8494789E-002  0.1747307E+03  0.7818608E-02  0.1173204E+00
         21   -1    0    0  503  502  0.00000000000E+00  0.00000000000E+00  0.77437328680E+02  0.77437328680E+02  0.00000000000E+00 0. -1.
         21   -1    0    0  501  503 -0.00000000000E+00 -0.00000000000E+00 -0.47170677493E+03  0.47170677493E+03  0.00000000000E+00 0. -1.
          6    2    1    2  501    0  0.57132253592E+01 -0.25821722964E+02 -0.31005189893E+03  0.35589744402E+03  0.17271771279E+03 0.  0.
         24    2    3    3    0    0  0.16160592097E+02  0.42018973865E+02 -0.10025258762E+03  0.13510489740E+03  0.78587486761E+02 0.  0.
         -6    2    1    2    0  502 -0.57132253592E+01  0.25821722964E+02 -0.84217547326E+02  0.19324665959E+03  0.17190774806E+03 0.  0.
        -24    2    5    5    0    0  0.14769923651E+02 -0.37574476453E+02 -0.46335085843E+01  0.89350814071E+02  0.79574535173E+02 0.  0.
          5    1    3    3  501    0 -0.10447366738E+02 -0.67840696829E+02 -0.20979931131E+03  0.22079254663E+03  0.47000000000E+01 0. -1.
        -13    1    4    4    0    0 -0.17088436468E+02  0.46061250075E+00  0.44390300584E+01  0.17661591453E+02  0.00000000000E+00 0.  1.
         14    1    4    4    0    0  0.33249028565E+02  0.41558361364E+02 -0.10469161767E+03  0.11744330594E+03  0.00000000000E+00 0. -1.
         -5    1    5    5    0  502 -0.20483149010E+02  0.63396199417E+02 -0.79584038741E+02  0.10389584552E+03  0.47000000000E+01 0.  1.
         13    1    6    6    0    0  0.73807923429E-01  0.20545043591E+02 -0.18691879375E+02  0.27775719943E+02  0.00000000000E+00 0. -1.
        -14    1    6    6    0    0  0.14696115727E+02 -0.58119520044E+02  0.14058370791E+02  0.61575094128E+02  0.00000000000E+00 0.  1.
</event>
<event>
12    1  0.8494789E-002  0.1924916E+03  0.7818608E-02  0.1156669E+00
         21   -1    0    0  501  502  0.00000000000E+00  0.00000000000E+00  0.96962527078E+02  0.96962527078E+02  0.00000000000E+00 0. -1.
         21   -1    0    0  502  503 -0.00000000000E+00 -0.00000000000E+00 -0.43001372360E+03  0.43001372360E+03  0.00000000000E+00 0. -1.
         -6    2    1    2    0  503 -0.81518956393E+02  0.15395760124E+02 -0.25718372199E+03  0.32007311834E+03  0.17152540496E+03 0.  0.
        -24    2    3    3    0    0 -0.10685309483E+03  0.44371107644E+02 -0.15434993572E+03  0.21017194940E+03  0.83438399990E+02 0.  0.
          6    2    1    2  501    0  0.81518956393E+02 -0.15395760124E+02 -0.75867474529E+02  0.20690313233E+03  0.17369704314E+03 0.  0.
         24    2    5    5    0    0  0.28843206149E+02 -0.69574397745E+02 -0.70899278291E+02  0.13102933968E+03  0.80432908882E+02 0.  0.
          5    1    5    5  501    0  0.52675750245E+02  0.54178637621E+02 -0.49681962383E+01  0.75873792657E+02  0.47000000000E+01 0. -1.
        -13    1    6    6    0    0 -0.87381926297E+01 -0.15017082380E+02  0.14720669991E+02  0.22772063996E+02  0.00000000000E+00 0.  1.
         14    1    6    6    0    0  0.37581398778E+02 -0.54557315364E+02 -0.85619948281E+02  0.10825727568E+03  0.00000000000E+00 0. -1.
         -5    1    3    3    0  503  0.25334138437E+02 -0.28975347520E+02 -0.10283378628E+03  0.10990116894E+03  0.47000000000E+01 0.  1.
         13    1    4    4    0    0 -0.58588230461E+02 -0.19011002488E+02 -0.81985805932E+02  0.10254594745E+03  0.00000000000E+00 0. -1.
        -14    1    4    4    0    0 -0.48264864370E+02  0.63382110132E+02 -0.72364129783E+02  0.10762600195E+03  0.00000000000E+00 0.  1.
</event>
<event>
12    1  0.8494789E-002  0.1749027E+03  0.7818608E-02  0.1173080E+00
         21   -1    0    0  503  502  0.00000000000E+00  0.00000000000E+00  0.45428777522E+03  0.45428777522E+03  0.00000000000E+00 0.  1.
         21   -1    0    0  501  503 -0.00000000000E+00 -0.00000000000E+00 -0.10053978598E+03  0.10053978598E+03  0.00000000000E+00 0.  1.
          6    2    1    2  501    0  0.20993236352E+02 -0.83705023999E+01  0.16207426283E+02  0.17466367099E+03  0.17243530965E+03 0.  0.
         24    2    3    3    0    0  0.28332520005E+02  0.60364396036E+02  0.16852167445E+02  0.10537545382E+03  0.79833568891E+02 0.  0.
         -6    2    1    2    0  502 -0.20993236352E+02  0.83705023999E+01  0.33754056296E+03  0.38016389022E+03  0.17343635864E+03 0.  0.
        -24    2    5    5    0    0  0.34893553863E+02 -0.38450698721E+02  0.13178153521E+03  0.16181914974E+03  0.78249906492E+02 0.  0.
          5    1    3    3  501    0 -0.73392836527E+01 -0.68734898436E+02 -0.64474116261E+00  0.69288217171E+02  0.47000000000E+01 0. -1.
        -11    1    4    4    0    0  0.23648779216E+01  0.38720311672E+01 -0.28219863058E+02  0.28582266249E+02  0.00000000000E+00 0.  1.
         12    1    4    4    0    0  0.25967642083E+02  0.56492364869E+02  0.45072030503E+02  0.76793187572E+02  0.00000000000E+00 0. -1.
         -5    1    5    5    0  502 -0.55886790215E+02  0.46821201121E+02  0.20575902775E+03  0.21834474048E+03  0.47000000000E+01 0.  1.
         11    1    6    6    0    0 -0.14815765142E+02 -0.39926810387E+02  0.75753034254E+02  0.86903275445E+02  0.00000000000E+00 0. -1.
        -12    1    6    6    0    0  0.49709319005E+02  0.14761116666E+01  0.56028500959E+02  0.74915874294E+02  0.00000000000E+00 0.  1.
</event>
<event>
12    1  0.8494789E-002  0.1811143E+03  0.7818608E-02  0.1166802E+00
         21   -1    0    0  501  502  0.00000000000E+00  0.00000000000E+00  0.14557323839E+03  0.14557323839E+03  0.00000000000E+00 0. -1.
         21   -1    0    0  502  503 -0.00000000000E+00 -0.00000000000E+00 -0.24395638281E+03  0.24395638281E+03  0.00000000000E+00 0. -1.
         -6    2    1    2    0  503  0.47458191311E+02  0.30763196547E+02 -0.10350982317E+03  0.20834280888E+03  0.17173755656E+03 0.  0.
        -24    2    3    3    0    0 -0.36698836523E+01  0.75724027926E+02 -0.47064794049E+02  0.11977821256E+03  0.79900744145E+02 0.  0.
          6    2    1    2  501    0 -0.47458191311E+02 -0.30763196547E+02  0.51266787441E+01  0.18118681233E+03  0.17205732749E+03 0.  0.
         24    2    5    5    0    0  0.15686466259E+02 -0.48529213703E+02  0.41949581837E+02  0.10581509789E+03  0.82679608850E+02 0.  0.
          5    1    5    5  501    0 -0.63144657570E+02  0.17766017156E+02 -0.36822903093E+02  0.75371714438E+02  0.47000000000E+01 0. -1.
        -13    1    6    6    0    0 -0.50930673229E+01  0.15661969413E+02  0.34126108869E+02  0.37892320161E+02  0.00000000000E+00 0.  1.
         14    1    6    6    0    0  0.20779533582E+02 -0.64191183115E+02  0.78234729682E+01  0.67922777732E+02  0.00000000000E+00 0. -1.
         -5    1    3    3    0  503  0.51128074963E+02 -0.44960831379E+02 -0.56445029116E+02  0.88564596311E+02  0.47000000000E+01 0.  1.
         11    1    4    4    0    0 -0.33916378724E+02  0.33652657550E+02 -0.48312130463E+02  0.67947656736E+02  0.00000000000E+00 0. -1.
        -12    1    4    4    0    0  0.30246495072E+02  0.42071370376E+02  0.12473364140E+01  0.51830555829E+02  0.00000000000E+00 0.  1.
</event>
<event>
12    1  0.8494789E-002  0.3643188E+03  0.7818608E-02  0.1057894E+00
         21   -1    0    0  501  502  0.00000000000E+00  0.00000000000E+00  0.92235335685E+02  0.92235335685E+02  0.00000000000E+00 0.  1.
         21   -1    0    0  502  503 -0.00000000000E+00 -0.00000000000E+00 -0.18224614861E+04  0.18224614861E+04  0.00000000000E+00 0. -1.
         -6    2    1    2    0  503  0.13147440000E+03 -0.29229081335E+03 -0.13359108086E+04  0.13846970458E+04  0.17323043194E+03 0.  0.
        -24    2    3    3    0    0  0.11593865891E+03 -0.22593464070E+03 -0.12318701026E+04  0.12602339613E+04  0.78723902939E+02 0.  0.
          6    2    1    2  501    0 -0.13147440000E+03  0.29229081335E+03 -0.39431534181E+03  0.52999977603E+03  0.15065104177E+03 0.  0.
         24    2    5    5    0    0  0.35942541797E+00  0.98245939446E+02 -0.14384913919E+03  0.18679578529E+03  0.67436612829E+02 0.  0.
          5    1    5    5  501    0 -0.13183382541E+03  0.19404487390E+03 -0.25046620262E+03  0.34320399075E+03  0.47000000000E+01 0. -1.
        -11    1    6    6    0    0  0.62280992935E+01  0.11939997298E+02  0.52216712998E+01  0.14443635534E+02  0.00000000000E+00 0.  1.
         12    1    6    6    0    0 -0.58686738756E+01  0.86305942149E+02 -0.14907081049E+03  0.17235214975E+03  0.00000000000E+00 0. -1.
         -5    1    3    3    0  503  0.15535741087E+02 -0.66356172646E+02 -0.10404070600E+03  0.12446308450E+03  0.47000000000E+01 0.  1.
         13    1    4    4    0    0 -0.97010852577E+00 -0.58878699126E+02 -0.36404213302E+03  0.36877407303E+03  0.00000000000E+00 0. -1.
        -14    1    4    4    0    0  0.11690876743E+03 -0.16705594158E+03 -0.86782796960E+03  0.89145988824E+03  0.00000000000E+00 0.  1.
</event>
<event>
12    1  0.8494789E-002  0.1731568E+03  0.7818608E-02  0.1175000E+00
         21   -1    0    0  501  502  0.00000000000E+00  0.00000000000E+00  0.36937792971E+03  0.36937792971E+03  0.00000000000E+00 0.  1.
         21   -1    0    0  502  503 -0.00000000000E+00 -0.00000000000E+00 -0.16737852978E+03  0.16737852978E+03  0.00000000000E+00 0.  1.
         -6    2    1    2    0  503  0.30805509676E+01  0.59844752862E+01 -0.92652310587E+02  0.19499206409E+03  0.17144139133E+03 0.  0.
        -24    2    3    3    0    0 -0.23686790584E+02 -0.31150307494E+02 -0.11340781089E+03  0.14451074617E+03  0.80564374776E+02 0.  0.
          6    2    1    2  501    0 -0.30805509676E+01 -0.59844752862E+01  0.29465171052E+03  0.34176439540E+03  0.17302591631E+03 0.  0.
         24    2    5    5    0    0  0.15518194853E+01 -0.89009191557E+01  0.46098029813E+02  0.93106021938E+02  0.80386991876E+02 0.  0.
          5    1    5    5  501    0 -0.46323704529E+01  0.29164438695E+01  0.24855368071E+03  0.24865837347E+03  0.47000000000E+01 0. -1.
        -11    1    6    6    0    0  0.12456442075E+00 -0.38240578178E+02  0.50561820909E+02  0.63394440366E+02  0.00000000000E+00 0.  1.
         12    1    6    6    0    0  0.14272550646E+01  0.29339659022E+02 -0.44637910959E+01  0.29711581572E+02  0.00000000000E+00 0. -1.
         -5    1    3    3    0  503  0.26767341552E+02  0.37134782780E+02  0.20755500300E+02  0.50481317916E+02  0.47000000000E+01 0.  1.
         11    1    4    4    0    0 -0.24465511509E+02  0.23751929509E+02 -0.51454179358E+02  0.61727206175E+02  0.00000000000E+00 0. -1.
        -12    1    4    4    0    0  0.77872092491E+00 -0.54902237003E+02 -0.61953631530E+02  0.82783539994E+02  0.00000000000E+00 0.  1.
</event>
<event>
12    1  0.8494789E-002  0.1793917E+03  0.7818608E-02  0.1169230E+00
         21   -1    0    0  503  502  0.00000000000E+00  0.00000000000E+00  0.74183589821E+02  0.74183589821E+02  0.00000000000E+00 0. -1.
         21   -1    0    0  501  503 -0.00000000000E+00 -0.00000000000E+00 -0.46405596135E+03  0.46405596135E+03  0.00000000000E+00 0. -1.
          6    2    1    2  501    0  0.66015396783E+01  0.52408300454E+02 -0.11918690642E+03  0.21537617630E+03  0.17143852652E+03 0.  0.
         24    2    3    3    0    0  0.49937429394E+02 -0.10552592242E+02 -0.10093214758E+03  0.13665261206E+03  0.76691159277E+02 0.  0.
         -6    2    1    2    0  502 -0.66015396783E+01 -0.52408300454E+02 -0.27068546511E+03  0.32286337487E+03  0.16786878068E+03 0.  0.
        -24    2    5    5    0    0 -0.44807271022E+02  0.77253088437E+01 -0.20972699655E+03  0.22898178049E+03  0.79874093289E+02 0.  0.
          5    1    3    3  501    0 -0.43335889716E+02  0.62960892696E+02 -0.18254758840E+02  0.78723564241E+02  0.47000000000E+01 0. -1.
        -11    1    4    4    0    0 -0.20518461206E+02 -0.58470363678E-01 -0.17680032626E+02  0.27084944576E+02  0.00000000000E+00 0.  1.
         12    1    4    4    0    0  0.70455890600E+02 -0.10494121878E+02 -0.83252114954E+02  0.10956766749E+03  0.00000000000E+00 0. -1.
         -5    1    5    5    0  502  0.38205731344E+02 -0.60133609298E+02 -0.60958468560E+02  0.93881594383E+02  0.47000000000E+01 0.  1.
         11    1    6    6    0    0 -0.56255136444E+02 -0.37869616991E+01 -0.20418506965E+03  0.21182663696E+03  0.00000000000E+00 0. -1.
        -12    1    6    6    0    0  0.11447865422E+02  0.11512270543E+02 -0.55419268992E+01  0.17155143530E+02  0.00000000000E+00 0.  1.
</event>
<event>
12    1  0.8494789E-002  0.2027398E+03  0.7818608E-02  0.1148061E+00
         21   -1    0    0  503  502  0.00000000000E+00  0.00000000000E+00  0.10491262533E+04  0.10491262533E+04  0.00000000000E+00 0.  1.
         21   -1    0    0  501  503 -0.00000000000E+00 -0.00000000000E+00 -0.66809128886E+02  0.66809128886E+02  0.00000000000E+00 0.  1.
          6    2    1    2  501    0  0.10484439717E+03 -0.81543912643E+01  0.13075466039E+03  0.24124723369E+03  0.17333379600E+03 0.  0.
         24    2    3    3    0    0 -0.39669826927E+01 -0.30409080582E+02  0.65087486174E+02  0.11213698873E+03  0.86010896124E+02 0.  0.
         -6    2    1    2    0  502 -0.10484439717E+03  0.81543912643E+01  0.85156246406E+03  0.87468814852E+03  0.16988786083E+03 0.  0.
        -24    2    5    5    0    0 -0.12544154844E+03 -0.25212690344E+02  0.54333201186E+03  0.56393791692E+03  0.80280989072E+02 0.  0.
          5    1    3    3  501    0  0.10881137987E+03  0.22254689317E+02  0.65667174214E+02  0.12911024496E+03  0.47000000000E+01 0. -1.
        -11    1    4    4    0    0 -0.19247933247E+02  0.65316403825E+01 -0.13198110877E+02  0.24235003426E+02  0.00000000000E+00 0.  1.
         12    1    4    4    0    0  0.15280950554E+02 -0.36940720964E+02  0.78285597051E+02  0.87901985306E+02  0.00000000000E+00 0. -1.
         -5    1    5    5    0  502  0.20597151263E+02  0.33367081608E+02  0.30823045220E+03  0.31075023160E+03  0.47000000000E+01 0.  1.
         13    1    6    6    0    0  0.97701082696E+00 -0.14704480356E+02  0.16833508142E+02  0.22372824790E+02  0.00000000000E+00 0. -1.
        -14    1    6    6    0    0 -0.12641855926E+03 -0.10508209988E+02  0.52649850371E+03  0.54156509213E+03  0.00000000000E+00 0.  1.
</event>
<event>
12    1  0.8494789E-002  0.2446425E+03  0.7818608E-02  0.1116839E+00
         21   -1    0    0  503  502  0.00000000000E+00  0.00000000000E+00  0.21500475500E+03  0.21500475500E+03  0.00000000000E+00 0.  1.
         21   -1    0    0  501  503 -0.00000000000E+00 -0.00000000000E+00 -0.28774700317E+03  0.28774700317E+03  0.00000000000E+00 0. -1.
          6    2    1    2  501    0 -0.13563684317E+03  0.10817709806E+03 -0.83383972321E+02  0.25787793695E+03  0.17160566935E+03 0.  0.
         24    2    3    3    0    0 -0.16408335115E+03  0.10857679185E+03 -0.60794335707E+02  0.22124809592E+03  0.80885739434E+02 0.  0.
         -6    2    1    2    0  502  0.13563684317E+03 -0.10817709806E+03  0.10641724154E+02  0.24487382123E+03  0.17248276511E+03 0.  0.
        -24    2    5    5    0    0 -0.66060563599E+01 -0.75570596687E+02 -0.19845527492E+02  0.95716894095E+02  0.54893750004E+02 0.  0.
          5    1    3    3  501    0  0.28446507976E+02 -0.39969378927E+00 -0.22589636614E+02  0.36629841025E+02  0.47000000000E+01 0. -1.
        -13    1    4    4    0    0 -0.91257171276E+02  0.29936056146E+02  0.37808957934E+01  0.96116252215E+02  0.00000000000E+00 0.  1.
         14    1    4    4    0    0 -0.72826179871E+02  0.78640735704E+02 -0.64575231500E+02  0.12513184371E+03  0.00000000000E+00 0. -1.
         -5    1    5    5    0  502  0.14224289953E+03 -0.32606501374E+02  0.30487251647E+02  0.14915692713E+03  0.47000000000E+01 0.  1.
         11    1    6    6    0    0  0.11702875612E+02 -0.46375126241E+02 -0.33769227429E+02  0.58548871489E+02  0.00000000000E+00 0. -1.
        -12    1    6    6    0    0 -0.18308931972E+02 -0.29195470445E+02  0.13923699937E+02  0.37168022606E+02  0.00000000000E+00 0.  1.
</event>
<event>
12    1  0.8494789E-002  0.1740761E+03  0.7818608E-02  0.1174111E+00
         21   -1    0    0  503  502  0.00000000000E+00  0.00000000000E+00  0.42641173679E+03  0.42641173679E+03  0.00000000000E+00 0. -1.
         21   -1    0    0  501  503 -0.00000000000E+00 -0.00000000000E+00 -0.23600813557E+03  0.23600813557E+03  0.00000000000E+00 0. -1.
          6    2    1    2  501    0 -0.12829334590E+02 -0.21432139102E+02 -0.18214582823E+03  0.25195156207E+03  0.17227465999E+03 0.  0.
         24    2    3    3    0    0 -0.62264397757E+02 -0.23020537863E+02 -0.57128537331E+02  0.11742364116E+03  0.78216630805E+02 0.  0.
         -6    2    1    2    0  502  0.12829334590E+02  0.21432139102E+02  0.37254942944E+03  0.41046831029E+03  0.17049113749E+03 0.  0.
        -24    2    5    5    0    0 -0.23274708249E+02  0.20684380741E+02  0.36321089244E+03  0.37287363879E+03  0.78377563559E+02 0.  0.
          5    1    3    3  501    0  0.49435063167E+02  0.15883987604E+01 -0.12501729090E+03  0.13452792091E+03  0.47000000000E+01 0. -1.
        -13    1    4    4    0    0 -0.23075821310E+02 -0.24219128756E+02  0.13953502585E+02  0.36245826811E+02  0.00000000000E+00 0.  1.
         14    1    4    4    0    0 -0.39188576447E+02  0.11985908935E+01 -0.71082039916E+02  0.81177814350E+02  0.00000000000E+00 0. -1.
         -5    1    5    5    0  502  0.36104042839E+02  0.74775836088E+00  0.93385370057E+01  0.37594671501E+02  0.47000000000E+01 0.  1.
         11    1    6    6    0    0  0.14979365049E+02  0.36273962287E+02  0.12217039234E+03  0.12831908074E+03  0.00000000000E+00 0. -1.
        -12    1    6    6    0    0 -0.38254073298E+02 -0.15589581546E+02  0.24104050010E+03  0.24455455806E+03  0.00000000000E+00 0.  1.
</event>
<event>
12    1  0.8494789E-002  0.2173757E+03  0.7818608E-02  0.1135986E+00
         21   -1    0    0  503  502  0.00000000000E+00  0.00000000000E+00  0.55210462593E+03  0.55210462593E+03  0.00000000000E+00 0. -1.
         21   -1    0    0  501  503 -0.00000000000E+00 -0.00000000000E+00 -0.24271456472E+03  0.24271456472E+03  0.00000000000E+00 0. -1.
          6    2    1    2  501    0 -0.73734050313E+02 -0.10443779281E+03 -0.16542287526E+03  0.27261279783E+03  0.17495441446E+03 0.  0.
         24    2    3    3    0    0  0.85447057938E+00  0.89217457960E+00 -0.10132628870E+03  0.12843127375E+03  0.78905317933E+02 0.  0.
         -6    2    1    2    0  502  0.73734050313E+02  0.10443779281E+03  0.47481293647E+03  0.52220639283E+03  0.17580736426E+03 0.  0.
        -24    2    5    5    0    0  0.61486262624E+01 -0.11966777843E+02  0.13575225985E+03  0.15737486179E+03  0.78467583691E+02 0.  0.
          5    1    3    3  501    0 -0.74588520892E+02 -0.10532996739E+03 -0.64096586552E+02  0.14418152408E+03  0.47000000000E+01 0. -1.
        -11    1    4    4    0    0  0.13036140312E+02 -0.36564899749E+02 -0.41721174178E+02  0.56987623417E+02  0.00000000000E+00 0.  1.
         12    1    4    4    0    0 -0.12181669733E+02  0.37457074329E+02 -0.59605114525E+02  0.71443650329E+02  0.00000000000E+00 0. -1.
         -5    1    5    5    0  502  0.67585424051E+02  0.11640457065E+03  0.33906067662E+03  0.36483153104E+03  0.47000000000E+01 0.  1.
         11    1    6    6    0    0  0.45926333993E+01 -0.23256590729E+02  0.14227993382E+03  0.14424125922E+03  0.00000000000E+00 0. -1.
        -12    1    6    6    0    0  0.15559928631E+01  0.11289812886E+02 -0.65276739708E+01  0.13133602562E+02  0.00000000000E+00 0.  1.
</event>
<event>
12    1  0.8494789E-002  0.2489569E+03  0.7818608E-02  0.1114684E+00
         21   -1    0    0  501  502  0.00000000000E+00  0.00000000000E+00  0.35122689258E+03  0.35122689258E+03  0.00000000000E+00 0. -1.
         21   -1    0    0  502  503 -0.00000000000E+00 -0.00000000000E+00 -0.19007744423E+03  0.19007744423E+03  0.00000000000E+00 0. -1.
         -6    2    1    2    0  503  0.15931345539E+02 -0.17295435498E+03  0.84683622322E+00  0.24895836643E+03  0.17836068627E+03 0.  0.
        -24    2    3    3    0    0  0.54733159504E+02 -0.18026209342E+03  0.22386101534E+02  0.20373653809E+03  0.74278518690E+02 0.  0.
          6    2    1    2  501    0 -0.15931345539E+02  0.17295435498E+03  0.16030261213E+03  0.29234597039E+03  0.17205296357E+03 0.  0.
         24    2    5    5    0    0 -0.24167520741E+02  0.59840574637E+02  0.74237040346E+01  0.10193427846E+03  0.78552672212E+02 0.  0.
          5    1    5    5  501    0  0.82361752019E+01  0.11311378034E+03  0.15287890809E+03  0.19041169193E+03  0.47000000000E+01 0. -1.
        -13    1    6    6    0    0 -0.35062061887E+02  0.63323123643E+02  0.28631279937E+02  0.77839041377E+02  0.00000000000E+00 0.  1.
         14    1    6    6    0    0  0.10894541146E+02 -0.34825490056E+01 -0.21207575902E+02  0.24095237082E+02  0.00000000000E+00 0. -1.
         -5    1    3    3    0  503 -0.38801813966E+02  0.73077384394E+01 -0.21539265311E+02  0.45221828338E+02  0.47000000000E+01 0.  1.
         11    1    4    4    0    0 -0.98390092016E+01 -0.50064971295E+02  0.28186764017E+02  0.58290660646E+02  0.00000000000E+00 0. -1.
        -12    1    4    4    0    0  0.64572168706E+02 -0.13019712212E+03 -0.58006624828E+01  0.14544587744E+03  0.00000000000E+00 0.  1.
</event>
<event>
12    1  0.8494789E-002  0.2023663E+03  0.7818608E-02  0.1148093E+00
         21   -1    0    0  503  502  0.00000000000E+00  0.00000000000E+00  0.12828704350E+03  0.12828704350E+03  0.00000000000E+00 0. -1.
         21   -1    0    0  501  503 -0.00000000000E+00 -0.00000000000E+00 -0.49117809098E+03  0.49117809098E+03  0.00000000000E+00 0. -1.
          6    2    1    2  501    0 -0.18493772628E+02 -0.10552317282E+03 -0.36558414890E+03  0.41708086713E+03  0.16978669021E+03 0.  0.
         24    2    3    3    0    0  0.84692981735E+01 -0.64518040240E+02 -0.34934998113E+03  0.36517647148E+03  0.84107903773E+02 0.  0.
         -6    2    1    2    0  502  0.18493772628E+02  0.10552317282E+03  0.26931014106E+01  0.20238426736E+03  0.17168278671E+03 0.  0.
        -24    2    5    5    0    0  0.72254042876E+02  0.44345599585E+02  0.21769900558E+02  0.11860553265E+03  0.80038521288E+02 0.  0.
          5    1    3    3  501    0 -0.26963070801E+02 -0.41005132575E+02 -0.16234167765E+02  0.51904395648E+02  0.47000000000E+01 0. -1.
        -11    1    4    4    0    0  0.31404593122E+02 -0.15307117561E+01 -0.18548183017E+03  0.18812788435E+03  0.00000000000E+00 0.  1.
         12    1    4    4    0    0 -0.22935294948E+02 -0.62987328484E+02 -0.16386815096E+03  0.17704858712E+03  0.00000000000E+00 0. -1.
         -5    1    5    5    0  502 -0.53760270248E+02  0.61177573231E+02 -0.19076799147E+02  0.83778734708E+02  0.47000000000E+01 0.  1.
         11    1    6    6    0    0  0.43417223848E+02  0.65539167364E+02  0.25442614038E+02  0.82630287393E+02  0.00000000000E+00 0. -1.
        -12    1    6    6    0    0  0.28836819028E+02 -0.21193567780E+02 -0.36727134804E+01  0.35975245256E+02  0.00000000000E+00 0.  1.
</event>
<event>
12    1  0.8494789E-002  0.2516793E+03  0.7818608E-02  0.1112321E+00
         21   -1    0    0  501  502  0.00000000000E+00  0.00000000000E+00  0.69901303806E+02  0.69901303806E+02  0.00000000000E+00 0.  1.
         21   -1    0    0  502  503 -0.00000000000E+00 -0.00000000000E+00 -0.12060510663E+04  0.12060510663E+04  0.00000000000E+00 0.  1.
         -6    2    1    2    0  503 -0.15340186523E+03  0.10249004458E+03 -0.88669185840E+03  0.92159136724E+03  0.17050470647E+03 0.  0.
        -24    2    3    3    0    0 -0.51067486008E+02  0.58013048916E+02 -0.65465997741E+03  0.66408134392E+03  0.80317764858E+02 0.  0.
          6    2    1    2  501    0  0.15340186523E+03 -0.10249004458E+03 -0.24945790412E+03  0.35436100289E+03  0.17119034128E+03 0.  0.
         24    2    5    5    0    0  0.13029184747E+03 -0.31398943934E+02 -0.92080635841E+02  0.18006897185E+03  0.77357171152E+02 0.  0.
          5    1    5    5  501    0  0.23110017757E+02 -0.71091100648E+02 -0.15737726828E+03  0.17429203104E+03  0.47000000000E+01 0. -1.
        -11    1    6    6    0    0  0.33120021168E+02 -0.42840712358E+02 -0.17056903188E+02  0.56773236510E+02  0.00000000000E+00 0.  1.
         12    1    6    6    0    0  0.97171826305E+02  0.11441768424E+02 -0.75023732653E+02  0.12329573534E+03  0.00000000000E+00 0. -1.
         -5    1    3    3    0  503 -0.10233437922E+03  0.44476995665E+02 -0.23203188098E+03  0.25751002331E+03  0.47000000000E+01 0.  1.
         13    1    4    4    0    0 -0.18291431213E+02 -0.40148709137E+01 -0.38467019605E+03  0.38512576565E+03  0.00000000000E+00 0. -1.
        -14    1    4    4    0    0 -0.32776054795E+02  0.62027919830E+02 -0.26998978137E+03  0.27895557827E+03  0.00000000000E+00 0.  1.
</event>
<event>
12    1  0.8494789E-002  0.2417901E+03  0.7818608E-02  0.1118747E+00
         21   -1    0    0  501  502  0.00000000000E+00  0.00000000000E+00  0.30461102965E+03  0.30461102965E+03  0.00000000000E+00 0. -1.
         21   -1    0    0  502  503 -0.00000000000E+00 -0.00000000000E+00 -0.34218645933E+03  0.34218645933E+03  0.00000000000E+00 0.  1.
         -6    2    1    2    0  503  0.15628142755E+03  0.68464398920E+02 -0.23359144940E+03  0.33619553207E+03  0.17132195433E+03 0.  0.
        -24    2    3    3    0    0  0.17505480127E+03  0.50878684106E+02 -0.23720505151E+03  0.30979770931E+03  0.80470866057E+02 0.  0.
          6    2    1    2  501    0 -0.15628142755E+03 -0.68464398920E+02  0.19601601972E+03  0.31060195691E+03  0.17011771551E+03 0.  0.
         24    2    5    5    0    0 -0.94455031259E+02  0.11622050077E+02  0.51113392407E+02  0.13381054311E+03  0.78967446364E+02 0.  0.
          5    1    5    5  501    0 -0.61826396292E+02 -0.80086448998E+02  0.14490262731E+03  0.17679141380E+03  0.47000000000E+01 0. -1.
        -11    1    6    6    0    0 -0.11549923793E+01  0.26426026582E+02  0.23520274443E+02  0.35395934770E+02  0.00000000000E+00 0.  1.
         12    1    6    6    0    0 -0.93300038880E+02 -0.14803976505E+02  0.27593117964E+02  0.98414608338E+02  0.00000000000E+00 0. -1.
         -5    1    3    3    0  503 -0.18773373723E+02  0.17585714814E+02  0.36136021139E+01  0.26397822764E+02  0.47000000000E+01 0.  1.
         13    1    4    4    0    0  0.22412115316E+02 -0.17070494813E+02 -0.15412853927E+02  0.32113249170E+02  0.00000000000E+00 0. -1.
        -14    1    4    4    0    0  0.15264268596E+03  0.67949178919E+02 -0.22179219758E+03  0.27768446014E+03  0.00000000000E+00 0.  1.
</event>
<event>
12    1  0.8494789E-002  0.3178063E+03  0.7818608E-02  0.1076927E+00
         21   -1    0    0  503  502  0.00000000000E+00  0.00000000000E+00  0.23193497758E+03  0.23193497758E+03  0.00000000000E+00 0. -1.
         21   -1    0    0  501  503 -0.00000000000E+00 -0.00000000000E+00 -0.91128288736E+03  0.91128288736E+03  0.00000000000E+00 0. -1.
          6    2    1    2  501    0  0.15528746173E+03  0.21694217088E+03 -0.75347529135E+03  0.81688105242E+03  0.16849788676E+03 0.  0.
         24    2    3    3    0    0  0.65934377848E+02  0.45148673349E+02 -0.19207445991E+03  0.22300399196E+03  0.80327065133E+02 0.  0.
         -6    2    1    2    0  502 -0.15528746173E+03 -0.21694217088E+03  0.74127381571E+02  0.32633681252E+03  0.17269263225E+03 0.  0.
        -24    2    5    5    0    0 -0.16089943664E+03 -0.11118023992E+03  0.38631265515E+02  0.21453723937E+03  0.79272807062E+02 0.  0.
          5    1    3    3  501    0  0.89353083882E+02  0.17179349753E+03 -0.56140083144E+03  0.59387706046E+03  0.47000000000E+01 0. -1.
        -11    1    4    4    0    0  0.26956346220E+02  0.15994273788E+02 -0.16367617843E+03  0.16665039088E+03  0.00000000000E+00 0.  1.
         12    1    4    4    0    0  0.38978031628E+02  0.29154399560E+02 -0.28398281477E+02  0.56353601075E+02  0.00000000000E+00 0. -1.
         -5    1    5    5    0  502  0.56119749100E+01 -0.10576193096E+03  0.35496116055E+02  0.11179957316E+03  0.47000000000E+01 0.  1.
         11    1    6    6    0    0 -0.91764024166E+02 -0.40884003005E+02  0.55094872409E+02  0.11457566408E+03  0.00000000000E+00 0. -1.
        -12    1    6    6    0    0 -0.69135412475E+02 -0.70296236914E+02 -0.16463606893E+02  0.99961575289E+02  0.00000000000E+00 0.  1.
</event>
<event>
12    1  0.8494789E-002  0.2980087E+03  0.7818608E-02  0.1086703E+00
         21   -1    0    0  503  502  0.00000000000E+00  0.00000000000E+00  0.24298401716E+03  0.24298401716E+03  0.00000000000E+00 0. -1.
         21   -1    0    0  501  503 -0.00000000000E+00 -0.00000000000E+00 -0.38085370047E+03  0.38085370047E+03  0.00000000000E+00 0. -1.
          6    2    1    2  501    0  0.71402902185E+02 -0.22847586366E+03 -0.13968130418E+03  0.32582353588E+03  0.17131992026E+03 0.  0.
         24    2    3    3    0    0  0.79938137524E+02 -0.22086911015E+03 -0.16459930581E+03  0.29800789735E+03  0.80885757458E+02 0.  0.
         -6    2    1    2    0  502 -0.71402902185E+02  0.22847586366E+03  0.18116208775E+01  0.29801418175E+03  0.17750936831E+03 0.  0.
        -24    2    5    5    0    0 -0.99177443608E+02  0.20537999560E+03  0.40615456683E+02  0.24479133003E+03  0.79095335010E+02 0.  0.
          5    1    3    3  501    0 -0.85352353384E+01 -0.76067535029E+01  0.24918001631E+02  0.27815638523E+02  0.47000000000E+01 0. -1.
        -11    1    4    4    0    0  0.71057382448E+01 -0.90462489064E+02 -0.10068444633E+03  0.13554081001E+03  0.00000000000E+00 0.  1.
         12    1    4    4    0    0  0.72832399279E+02 -0.13040662109E+03 -0.63914859482E+02  0.16246708735E+03  0.00000000000E+00 0. -1.
         -5    1    5    5    0  502  0.27774541422E+02  0.23095868056E+02 -0.38803835805E+02  0.53222851724E+02  0.47000000000E+01 0.  1.
         11    1    6    6    0    0 -0.79518785545E+02  0.90502868343E+02 -0.25673943749E+01  0.12050144375E+03  0.00000000000E+00 0. -1.
        -12    1    6    6    0    0 -0.19658658063E+02  0.11487712726E+03  0.43182851057E+02  0.12428988627E+03  0.00000000000E+00 0.  1.
</event>
<event>
12    1  0.8494789E-002  0.1967448E+03  0.7818608E-02  0.1152549E+00
         21   -1    0    0  503  502  0.00000000000E+00  0.00000000000E+00  0.11473339377E+03  0.11473339377E+03  0.00000000000E+00 0.  1.
         21   -1    0    0  501  503 -0.00000000000E+00 -0.00000000000E+00 -0.33816936103E+03  0.33816936103E+03  0.00000000000E+00 0.  1.
          6    2    1    2  501    0  0.66217214005E+02  0.68352975692E+02 -0.12444137378E+03  0.23279637846E+03  0.17219654352E+03 0.  0.
         24    2    3    3    0    0  0.39766983707E+02  0.50835827355E+02  0.79957203688E+01  0.96531419372E+02  0.71335047808E+02 0.  0.
         -6    2    1    2    0  502 -0.66217214005E+02 -0.68352975692E+02 -0.98994593479E+02  0.22010637634E+03  0.17201755332E+03 0.  0.
        -24    2    5    5    0    0  0.12210585601E+02 -0.77582531116E+02 -0.83265668078E+02  0.13944911667E+03  0.79653858181E+02 0.  0.
          5    1    3    3  501    0  0.26450230297E+02  0.17517148337E+02 -0.13243709415E+03  0.13626495908E+03  0.47000000000E+01 0. -1.
        -11    1    4    4    0    0  0.61906486477E+01  0.60074877881E+02  0.11682371932E+02  0.61512542600E+02  0.00000000000E+00 0.  1.
         12    1    4    4    0    0  0.33576335060E+02 -0.92390505261E+01 -0.36866515635E+01  0.35018876773E+02  0.00000000000E+00 0. -1.
         -5    1    5    5    0  502 -0.78427799605E+02  0.92295554246E+01 -0.15728925401E+02  0.80657259676E+02  0.47000000000E+01 0.  1.
         11    1    6    6    0    0 -0.13697167551E+02 -0.13302933390E+02 -0.65045123528E+02  0.67789737649E+02  0.00000000000E+00 0. -1.
        -12    1    6    6    0    0  0.25907753152E+02 -0.64279597727E+02 -0.18220544549E+02  0.71659379016E+02  0.00000000000E+00 0.  1.
</event>
<event>
12    1  0.8494789E-002  0.1983018E+03  0.7818608E-02  0.1151533E+00
         21   -1    0    0  503  502  0.00000000000E+00  0.00000000000E+00  0.63573291711E+02  0.63573291711E+02  0.00000000000E+00 0.  1.
         21   -1    0    0  501  503 -0.00000000000E+00 -0.00000000000E+00 -0.80643238954E+03  0.80643238954E+03  0.00000000000E+00 0. -1.
          6    2    1    2  501    0  0.65118985460E+02 -0.73986216109E+02 -0.58306063108E+03  0.61533104787E+03  0.17017096263E+03 0.  0.
         24    2    3    3    0    0  0.80008027839E+02 -0.15487626100E+02 -0.22933150409E+03  0.25645759679E+03  0.80848061823E+02 0.  0.
         -6    2    1    2    0  502 -0.65118985460E+02  0.73986216109E+02 -0.15979846675E+03  0.25467463338E+03  0.17207317184E+03 0.  0.
        -24    2    5    5    0    0  0.21873484719E+02  0.46970970941E+02 -0.12577606941E+03  0.15732409737E+03  0.79034995623E+02 0.  0.
          5    1    3    3  501    0 -0.14889042379E+02 -0.58498590009E+02 -0.35372912699E+03  0.35887345109E+03  0.47000000000E+01 0. -1.
        -11    1    4    4    0    0 -0.41208960584E+01 -0.20609864738E+02 -0.99294654625E+02  0.10149471290E+03  0.00000000000E+00 0.  1.
         12    1    4    4    0    0  0.84128923897E+02  0.51222386385E+01 -0.13003684946E+03  0.15496288389E+03  0.00000000000E+00 0. -1.
         -5    1    5    5    0  502 -0.86992470180E+02  0.27015245168E+02 -0.34022397341E+02  0.97350536004E+02  0.47000000000E+01 0.  1.
         13    1    6    6    0    0  0.20082367891E+02  0.69042282588E+02 -0.89265828397E+02  0.11462341124E+03  0.00000000000E+00 0. -1.
        -14    1    6    6    0    0  0.17911168282E+01 -0.22071311647E+02 -0.36510241015E+02  0.42700686134E+02  0.00000000000E+00 0.  1.
</event>
<event>
12    1  0.8494789E-002  0.2135344E+03  0.7818608E-02  0.1139418E+00
         21   -1    0    0  503  502  0.00000000000E+00  0.00000000000E+00  0.15994459621E+04  0.15994459621E+04  0.00000000000E+00 0.  1.
         21   -1    0    0  501  503 -0.00000000000E+00 -0.00000000000E+00 -0.73326372212E+02  0.73326372212E+02  0.00000000000E+00 0.  1.
          6    2    1    2  501    0 -0.91602991926E+01 -0.12234873350E+03  0.10391230005E+03  0.23462404263E+03  0.17087291069E+03 0.  0.
         24    2    3    3    0    0 -0.45354745571E+02 -0.13995260337E+03  0.63032085722E+02  0.17706349967E+03  0.75727504565E+02 0.  0.
         -6    2    1    2    0  502  0.91602991926E+01  0.12234873350E+03  0.14222072898E+04  0.14381482917E+04  0.17476787442E+03 0.  0.
        -24    2    5    5    0    0 -0.24044765370E+02  0.10103327768E+03  0.57029728104E+03  0.58531203656E+03  0.81026646442E+02 0.  0.
          5    1    3    3  501    0  0.36194446378E+02  0.17603869870E+02  0.40880214331E+02  0.57560542968E+02  0.47000000000E+01 0. -1.
        -13    1    4    4    0    0  0.15666879566E+02 -0.13341011413E+02 -0.46046101353E+01  0.21086396927E+02  0.00000000000E+00 0.  1.
         14    1    4    4    0    0 -0.61021625137E+02 -0.12661159196E+03  0.67636695857E+02  0.15597710274E+03  0.00000000000E+00 0. -1.
         -5    1    5    5    0  502  0.33205064563E+02  0.21315455820E+02  0.85191000877E+03  0.85283625510E+03  0.47000000000E+01 0.  1.
         13    1    6    6    0    0  0.15441161180E+02  0.63089713313E+01  0.22633478235E+02  0.28115954810E+02  0.00000000000E+00 0. -1.
        -14    1    6    6    0    0 -0.39485926551E+02  0.94724306349E+02  0.54766380281E+03  0.55719608175E+03  0.00000000000E+00 0.  1.
</event>
<event>
12    1  0.8494789E-002  0.1967928E+03  0.7818608E-02  0.1152531E+00
         21   -1    0    0  501  502  0.00000000000E+00  0.00000000000E+00  0.98160172762E+02  0.98160172762E+02  0.00000000000E+00 0.  1.
         21   -1    0    0  502  503 -0.00000000000E+00 -0.00000000000E+00 -0.39611639214E+03  0.39611639214E+03  0.00000000000E+00 0.  1.
         -6    2    1    2    0  503 -0.93643424395E+02  0.15925366222E+02 -0.16714499231E+03  0.25819535160E+03  0.17235046536E+03 0.  0.
        -24    2    3    3    0    0 -0.44353282014E+02 -0.80717792457E+01 -0.17722201426E+03  0.20225773011E+03  0.86418631121E+02 0.  0.
          6    2    1    2  501    0  0.93643424395E+02 -0.15925366222E+02 -0.13081122708E+03  0.23608121331E+03  0.17204666206E+03 0.  0.
         24    2    5    5    0    0  0.20997405645E+02  0.34503329970E+02 -0.17373565096E+02  0.92169120019E+02  0.81005772005E+02 0.  0.
          5    1    5    5  501    0  0.72646018750E+02 -0.50428696192E+02 -0.11343766198E+03  0.14391209329E+03  0.47000000000E+01 0. -1.
        -11    1    6    6    0    0  0.42354419975E+02  0.30853864924E+02 -0.36017289060E+02  0.63585399137E+02  0.00000000000E+00 0.  1.
         12    1    6    6    0    0 -0.21357014330E+02  0.36494650456E+01  0.18643723964E+02  0.28583720882E+02  0.00000000000E+00 0. -1.
         -5    1    3    3    0  503 -0.49290142381E+02  0.23997145468E+02  0.10077021950E+02  0.55937621489E+02  0.47000000000E+01 0.  1.
         11    1    4    4    0    0 -0.11013850873E+02  0.33501671735E+02 -0.32200653706E+02  0.47755094170E+02  0.00000000000E+00 0. -1.
        -12    1    4    4    0    0 -0.33339431142E+02 -0.41573450981E+02 -0.14502136055E+03  0.15450263594E+03  0.00000000000E+00 0.  1.
</event>
<event>
12    1  0.8494789E-002  0.1995742E+03  0.7818608E-02  0.1150361E+00
         21   -1    0    0  503  502  0.00000000000E+00  0.00000000000E+00  0.63674090304E+03  0.63674090304E+03  0.00000000000E+00 0. -1.
         21   -1    0    0  501  503 -0.00000000000E+00 -0.00000000000E+00 -0.62404973040E+02  0.62404973040E+02  0.00000000000E+00 0.  1.
          6    2    1    2  501    0 -0.14812925737E+02 -0.10069830906E+03  0.30792561431E+03  0.36627304512E+03  0.17022980766E+03 0.  0.
         24    2    3    3    0    0  0.41212919927E+02 -0.10253746467E+02  0.13302780873E+03  0.16150379283E+03  0.81138357871E+02 0.  0.
         -6    2    1    2    0  502  0.14812925737E+02  0.10069830906E+03  0.26641031569E+03  0.33287283097E+03  0.17166913838E+03 0.  0.
        -24    2    5    5    0    0  0.40807209314E+02  0.65730863552E+02  0.26728966884E+03  0.28904032835E+03  0.78196992195E+02 0.  0.
          5    1    3    3  501    0 -0.56025845664E+02 -0.90444562590E+02  0.17489780558E+03  0.20476925229E+03  0.47000000000E+01 0. -1.
        -11    1    4    4    0    0 -0.21830269613E+02 -0.16591835573E+02  0.30841940815E+02  0.41268329168E+02  0.00000000000E+00 0.  1.
         12    1    4    4    0    0  0.63043189540E+02  0.63380891058E+01  0.10218586791E+03  0.12023546366E+03  0.00000000000E+00 0. -1.
         -5    1    5    5    0  502 -0.25994283577E+02  0.34967445505E+02 -0.87935314620E+00  0.43832502618E+02  0.47000000000E+01 0.  1.
         11    1    6    6    0    0 -0.93390846521E+01 -0.12130197619E+02  0.21596879147E+02  0.26472351337E+02  0.00000000000E+00 0. -1.
        -12    1    6    6    0    0  0.50146293966E+02  0.77861061171E+02  0.24569278969E+03  0.26256797701E+03  0.00000000000E+00 0.  1.
</event>
<event>
12    1  0.8494789E-002  0.1825652E+03  0.7818608E-02  0.1166251E+00
         21   -1    0    0  501  502  0.00000000000E+00  0.00000000000E+00  0.18475674229E+03  0.18475674229E+03  0.00000000000E+00 0.  1.
         21   -1    0    0  502  503 -0.00000000000E+00 -0.00000000000E+00 -0.28586282441E+03  0.28586282441E+03  0.00000000000E+00 0.  1.
         -6    2    1    2    0  503  0.60031852431E+02 -0.18082884147E+02 -0.19564389332E+03  0.26502903872E+03  0.16743071512E+03 0.  0.
        -24    2    3    3    0    0  0.32380499144E+02  0.13674100709E+01 -0.23380411515E+02  0.89416657471E+02  0.79989552165E+02 0.  0.
          6    2    1    2  501    0 -0.60031852431E+02  0.18082884147E+02  0.94537811204E+02  0.20559052799E+03  0.17146210498E+03 0.  0.
         24    2    5    5    0    0  0.18009489067E+02  0.50318450392E+02  0.62776595618E+02  0.11525533258E+03  0.80539447377E+02 0.  0.
          5    1    5    5  501    0 -0.78041341498E+02 -0.32235566245E+02  0.31761215586E+02  0.90335195409E+02  0.47000000000E+01 0. -1.
        -13    1    6    6    0    0 -0.70438559436E+01  0.36370428623E+02  0.75335300310E+02  0.83951363643E+02  0.00000000000E+00 0.  1.
         14    1    6    6    0    0  0.25053345011E+02  0.13948021770E+02 -0.12558704692E+02  0.31303968934E+02  0.00000000000E+00 0. -1.
         -5    1    3    3    0  503  0.27651353287E+02 -0.19450294218E+02 -0.17226348181E+03  0.17561238125E+03  0.47000000000E+01 0.  1.
         13    1    4    4    0    0  0.26979588973E+02 -0.28883855355E+02  0.13173661111E+02  0.41661981091E+02  0.00000000000E+00 0. -1.
        -14    1    4    4    0    0  0.54009101705E+01  0.30251265426E+02 -0.36554072626E+02  0.47754676379E+02  0.00000000000E+00 0.  1.
</event>
<event>
12    1  0.8494789E-002  0.2126412E+03  0.7818608E-02  0.1139569E+00
         21   -1    0    0  501  502  0.00000000000E+00  0.00000000000E+00  0.16610330480E+03  0.16610330480E+03  0.00000000000E+00 0.  1.
         21   -1    0    0  502  503 -0.00000000000E+00 -0.00000000000E+00 -0.37070354569E+03  0.37070354569E+03  0.00000000000E+00 0. -1.
         -6    2    1    2    0  503  0.12404322161E+03 -0.10105689962E+02 -0.24093236967E+03  0.32108409523E+03  0.17192365648E+03 0.  0.
        -24    2    3    3    0    0  0.31837854593E+02  0.11577872989E+02 -0.31025398859E+02  0.90747313530E+02  0.78261123238E+02 0.  0.
          6    2    1    2  501    0 -0.12404322161E+03  0.10105689962E+02  0.36332128774E+02  0.21572275527E+03  0.17241646604E+03 0.  0.
         24    2    5    5    0    0 -0.24980169828E+02 -0.11118134211E+02  0.68616323488E+02  0.10928827698E+03  0.80548779274E+02 0.  0.
          5    1    5    5  501    0 -0.99063051784E+02  0.21223824173E+02 -0.32284194714E+02  0.10643447829E+03  0.47000000000E+01 0. -1.
        -11    1    6    6    0    0 -0.45153377965E+02  0.13083179647E+02  0.19411247059E+02  0.50860531296E+02  0.00000000000E+00 0.  1.
         12    1    6    6    0    0  0.20173208137E+02 -0.24201313858E+02  0.49205076429E+02  0.58427745681E+02  0.00000000000E+00 0. -1.
         -5    1    3    3    0  503  0.92205367018E+02 -0.21683562951E+02 -0.20990697081E+03  0.23033678170E+03  0.47000000000E+01 0.  1.
         13    1    4    4    0    0  0.15550771050E+02  0.91290695099E+01 -0.57114952930E+02  0.59893941584E+02  0.00000000000E+00 0. -1.
        -14    1    4    4    0    0  0.16287083543E+02  0.24488034794E+01  0.26089554070E+02  0.30853371945E+02  0.00000000000E+00 0.  1.
</event>
<event>
12    1  0.8494789E-002  0.1881705E+03  0.7818608E-02  0.1160581E+00
         21   -1    0    0  501  502  0.00000000000E+00  0.00000000000E+00  0.64267491832E+03  0.64267491832E+03  0.00000000000E+00 0. -1.
         21   -1    0    0  502  503 -0.00000000000E+00 -0.00000000000E+00 -0.63482195579E+02  0.63482195579E+02  0.00000000000E+00 0. -1.
         -6    2    1    2    0  503  0.40684702193E+00  0.70755531144E+02  0.15819661274E+03  0.24583391745E+03  0.17436064915E+03 0.  0.
        -24    2    3    3    0    0  0.55492192319E+02  0.70744428373E+02  0.14640930487E+03  0.18930581809E+03  0.79478617608E+02 0.  0.
          6    2    1    2  501    0 -0.40684702193E+00 -0.70755531144E+02  0.42099611000E+03  0.46032319645E+03  0.17220107388E+03 0.  0.
         24    2    5    5    0    0 -0.39997203539E+02 -0.37464229745E+02  0.38499708955E+03  0.39712725868E+03  0.80523014236E+02 0.  0.
          5    1    5    5  501    0  0.39590356517E+02 -0.33291301399E+02  0.35999020452E+02  0.63195937776E+02  0.47000000000E+01 0. -1.
        -11    1    6    6    0    0  0.21403627985E+02 -0.22374879276E+02  0.17854838713E+03  0.18121334680E+03  0.00000000000E+00 0.  1.
         12    1    6    6    0    0 -0.61400831524E+02 -0.15089350469E+02  0.20644870242E+03  0.21591391188E+03  0.00000000000E+00 0. -1.
         -5    1    3    3    0  503 -0.55085345297E+02  0.11102771604E-01  0.11787307871E+02  0.56528099355E+02  0.47000000000E+01 0.  1.
         13    1    4    4    0    0  0.61590616271E+02  0.68809575293E+02  0.78811731322E+02  0.12140613930E+03  0.00000000000E+00 0. -1.
        -14    1    4    4    0    0 -0.60984239515E+01  0.19348530795E+01  0.67597573548E+02  0.67899678797E+02  0.00000000000E+00 0.  1.
</event>
<event>
12    1  0.8494789E-002  0.3163434E+03  0.7818608E-02  0.1077388E+00
         21   -1    0    0  501  502  0.00000000000E+00  0.00000000000E+00  0.38675566329E+03  0.38675566329E+03  0.00000000000E+00 0.  1.
         21   -1    0    0  502  503 -0.00000000000E+00 -0.00000000000E+00 -0.25846477276E+03  0.25846477276E+03  0.00000000000E+00 0.  1.
         -6    2    1    2    0  503 -0.24110481386E+03  0.11090029410E+03  0.66840695297E+02  0.32332777796E+03  0.17217074943E+03 0.  0.
        -24    2    3    3    0    0 -0.17593871179E+03  0.11510769784E+03 -0.64707159659E+01  0.22503751331E+03  0.79973744567E+02 0.  0.
          6    2    1    2  501    0  0.24110481386E+03 -0.11090029410E+03  0.61450195238E+02  0.32189265809E+03  0.17148863036E+03 0.  0.
         24    2    5    5    0    0  0.22261620129E+03 -0.40207774883E+02  0.28919781277E+02  0.24177038341E+03  0.80261611669E+02 0.  0.
          5    1    5    5  501    0  0.18488612568E+02 -0.70692519213E+02  0.32530413960E+02  0.80122274679E+02  0.47000000000E+01 0. -1.
        -11    1    6    6    0    0  0.57292060527E+02 -0.24389353891E+02  0.42107822300E+02  0.75168407469E+02  0.00000000000E+00 0.  1.
         12    1    6    6    0    0  0.16532414076E+03 -0.15818420993E+02 -0.13188041022E+02  0.16660197594E+03  0.00000000000E+00 0. -1.
         -5    1    3    3    0  503 -0.65166102064E+02 -0.42074037469E+01  0.73311411263E+02  0.98290264655E+02  0.47000000000E+01 0.  1.
         13    1    4    4    0    0 -0.17090587046E+02 -0.76497977962E+01 -0.15165155656E+02  0.24095425249E+02  0.00000000000E+00 0. -1.
        -14    1    4    4    0    0 -0.15884812475E+03  0.12275749564E+03  0.86944396897E+01  0.20094208806E+03  0.00000000000E+00 0.  1.
</event>
<event>
12    1  0.8494789E-002  0.2726459E+03  0.7818608E-02  0.1099822E+00
         21   -1    0    0  503  502  0.00000000000E+00  0.00000000000E+00  0.50678977052E+03  0.50678977052E+03  0.00000000000E+00 0. -1.
         21   -1    0    0  501  503 -0.00000000000E+00 -0.00000000000E+00 -0.15721930041E+03  0.15721930041E+03  0.00000000000E+00 0.  1.
          6    2    1    2  501    0 -0.21007458801E+03  0.25151786922E+02  0.26157477541E+03  0.37783215089E+03  0.17196460741E+03 0.  0.
         24    2    3    3    0    0 -0.19872768954E+03  0.69221527130E+02  0.23206663977E+03  0.32339214560E+03  0.80269795898E+02 0.  0.
         -6    2    1    2    0  502  0.21007458801E+03 -0.25151786922E+02  0.87995694698E+02  0.28617692005E+03  0.17143524250E+03 0.  0.
        -24    2    5    5    0    0  0.14939893737E+03 -0.86230098953E+02  0.57165786568E+02  0.19460908718E+03  0.69635459399E+02 0.  0.
          5    1    3    3  501    0 -0.11346898467E+02 -0.44069740207E+02  0.29508135637E+02  0.54440005286E+02  0.47000000000E+01 0. -1.
        -13    1    4    4    0    0 -0.90995350629E+02  0.45292765412E+02  0.16636041412E+03  0.19495480456E+03  0.00000000000E+00 0.  1.
         14    1    4    4    0    0 -0.10773233891E+03  0.23928761717E+02  0.65706225654E+02  0.12843734105E+03  0.00000000000E+00 0. -1.
         -5    1    5    5    0  502  0.60675650643E+02  0.61078312030E+02  0.30829908130E+02  0.91567832872E+02  0.47000000000E+01 0.  1.
         13    1    6    6    0    0  0.55279033761E+02 -0.22763068813E+02  0.54749081432E+02  0.81064115322E+02  0.00000000000E+00 0. -1.
        -14    1    6    6    0    0  0.94119903606E+02 -0.63467030140E+02  0.24167051359E+01  0.11354497185E+03  0.00000000000E+00 0.  1.
</event>
<event>
12    1  0.8494789E-002  0.2116715E+03  0.7818608E-02  0.1140323E+00
         21   -1    0    0  501  502  0.00000000000E+00  0.00000000000E+00  0.19875429505E+03  0.19875429505E+03  0.00000000000E+00 0. -1.
         21   -1    0    0  502  503 -0.00000000000E+00 -0.00000000000E+00 -0.27601848828E+03  0.27601848828E+03  0.00000000000E+00 0.  1.
         -6    2    1    2    0  503  0.24533883741E+02 -0.12047972631E+03 -0.14068963146E+03  0.25416213061E+03  0.17230072644E+03 0.  0.
        -24    2    3    3    0    0 -0.43309248051E+02 -0.69301423046E+02 -0.40235632972E+02  0.12249966417E+03  0.81907773492E+02 0.  0.
          6    2    1    2  501    0 -0.24533883741E+02  0.12047972631E+03  0.63425438237E+02  0.22061065272E+03  0.17184003600E+03 0.  0.
         24    2    5    5    0    0 -0.74414188717E+02  0.40104376419E+02  0.32969766586E+02  0.12112256484E+03  0.80236137205E+02 0.  0.
          5    1    5    5  501    0  0.49880304977E+02  0.80375349888E+02  0.30455671651E+02  0.99488087880E+02  0.47000000000E+01 0. -1.
        -13    1    6    6    0    0  0.60323029962E+01 -0.16894429578E+02  0.43250937432E+01  0.18453099092E+02  0.00000000000E+00 0.  1.
         14    1    6    6    0    0 -0.80446491713E+02  0.56998805998E+02  0.28644672843E+02  0.10266946575E+03  0.00000000000E+00 0. -1.
         -5    1    3    3    0  503  0.67843131792E+02 -0.51178303261E+02 -0.10045399849E+03  0.13166246644E+03  0.47000000000E+01 0.  1.
         13    1    4    4    0    0 -0.27872710485E+02 -0.23072172154E+02 -0.59870442078E+02  0.69954863679E+02  0.00000000000E+00 0. -1.
        -14    1    4    4    0    0 -0.15436537566E+02 -0.46229250893E+02  0.19634809106E+02  0.52544800492E+02  0.00000000000E+00 0.  1.
</event>
<event>
12    1  0.8494789E-002  0.2173748E+03  0.7818608E-02  0.1135921E+00
         21   -1    0    0  503  502  0.00000000000E+00  0.00000000000E+00  0.39339921465E+02  0.39339921465E+02  0.00000000000E+00 0. -1.
         21   -1    0    0  501  503 -0.00000000000E+00 -0.00000000000E+00 -0.12071409503E+04  0.12071409503E+04  0.00000000000E+00 0.  1.
          6    2    1    2  501    0 -0.34524389218E+02  0.12803945142E+03 -0.63488986106E+03  0.67107147197E+03  0.17223748213E+03 0.  0.
         24    2    3    3    0    0  0.48080838217E+02  0.63782000011E+02 -0.32426068727E+03  0.34325259321E+03  0.79356404354E+02 0.  0.
         -6    2    1    2    0  502  0.34524389218E+02 -0.12803945142E+03 -0.53291116775E+03  0.57540939977E+03  0.17180113519E+03 0.  0.
        -24    2    5    5    0    0 -0.38596029867E+02 -0.77459938316E+02 -0.21693186946E+03  0.24712615349E+03  0.80760164615E+02 0.  0.
          5    1    3    3  501    0 -0.82605227435E+02  0.64257451409E+02 -0.31062917379E+03  0.32781887876E+03  0.47000000000E+01 0. -1.
        -11    1    4    4    0    0  0.40675572299E+02 -0.62674431078E+01 -0.98316522727E+02  0.10658293328E+03  0.00000000000E+00 0.  1.
         12    1    4    4    0    0  0.74052659183E+01  0.70049443118E+02 -0.22594416454E+03  0.23666965994E+03  0.00000000000E+00 0. -1.
         -5    1    5    5    0  502  0.73120419085E+02 -0.50579513103E+02 -0.31597929830E+03  0.32828324627E+03  0.47000000000E+01 0.  1.
         11    1    6    6    0    0 -0.10705453682E+02  0.53338052371E+01  0.13243347415E+01  0.12033705969E+02  0.00000000000E+00 0. -1.
        -12    1    6    6    0    0 -0.27890576185E+02 -0.82793743553E+02 -0.21825620420E+03  0.23509244752E+03  0.00000000000E+00 0.  1.
</event>
<event>
12    1  0.8494789E-002  0.1821160E+03  0.7818608E-02  0.1168335E+00
         21   -1    0    0  501  502  0.00000000000E+00  0.00000000000E+00  0.33115524466E+03  0.33115524466E+03  0.00000000000E+00 0.  1.
         21   -1    0    0  502  503 -0.00000000000E+00 -0.00000000000E+00 -0.96795542683E+02  0.96795542683E+02  0.00000000000E+00 0.  1.
         -6    2    1    2    0  503  0.85750303728E+01  0.57710869468E+02  0.80880045194E+02  0.18978649514E+03  0.16147215372E+03 0.  0.
        -24    2    3    3    0    0 -0.49014544945E+01  0.15818518299E+02 -0.15665435324E+02  0.83580541733E+02  0.80411761050E+02 0.  0.
          6    2    1    2  501    0 -0.85750303728E+01 -0.57710869468E+02  0.15347965678E+03  0.23816429220E+03  0.17251709896E+03 0.  0.
         24    2    5    5    0    0  0.94750512865E+01 -0.95201060969E+02  0.15178356209E+03  0.19625621847E+03  0.79531345769E+02 0.  0.
          5    1    5    5  501    0 -0.18050081659E+02  0.37490191501E+02  0.16960946879E+01  0.41908073731E+02  0.47000000000E+01 0. -1.
        -11    1    6    6    0    0  0.36017228782E+02 -0.46854781194E+02  0.39281465931E+02  0.70962277694E+02  0.00000000000E+00 0.  1.
         12    1    6    6    0    0 -0.26542177495E+02 -0.48346279775E+02  0.11250209616E+03  0.12529394077E+03  0.00000000000E+00 0. -1.
         -5    1    3    3    0  503  0.13476484867E+02  0.41892351168E+02  0.96545480517E+02  0.10620595341E+03  0.47000000000E+01 0.  1.
         13    1    4    4    0    0  0.32949193444E+02  0.23721505548E+02 -0.18890126662E+02  0.44779415576E+02  0.00000000000E+00 0. -1.
        -14    1    4    4    0    0 -0.37850647939E+02 -0.79029872482E+01  0.32246913379E+01  0.38801126157E+02  0.00000000000E+00 0.  1.
</event>
<event>
12    1  0.8494789E-002  0.1826120E+03  0.7818608E-02  0.1165493E+00
         21   -1    0    0  501  502  0.00000000000E+00  0.00000000000E+00  0.77717943131E+02  0.77717943131E+02  0.00000000000E+00 0. -1.
         21   -1    0    0  502  503 -0.00000000000E+00 -0.00000000000E+00 -0.73688887097E+03  0.73688887097E+03  0.00000000000E+00 0. -1.
         -6    2    1    2    0  503 -0.53056972450E+02 -0.30983457961E+02 -0.59321964964E+03  0.62045039064E+03  0.17109680747E+03 0.  0.
        -24    2    3    3    0    0  0.27590621418E+02 -0.51049480280E+02 -0.31324476198E+03  0.32836357586E+03  0.79580558010E+02 0.  0.
          6    2    1    2  501    0  0.53056972450E+02  0.30983457961E+02 -0.65951278197E+02  0.19415642346E+03  0.17196548690E+03 0.  0.
         24    2    5    5    0    0  0.59459883236E+02 -0.30278022790E+01 -0.10439872523E+03  0.14221357725E+03  0.76032640499E+02 0.  0.
          5    1    5    5  501    0 -0.64029107861E+01  0.34011260240E+02  0.38447447037E+02  0.51942846219E+02  0.47000000000E+01 0. -1.
        -11    1    6    6    0    0 -0.83122992385E+01  0.29812150691E+01 -0.60726736874E+02  0.61365450648E+02  0.00000000000E+00 0.  1.
         12    1    6    6    0    0  0.67772182475E+02 -0.60090173481E+01 -0.43671988360E+02  0.80848126597E+02  0.00000000000E+00 0. -1.
         -5    1    3    3    0  503 -0.80647593868E+02  0.20066022319E+02 -0.27997488766E+03  0.29208681478E+03  0.47000000000E+01 0.  1.
         11    1    4    4    0    0  0.87940744513E+00 -0.40726601882E+01 -0.22395790431E+03  0.22399665806E+03  0.00000000000E+00 0. -1.
        -12    1    4    4    0    0  0.26711213973E+02 -0.46976820092E+02 -0.89286857674E+02  0.10436691780E+03  0.00000000000E+00 0.  1.
</event>
<event>
12    1  0.8494789E-002  0.3389802E+03  0.7818608E-02  0.1067280E+00
         21   -1    0    0  503  502  0.00000000000E+00  0.00000000000E+00  0.16458383721E+03  0.16458383721E+03  0.00000000000E+00 0. -1.
         21   -1    0    0  501  503 -0.00000000000E+00 -0.00000000000E+00 -0.83147387690E+03  0.83147387690E+03  0.00000000000E+00 0. -1.
          6    2    1    2  501    0 -0.80550431922E+02 -0.27990873360E+03 -0.53374507407E+03  0.63229059814E+03  0.17340797324E+03 0.  0.
         24    2    3    3    0    0  0.23286898578E+01 -0.58209598877E+02 -0.20770726185E+03  0.22937348489E+03  0.77949398611E+02 0.  0.
         -6    2    1    2    0  502  0.80550431922E+02  0.27990873360E+03 -0.13314496563E+03  0.36376711597E+03  0.17251568497E+03 0.  0.
        -24    2    5    5    0    0  0.73669395357E+02  0.27589713982E+03 -0.75700863539E+02  0.30558330023E+03  0.78128874751E+02 0.  0.
          5    1    3    3  501    0 -0.82879121780E+02 -0.22169913472E+03 -0.32603781221E+03  0.40291711326E+03  0.47000000000E+01 0. -1.
        -13    1    4    4    0    0 -0.36966355999E+02 -0.35622952755E+02 -0.12345900899E+03  0.13370726659E+03  0.00000000000E+00 0.  1.
         14    1    4    4    0    0  0.39295045857E+02 -0.22586646123E+02 -0.84248252864E+02  0.95666218294E+02  0.00000000000E+00 0. -1.
         -5    1    5    5    0  502  0.68810365652E+01  0.40115937821E+01 -0.57444102087E+02  0.58183815734E+02  0.47000000000E+01 0.  1.
         11    1    6    6    0    0 -0.84260707466E+01  0.65970504270E+02  0.36742358733E+01  0.66607853224E+02  0.00000000000E+00 0. -1.
        -12    1    6    6    0    0  0.82095466103E+02  0.20992663555E+03 -0.79375099412E+02  0.23897544701E+03  0.00000000000E+00 0.  1.
</event>
<event>
12    1  0.8494789E-002  0.1894963E+03  0.7818608E-02  0.1161322E+00
         21   -1    0    0  503  502  0.00000000000E+00  0.00000000000E+00  0.23791929096E+03  0.23791929096E+03  0.00000000000E+00 0.  1.
         21   -1    0    0  501  503 -0.00000000000E+00 -0.00000000000E+00 -0.14511383079E+03  0.14511383079E+03  0.00000000000E+00 0.  1.
          6    2    1    2  501    0  0.79632205547E+02  0.48170429101E+01  0.21074646690E+02  0.18041489367E+03  0.16043971161E+03 0.  0.
         24    2    3    3    0    0  0.99128433469E+02  0.11449247881E+01 -0.23640327096E+02  0.13127116329E+03  0.82737513083E+02 0.  0.
         -6    2    1    2    0  502 -0.79632205547E+02 -0.48170429101E+01  0.71730813475E+02  0.20261822808E+03  0.17188468427E+03 0.  0.
        -24    2    5    5    0    0  0.83251261065E+01  0.35662533773E+02  0.66301738377E+02  0.10552727497E+03  0.73477623878E+02 0.  0.
          5    1    3    3  501    0 -0.19496227922E+02  0.36721181221E+01  0.44714973786E+02  0.49143730377E+02  0.47000000000E+01 0. -1.
        -11    1    4    4    0    0  0.29541158122E+02 -0.21418530215E+02 -0.42211797377E+02  0.55796678195E+02  0.00000000000E+00 0.  1.
         12    1    4    4    0    0  0.69587275347E+02  0.22563455003E+02  0.18571470281E+02  0.75474485095E+02  0.00000000000E+00 0. -1.
         -5    1    5    5    0  502 -0.87957331654E+02 -0.40479576683E+02  0.54290750974E+01  0.97090953113E+02  0.47000000000E+01 0.  1.
         11    1    6    6    0    0  0.40310491926E+02  0.22353609307E+02  0.28224700309E+02  0.54048619926E+02  0.00000000000E+00 0. -1.
        -12    1    6    6    0    0 -0.31985365819E+02  0.13308924466E+02  0.38077038068E+02  0.51478655043E+02  0.00000000000E+00 0.  1.
</event>
<event>
12    1  0.8494789E-002  0.2496118E+03  0.7818608E-02  0.1113588E+00
         21   -1    0    0  501  502  0.00000000000E+00  0.00000000000E+00  0.30568763540E+03  0.30568763540E+03  0.00000000000E+00 0. -1.
         21   -1    0    0  502  503 -0.00000000000E+00 -0.00000000000E+00 -0.20746842088E+03  0.20746842088E+03  0.00000000000E+00 0. -1.
         -6    2    1    2    0  503 -0.17989665816E+03  0.12920215241E+02  0.83985898815E+02  0.26313875921E+03  0.17221682791E+03 0.  0.
        -24    2    3    3    0    0 -0.95187761795E+02  0.46345369298E+02  0.10434174995E+03  0.16970809656E+03  0.81884272021E+02 0.  0.
          6    2    1    2  501    0  0.17989665816E+03 -0.12920215241E+02  0.14233315706E+02  0.25001729708E+03  0.17255816985E+03 0.  0.
         24    2    5    5    0    0  0.58240565916E+02  0.22743728372E+02 -0.42648846805E+02  0.11098567454E+03  0.81176690746E+02 0.  0.
          5    1    5    5  501    0  0.12165609225E+03 -0.35663943612E+02  0.56882162511E+02  0.13903162254E+03  0.47000000000E+01 0. -1.
        -11    1    6    6    0    0  0.33884155370E+01 -0.26355274363E+02 -0.14207258779E+01  0.26610154238E+02  0.00000000000E+00 0.  1.
         12    1    6    6    0    0  0.54852150379E+02  0.49099002734E+02 -0.41228120927E+02  0.84375520300E+02  0.00000000000E+00 0. -1.
         -5    1    3    3    0  503 -0.84708896368E+02 -0.33425154058E+02 -0.20355851131E+02  0.93430662648E+02  0.47000000000E+01 0.  1.
         11    1    4    4    0    0 -0.70219887612E+02  0.35958727406E+02  0.20354887706E+02  0.81475052294E+02  0.00000000000E+00 0. -1.
        -12    1    4    4    0    0 -0.24967874184E+02  0.10386641892E+02  0.83986862240E+02  0.88233044263E+02  0.00000000000E+00 0.  1.
</event>
<event>
12    1  0.8494789E-002  0.1826370E+03  0.7818608E-02  0.1165898E+00
         21   -1    0    0  503  502  0.00000000000E+00  0.00000000000E+00  0.21472158964E+03  0.21472158964E+03  0.00000000000E+00 0.  1.
         21   -1    0    0  501  503 -0.00000000000E+00 -0.00000000000E+00 -0.42992916165E+03  0.42992916165E+03  0.00000000000E+00 0.  1.
          6    2    1    2  501    0 -0.49925727906E+02 -0.31319792655E+02 -0.36595107864E+03  0.40783884256E+03  0.17011414353E+03 0.  0.
         24    2    3    3    0    0 -0.37897928267E+02  0.56968842645E+01 -0.35467792478E+03  0.36704575084E+03  0.86356501923E+02 0.  0.
         -6    2    1    2    0  502  0.49925727906E+02  0.31319792655E+02  0.15074350662E+03  0.23681190872E+03  0.17286632872E+03 0.  0.
        -24    2    5    5    0    0  0.44517189659E+02  0.86650996971E+02  0.86429663854E+02  0.15166994005E+03  0.77740005600E+02 0.  0.
          5    1    3    3  501    0 -0.12027799639E+02 -0.37016676920E+02 -0.11273153853E+02  0.40793091721E+02  0.47000000000E+01 0. -1.
        -11    1    4    4    0    0 -0.56877901664E+02  0.16264739554E+02 -0.15040346686E+03  0.16161943043E+03  0.00000000000E+00 0.  1.
         12    1    4    4    0    0  0.18979973397E+02 -0.10567855290E+02 -0.20427445793E+03  0.20542632041E+03  0.00000000000E+00 0. -1.
         -5    1    5    5    0  502  0.54085382465E+01 -0.55331204315E+02  0.64313842770E+02  0.85141968668E+02  0.47000000000E+01 0.  1.
         11    1    6    6    0    0  0.89505176395E+01  0.66583917200E+02  0.88106430805E+02  0.11079834360E+03  0.00000000000E+00 0. -1.
        -12    1    6    6    0    0  0.35566672020E+02  0.20067079770E+02 -0.16767669511E+01  0.40871596451E+02  0.00000000000E+00 0.  1.
</event>
<event>
12    1  0.8494789E-002  0.1828752E+03  0.7818608E-02  0.1165075E+00
         21   -1    0    0  501  502  0.00000000000E+00  0.00000000000E+00  0.27848433634E+02  0.27848433634E+02  0.00000000000E+00 0.  1.
         21   -1    0    0  502  503 -0.00000000000E+00 -0.00000000000E+00 -0.12903535562E+04  0.12903535562E+04  0.00000000000E+00 0.  1.
         -6    2    1    2    0  503 -0.19211492758E+02  0.61363268938E+02 -0.80529990578E+03  0.82577944376E+03  0.17108249255E+03 0.  0.
        -24    2    3    3    0    0 -0.68205216880E+02  0.77598692286E+02 -0.60496693437E+03  0.61885104211E+03  0.79486552234E+02 0.  0.
          6    2    1    2  501    0  0.19211492758E+02 -0.61363268938E+02 -0.45720521675E+03  0.49242254604E+03  0.17119819332E+03 0.  0.
         24    2    5    5    0    0  0.41508985224E+01 -0.38923513494E+02 -0.45620258689E+03  0.46497333130E+03  0.80914329224E+02 0.  0.
          5    1    5    5  501    0  0.15060594236E+02 -0.22439755444E+02 -0.10026298575E+01  0.27449214738E+02  0.47000000000E+01 0. -1.
        -11    1    6    6    0    0 -0.34205237748E+02 -0.28204543046E+02 -0.15726507367E+03  0.16339460803E+03  0.00000000000E+00 0.  1.
         12    1    6    6    0    0  0.38356136271E+02 -0.10718970448E+02 -0.29893751322E+03  0.30157872327E+03  0.00000000000E+00 0. -1.
         -5    1    3    3    0  503  0.48993724122E+02 -0.16235423347E+02 -0.20033297142E+03  0.20692840166E+03  0.47000000000E+01 0.  1.
         11    1    4    4    0    0 -0.20061684757E+02  0.22246893146E+02 -0.40056194490E+03  0.40168055361E+03  0.00000000000E+00 0. -1.
        -12    1    4    4    0    0 -0.48143532124E+02  0.55351799139E+02 -0.20440498947E+03  0.21717048849E+03  0.00000000000E+00 0.  1.
</event>
<event>
12    1  0.8494789E-002  0.1841852E+03  0.7818608E-02  0.1163815E+00
         21   -1    0    0  503  502  0.00000000000E+00  0.00000000000E+00  0.14152132065E+03  0.14152132065E+03  0.00000000000E+00 0. -1.
         21   -1    0    0  501  503 -0.00000000000E+00 -0.00000000000E+00 -0.23988725462E+03  0.23988725462E+03  0.00000000000E+00 0.  1.
          6    2    1    2  501    0 -0.50362226290E+02 -0.43001417398E+02 -0.43828766706E+02  0.18932812352E+03  0.17186826882E+03 0.  0.
         24    2    3    3    0    0 -0.84421058980E+02 -0.15438180989E+02 -0.71683349723E+02  0.13719652196E+03  0.79492958048E+02 0.  0.
         -6    2    1    2    0  502  0.50362226290E+02  0.43001417398E+02 -0.54537167273E+02  0.19208045175E+03  0.17185785288E+03 0.  0.
        -24    2    5    5    0    0 -0.15133289418E+01  0.28814575584E+02 -0.93243914648E+02  0.12565273161E+03  0.79130344442E+02 0.  0.
          5    1    3    3  501    0  0.34058832691E+02 -0.27563236409E+02  0.27854583016E+02  0.52131601554E+02  0.47000000000E+01 0. -1.
        -11    1    4    4    0    0 -0.49132038299E+02  0.11283687790E+02 -0.77601391398E+02  0.92537855737E+02  0.00000000000E+00 0.  1.
         12    1    4    4    0    0 -0.35289020681E+02 -0.26721868778E+02  0.59180416755E+01  0.44658666224E+02  0.00000000000E+00 0. -1.
         -5    1    5    5    0  502  0.51875555231E+02  0.14186841814E+02  0.38706747375E+02  0.66427720144E+02  0.47000000000E+01 0.  1.
         13    1    6    6    0    0 -0.39209325585E+02  0.23866429078E+02 -0.56294326312E+02  0.72636277608E+02  0.00000000000E+00 0. -1.
        -14    1    6    6    0    0  0.37695996643E+02  0.49481465059E+01 -0.36949588336E+02  0.53016454002E+02  0.00000000000E+00 0.  1.
</event>
<event>
12    1  0.8494789E-002  0.1778565E+03  0.7818608E-02  0.1170011E+00
         21   -1    0    0  501  502  0.00000000000E+00  0.00000000000E+00  0.76582993543E+02  0.76582993543E+02  0.00000000000E+00 0.  1.
         21   -1    0    0  502  503 -0.00000000000E+00 -0.00000000000E+00 -0.11220792020E+04  0.11220792020E+04  0.00000000000E+00 0.  1.
         -6    2    1    2    0  503  0.24055002053E+02  0.43513367640E+02 -0.99979262479E+03  0.10154891617E+04  0.17076559572E+03 0.  0.
        -24    2    3    3    0    0  0.46925999390E+02 -0.25007564947E+02 -0.40112298298E+03  0.41245878872E+03  0.79969851795E+02 0.  0.
          6    2    1    2  501    0 -0.24055002053E+02 -0.43513367640E+02 -0.45703583689E+02  0.18317303385E+03  0.17026886527E+03 0.  0.
         24    2    5    5    0    0 -0.68044301075E+02 -0.51815781714E+02 -0.65152086213E+02  0.13413913988E+03  0.80209802183E+02 0.  0.
          5    1    5    5  501    0  0.43989299022E+02  0.83024140736E+01  0.19448502524E+02  0.49033893974E+02  0.47000000000E+01 0. -1.
        -11    1    6    6    0    0 -0.52693866427E+01  0.14489594403E+02  0.77890742921E+01  0.17273808494E+02  0.00000000000E+00 0.  1.
         12    1    6    6    0    0 -0.62774914432E+02 -0.66305376117E+02 -0.72941160505E+02  0.11686533139E+03  0.00000000000E+00 0. -1.
         -5    1    3    3    0  503 -0.22870997337E+02  0.68520932587E+02 -0.59866964181E+03  0.60303037299E+03  0.47000000000E+01 0.  1.
         11    1    4    4    0    0  0.27454652422E+02 -0.37812209145E+02 -0.99384155174E+02  0.10982136131E+03  0.00000000000E+00 0. -1.
        -12    1    4    4    0    0  0.19471346968E+02  0.12804644198E+02 -0.30173882781E+03  0.30263742741E+03  0.00000000000E+00 0.  1.
</event>
<event>
12    1  0.8494789E-002  0.2458265E+03  0.7818608E-02  0.1116073E+00
         21   -1    0    0  501  502  0.00000000000E+00  0.00000000000E+00  0.10389765921E+03  0.10389765921E+03  0.00000000000E+00 0.  1.
         21   -1    0    0  502  503 -0.00000000000E+00 -0.00000000000E+00 -0.58017475185E+03  0.58017475185E+03  0.00000000000E+00 0. -1.
         -6    2    1    2    0  503 -0.16961109726E+03  0.43299454635E+02 -0.23560170086E+03  0.34004433681E+03  0.17169514397E+03 0.  0.
        -24    2    3    3    0    0 -0.17619771892E+03  0.17755469910E+02 -0.24469028051E+03  0.31174997305E+03  0.77160996962E+02 0.  0.
          6    2    1    2  501    0  0.16961109726E+03 -0.43299454635E+02 -0.24067539179E+03  0.34402807425E+03  0.17259172800E+03 0.  0.
         24    2    5    5    0    0  0.53998095727E+02 -0.65887327804E+02 -0.17052886119E+03  0.20684497072E+03  0.80298288325E+02 0.  0.
          5    1    5    5  501    0  0.11561300153E+03  0.22587873169E+02 -0.70146530603E+02  0.13718310353E+03  0.47000000000E+01 0. -1.
        -13    1    6    6    0    0  0.37848905634E+02  0.39195230787E+01 -0.27746201009E+02  0.47093035465E+02  0.00000000000E+00 0.  1.
         14    1    6    6    0    0  0.16149190092E+02 -0.69806850883E+02 -0.14278266018E+03  0.15975193526E+03  0.00000000000E+00 0. -1.
         -5    1    3    3    0  503  0.65866216635E+01  0.25543984725E+02  0.90885796553E+01  0.28294363763E+02  0.47000000000E+01 0.  1.
         11    1    4    4    0    0 -0.67162098527E+02  0.32703372725E+02 -0.56195191642E+02  0.93478113106E+02  0.00000000000E+00 0. -1.
        -12    1    4    4    0    0 -0.10903562040E+03 -0.14947902816E+02 -0.18849508887E+03  0.21827185994E+03  0.00000000000E+00 0.  1.
</event>
<event>
12    1  0.8494789E-002  0.1958282E+03  0.7818608E-02  0.1153573E+00
         21   -1    0    0  501  502  0.00000000000E+00  0.00000000000E+00  0.11497383046E+04  0.11497383046E+04  0.00000000000E+00 0.  1.
         21   -1    0    0  502  503 -0.00000000000E+00 -0.00000000000E+00 -0.63898864702E+02  0.63898864702E+02  0.00000000000E+00 0.  1.
         -6    2    1    2    0  503 -0.47282202221E+02  0.80860958817E+02  0.12283215830E+03  0.23116322762E+03  0.17197266464E+03 0.  0.
        -24    2    3    3    0    0 -0.11044191214E+02  0.86555534135E+02  0.14604582093E+03  0.18749875967E+03  0.78819847861E+02 0.  0.
          6    2    1    2  501    0  0.47282202221E+02 -0.80860958817E+02  0.96300728158E+03  0.98247394166E+03  0.17058112546E+03 0.  0.
         24    2    5    5    0    0 -0.32013131790E+02 -0.89624979414E+01  0.51131443231E+03  0.51824807126E+03  0.77675270822E+02 0.  0.
          5    1    5    5  501    0  0.79295334011E+02 -0.71898460876E+02  0.45169284927E+03  0.46422587041E+03  0.47000000000E+01 0. -1.
        -13    1    6    6    0    0 -0.37000000774E+02  0.17342002740E+02  0.13666275145E+03  0.14264099253E+03  0.00000000000E+00 0.  1.
         14    1    6    6    0    0  0.49868689836E+01 -0.26304500681E+02  0.37465168086E+03  0.37560707873E+03  0.00000000000E+00 0. -1.
         -5    1    3    3    0  503 -0.36238011007E+02 -0.56945753179E+01 -0.23213662623E+02  0.43664467959E+02  0.47000000000E+01 0.  1.
         13    1    4    4    0    0 -0.31836096745E+02  0.87497232538E+02  0.98209562489E+02  0.13533078335E+03  0.00000000000E+00 0. -1.
        -14    1    4    4    0    0  0.20791905531E+02 -0.94169840338E+00  0.47836258438E+02  0.52167976316E+02  0.00000000000E+00 0.  1.
</event>
<event>
12    1  0.8494789E-002  0.4503676E+03  0.7818608E-02  0.1027893E+00
         21   -1    0    0  501  502  0.00000000000E+00  0.00000000000E+00  0.49198426804E+03  0.49198426804E+03  0.00000000000E+00 0.  1.
         21   -1    0    0  502  503 -0.00000000000E+00 -0.00000000000E+00 -0.91962435755E+03  0.91962435755E+03  0.00000000000E+00 0.  1.
         -6    2    1    2    0  503 -0.38206139785E+03  0.16080931359E+03 -0.74022975125E+03  0.86647044574E+03  0.17606930921E+03 0.  0.
        -24    2    3    3    0    0 -0.36043628379E+03  0.93814078145E+02 -0.61423129551E+03  0.72206231585E+03  0.73338309604E+02 0.  0.
          6    2    1    2  501    0  0.38206139785E+03 -0.16080931359E+03  0.31258966174E+03  0.54513817985E+03  0.16623113859E+03 0.  0.
         24    2    5    5    0    0  0.25275791217E+03 -0.46821702240E+02  0.22786505995E+03  0.35301083901E+03  0.81334697053E+02 0.  0.
          5    1    5    5  501    0  0.12930348568E+03 -0.11398761135E+03  0.84724601789E+02  0.19212734084E+03  0.47000000000E+01 0. -1.
        -13    1    6    6    0    0  0.16714762643E+03 -0.10874408840E+02  0.10031001076E+03  0.19524005748E+03  0.00000000000E+00 0.  1.
         14    1    6    6    0    0  0.85610285741E+02 -0.35947293400E+02  0.12755504919E+03  0.15777078152E+03  0.00000000000E+00 0. -1.
         -5    1    3    3    0  503 -0.21625114061E+02  0.66995235449E+02 -0.12599845574E+03  0.14440812990E+03  0.47000000000E+01 0.  1.
         11    1    4    4    0    0 -0.20832138704E+03  0.20632497769E+02 -0.30840609848E+03  0.37274364091E+03  0.00000000000E+00 0. -1.
        -12    1    4    4    0    0 -0.15211489674E+03  0.73181580376E+02 -0.30582519703E+03  0.34931867493E+03  0.00000000000E+00 0.  1.
</event>
<event>
12    1  0.8494789E-002  0.1783708E+03  0.7818608E-02  0.1169666E+00
         21   -1    0    0  501  502  0.00000000000E+00  0.00000000000E+00  0.78527308951E+03  0.78527308951E+03  0.00000000000E+00 0. -1.
         21   -1    0    0  502  503 -0.00000000000E+00 -0.00000000000E+00 -0.41625805869E+02  0.41625805869E+02  0.00000000000E+00 0. -1.
         -6    2    1    2    0  503  0.37628330335E+02 -0.29150310096E+02  0.29807964316E+03  0.34737244610E+03  0.17190262017E+03 0.  0.
        -24    2    3    3    0    0  0.47718125485E+02  0.28339323907E+02  0.87780669954E+02  0.12907308716E+03  0.76643845362E+02 0.  0.
          6    2    1    2  501    0 -0.37628330335E+02  0.29150310096E+02  0.44556764049E+03  0.47952644928E+03  0.17073213373E+03 0.  0.
         24    2    5    5    0    0 -0.75207304945E+02  0.27663576635E+02  0.41601753735E+03  0.43146723263E+03  0.81682123301E+02 0.  0.
          5    1    5    5  501    0  0.37578974610E+02  0.14867334610E+01  0.29550103141E+02  0.48059216648E+02  0.47000000000E+01 0. -1.
        -11    1    6    6    0    0  0.14301763365E+02  0.17693951806E+02  0.58186233494E+02  0.62476028476E+02  0.00000000000E+00 0.  1.
         12    1    6    6    0    0 -0.89509068310E+02  0.99696248292E+01  0.35783130385E+03  0.36899120416E+03  0.00000000000E+00 0. -1.
         -5    1    3    3    0  503 -0.10089795151E+02 -0.57489634003E+02  0.21029897320E+03  0.21829935894E+03  0.47000000000E+01 0.  1.
         13    1    4    4    0    0  0.39645042100E+02  0.54363677959E+02  0.59808134344E+02  0.90023062479E+02  0.00000000000E+00 0. -1.
        -14    1    4    4    0    0  0.80730833854E+01 -0.26024354051E+02  0.27972535610E+02  0.39050024681E+02  0.00000000000E+00 0.  1.
</event>
<event>
12    1  0.8494789E-002  0.1792381E+03  0.7818608E-02  0.1168750E+00
         21   -1    0    0  503  502  0.00000000000E+00  0.00000000000E+00  0.30825477765E+02  0.30825477765E+02  0.00000000000E+00 0. -1.
         21   -1    0    0  501  503 -0.00000000000E+00 -0.00000000000E+00 -0.12432599123E+04  0.12432599123E+04  0.00000000000E+00 0. -1.
          6    2    1    2  501    0  0.22562916038E+02 -0.40690860322E+02 -0.86673133961E+03  0.88507033449E+03  0.17309376258E+03 0.  0.
         24    2    3    3    0    0  0.23589597235E+02 -0.32684454270E+02 -0.21315865546E+03  0.23143090784E+03  0.80615817655E+02 0.  0.
         -6    2    1    2    0  502 -0.22562916038E+02  0.40690860322E+02 -0.34570309495E+03  0.38901505560E+03  0.17221281116E+03 0.  0.
        -24    2    5    5    0    0  0.44772041631E+02  0.47224420665E+02 -0.25269393658E+03  0.27390868099E+03  0.83289004776E+02 0.  0.
          5    1    3    3  501    0 -0.10266811971E+01 -0.80064060515E+01 -0.65357268415E+03  0.65363942665E+03  0.47000000000E+01 0. -1.
        -11    1    4    4    0    0 -0.18530432105E+02  0.78244510654E+01 -0.11843628706E+03  0.12013223148E+03  0.00000000000E+00 0.  1.
         12    1    4    4    0    0  0.42120029340E+02 -0.40508905336E+02 -0.94722368405E+02  0.11129867636E+03  0.00000000000E+00 0. -1.
         -5    1    5    5    0  502 -0.67334957669E+02 -0.65335603433E+01 -0.93009158367E+02  0.11510637461E+03  0.47000000000E+01 0.  1.
         13    1    6    6    0    0  0.47308704281E+02  0.49579682622E+02 -0.10030157481E+03  0.12147701156E+03  0.00000000000E+00 0. -1.
        -14    1    6    6    0    0 -0.25366626497E+01 -0.23552619570E+01 -0.15239236178E+03  0.15243166943E+03  0.00000000000E+00 0.  1.
</event>
<event>
12    1  0.8494789E-002  0.2416429E+03  0.7818608E-02  0.1118828E+00
         21   -1    0    0  501  502  0.00000000000E+00  0.00000000000E+00  0.91007026753E+03  0.91007026753E+03  0.00000000000E+00 0. -1.
         21   -1    0    0  502  503 -0.00000000000E+00 -0.00000000000E+00 -0.64188729837E+02  0.64188729837E+02  0.00000000000E+00 0. -1.
         -6    2    1    2    0  503 -0.15893368268E+03  0.55967449939E+02  0.45259228339E+03  0.51306048508E+03  0.17320223851E+03 0.  0.
        -24    2    3    3    0    0 -0.82966731063E+02 -0.31519242192E+01  0.36359856497E+03  0.38188102763E+03  0.82071857099E+02 0.  0.
          6    2    1    2  501    0  0.15893368268E+03 -0.55967449939E+02  0.39328925431E+03  0.46119851229E+03  0.17214923538E+03 0.  0.
         24    2    5    5    0    0  0.41299792540E+02 -0.45950603660E+02  0.91898858620E+02  0.13747589966E+03  0.81468349252E+02 0.  0.
          5    1    5    5  501    0  0.11763389014E+03 -0.10016846280E+02  0.30139039569E+03  0.32372261264E+03  0.47000000000E+01 0. -1.
        -11    1    6    6    0    0 -0.96060733872E+01 -0.18383082870E+02 -0.78234313187E+01  0.22168005308E+02  0.00000000000E+00 0.  1.
         12    1    6    6    0    0  0.50905865927E+02 -0.27567520790E+02  0.99722289938E+02  0.11530789435E+03  0.00000000000E+00 0. -1.
         -5    1    3    3    0  503 -0.75966951614E+02  0.59119374159E+02  0.88993718420E+02  0.13117945745E+03  0.47000000000E+01 0.  1.
         13    1    4    4    0    0 -0.18475806359E+02 -0.12976376854E+02  0.14711512821E+02  0.26947548800E+02  0.00000000000E+00 0. -1.
        -14    1    4    4    0    0 -0.64490924705E+02  0.98244526347E+01  0.34888705215E+03  0.35493347883E+03  0.00000000000E+00 0.  1.
</event>
<event>
12    1  0.8494789E-002  0.2222951E+03  0.7818608E-02  0.1133188E+00
         21   -1    0    0  503  502  0.00000000000E+00  0.00000000000E+00  0.42217747307E+03  0.42217747307E+03  0.00000000000E+00 0. -1.
         21   -1    0    0  501  503 -0.00000000000E+00 -0.00000000000E+00 -0.12149520522E+03  0.12149520522E+03  0.00000000000E+00 0. -1.
          6    2    1    2  501    0 -0.13007309921E+03  0.21452604483E+02  0.82122308996E+02  0.23192987142E+03  0.17224449554E+03 0.  0.
         24    2    3    3    0    0 -0.16333559314E+03  0.19210325437E+02  0.71925530966E+02  0.19675195791E+03  0.80563629178E+02 0.  0.
         -6    2    1    2    0  502  0.13007309921E+03 -0.21452604483E+02  0.21855995886E+03  0.31174280686E+03  0.17898574422E+03 0.  0.
        -24    2    5    5    0    0  0.15361557241E+03  0.20150590112E+02  0.17979261191E+03  0.25001703401E+03  0.78608801214E+02 0.  0.
          5    1    3    3  501    0  0.33262493922E+02  0.22422790455E+01  0.10196778030E+02  0.35177913517E+02  0.47000000000E+01 0. -1.
        -13    1    4    4    0    0 -0.19725635033E+02 -0.25642678004E+02  0.17329236366E+02  0.36700818052E+02  0.00000000000E+00 0.  1.
         14    1    4    4    0    0 -0.14360995810E+03  0.44853003442E+02  0.54596294600E+02  0.16005113985E+03  0.00000000000E+00 0. -1.
         -5    1    5    5    0  502 -0.23542473196E+02 -0.41603194595E+02  0.38767346948E+02  0.61725772852E+02  0.47000000000E+01 0.  1.
         13    1    6    6    0    0  0.11109617192E+03  0.49685933389E+02  0.13229993761E+03  0.17976185603E+03  0.00000000000E+00 0. -1.
        -14    1    6    6    0    0  0.42519400496E+02 -0.29535343277E+02  0.47492674293E+02  0.70255177977E+02  0.00000000000E+00 0.  1.
</event>
<event>
12    1  0.8494789E-002  0.2009809E+03  0.7818608E-02  0.1149156E+00
         21   -1    0    0  501  502  0.00000000000E+00  0.00000000000E+00  0.66255815135E+03  0.66255815135E+03  0.00000000000E+00 0. -1.
         21   -1    0    0  502  503 -0.00000000000E+00 -0.00000000000E+00 -0.90329177129E+02  0.90329177129E+02  0.00000000000E+00 0.  1.
         -6    2    1    2    0  503  0.74825200276E+02 -0.69744344995E+02  0.70767533194E+02  0.21307597302E+03  0.17300359034E+03 0.  0.
        -24    2    3    3    0    0 -0.22906007844E+01 -0.75710229688E+02  0.77651929401E+02  0.13528186358E+03  0.80833623832E+02 0.  0.
          6    2    1    2  501    0 -0.74825200276E+02  0.69744344995E+02  0.50146144103E+03  0.53981135546E+03  0.17166723155E+03 0.  0.
         24    2    5    5    0    0 -0.99534216034E+02  0.27857226188E+02  0.24695623499E+03  0.28065878247E+03  0.84254880977E+02 0.  0.
          5    1    5    5  501    0  0.24709015758E+02  0.41887118807E+02  0.25450520604E+03  0.25915257298E+03  0.47000000000E+01 0. -1.
        -11    1    6    6    0    0 -0.70256860666E+02  0.25613775849E+02  0.73919613834E+02  0.10514847261E+03  0.00000000000E+00 0.  1.
         12    1    6    6    0    0 -0.29277355368E+02  0.22434503386E+01  0.17303662115E+03  0.17551030986E+03  0.00000000000E+00 0. -1.
         -5    1    3    3    0  503  0.77115801060E+02  0.59658846933E+01 -0.68843962076E+01  0.77794109446E+02  0.47000000000E+01 0.  1.
         13    1    4    4    0    0  0.30487663196E+02 -0.22564564859E+02  0.58953733052E+02  0.70101354018E+02  0.00000000000E+00 0. -1.
        -14    1    4    4    0    0 -0.32778263980E+02 -0.53145664829E+02  0.18698196350E+02  0.65180509559E+02  0.00000000000E+00 0.  1.
</event>
<event>
12    1  0.8494789E-002  0.1909591E+03  0.7818608E-02  0.1157665E+00
         21   -1    0    0  503  502  0.00000000000E+00  0.00000000000E+00  0.27090036113E+03  0.27090036113E+03  0.00000000000E+00 0.  1.
         21   -1    0    0  501  503 -0.00000000000E+00 -0.00000000000E+00 -0.14978850786E+03  0.14978850786E+03  0.00000000000E+00 0.  1.
          6    2    1    2  501    0  0.23082922620E+02 -0.79184219524E+02 -0.69045931214E+01  0.19078974675E+03  0.17190140232E+03 0.  0.
         24    2    3    3    0    0  0.55400170419E+02 -0.94239048879E+02  0.30805265200E+02  0.13868239788E+03  0.79584332003E+02 0.  0.
         -6    2    1    2    0  502 -0.23082922620E+02  0.79184219524E+02  0.12801644640E+03  0.22989912224E+03  0.17222785465E+03 0.  0.
        -24    2    5    5    0    0 -0.35735270541E+02  0.22368083829E+02  0.13658253995E+03  0.17087689641E+03  0.93631099381E+02 0.  0.
          5    1    3    3  501    0 -0.32317247799E+02  0.15054829354E+02 -0.37709858322E+02  0.52107348875E+02  0.47000000000E+01 0. -1.
        -13    1    4    4    0    0 -0.13517752782E+02 -0.36911368003E+02 -0.94274956786E+01  0.40423463519E+02  0.00000000000E+00 0.  1.
         14    1    4    4    0    0  0.68917923200E+02 -0.57327680876E+02  0.40232760879E+02  0.98258934356E+02  0.00000000000E+00 0. -1.
         -5    1    5    5    0  502  0.12652347921E+02  0.56816135696E+02 -0.85660935514E+01  0.59022225831E+02  0.47000000000E+01 0.  1.
         13    1    6    6    0    0 -0.22614001076E+01 -0.35361276912E+02  0.39410602986E+02  0.52997447703E+02  0.00000000000E+00 0. -1.
        -14    1    6    6    0    0 -0.33473870434E+02  0.57729360741E+02  0.97171936964E+02  0.11787944870E+03  0.00000000000E+00 0.  1.
</event>
<event>
12    1  0.8494789E-002  0.2968638E+03  0.7818608E-02  0.1086969E+00
         21   -1    0    0  503  502  0.00000000000E+00  0.00000000000E+00  0.40635577258E+03  0.40635577258E+03  0.00000000000E+00 0.  1.
         21   -1    0    0  501  503 -0.00000000000E+00 -0.00000000000E+00 -0.24679103644E+03  0.24679103644E+03  0.00000000000E+00 0. -1.
          6    2    1    2  501    0  0.18178884811E+03 -0.15969870262E+03 -0.35686082750E+02  0.29782867700E+03  0.16993399726E+03 0.  0.
         24    2    3    3    0    0  0.17285158240E+03 -0.74706062081E+02 -0.20129192917E+01  0.20585261706E+03  0.83141944028E+02 0.  0.
         -6    2    1    2    0  502 -0.18178884811E+03  0.15969870262E+03  0.19525081890E+03  0.35531813202E+03  0.17198032373E+03 0.  0.
        -24    2    5    5    0    0 -0.21211008425E+02  0.60677048943E+02  0.10288579978E+03  0.14521359316E+03  0.79811582465E+02 0.  0.
          5    1    3    3  501    0  0.89372657042E+01 -0.84992640535E+02 -0.33673163459E+02  0.91976059933E+02  0.47000000000E+01 0. -1.
        -13    1    4    4    0    0 -0.35278155294E+01  0.72329711299E+01 -0.79045883569E+01  0.11280242500E+02  0.00000000000E+00 0.  1.
         14    1    4    4    0    0  0.17637939793E+03 -0.81939033211E+02  0.58916690652E+01  0.19457237456E+03  0.00000000000E+00 0. -1.
         -5    1    5    5    0  502 -0.16057783968E+03  0.99021653673E+02  0.92365019122E+02  0.21010453886E+03  0.47000000000E+01 0.  1.
         11    1    6    6    0    0 -0.16337569432E+02  0.60976682184E+02  0.11553408295E+03  0.13165559718E+03  0.00000000000E+00 0. -1.
        -12    1    6    6    0    0 -0.48734389933E+01 -0.29963324052E+00 -0.12648283175E+02  0.13557995980E+02  0.00000000000E+00 0.  1.
</event>
<event>
12    1  0.8494789E-002  0.2248637E+03  0.7818608E-02  0.1130593E+00
         21   -1    0    0  501  502  0.00000000000E+00  0.00000000000E+00  0.52151764926E+03  0.52151764926E+03  0.00000000000E+00 0. -1.
         21   -1    0    0  502  503 -0.00000000000E+00 -0.00000000000E+00 -0.10693584320E+03  0.10693584320E+03  0.00000000000E+00 0. -1.
         -6    2    1    2    0  503  0.10984745629E+03 -0.93574865468E+02  0.10875094559E+03  0.24978081322E+03  0.17245569688E+03 0.  0.
        -24    2    3    3    0    0  0.66333364133E+02 -0.13187895089E+03  0.71904573269E+02  0.18093007372E+03  0.75981912560E+02 0.  0.
          6    2    1    2  501    0 -0.10984745629E+03  0.93574865468E+02  0.30583086046E+03  0.37867267924E+03  0.17040470561E+03 0.  0.
         24    2    5    5    0    0  0.25443844066E+02  0.29185298589E+02  0.13773469558E+03  0.15344354498E+03  0.55451819387E+02 0.  0.
          5    1    5    5  501    0 -0.13529130036E+03  0.64389566879E+02  0.16809616488E+03  0.22522913426E+03  0.47000000000E+01 0. -1.
        -13    1    6    6    0    0  0.18213270114E+02 -0.13835475065E+02  0.61415098504E+02  0.65535928335E+02  0.00000000000E+00 0.  1.
         14    1    6    6    0    0  0.72305739522E+01  0.43020773653E+02  0.76319597079E+02  0.87907616642E+02  0.00000000000E+00 0. -1.
         -5    1    3    3    0  503  0.43514092157E+02  0.38304085418E+02  0.36846372322E+02  0.68850739497E+02  0.47000000000E+01 0.  1.
         11    1    4    4    0    0  0.43782174265E+02 -0.84514620886E+02  0.84166156947E+02  0.12705723868E+03  0.00000000000E+00 0. -1.
        -12    1    4    4    0    0  0.22551189867E+02 -0.47364330000E+02 -0.12261583677E+02  0.53872835038E+02  0.00000000000E+00 0.  1.
</event>
<event>
12    1  0.8494789E-002  0.1820759E+03  0.7818608E-02  0.1166495E+00
         21   -1    0    0  503  502  0.00000000000E+00  0.00000000000E+00  0.15187544169E+03  0.15187544169E+03  0.00000000000E+00 0. -1.
         21   -1    0    0  501  503 -0.00000000000E+00 -0.00000000000E+00 -0.76349172727E+03  0.76349172727E+03  0.00000000000E+00 0. -1.
          6    2    1    2  501    0 -0.54887074824E+02 -0.17353605703E+02 -0.69309495152E+03  0.71589183390E+03  0.16972556499E+03 0.  0.
         24    2    3    3    0    0 -0.10142116499E+02  0.17631530468E+02 -0.15775726083E+03  0.17752894130E+03  0.78838050859E+02 0.  0.
         -6    2    1    2    0  502  0.54887074824E+02  0.17353605703E+02  0.81478665939E+02  0.19947533505E+03  0.17273649782E+03 0.  0.
        -24    2    5    5    0    0  0.12902029721E+02 -0.53780954174E+02  0.40061825393E+02  0.10695336846E+03  0.82311723154E+02 0.  0.
          5    1    3    3  501    0 -0.44744958324E+02 -0.34985136172E+02 -0.53533769069E+03  0.53836289260E+03  0.47000000000E+01 0. -1.
        -13    1    4    4    0    0 -0.24150204101E+02 -0.10605980803E+02 -0.13049741053E+02  0.29428131583E+02  0.00000000000E+00 0.  1.
         14    1    4    4    0    0  0.14008087601E+02  0.28237511271E+02 -0.14470751977E+03  0.14810080972E+03  0.00000000000E+00 0. -1.
         -5    1    5    5    0  502  0.41985045102E+02  0.71134559877E+02  0.41416840546E+02  0.92521966592E+02  0.47000000000E+01 0.  1.
         11    1    6    6    0    0 -0.28838140042E+02 -0.33064189818E+02  0.41417902183E+02  0.60335077614E+02  0.00000000000E+00 0. -1.
        -12    1    6    6    0    0  0.41740169763E+02 -0.20716764356E+02 -0.13560767902E+01  0.46618290847E+02  0.00000000000E+00 0.  1.
</event>
<event>
12    1  0.8494789E-002  0.1892602E+03  0.7818608E-02  0.1159132E+00
         21   -1    0    0  503  502  0.00000000000E+00  0.00000000000E+00  0.14728798707E+04  0.14728798707E+04  0.00000000000E+00 0. -1.
         21   -1    0    0  501  503 -0.00000000000E+00 -0.00000000000E+00 -0.26594033805E+02  0.26594033805E+02  0.00000000000E+00 0. -1.
          6    2    1    2  501    0  0.74416400355E+02 -0.49842733371E+01  0.50380866688E+03  0.53818173882E+03  0.17393610193E+03 0.  0.
         24    2    3    3    0    0 -0.42250426114E+01  0.36366497271E+02  0.15246482354E+03  0.17574698740E+03  0.79379519118E+02 0.  0.
         -6    2    1    2    0  502 -0.74416400355E+02  0.49842733371E+01  0.94247716998E+03  0.96129216565E+03  0.17394472738E+03 0.  0.
        -24    2    5    5    0    0 -0.23523784708E+02 -0.27999980443E+02  0.23346936390E+03  0.24967978632E+03  0.80589605208E+02 0.  0.
          5    1    3    3  501    0  0.78641442966E+02 -0.41350770609E+02  0.35134384334E+03  0.36243475141E+03  0.47000000000E+01 0. -1.
        -11    1    4    4    0    0 -0.38071022727E+02  0.48315498661E+00  0.64841200115E+02  0.75193200773E+02  0.00000000000E+00 0.  1.
         12    1    4    4    0    0  0.33845980115E+02  0.35883342285E+02  0.87623623424E+02  0.10055378663E+03  0.00000000000E+00 0. -1.
         -5    1    5    5    0  502 -0.50892615647E+02  0.32984253780E+02  0.70900780608E+03  0.71161237933E+03  0.47000000000E+01 0.  1.
         13    1    6    6    0    0 -0.59047158934E+01  0.26314991333E+02  0.11564390982E+03  0.11874703498E+03  0.00000000000E+00 0. -1.
        -14    1    6    6    0    0 -0.17619068814E+02 -0.54314971777E+02  0.11782545408E+03  0.13093275134E+03  0.00000000000E+00 0.  1.
</event>
<event>
12    1  0.8494789E-002  0.1819126E+03  0.7818608E-02  0.1167247E+00
         21   -1    0    0  503  502  0.00000000000E+00  0.00000000000E+00  0.24543740012E+03  0.24543740012E+03  0.00000000000E+00 0. -1.
         21   -1    0    0  501  503 -0.00000000000E+00 -0.00000000000E+00 -0.31633262088E+03  0.31633262088E+03  0.00000000000E+00 0. -1.
          6    2    1    2  501    0  0.56119578373E+02  0.12900209784E+02 -0.25068742998E+03  0.30973598496E+03  0.17255830997E+03 0.  0.
         24    2    3    3    0    0  0.64088017983E+02 -0.52130294047E+02 -0.17401375194E+03  0.20877358918E+03  0.80503317117E+02 0.  0.
         -6    2    1    2    0  502 -0.56119578373E+02 -0.12900209784E+02  0.17979220922E+03  0.25203403605E+03  0.16697333422E+03 0.  0.
        -24    2    5    5    0    0 -0.22923561124E+02  0.42454960438E+02  0.47927128371E+02  0.10514407731E+03  0.80189488331E+02 0.  0.
          5    1    3    3  501    0 -0.79684396104E+01  0.65030503830E+02 -0.76673678032E+02  0.10096239578E+03  0.47000000000E+01 0. -1.
        -13    1    4    4    0    0  0.57163906286E+02  0.53834197636E+01 -0.85733891562E+02  0.10318426989E+03  0.00000000000E+00 0.  1.
         14    1    4    4    0    0  0.69241116970E+01 -0.57513713810E+02 -0.88279860382E+02  0.10558931929E+03  0.00000000000E+00 0. -1.
         -5    1    5    5    0  502 -0.33196017248E+02 -0.55355170222E+02  0.13186508085E+03  0.14688995874E+03  0.47000000000E+01 0.  1.
         13    1    6    6    0    0  0.75087019241E+01  0.47578407249E+01  0.55412850679E+02  0.56121312113E+02  0.00000000000E+00 0. -1.
        -14    1    6    6    0    0 -0.30432263049E+02  0.37697119713E+02 -0.74857223081E+01  0.49022765195E+02  0.00000000000E+00 0.  1.
</event>
<event>
12    1  0.8494789E-002  0.1774098E+03  0.7818608E-02  0.1170398E+00
         21   -1    0    0  501  502  0.00000000000E+00  0.00000000000E+00  0.55507848643E+03  0.55507848643E+03  0.00000000000E+00 0.  1.
         21   -1    0    0  502  503 -0.00000000000E+00 -0.00000000000E+00 -0.90519566295E+02  0.90519566295E+02  0.00000000000E+00 0.  1.
         -6    2    1    2    0  503  0.40081932151E+02 -0.10124085476E+02  0.34628539863E+02  0.18050195245E+03  0.17225783197E+03 0.  0.
        -24    2    3    3    0    0  0.51413895238E+02  0.55103769801E+02  0.31702091093E+02  0.11406596376E+03  0.79537459343E+02 0.  0.
          6    2    1    2  501    0 -0.40081932151E+02  0.10124085476E+02  0.42993038028E+03  0.46509610028E+03  0.17252591752E+03 0.  0.
         24    2    5    5    0    0 -0.27170562234E+02  0.66932736751E+02  0.34911239036E+03  0.36535862574E+03  0.79932681665E+02 0.  0.
          5    1    5    5  501    0 -0.12911369917E+02 -0.56808651276E+02  0.80817989912E+02  0.99737474534E+02  0.47000000000E+01 0. -1.
        -13    1    6    6    0    0  0.10575081874E+02  0.28779041893E+02  0.34307851233E+02  0.46011892649E+02  0.00000000000E+00 0.  1.
         14    1    6    6    0    0 -0.37745644108E+02  0.38153694859E+02  0.31480453913E+03  0.31934673309E+03  0.00000000000E+00 0. -1.
         -5    1    3    3    0  503 -0.11331963086E+02 -0.65227855276E+02  0.29264487697E+01  0.66435988694E+02  0.47000000000E+01 0.  1.
         11    1    4    4    0    0  0.63002801383E+02  0.34604776296E+02 -0.32125386512E+01  0.71952511626E+02  0.00000000000E+00 0. -1.
        -12    1    4    4    0    0 -0.11588906146E+02  0.20498993505E+02  0.34914629744E+02  0.42113452133E+02  0.00000000000E+00 0.  1.
</event>
<event>
12    1  0.8494789E-002  0.1908432E+03  0.7818608E-02  0.1158058E+00
         21   -1    0    0  501  502  0.00000000000E+00  0.00000000000E+00  0.28530972356E+03  0.28530972356E+03  0.00000000000E+00 0. -1.
         21   -1    0    0  502  503 -0.00000000000E+00 -0.00000000000E+00 -0.13357718358E+03  0.13357718358E+03  0.00000000000E+00 0. -1.
         -6    2    1    2    0  503  0.73314592983E+02  0.31921349078E+02  0.28302319298E+02  0.19293046244E+03  0.17328340945E+03 0.  0.
        -24    2    3    3    0    0  0.86683949789E+02 -0.29140434275E+02 -0.73894964244E+01  0.12079672001E+03  0.78574619612E+02 0.  0.
          6    2    1    2  501    0 -0.73314592983E+02 -0.31921349078E+02  0.12343022068E+03  0.22595644470E+03  0.17154385285E+03 0.  0.
         24    2    5    5    0    0 -0.10147672676E+03 -0.21064385538E+02  0.13962356098E+03  0.19138342478E+03  0.79947745980E+02 0.  0.
          5    1    5    5  501    0  0.28162133780E+02 -0.10856963540E+02 -0.16193340296E+02  0.34573019919E+02  0.47000000000E+01 0. -1.
        -11    1    6    6    0    0 -0.28322027486E+02  0.21081439915E+02  0.10010370237E+02  0.36698390457E+02  0.00000000000E+00 0.  1.
         12    1    6    6    0    0 -0.73154699277E+02 -0.42145825453E+02  0.12961319074E+03  0.15468503432E+03  0.00000000000E+00 0. -1.
         -5    1    3    3    0  503 -0.13369356806E+02  0.61061783352E+02  0.35691815722E+02  0.72133742431E+02  0.47000000000E+01 0.  1.
         11    1    4    4    0    0  0.83951831459E+02  0.52222677919E+01 -0.15138014330E+02  0.85465440758E+02  0.00000000000E+00 0. -1.
        -12    1    4    4    0    0  0.27321183307E+01 -0.34362702067E+02  0.77485179058E+01  0.35331279253E+02  0.00000000000E+00 0.  1.
</event>
<event>
12    1  0.8494789E-002  0.2050974E+03  0.7818608E-02  0.1145553E+00
         21   -1    0    0  503  502  0.00000000000E+00  0.00000000000E+00  0.10201684965E+03  0.10201684965E+03  0.00000000000E+00 0. -1.
         21   -1    0    0  501  503 -0.00000000000E+00 -0.00000000000E+00 -0.61858544066E+03  0.61858544066E+03  0.00000000000E+00 0. -1.
          6    2    1    2  501    0  0.10950201741E+03 -0.22014449113E+02 -0.46664354562E+03  0.50972652337E+03  0.17201628461E+03 0.  0.
         24    2    3    3    0    0 -0.97184272150E+01  0.10549419764E+02 -0.21346973635E+03  0.22795891049E+03  0.78677814194E+02 0.  0.
         -6    2    1    2    0  502 -0.10950201741E+03  0.22014449113E+02 -0.49925045402E+02  0.21087576695E+03  0.17175782702E+03 0.  0.
        -24    2    5    5    0    0 -0.12765011423E+03  0.91241602613E+01  0.40888999933E+01  0.15226596178E+03  0.82403895841E+02 0.  0.
          5    1    3    3  501    0  0.11922044462E+03 -0.32563868877E+02 -0.25317380926E+03  0.28176761288E+03  0.47000000000E+01 0. -1.
        -13    1    4    4    0    0  0.16218429490E+02  0.37291262803E+02 -0.85519850995E+02  0.94695937879E+02  0.00000000000E+00 0.  1.
         14    1    4    4    0    0 -0.25936856705E+02 -0.26741843039E+02 -0.12794988536E+03  0.13326297261E+03  0.00000000000E+00 0. -1.
         -5    1    5    5    0  502  0.18148096821E+02  0.12890288851E+02 -0.54013945396E+02  0.58609805170E+02  0.47000000000E+01 0.  1.
         11    1    6    6    0    0 -0.10733908130E+02  0.12060755560E+02  0.28534281931E+02  0.32785421360E+02  0.00000000000E+00 0. -1.
        -12    1    6    6    0    0 -0.11691620610E+03 -0.29365952984E+01 -0.24445381938E+02  0.11948054042E+03  0.00000000000E+00 0.  1.
</event>
<event>
12    1  0.8494789E-002  0.2201896E+03  0.7818608E-02  0.1134194E+00
         21   -1    0    0  501  502  0.00000000000E+00  0.00000000000E+00  0.62745164444E+03  0.62745164444E+03  0.00000000000E+00 0.  1.
         21   -1    0    0  502  503 -0.00000000000E+00 -0.00000000000E+00 -0.10323962842E+03  0.10323962842E+03  0.00000000000E+00 0. -1.
         -6    2    1    2    0  503  0.67118477158E+02 -0.12087846409E+03  0.76985076220E+02  0.23325988651E+03  0.17136796561E+03 0.  0.
        -24    2    3    3    0    0  0.90399724650E+02 -0.92172693102E+02  0.51719361929E+01  0.15235713716E+03  0.80734334383E+02 0.  0.
          6    2    1    2  501    0 -0.67118477158E+02  0.12087846409E+03  0.44722693980E+03  0.49743138634E+03  0.16825443645E+03 0.  0.
         24    2    5    5    0    0 -0.51875979375E+02  0.15035481145E+03  0.41085143113E+03  0.44796972015E+03  0.81118956769E+02 0.  0.
          5    1    5    5  501    0 -0.15242497783E+02 -0.29476347356E+02  0.36375508671E+02  0.49461666199E+02  0.47000000000E+01 0. -1.
        -13    1    6    6    0    0 -0.21311403743E+02  0.70687027508E+02  0.92340782578E+02  0.11822712005E+03  0.00000000000E+00 0.  1.
         14    1    6    6    0    0 -0.30564575633E+02  0.79667783941E+02  0.31851064855E+03  0.32974260010E+03  0.00000000000E+00 0. -1.
         -5    1    3    3    0  503 -0.23281247492E+02 -0.28705770991E+02  0.71813140027E+02  0.80902749357E+02  0.47000000000E+01 0.  1.
         13    1    4    4    0    0  0.52061856091E+02 -0.62729551084E+02  0.41891004988E+02  0.91653094535E+02  0.00000000000E+00 0. -1.
        -14    1    4    4    0    0  0.38337868558E+02 -0.29443142018E+02 -0.36719068795E+02  0.60704042622E+02  0.00000000000E+00 0.  1.
</event>
<event>
12    1  0.8494789E-002  0.2389604E+03  0.7818608E-02  0.1120697E+00
         21   -1    0    0  503  502  0.00000000000E+00  0.00000000000E+00  0.52235438990E+03  0.52235438990E+03  0.00000000000E+00 0.  1.
         21   -1    0    0  501  503 -0.00000000000E+00 -0.00000000000E+00 -0.11017368365E+03  0.11017368365E+03  0.00000000000E+00 0. -1.
          6    2    1    2  501    0 -0.10399052216E+03  0.12710054431E+03  0.17061529211E+03  0.29361822084E+03  0.17359004764E+03 0.  0.
         24    2    3    3    0    0 -0.30077992048E+02 -0.61714899146E+01  0.51699480042E+02  0.10025959658E+03  0.80227037685E+02 0.  0.
         -6    2    1    2    0  502  0.10399052216E+03 -0.12710054431E+03  0.24156541414E+03  0.33890985272E+03  0.17186466158E+03 0.  0.
        -24    2    5    5    0    0  0.14102565199E+03 -0.11095131701E+03  0.19279467228E+03  0.27540336765E+03  0.80490993218E+02 0.  0.
          5    1    3    3  501    0 -0.73912530117E+02  0.13327203423E+03  0.11891581207E+03  0.19335862426E+03  0.47000000000E+01 0. -1.
        -13    1    4    4    0    0  0.68136863491E+01  0.17295015127E+01  0.60998512036E+02  0.61402247253E+02  0.00000000000E+00 0.  1.
         14    1    4    4    0    0 -0.36891678397E+02 -0.79009914273E+01 -0.92990319935E+01  0.38857349324E+02  0.00000000000E+00 0. -1.
         -5    1    5    5    0  502 -0.37035129830E+02 -0.16149227303E+02  0.48770741856E+02  0.63506485064E+02  0.47000000000E+01 0.  1.
         13    1    6    6    0    0  0.66123224206E+02 -0.56749752635E+02  0.37919233316E+02  0.95029908233E+02  0.00000000000E+00 0. -1.
        -14    1    6    6    0    0  0.74902427789E+02 -0.54201564375E+02  0.15487543896E+03  0.18037345942E+03  0.00000000000E+00 0.  1.
</event>
<event>
12    1  0.8494789E-002  0.2408098E+03  0.7818608E-02  0.1122137E+00
         21   -1    0    0  503  502  0.00000000000E+00  0.00000000000E+00  0.13735029135E+04  0.13735029135E+04  0.00000000000E+00 0.  1.
         21   -1    0    0  501  503 -0.00000000000E+00 -0.00000000000E+00 -0.41501049541E+02  0.41501049541E+02  0.00000000000E+00 0.  1.
          6    2    1    2  501    0 -0.13750530016E+03 -0.47314335954E+02  0.85015324916E+03  0.88360052598E+03  0.19194527478E+03 0.  0.
         24    2    3    3    0    0 -0.86750881521E+02 -0.45646069432E+02  0.80659684669E+03  0.81653306502E+03  0.80737191446E+02 0.  0.
         -6    2    1    2    0  502  0.13750530016E+03  0.47314335954E+02  0.48184861483E+03  0.53140343709E+03  0.17048510602E+03 0.  0.
        -24    2    5    5    0    0  0.14845496965E+03 -0.99752225421E+01  0.37952466687E+03  0.41352948279E+03  0.69493001787E+02 0.  0.
          5    1    3    3  501    0 -0.50754418636E+02 -0.16682665219E+01  0.43556402470E+02  0.67067460966E+02  0.47000000000E+01 0. -1.
        -13    1    4    4    0    0 -0.51609374480E+02  0.31176059846E+01  0.18663611264E+03  0.19366539584E+03  0.00000000000E+00 0.  1.
         14    1    4    4    0    0 -0.35141507041E+02 -0.48763675416E+02  0.61996073404E+03  0.62286766918E+03  0.00000000000E+00 0. -1.
         -5    1    5    5    0  502 -0.10949669490E+02  0.57289558496E+02  0.10232394797E+03  0.11787395430E+03  0.47000000000E+01 0.  1.
         11    1    6    6    0    0  0.26598290835E+02 -0.57572050670E+01  0.19668401840E+02  0.33577678843E+02  0.00000000000E+00 0. -1.
        -12    1    6    6    0    0  0.12185667881E+03 -0.42180174751E+01  0.35985626503E+03  0.37995180395E+03  0.00000000000E+00 0.  1.
</event>
<event>
12    1  0.8494789E-002  0.2151797E+03  0.7818608E-02  0.1137697E+00
         21   -1    0    0  501  502  0.00000000000E+00  0.00000000000E+00  0.20563784332E+03  0.20563784332E+03  0.00000000000E+00 0.  1.
         21   -1    0    0  502  503 -0.00000000000E+00 -0.00000000000E+00 -0.39640385268E+03  0.39640385268E+03  0.00000000000E+00 0. -1.
         -6    2    1    2    0  503  0.99084053066E+01 -0.12841093641E+03 -0.29386868546E+03  0.36422673941E+03  0.17237972131E+03 0.  0.
        -24    2    3    3    0    0 -0.52680458768E+02 -0.78652626168E+02 -0.22640515495E+03  0.25950485395E+03  0.84391994275E+02 0.  0.
          6    2    1    2  501    0 -0.99084053066E+01  0.12841093641E+03  0.10310267610E+03  0.23781495659E+03  0.17128411098E+03 0.  0.
         24    2    5    5    0    0  0.57346664002E+01  0.36323122468E+02  0.11403377423E+03  0.14365312741E+03  0.79248114961E+02 0.  0.
          5    1    5    5  501    0 -0.15643071707E+02  0.92087813941E+02 -0.10931098130E+02  0.94161829184E+02  0.47000000000E+01 0. -1.
        -13    1    6    6    0    0  0.13181972295E+02 -0.21932424381E+02  0.53536964388E+02  0.59338033239E+02  0.00000000000E+00 0.  1.
         14    1    6    6    0    0 -0.74473058949E+01  0.58255546850E+02  0.60496809839E+02  0.84315094168E+02  0.00000000000E+00 0. -1.
         -5    1    3    3    0  503  0.62588864075E+02 -0.49758310242E+02 -0.67463530506E+02  0.10472188545E+03  0.47000000000E+01 0.  1.
         11    1    4    4    0    0 -0.48537801039E+02 -0.46530098890E+01 -0.12273621457E+03  0.13206720637E+03  0.00000000000E+00 0. -1.
        -12    1    4    4    0    0 -0.41426577292E+01 -0.73999616279E+02 -0.10366894038E+03  0.12743764759E+03  0.00000000000E+00 0.  1.
</event>
<event>
12    1  0.8494789E-002  0.1820821E+03  0.7818608E-02  0.1165864E+00
         21   -1    0    0  503  502  0.00000000000E+00  0.00000000000E+00  0.10414447827E+03  0.10414447827E+03  0.00000000000E+00 0.  1.
         21   -1    0    0  501  503 -0.00000000000E+00 -0.00000000000E+00 -0.11929484256E+04  0.11929484256E+04  0.00000000000E+00 0.  1.
          6    2    1    2  501    0  0.56959942795E+02 -0.18129394319E+02 -0.10999546717E+04  0.11149233972E+04  0.17199067327E+03 0.  0.
         24    2    3    3    0    0  0.49977461880E+01 -0.43026609895E+02 -0.94767852594E+03  0.95204290173E+03  0.80092643763E+02 0.  0.
         -6    2    1    2    0  502 -0.56959942795E+02  0.18129394319E+02  0.11150724374E+02  0.18216950672E+03  0.17172152021E+03 0.  0.
        -24    2    5    5    0    0  0.16172926233E+02 -0.17918745919E+02 -0.32249626165E+02  0.89684019348E+02  0.80128271792E+02 0.  0.
          5    1    3    3  501    0  0.51962196607E+02  0.24897215576E+02 -0.15227614578E+03  0.16288049543E+03  0.47000000000E+01 0. -1.
        -11    1    4    4    0    0  0.29997900284E+02 -0.53159049549E+02 -0.75831802339E+03  0.76077065083E+03  0.00000000000E+00 0.  1.
         12    1    4    4    0    0 -0.25000154096E+02  0.10132439654E+02 -0.18936050255E+03  0.19127225090E+03  0.00000000000E+00 0. -1.
         -5    1    5    5    0  502 -0.73132869028E+02  0.36048140238E+02  0.43400350539E+02  0.92485487369E+02  0.47000000000E+01 0.  1.
         11    1    6    6    0    0 -0.16506581482E+02 -0.16583289809E+02 -0.47987402037E+02  0.53387858988E+02  0.00000000000E+00 0. -1.
        -12    1    6    6    0    0  0.32679507715E+02 -0.13354561106E+01  0.15737775872E+02  0.36296160360E+02  0.00000000000E+00 0.  1.
</event>
<event>
12    1  0.8494789E-002  0.1774342E+03  0.7818608E-02  0.1170575E+00
         21   -1    0    0  501  502  0.00000000000E+00  0.00000000000E+00  0.61828485865E+02  0.61828485865E+02  0.00000000000E+00 0.  1.
         21   -1    0    0  502  503 -0.00000000000E+00 -0.00000000000E+00 -0.50611887966E+03  0.50611887966E+03  0.00000000000E+00 0.  1.
         -6    2    1    2    0  503 -0.21366548465E+02 -0.29159012865E+02 -0.22113211476E+03  0.28284645872E+03  0.17261497503E+03 0.  0.
        -24    2    3    3    0    0  0.31345974079E+02  0.34475875888E+02 -0.10666567716E+03  0.14159255811E+03  0.80620901255E+02 0.  0.
          6    2    1    2  501    0  0.21366548465E+02  0.29159012865E+02 -0.22315827904E+03  0.28510090681E+03  0.17371278634E+03 0.  0.
         24    2    5    5    0    0  0.33033259856E+02  0.79236517390E+02 -0.18643347630E+03  0.22173948519E+03  0.83912670439E+02 0.  0.
          5    1    5    5  501    0 -0.11666711391E+02 -0.50077504526E+02 -0.36724802733E+02  0.63361421622E+02  0.47000000000E+01 0. -1.
        -13    1    6    6    0    0  0.51025485169E+02  0.17926206592E+02 -0.10614523639E+03  0.11912917455E+03  0.00000000000E+00 0.  1.
         14    1    6    6    0    0 -0.17992225313E+02  0.61310310798E+02 -0.80288239909E+02  0.10261031064E+03  0.00000000000E+00 0. -1.
         -5    1    3    3    0  503 -0.52712522544E+02 -0.63634888753E+02 -0.11446643761E+03  0.14125390061E+03  0.47000000000E+01 0.  1.
         13    1    4    4    0    0 -0.88453406494E+01  0.46333524919E+02 -0.76820415974E+02  0.90146613320E+02  0.00000000000E+00 0. -1.
        -14    1    4    4    0    0  0.40191314728E+02 -0.11857649031E+02 -0.29845261181E+02  0.51445944787E+02  0.00000000000E+00 0.  1.
</event>
<event>
12    1  0.8494789E-002  0.2418143E+03  0.7818608E-02  0.1118700E+00
         21   -1    0    0  503  502  0.00000000000E+00  0.00000000000E+00  0.16378549125E+03  0.16378549125E+03  0.00000000000E+00 0. -1.
         21   -1    0    0  501  503 -0.00000000000E+00 -0.00000000000E+00 -0.35937195253E+03  0.35937195253E+03  0.00000000000E+00 0. -1.
          6    2    1    2  501    0 -0.76328575242E+02  0.15282959562E+03 -0.12285597798E+03  0.27064231755E+03  0.17020792000E+03 0.  0.
         24    2    3    3    0    0 -0.77405511638E+02  0.39365832399E+02 -0.26636121954E+02  0.12179495933E+03  0.81137211768E+02 0.  0.
         -6    2    1    2    0  502  0.76328575242E+02 -0.15282959562E+03 -0.72730483299E+02  0.25251512623E+03  0.17114680563E+03 0.  0.
        -24    2    5    5    0    0  0.49945302083E+02 -0.15213357467E+03 -0.10757979001E+03  0.20854780057E+03  0.79244029174E+02 0.  0.
          5    1    3    3  501    0  0.10769363962E+01  0.11346376322E+03 -0.96219856022E+02  0.14884735822E+03  0.47000000000E+01 0. -1.
        -11    1    4    4    0    0 -0.44983287552E+01  0.14684870974E+02 -0.40742853098E+02  0.43541479944E+02  0.00000000000E+00 0.  1.
         12    1    4    4    0    0 -0.72907182883E+02  0.24680961424E+02  0.14106731144E+02  0.78253479388E+02  0.00000000000E+00 0. -1.
         -5    1    5    5    0  502  0.26383273159E+02 -0.69602094664E+00  0.34849306707E+02  0.43967325661E+02  0.47000000000E+01 0.  1.
         13    1    6    6    0    0  0.23242902377E+02 -0.23784598309E+02 -0.60899065299E+02  0.69387576567E+02  0.00000000000E+00 0. -1.
        -14    1    6    6    0    0  0.26702399706E+02 -0.12834897637E+03 -0.46680724708E+02  0.13916022400E+03  0.00000000000E+00 0.  1.
</event>
<event>
12    1  0.8494789E-002  0.1778178E+03  0.7818608E-02  0.1170194E+00
         21   -1    0    0  501  502  0.00000000000E+00  0.00000000000E+00  0.13465985065E+04  0.13465985065E+04  0.00000000000E+00 0. -1.
         21   -1    0    0  502  503 -0.00000000000E+00 -0.00000000000E+00 -0.40074310063E+02  0.40074310063E+02  0.00000000000E+00 0. -1.
         -6    2    1    2    0  503 -0.25758358983E+02 -0.37270877645E+02  0.20409431372E+03  0.26999433563E+03  0.17085034680E+03 0.  0.
        -24    2    3    3    0    0  0.10466149227E+02 -0.80498542399E+01  0.25986315075E+02  0.85845937901E+02  0.80745873270E+02 0.  0.
          6    2    1    2  501    0  0.25758358983E+02  0.37270877645E+02  0.11024298827E+04  0.11166784810E+04  0.17194933004E+03 0.  0.
         24    2    5    5    0    0  0.28372379986E+02  0.89521453323E+02  0.84377198075E+03  0.85274107166E+03  0.79981855746E+02 0.  0.
          5    1    5    5  501    0 -0.26140210029E+01 -0.52250575678E+02  0.25865790198E+03  0.26393740929E+03  0.47000000000E+01 0. -1.
        -13    1    6    6    0    0  0.31953855415E+02 -0.17190375680E+01  0.22898420006E+03  0.23120935933E+03  0.00000000000E+00 0.  1.
         14    1    6    6    0    0 -0.35814754296E+01  0.91240490891E+02  0.61478778069E+03  0.62153171233E+03  0.00000000000E+00 0. -1.
         -5    1    3    3    0  503 -0.36224508209E+02 -0.29221023405E+02  0.17810799865E+03  0.18414839773E+03  0.47000000000E+01 0.  1.
         13    1    4    4    0    0  0.25518084764E+02 -0.32985107470E+02  0.35952952909E+02  0.55061826955E+02  0.00000000000E+00 0. -1.
        -14    1    4    4    0    0 -0.15051935537E+02  0.24935253230E+02 -0.99666378336E+01  0.30784110946E+02  0.00000000000E+00 0.  1.
</event>
<event>
12    1  0.8494789E-002  0.2186509E+03  0.7818608E-02  0.1134989E+00
         21   -1    0    0  501  502  0.00000000000E+00  0.00000000000E+00  0.16791760527E+03  0.16791760527E+03  0.00000000000E+00 0. -1.
         21   -1    0    0  502  503 -0.00000000000E+00 -0.00000000000E+00 -0.89412842328E+03  0.89412842328E+03  0.00000000000E+00 0. -1.
         -6    2    1    2    0  503  0.81964556651E+01 -0.13336575400E+03 -0.80188067217E+03  0.83115631893E+03  0.17307399537E+03 0.  0.
        -24    2    3    3    0    0 -0.11018918675E+02 -0.10891300258E+03 -0.31097276575E+03  0.33924186473E+03  0.79984517556E+02 0.  0.
          6    2    1    2  501    0 -0.81964556651E+01  0.13336575400E+03  0.75669854161E+02  0.23088970962E+03  0.17242541852E+03 0.  0.
         24    2    5    5    0    0 -0.31707419788E+02  0.41212457979E+01  0.22629635404E+02  0.89142529256E+02  0.80074621367E+02 0.  0.
          5    1    5    5  501    0  0.23510964123E+02  0.12924450820E+03  0.53040218756E+02  0.14174718036E+03  0.47000000000E+01 0. -1.
        -11    1    6    6    0    0 -0.24268338255E+01 -0.14155888895E+02 -0.25884656786E+02  0.29602266294E+02  0.00000000000E+00 0.  1.
         12    1    6    6    0    0 -0.29280585963E+02  0.18277134693E+02  0.48514292190E+02  0.59540262962E+02  0.00000000000E+00 0. -1.
         -5    1    3    3    0  503  0.19215374340E+02 -0.24452751419E+02 -0.49090790642E+03  0.49191445420E+03  0.47000000000E+01 0.  1.
         13    1    4    4    0    0 -0.35079184811E+02 -0.16377122946E+02 -0.11169166288E+03  0.11821077328E+03  0.00000000000E+00 0. -1.
        -14    1    4    4    0    0  0.24060266137E+02 -0.92535879638E+02 -0.19928110287E+03  0.22103109145E+03  0.00000000000E+00 0.  1.
</event>
<event>
12    1  0.8494789E-002  0.1953483E+03  0.7818608E-02  0.1153963E+00
         21   -1    0    0  501  502  0.00000000000E+00  0.00000000000E+00  0.18108930460E+03  0.18108930460E+03  0.00000000000E+00 0.  1.
         21   -1    0    0  502  503 -0.00000000000E+00 -0.00000000000E+00 -0.21708776666E+03  0.21708776666E+03  0.00000000000E+00 0. -1.
         -6    2    1    2    0  503 -0.73098271880E+02 -0.56244796804E+02  0.19145414732E+02  0.19519482650E+03  0.17096092789E+03 0.  0.
        -24    2    3    3    0    0 -0.19487726499E+02  0.15615764986E+02  0.54557548052E+02  0.98685033712E+02  0.78349130367E+02 0.  0.
          6    2    1    2  501    0  0.73098271880E+02  0.56244796804E+02 -0.55143876789E+02  0.20298224476E+03  0.17220368760E+03 0.  0.
         24    2    5    5    0    0 -0.20161269474E+02 -0.24271667028E+01 -0.56045715753E+01  0.82085701732E+02  0.79336519216E+02 0.  0.
          5    1    5    5  501    0  0.93259541354E+02  0.58671963507E+02 -0.49539305214E+02  0.12089654303E+03  0.47000000000E+01 0. -1.
        -13    1    6    6    0    0  0.11251706376E+02  0.10054034159E+02  0.29635135038E+02  0.33255461626E+02  0.00000000000E+00 0.  1.
         14    1    6    6    0    0 -0.31412975849E+02 -0.12481200862E+02 -0.35239706613E+02  0.48830240106E+02  0.00000000000E+00 0. -1.
         -5    1    3    3    0  503 -0.53610545381E+02 -0.71860561790E+02 -0.35412133319E+02  0.96509792783E+02  0.47000000000E+01 0.  1.
         13    1    4    4    0    0 -0.27555394714E+02  0.70519712520E+01 -0.12163117407E+02  0.30934955979E+02  0.00000000000E+00 0. -1.
        -14    1    4    4    0    0  0.80676682147E+01  0.85637937342E+01  0.66720665459E+02  0.67750077733E+02  0.00000000000E+00 0.  1.
</event>
<event>
12    1  0.8494789E-002  0.2854738E+03  0.7818608E-02  0.1093823E+00
         21   -1    0    0  501  502  0.00000000000E+00  0.00000000000E+00  0.62015844880E+02  0.62015844880E+02  0.00000000000E+00 0.  1.
         21   -1    0    0  502  503 -0.00000000000E+00 -0.00000000000E+00 -0.12833629507E+04  0.12833629507E+04  0.00000000000E+00 0. -1.
         -6    2    1    2    0  503 -0.11741669174E+03  0.18857249075E+03 -0.66527897395E+03  0.72394159002E+03  0.17930155829E+03 0.  0.
        -24    2    3    3    0    0  0.15770311317E+02  0.71199455140E+02 -0.22424378309E+03  0.24849512947E+03  0.78399553452E+02 0.  0.
          6    2    1    2  501    0  0.11741669174E+03 -0.18857249075E+03 -0.55606813187E+03  0.62143720557E+03  0.16621121927E+03 0.  0.
         24    2    5    5    0    0  0.11661867858E+03 -0.69460363149E+02 -0.27839034556E+03  0.31925285988E+03  0.77437366945E+02 0.  0.
          5    1    5    5  501    0  0.79801316753E+00 -0.11911212760E+03 -0.27767778632E+03  0.30218434569E+03  0.47000000000E+01 0. -1.
        -11    1    6    6    0    0  0.19025449680E+02 -0.29924813669E+02 -0.21133496634E+02  0.41280587310E+02  0.00000000000E+00 0.  1.
         12    1    6    6    0    0  0.97593228895E+02 -0.39535549480E+02 -0.25725684892E+03  0.27797227257E+03  0.00000000000E+00 0. -1.
         -5    1    3    3    0  503 -0.13318700306E+03  0.11737303561E+03 -0.44103519086E+03  0.47544646055E+03  0.47000000000E+01 0.  1.
         11    1    4    4    0    0  0.36244743648E+02  0.67819835896E+02 -0.12234162454E+03  0.14450150407E+03  0.00000000000E+00 0. -1.
        -12    1    4    4    0    0 -0.20474432331E+02  0.33796192435E+01 -0.10190215856E+03  0.10399362540E+03  0.00000000000E+00 0.  1.
</event>
<event>
12    1  0.8494789E-002  0.2036084E+03  0.7818608E-02  0.1147551E+00
         21   -1    0    0  503  502  0.00000000000E+00  0.00000000000E+00  0.53918263630E+03  0.53918263630E+03  0.00000000000E+00 0.  1.
         21   -1    0    0  501  503 -0.00000000000E+00 -0.00000000000E+00 -0.12339700408E+03  0.12339700408E+03  0.00000000000E+00 0.  1.
          6    2    1    2  501    0  0.10066442685E+03 -0.96380192289E+01  0.25383736379E+01  0.20362418046E+03  0.17672052875E+03 0.  0.
         24    2    3    3    0    0  0.94449240304E+02  0.52330393773E+02  0.19782067542E+02  0.13883106560E+03  0.84991796508E+02 0.  0.
         -6    2    1    2    0  502 -0.10066442685E+03  0.96380192289E+01  0.41324725858E+03  0.45895545992E+03  0.17216445400E+03 0.  0.
        -24    2    5    5    0    0 -0.17378406601E+02  0.61149460063E+02  0.20588401661E+03  0.22958328675E+03  0.79240089458E+02 0.  0.
          5    1    3    3  501    0  0.62151865410E+01 -0.61968413002E+02 -0.17243693904E+02  0.64793114859E+02  0.47000000000E+01 0. -1.
        -13    1    4    4    0    0  0.57238638083E+02 -0.15401799070E+02  0.91885562474E+00  0.59281712187E+02  0.00000000000E+00 0.  1.
         14    1    4    4    0    0  0.37210602222E+02  0.67732192843E+02  0.18863211917E+02  0.79549353416E+02  0.00000000000E+00 0. -1.
         -5    1    5    5    0  502 -0.83286020245E+02 -0.51511440834E+02  0.20736324197E+03  0.22937217317E+03  0.47000000000E+01 0.  1.
         13    1    6    6    0    0  0.31508136576E+02  0.28824197827E+02  0.95248760985E+02  0.10438354047E+03  0.00000000000E+00 0. -1.
        -14    1    6    6    0    0 -0.48886543177E+02  0.32325262236E+02  0.11063525563E+03  0.12519974629E+03  0.00000000000E+00 0.  1.
</event>
<event>
12    1  0.8494789E-002  0.1942619E+03  0.7818608E-02  0.1154697E+00
         21   -1    0    0  503  502  0.00000000000E+00  0.00000000000E+00  0.50396098039E+03  0.50396098039E+03  0.00000000000E+00 0. -1.
         21   -1    0    0  501  503 -0.00000000000E+00 -0.00000000000E+00 -0.84879780357E+02  0.84879780357E+02  0.00000000000E+00 0. -1.
          6    2    1    2  501    0  0.67951973786E+02 -0.55634010851E+02  0.10832926351E+03  0.22242510817E+03  0.17327748125E+03 0.  0.
         24    2    3    3    0    0  0.69341104879E+02 -0.91585928048E+02  0.41346205049E+02  0.14624577924E+03  0.80511789397E+02 0.  0.
         -6    2    1    2    0  502 -0.67951973786E+02  0.55634010851E+02  0.31075193652E+03  0.36641565257E+03  0.17315036960E+03 0.  0.
        -24    2    5    5    0    0 -0.61938734841E+02  0.99096596917E+02  0.27045576633E+03  0.30665758398E+03  0.85064739319E+02 0.  0.
          5    1    3    3  501    0 -0.13891310931E+01  0.35951917197E+02  0.66983058461E+02  0.76179328930E+02  0.47000000000E+01 0. -1.
        -13    1    4    4    0    0  0.11762113059E+02  0.15042440178E+02  0.59499141995E+01  0.20000594718E+02  0.00000000000E+00 0.  1.
         14    1    4    4    0    0  0.57578991820E+02 -0.10662836823E+03  0.35396290850E+02  0.12624518452E+03  0.00000000000E+00 0. -1.
         -5    1    5    5    0  502 -0.60132389450E+01 -0.43462586066E+02  0.40296170186E+02  0.59758068592E+02  0.47000000000E+01 0.  1.
         13    1    6    6    0    0 -0.58150349827E+02  0.41905601988E+02  0.21605738246E+03  0.22763641004E+03  0.00000000000E+00 0. -1.
        -14    1    6    6    0    0 -0.37883850139E+01  0.57190994929E+02  0.54398383873E+02  0.79021173934E+02  0.00000000000E+00 0.  1.
</event>
<event>
12    1  0.8494789E-002  0.2794949E+03  0.7818608E-02  0.1096089E+00
         21   -1    0    0  503  502  0.00000000000E+00  0.00000000000E+00  0.50383636191E+02  0.50383636191E+02  0.00000000000E+00 0.  1.
         21   -1    0    0  501  503 -0.00000000000E+00 -0.00000000000E+00 -0.17284885145E+04  0.17284885145E+04  0.00000000000E+00 0. -1.
          6    2    1    2  501    0  0.45253219574E+02 -0.21531368214E+03 -0.11272860890E+04  0.11612001396E+04  0.17089178514E+03 0.  0.
         24    2    3    3    0    0  0.18819987771E+02 -0.69311325547E+02 -0.71418396020E+03  0.72223446593E+03  0.80035260796E+02 0.  0.
         -6    2    1    2    0  502 -0.45253219574E+02  0.21531368214E+03 -0.55081878934E+03  0.61767201109E+03  0.17236455261E+03 0.  0.
        -24    2    5    5    0    0 -0.29825108329E+02  0.22694096111E+03 -0.40758171763E+03  0.47306160709E+03  0.72613295213E+02 0.  0.
          5    1    3    3  501    0  0.26433231803E+02 -0.14600235659E+03 -0.41310212876E+03  0.43896567367E+03  0.47000000000E+01 0. -1.
        -11    1    4    4    0    0  0.46022442662E+02 -0.37137663455E+02 -0.53020839278E+03  0.53349621466E+03  0.00000000000E+00 0.  1.
         12    1    4    4    0    0 -0.27202454891E+02 -0.32173662092E+02 -0.18397556742E+03  0.18873825127E+03  0.00000000000E+00 0. -1.
         -5    1    5    5    0  502 -0.15428111246E+02 -0.11627278971E+02 -0.14323707170E+03  0.14461040399E+03  0.47000000000E+01 0.  1.
         13    1    6    6    0    0 -0.17232998799E+02  0.19212929473E+02 -0.18283241586E+02  0.31628939746E+02  0.00000000000E+00 0. -1.
        -14    1    6    6    0    0 -0.12592109530E+02  0.20772803164E+03 -0.38929847605E+03  0.44143266735E+03  0.00000000000E+00 0.  1.
</event>
<event>
12    1  0.8494789E-002  0.1713072E+03  0.7818608E-02  0.1176582E+00
         21   -1    0    0  503  502  0.00000000000E+00  0.00000000000E+00  0.58236789895E+03  0.58236789895E+03  0.00000000000E+00 0.  1.
         21   -1    0    0  501  503 -0.00000000000E+00 -0.00000000000E+00 -0.51123866486E+02  0.51123866486E+02  0.00000000000E+00 0.  1.
          6    2    1    2  501    0  0.14461910997E+01 -0.35939940751E+01  0.30639795332E+03  0.35103543545E+03  0.17126343125E+03 0.  0.
         24    2    3    3    0    0  0.56067371608E+02 -0.30578048473E+02  0.23993034528E+03  0.26074897207E+03  0.79654809288E+02 0.  0.
         -6    2    1    2    0  502 -0.14461910997E+01  0.35939940751E+01  0.22484607915E+03  0.28245632998E+03  0.17091170462E+03 0.  0.
        -24    2    5    5    0    0  0.59516485607E+02  0.21410116441E+02  0.10333655071E+03  0.14526843814E+03  0.80149056526E+02 0.  0.
          5    1    3    3  501    0 -0.54621180508E+02  0.26984054398E+02  0.66467608041E+02  0.90286463385E+02  0.47000000000E+01 0. -1.
        -13    1    4    4    0    0  0.31069973442E+02 -0.29111480299E+01  0.18661226291E+02  0.36360134753E+02  0.00000000000E+00 0.  1.
         14    1    4    4    0    0  0.24997398166E+02 -0.27666900443E+02  0.22126911898E+03  0.22438883731E+03  0.00000000000E+00 0. -1.
         -5    1    5    5    0  502 -0.60962676707E+02 -0.17816122366E+02  0.12150952843E+03  0.13718789184E+03  0.47000000000E+01 0.  1.
         13    1    6    6    0    0  0.28060515306E+02  0.47191629720E+02  0.83710310929E+02  0.10010923329E+03  0.00000000000E+00 0. -1.
        -14    1    6    6    0    0  0.31455970301E+02 -0.25781513278E+02  0.19626239785E+02  0.45159204849E+02  0.00000000000E+00 0.  1.
</event>
<event>
12    1  0.8494789E-002  0.4314478E+03  0.7818608E-02  0.1033577E+00
         21   -1    0    0  503  502  0.00000000000E+00  0.00000000000E+00  0.17723480854E+03  0.17723480854E+03  0.00000000000E+00 0.  1.
         21   -1    0    0  501  503 -0.00000000000E+00 -0.00000000000E+00 -0.11492951278E+04  0.11492951278E+04  0.00000000000E+00 0. -1.
          6    2    1    2  501    0 -0.31419910898E+03 -0.23858064543E+03 -0.68476475780E+03  0.80818072107E+03  0.16914934209E+03 0.  0.
         24    2    3    3    0    0 -0.24790903952E+03 -0.17862087249E+03 -0.62518690244E+03  0.70065789313E+03  0.81844439344E+02 0.  0.
         -6    2    1    2    0  502  0.31419910898E+03  0.23858064543E+03 -0.28729556148E+03  0.51834921529E+03  0.17465785094E+03 0.  0.
        -24    2    5    5    0    0  0.11167339018E+03  0.12462255208E+03 -0.64084160567E+02  0.19609383006E+03  0.79651013753E+02 0.  0.
          5    1    3    3  501    0 -0.66290069463E+02 -0.59959772938E+02 -0.59577855355E+02  0.10752282794E+03  0.47000000000E+01 0. -1.
        -11    1    4    4    0    0 -0.63060705333E+02 -0.12298959824E+02 -0.17405820092E+03  0.18553752795E+03  0.00000000000E+00 0.  1.
         12    1    4    4    0    0 -0.18484833418E+03 -0.16632191266E+03 -0.45112870152E+03  0.51512036518E+03  0.00000000000E+00 0. -1.
         -5    1    5    5    0  502  0.20252571880E+03  0.11395809335E+03 -0.22321140091E+03  0.32225538523E+03  0.47000000000E+01 0.  1.
         13    1    6    6    0    0 -0.38713942543E+01  0.10143420703E+02 -0.27234201257E+02  0.29318567413E+02  0.00000000000E+00 0. -1.
        -14    1    6    6    0    0  0.11554478444E+03  0.11447913137E+03 -0.36849959310E+02  0.16677526265E+03  0.00000000000E+00 0.  1.
</event>
<event>
12    1  0.8494789E-002  0.1772186E+03  0.7818608E-02  0.1170756E+00
         21   -1    0    0  503  502  0.00000000000E+00  0.00000000000E+00  0.59219044630E+02  0.59219044630E+02  0.00000000000E+00 0.  1.
         21   -1    0    0  501  503 -0.00000000000E+00 -0.00000000000E+00 -0.62900934452E+03  0.62900934452E+03  0.00000000000E+00 0.  1.
          6    2    1    2  501    0  0.35998189978E+02  0.16967713438E+02 -0.42375258067E+03  0.45931764515E+03  0.17269243335E+03 0.  0.
         24    2    3    3    0    0 -0.56106108545E+01  0.21642322288E+02 -0.40444444945E+03  0.41297071207E+03  0.80433993235E+02 0.  0.
         -6    2    1    2    0  502 -0.35998189978E+02 -0.16967713438E+02 -0.14603771921E+03  0.22891074400E+03  0.17172460599E+03 0.  0.
        -24    2    5    5    0    0  0.38308398560E+02  0.10475878936E+02 -0.40896339380E+02  0.97185956598E+02  0.78710368729E+02 0.  0.
          5    1    3    3  501    0  0.41608800832E+02 -0.46746088495E+01 -0.19308131226E+02  0.46346933081E+02  0.47000000000E+01 0. -1.
        -11    1    4    4    0    0  0.86139676553E+01 -0.27976405704E+02 -0.19898317122E+03  0.20112479247E+03  0.00000000000E+00 0.  1.
         12    1    4    4    0    0 -0.14224578510E+02  0.49618727992E+02 -0.20546127822E+03  0.21184591960E+03  0.00000000000E+00 0. -1.
         -5    1    5    5    0  502 -0.74306588538E+02 -0.27443592374E+02 -0.10514137983E+03  0.13172478740E+03  0.47000000000E+01 0.  1.
         11    1    6    6    0    0  0.10413670629E+02 -0.27658148141E+02 -0.40249172234E+02  0.49934092162E+02  0.00000000000E+00 0. -1.
        -12    1    6    6    0    0  0.27894727931E+02  0.38134027076E+02 -0.64716714676E+00  0.47251864436E+02  0.00000000000E+00 0.  1.
</event>
<event>
12    1  0.8494789E-002  0.2310683E+03  0.7818608E-02  0.1126353E+00
         21   -1    0    0  503  502  0.00000000000E+00  0.00000000000E+00  0.93068312510E+02  0.93068312510E+02  0.00000000000E+00 0. -1.
         21   -1    0    0  501  503 -0.00000000000E+00 -0.00000000000E+00 -0.63566882751E+03  0.63566882751E+03  0.00000000000E+00 0.  1.
          6    2    1    2  501    0  0.47098584299E+01  0.15023247943E+03 -0.15308882488E+03  0.27717999671E+03  0.17550094482E+03 0.  0.
         24    2    3    3    0    0 -0.23589841885E+02  0.80944825969E+02 -0.16476601890E+03  0.20128468184E+03  0.79114705756E+02 0.  0.
         -6    2    1    2    0  502 -0.47098584299E+01 -0.15023247943E+03 -0.38951169012E+03  0.45155714331E+03  0.17202475489E+03 0.  0.
        -24    2    5    5    0    0 -0.50089482176E+02 -0.58664593270E+02 -0.12084268321E+03  0.16406955523E+03  0.79783294867E+02 0.  0.
          5    1    3    3  501    0  0.28299700315E+02  0.69287653459E+02  0.11677194018E+02  0.75895314875E+02  0.47000000000E+01 0. -1.
        -13    1    4    4    0    0 -0.32447676545E+02  0.81752722949E+02 -0.89466319272E+02  0.12546147499E+03  0.00000000000E+00 0.  1.
         14    1    4    4    0    0  0.88578346604E+01 -0.80789698002E+00 -0.75299699630E+02  0.75823206848E+02  0.00000000000E+00 0. -1.
         -5    1    5    5    0  502  0.45379623746E+02 -0.91567886158E+02 -0.26866900691E+03  0.28748758808E+03  0.47000000000E+01 0.  1.
         13    1    6    6    0    0 -0.41634670681E+01  0.16205174615E+02 -0.28467901053E+01  0.16971928477E+02  0.00000000000E+00 0. -1.
        -14    1    6    6    0    0 -0.45926015108E+02 -0.74869767885E+02 -0.11799589311E+03  0.14709762675E+03  0.00000000000E+00 0.  1.
</event>
<event>
12    1  0.8494789E-002  0.2407683E+03  0.7818608E-02  0.1119862E+00
         21   -1    0    0  501  502  0.00000000000E+00  0.00000000000E+00  0.82416510490E+02  0.82416510490E+02  0.00000000000E+00 0. -1.
         21   -1    0    0  502  503 -0.00000000000E+00 -0.00000000000E+00 -0.18304347124E+04  0.18304347124E+04  0.00000000000E+00 0.  1.
         -6    2    1    2    0  503 -0.87263874603E+02  0.13793488636E+03 -0.16254505920E+04  0.16426805846E+04  0.17224650715E+03 0.  0.
        -24    2    3    3    0    0 -0.30173037995E+02  0.13238701562E+02 -0.91914293397E+03  0.92316609555E+03  0.79537610385E+02 0.  0.
          6    2    1    2  501    0  0.87263874603E+02 -0.13793488636E+03 -0.12256760983E+03  0.27017063823E+03  0.17699813021E+03 0.  0.
         24    2    5    5    0    0  0.66605882462E+02 -0.14514906785E+03 -0.15173362875E+03  0.23340729081E+03  0.77144499716E+02 0.  0.
          5    1    5    5  501    0  0.20657992141E+02  0.72141814901E+01  0.29166018919E+02  0.36763347419E+02  0.47000000000E+01 0. -1.
        -13    1    6    6    0    0  0.52069270271E+01  0.72637473355E+01  0.10970017401E+01  0.90043060387E+01  0.00000000000E+00 0.  1.
         14    1    6    6    0    0  0.61398955435E+02 -0.15241281518E+03 -0.15283063049E+03  0.22440298478E+03  0.00000000000E+00 0. -1.
         -5    1    3    3    0  503 -0.57090836608E+02  0.12469618480E+03 -0.70630765807E+03  0.71951448907E+03  0.47000000000E+01 0.  1.
         11    1    4    4    0    0  0.17486838434E+01  0.40768063761E+02 -0.57603486662E+03  0.57747836364E+03  0.00000000000E+00 0. -1.
        -12    1    4    4    0    0 -0.31921721838E+02 -0.27529362198E+02 -0.34310806736E+03  0.34568773191E+03  0.00000000000E+00 0.  1.
</event>
<event>
12    1  0.8494789E-002  0.2122578E+03  0.7818608E-02  0.1143823E+00
         21   -1    0    0  501  502  0.00000000000E+00  0.00000000000E+00  0.17443648932E+03  0.17443648932E+03  0.00000000000E+00 0.  1.
         21   -1    0    0  502  503 -0.00000000000E+00 -0.00000000000E+00 -0.27302575671E+03  0.27302575671E+03  0.00000000000E+00 0.  1.
         -6    2    1    2    0  503  0.14063190704E+02 -0.84192314139E+02 -0.13068770384E+03  0.23279110792E+03  0.17270293830E+03 0.  0.
        -24    2    3    3    0    0 -0.18431291515E+02  0.25418062043E+02 -0.55220568754E+02  0.95722860611E+02  0.71608410435E+02 0.  0.
          6    2    1    2  501    0 -0.14063190704E+02  0.84192314139E+02  0.32098436446E+02  0.21467113812E+03  0.19433802723E+03 0.  0.
         24    2    5    5    0    0  0.64273200823E+02  0.96349847826E+01 -0.14727610908E+01  0.10133755571E+03  0.77738368236E+02 0.  0.
          5    1    5    5  501    0 -0.78336391527E+02  0.74557329356E+02  0.33571197537E+02  0.11333358241E+03  0.47000000000E+01 0. -1.
        -13    1    6    6    0    0  0.10269182026E+02  0.20138538026E+02 -0.31413739520E+02  0.38701935920E+02  0.00000000000E+00 0.  1.
         14    1    6    6    0    0  0.54004018797E+02 -0.10503553244E+02  0.29940978429E+02  0.62635619788E+02  0.00000000000E+00 0. -1.
         -5    1    3    3    0  503  0.32494482219E+02 -0.10961037618E+03 -0.75467135084E+02  0.13706824730E+03  0.47000000000E+01 0.  1.
         11    1    4    4    0    0 -0.44471021030E+02  0.24822933455E+02 -0.28300118900E+02  0.58264452855E+02  0.00000000000E+00 0. -1.
        -12    1    4    4    0    0  0.26039729515E+02  0.59512858762E+00 -0.26920449854E+02  0.37458407756E+02  0.00000000000E+00 0.  1.
</event>
<event>
12    1  0.8494789E-002  0.1949436E+03  0.7818608E-02  0.1156030E+00
         21   -1    0    0  501  502  0.00000000000E+00  0.00000000000E+00  0.20272601635E+03  0.20272601635E+03  0.00000000000E+00 0. -1.
         21   -1    0    0  502  503 -0.00000000000E+00 -0.00000000000E+00 -0.20734597474E+03  0.20734597474E+03  0.00000000000E+00 0. -1.
         -6    2    1    2    0  503  0.63657771696E+02  0.32692012604E+02 -0.77950348420E+02  0.20995060132E+03  0.18133372160E+03 0.  0.
        -24    2    3    3    0    0 -0.19686177889E+02 -0.17111160952E+02 -0.85985457933E+01  0.90542341319E+02  0.86276550423E+02 0.  0.
          6    2    1    2  501    0 -0.63657771696E+02 -0.32692012604E+02  0.73330390033E+02  0.20012138978E+03  0.17190155601E+03 0.  0.
         24    2    5    5    0    0 -0.81080072479E+02 -0.59156289885E+02  0.90964756616E+02  0.16355698876E+03  0.91667097920E+02 0.  0.
          5    1    5    5  501    0  0.17422300783E+02  0.26464277281E+02 -0.17634366583E+02  0.36564401012E+02  0.47000000000E+01 0. -1.
        -11    1    6    6    0    0 -0.94789331855E+02 -0.70207893139E+02  0.74958460696E+02  0.13976028235E+03  0.00000000000E+00 0.  1.
         12    1    6    6    0    0  0.13709259375E+02  0.11051603254E+02  0.16006295920E+02  0.23796706415E+02  0.00000000000E+00 0. -1.
         -5    1    3    3    0  503  0.83343949585E+02  0.49803173556E+02 -0.69351802626E+02  0.11940826000E+03  0.47000000000E+01 0.  1.
         11    1    4    4    0    0 -0.37380206906E+02  0.23184844309E+02  0.55012681668E+01  0.44329232177E+02  0.00000000000E+00 0. -1.
        -12    1    4    4    0    0  0.17694029017E+02 -0.40296005261E+02 -0.14099813960E+02  0.46213109142E+02  0.00000000000E+00 0.  1.
</event>
<event>
12    1  0.8494789E-002  0.1992274E+03  0.7818608E-02  0.1150583E+00
         21   -1    0    0  503  502  0.00000000000E+00  0.00000000000E+00  0.17473015152E+03  0.17473015152E+03  0.00000000000E+00 0.  1.
         21   -1    0    0  501  503 -0.00000000000E+00 -0.00000000000E+00 -0.23960092488E+03  0.23960092488E+03  0.00000000000E+00 0.  1.
          6    2    1    2  501    0  0.55330849433E+02 -0.83621205976E+02 -0.81470738829E+02  0.21441335038E+03  0.17111865634E+03 0.  0.
         24    2    3    3    0    0  0.86358142467E+02 -0.50302678894E+02 -0.10253826094E+03  0.16402736376E+03  0.80017453281E+02 0.  0.
         -6    2    1    2    0  502 -0.55330849433E+02  0.83621205976E+02  0.16599965468E+02  0.19991772602E+03  0.17215553821E+03 0.  0.
        -24    2    5    5    0    0 -0.10097824793E+03  0.45923730662E+02 -0.41439079244E+01  0.13701158230E+03  0.80308194590E+02 0.  0.
          5    1    3    3  501    0 -0.31027293034E+02 -0.33318527082E+02  0.21067522116E+02  0.50385986623E+02  0.47000000000E+01 0. -1.
        -11    1    4    4    0    0 -0.12100628188E+02 -0.11134312120E+02 -0.34173932880E+02  0.37924343071E+02  0.00000000000E+00 0.  1.
         12    1    4    4    0    0  0.98458770654E+02 -0.39168366774E+02 -0.68364328065E+02  0.12610302069E+03  0.00000000000E+00 0. -1.
         -5    1    5    5    0  502  0.45647398497E+02  0.37697475314E+02  0.20743873392E+02  0.62906143721E+02  0.47000000000E+01 0.  1.
         13    1    6    6    0    0 -0.63069720339E+02  0.13924460226E+02 -0.39846919779E+02  0.75891087962E+02  0.00000000000E+00 0. -1.
        -14    1    6    6    0    0 -0.37908527591E+02  0.31999270436E+02  0.35703011854E+02  0.61120494337E+02  0.00000000000E+00 0.  1.
</event>
<event>
12    1  0.8494789E-002  0.2513211E+03  0.7818608E-02  0.1112924E+00
         21   -1    0    0  501  502  0.00000000000E+00  0.00000000000E+00  0.40973422423E+03  0.40973422423E+03  0.00000000000E+00 0.  1.
         21   -1    0    0  502  503 -0.00000000000E+00 -0.00000000000E+00 -0.79851569430E+03  0.79851569430E+03  0.00000000000E+00 0.  1.
         -6    2    1    2    0  503  0.11304249666E+03 -0.14337426173E+03 -0.73802389178E+03  0.77964195551E+03  0.17270648216E+03 0.  0.
        -24    2    3    3    0    0  0.34349237262E+02 -0.28787157429E+02 -0.14506765586E+03  0.17059185802E+03  0.77771374623E+02 0.  0.
          6    2    1    2  501    0 -0.11304249666E+03  0.14337426173E+03  0.34924242171E+03  0.42860796302E+03  0.16852219993E+03 0.  0.
         24    2    5    5    0    0 -0.46875503833E+02  0.45357124323E+02  0.60419122843E+02  0.11647591063E+03  0.75243509788E+02 0.  0.
          5    1    5    5  501    0 -0.66166992827E+02  0.98017137409E+02  0.28882329886E+03  0.31213205239E+03  0.47000000000E+01 0. -1.
        -13    1    6    6    0    0 -0.47286089776E+02  0.63737223997E+02  0.57160780472E+02  0.97804717848E+02  0.00000000000E+00 0.  1.
         14    1    6    6    0    0  0.41058594284E+00 -0.18380099674E+02  0.32583423713E+01  0.18671192781E+02  0.00000000000E+00 0. -1.
         -5    1    3    3    0  503  0.78693259398E+02 -0.11458710430E+03 -0.59295623591E+03  0.60905009749E+03  0.47000000000E+01 0.  1.
         13    1    4    4    0    0  0.37943181085E+02  0.17402335436E+02 -0.85339929822E+02  0.95002262560E+02  0.00000000000E+00 0. -1.
        -14    1    4    4    0    0 -0.35939438225E+01 -0.46189492865E+02 -0.59727726041E+02  0.75589595457E+02  0.00000000000E+00 0.  1.
</event>
<event>
12    1  0.8494789E-002  0.2140765E+03  0.7818608E-02  0.1138655E+00
         21   -1    0    0  501  502  0.00000000000E+00  0.00000000000E+00  0.79304573142E+03  0.79304573142E+03  0.00000000000E+00 0. -1.
         21   -1    0    0  502  503 -0.00000000000E+00 -0.00000000000E+00 -0.67471972571E+02  0.67471972571E+02  0.00000000000E+00 0.  1.
         -6    2    1    2    0  503 -0.12375293467E+03  0.23175681748E+02  0.19760900140E+03  0.29133838976E+03  0.17313820737E+03 0.  0.
        -24    2    3    3    0    0 -0.10679216263E+03  0.25980072265E+02  0.22234938149E+03  0.26084726316E+03  0.80762101876E+02 0.  0.
          6    2    1    2  501    0  0.12375293467E+03 -0.23175681748E+02  0.52796475745E+03  0.56917931423E+03  0.17136629066E+03 0.  0.
         24    2    5    5    0    0  0.57429122262E+02 -0.38765438304E+02  0.13925672168E+03  0.17451754047E+03  0.79139586211E+02 0.  0.
          5    1    5    5  501    0  0.66323812405E+02  0.15589756556E+02  0.38870803577E+03  0.39466177377E+03  0.47000000000E+01 0. -1.
        -13    1    6    6    0    0 -0.73998312603E+01 -0.12603739177E+02 -0.39658593024E+01  0.15143968566E+02  0.00000000000E+00 0.  1.
         14    1    6    6    0    0  0.64828953522E+02 -0.26161699128E+02  0.14322258099E+03  0.15937357190E+03  0.00000000000E+00 0. -1.
         -5    1    3    3    0  503 -0.16960772041E+02 -0.28043905166E+01 -0.24740380087E+02  0.30491126598E+02  0.47000000000E+01 0.  1.
         13    1    4    4    0    0 -0.33413663760E+02 -0.28688629397E+02  0.86313861936E+02  0.96899913028E+02  0.00000000000E+00 0. -1.
        -14    1    4    4    0    0 -0.73378498866E+02  0.54668701662E+02  0.13603551955E+03  0.16394735014E+03  0.00000000000E+00 0.  1.
</event>
<event>
12    1  0.8494789E-002  0.1911568E+03  0.7818608E-02  0.1157612E+00
         21   -1    0    0  501  502  0.00000000000E+00  0.00000000000E+00  0.31248153507E+03  0.31248153507E+03  0.00000000000E+00 0. -1.
         21   -1    0    0  502  503 -0.00000000000E+00 -0.00000000000E+00 -0.11716029536E+03  0.11716029536E+03  0.00000000000E+00 0. -1.
         -6    2    1    2    0  503 -0.72055609108E+02  0.31420560690E+02  0.80362946665E+02  0.20658055958E+03  0.17331492135E+03 0.  0.
        -24    2    3    3    0    0 -0.22937212629E+02  0.82850130989E+02  0.67786109837E+02  0.13420732974E+03  0.77629831508E+02 0.  0.
          6    2    1    2  501    0  0.72055609108E+02 -0.31420560690E+02  0.11495829304E+03  0.22306127085E+03  0.17424597263E+03 0.  0.
         24    2    5    5    0    0  0.19490296372E+02 -0.15605476642E+02  0.13959646533E+03  0.16270931545E+03  0.79773088482E+02 0.  0.
          5    1    5    5  501    0  0.52565312735E+02 -0.15815084048E+02 -0.24638172296E+02  0.60351955399E+02  0.47000000000E+01 0. -1.
        -11    1    6    6    0    0 -0.82017797442E+01 -0.77481200389E+01 -0.70235851936E+01  0.13290346274E+02  0.00000000000E+00 0.  1.
         12    1    6    6    0    0  0.27692076117E+02 -0.78573566033E+01  0.14662005053E+03  0.14941896918E+03  0.00000000000E+00 0. -1.
         -5    1    3    3    0  503 -0.49118396479E+02 -0.51429570299E+02  0.12576836827E+02  0.72373229846E+02  0.47000000000E+01 0.  1.
         13    1    4    4    0    0 -0.29904311643E+02  0.86957170319E+02  0.31761771576E+02  0.97286316912E+02  0.00000000000E+00 0. -1.
        -14    1    4    4    0    0  0.69670990138E+01 -0.41070393305E+01  0.36024338262E+02  0.36921012824E+02  0.00000000000E+00 0.  1.
</event>
<event>
12    1  0.8494789E-002  0.1917630E+03  0.7818608E-02  0.1157069E+00
         21   -1    0    0  501  502  0.00000000000E+00  0.00000000000E+00  0.39428120538E+03  0.39428120538E+03  0.00000000000E+00 0.  1.
         21   -1    0    0  502  503 -0.00000000000E+00 -0.00000000000E+00 -0.24350064917E+03  0.24350064917E+03  0.00000000000E+00 0.  1.
         -6    2    1    2    0  503 -0.55851680412E+02  0.60752048829E+02 -0.17536948453E+03  0.25986051774E+03  0.17309769188E+03 0.  0.
        -24    2    3    3    0    0  0.33222485538E+02  0.50497802351E+02 -0.10963840579E+03  0.14858598641E+03  0.80021582997E+02 0.  0.
          6    2    1    2  501    0  0.55851680412E+02 -0.60752048829E+02  0.32615004075E+03  0.37792133681E+03  0.17216406736E+03 0.  0.
         24    2    5    5    0    0  0.71493742344E+02  0.90170907603E+01  0.25608200236E+03  0.27770144385E+03  0.79670803077E+02 0.  0.
          5    1    5    5  501    0 -0.15642061932E+02 -0.69769139590E+02  0.70068038392E+02  0.10021989296E+03  0.47000000000E+01 0. -1.
        -11    1    6    6    0    0 -0.11852853256E+01 -0.26499508992E+02  0.64499041719E+02  0.69740628480E+02  0.00000000000E+00 0.  1.
         12    1    6    6    0    0  0.72679027669E+02  0.35516599752E+02  0.19158296064E+03  0.20796081537E+03  0.00000000000E+00 0. -1.
         -5    1    3    3    0  503 -0.89074165949E+02  0.10254246478E+02 -0.65731078748E+02  0.11127453133E+03  0.47000000000E+01 0.  1.
         11    1    4    4    0    0 -0.36513772961E+01  0.21516232361E+02  0.69614582095E+01  0.22907263293E+02  0.00000000000E+00 0. -1.
        -12    1    4    4    0    0  0.36873862834E+02  0.28981569990E+02 -0.11659986400E+03  0.12567872311E+03  0.00000000000E+00 0.  1.
</event>
<event>
12    1  0.8494789E-002  0.1755424E+03  0.7818608E-02  0.1172214E+00
         21   -1    0    0  501  502  0.00000000000E+00  0.00000000000E+00  0.11964511865E+03  0.11964511865E+03  0.00000000000E+00 0. -1.
         21   -1    0    0  502  503 -0.00000000000E+00 -0.00000000000E+00 -0.27680045397E+03  0.27680045397E+03  0.00000000000E+00 0. -1.
         -6    2    1    2    0  503  0.14029359339E+02  0.27186317077E+02 -0.26122455222E+02  0.17747536338E+03  0.17285601864E+03 0.  0.
        -24    2    3    3    0    0  0.54199099967E+02  0.50480441710E+02 -0.57847727625E+02  0.12104126718E+03  0.76281133563E+02 0.  0.
          6    2    1    2  501    0 -0.14029359339E+02 -0.27186317077E+02 -0.13103288009E+03  0.21897020923E+03  0.17274958207E+03 0.  0.
         24    2    5    5    0    0 -0.53533765840E+02  0.34211509355E+02 -0.85314659861E+02  0.13270007023E+03  0.79337418620E+02 0.  0.
          5    1    5    5  501    0  0.39504406501E+02 -0.61397826431E+02 -0.45718220232E+02  0.86270139009E+02  0.47000000000E+01 0. -1.
        -13    1    6    6    0    0 -0.65278626324E+02  0.45415111275E+02 -0.50270779644E+02  0.94079661314E+02  0.00000000000E+00 0.  1.
         14    1    6    6    0    0  0.11744860485E+02 -0.11203601920E+02 -0.35043880217E+02  0.38620408911E+02  0.00000000000E+00 0. -1.
         -5    1    3    3    0  503 -0.40169740628E+02 -0.23294124634E+02  0.31725272403E+02  0.56434096197E+02  0.47000000000E+01 0.  1.
         11    1    4    4    0    0  0.59682340724E+02  0.61582127029E+01 -0.22477900950E+02  0.64071533532E+02  0.00000000000E+00 0. -1.
        -12    1    4    4    0    0 -0.54832407576E+01  0.44322229007E+02 -0.35369826675E+02  0.56969733652E+02  0.00000000000E+00 0.  1.
</event>
<event>
12    1  0.8494789E-002  0.2113203E+03  0.7818608E-02  0.1140701E+00
         21   -1    0    0  501  502  0.00000000000E+00  0.00000000000E+00  0.43892441812E+03  0.43892441812E+03  0.00000000000E+00 0.  1.
         21   -1    0    0  502  503 -0.00000000000E+00 -0.00000000000E+00 -0.11264965627E+03  0.11264965627E+03  0.00000000000E+00 0. -1.
         -6    2    1    2    0  503  0.10698379447E+03 -0.61563070617E+02  0.75946688586E+02  0.22455330766E+03  0.17152476362E+03 0.  0.
        -24    2    3    3    0    0  0.11382690148E+03 -0.98083287265E+01  0.94848079824E+02  0.16883316757E+03  0.80347454291E+02 0.  0.
          6    2    1    2  501    0 -0.10698379447E+03  0.61563070617E+02  0.25032807326E+03  0.32702076673E+03  0.17041975727E+03 0.  0.
         24    2    5    5    0    0 -0.17223660971E+02  0.10628457688E+02  0.19003495984E+03  0.20740234890E+03  0.80578097245E+02 0.  0.
          5    1    5    5  501    0 -0.89760133494E+02  0.50934612930E+02  0.60293113415E+02  0.11961841783E+03  0.47000000000E+01 0. -1.
        -11    1    6    6    0    0 -0.15719441835E+02  0.40071336730E+02  0.15846608957E+03  0.16420814359E+03  0.00000000000E+00 0.  1.
         12    1    6    6    0    0 -0.15042191355E+01 -0.29442879043E+02  0.31568870275E+02  0.43194205306E+02  0.00000000000E+00 0. -1.
         -5    1    3    3    0  503 -0.68431070168E+01 -0.51754741891E+02 -0.18901391238E+02  0.55720140098E+02  0.47000000000E+01 0.  1.
         13    1    4    4    0    0  0.12765438832E+02  0.15280346193E+02 -0.89287673682E+01  0.21821280784E+02  0.00000000000E+00 0. -1.
        -14    1    4    4    0    0  0.10106146265E+03 -0.25088674920E+02  0.10377684719E+03  0.14701188678E+03  0.00000000000E+00 0.  1.
</event>
<event>
12    1  0.8494789E-002  0.2247617E+03  0.7818608E-02  0.1130436E+00
         21   -1    0    0  501  502  0.00000000000E+00  0.00000000000E+00  0.14708945871E+04  0.14708945871E+04  0.00000000000E+00 0.  1.
         21   -1    0    0  502  503 -0.00000000000E+00 -0.00000000000E+00 -0.37591415911E+02  0.37591415911E+02  0.00000000000E+00 0. -1.
         -6    2    1    2    0  503  0.96186050117E+02 -0.10809266167E+03  0.49388139160E+03  0.54262016825E+03  0.17199429721E+03 0.  0.
        -24    2    3    3    0    0  0.66910007815E+02 -0.10538188163E+03  0.49013671907E+03  0.51261104374E+03  0.83389379788E+02 0.  0.
          6    2    1    2  501    0 -0.96186050117E+02  0.10809266167E+03  0.93942177961E+03  0.96586583479E+03  0.17160347043E+03 0.  0.
         24    2    5    5    0    0 -0.16849146030E+02  0.10485501399E+03  0.72540181772E+03  0.73754268485E+03  0.80516750661E+02 0.  0.
          5    1    5    5  501    0 -0.79336904087E+02  0.32376476825E+01  0.21401996189E+03  0.22832314994E+03  0.47000000000E+01 0. -1.
        -11    1    6    6    0    0  0.22259479705E+02  0.60454015827E+02  0.51383878173E+03  0.51786143521E+03  0.00000000000E+00 0.  1.
         12    1    6    6    0    0 -0.39108625736E+02  0.44400998165E+02  0.21156303599E+03  0.21968124964E+03  0.00000000000E+00 0. -1.
         -5    1    3    3    0  503  0.29276042302E+02 -0.27107800490E+01  0.37446725327E+01  0.30009124508E+02  0.47000000000E+01 0.  1.
         11    1    4    4    0    0 -0.64861299631E+01 -0.47105231552E+02  0.91634176943E+02  0.10323659770E+03  0.00000000000E+00 0. -1.
        -12    1    4    4    0    0  0.73396137778E+02 -0.58276650074E+02  0.39850254213E+03  0.40937444604E+03  0.00000000000E+00 0.  1.
</event>
<event>
12    1  0.8494789E-002  0.1881536E+03  0.7818608E-02  0.1160221E+00
         21   -1    0    0  503  502  0.00000000000E+00  0.00000000000E+00  0.12255328996E+03  0.12255328996E+03  0.00000000000E+00 0.  1.
         21   -1    0    0  501  503 -0.00000000000E+00 -0.00000000000E+00 -0.28973158980E+03  0.28973158980E+03  0.00000000000E+00 0.  1.
          6    2    1    2  501    0 -0.24580698677E+02  0.72086160705E+02 -0.69205873245E+02  0.20047753143E+03  0.17204988348E+03 0.  0.
         24    2    3    3    0    0 -0.65803218648E+02  0.51511085641E+02  0.27241880138E+01  0.11492840181E+03  0.78852145272E+02 0.  0.
         -6    2    1    2    0  502  0.24580698677E+02 -0.72086160705E+02 -0.97972426594E+02  0.21180734832E+03  0.17164827735E+03 0.  0.
        -24    2    5    5    0    0 -0.37809316181E+02 -0.12813712681E+01 -0.31572082998E+02  0.96321731077E+02  0.82764081282E+02 0.  0.
          5    1    3    3  501    0  0.41222519971E+02  0.20575075063E+02 -0.71930061259E+02  0.85549129623E+02  0.47000000000E+01 0. -1.
        -11    1    4    4    0    0 -0.30107713406E+01 -0.19608338534E+02 -0.19951509824E+01  0.19938212346E+02  0.00000000000E+00 0.  1.
         12    1    4    4    0    0 -0.62792447307E+02  0.71119424175E+02  0.47193389963E+01  0.94990189464E+02  0.00000000000E+00 0. -1.
         -5    1    5    5    0  502  0.62390014858E+02 -0.70804789436E+02 -0.66400343596E+02  0.11548561725E+03  0.47000000000E+01 0.  1.
         11    1    6    6    0    0 -0.57441123457E+02 -0.21309819701E+02 -0.30039070425E+02  0.68234425562E+02  0.00000000000E+00 0. -1.
        -12    1    6    6    0    0  0.19631807276E+02  0.20028448433E+02 -0.15330125726E+01  0.28087305516E+02  0.00000000000E+00 0.  1.
</event>
<event>
12    1  0.8494789E-002  0.1806755E+03  0.7818608E-02  0.1168159E+00
         21   -1    0    0  501  502  0.00000000000E+00  0.00000000000E+00  0.55740535561E+02  0.55740535561E+02  0.00000000000E+00 0. -1.
         21   -1    0    0  502  503 -0.00000000000E+00 -0.00000000000E+00 -0.59446151416E+03  0.59446151416E+03  0.00000000000E+00 0. -1.
         -6    2    1    2    0  503 -0.27593433742E+02 -0.28242799427E+02 -0.20360553962E+03  0.26948430363E+03  0.17206836092E+03 0.  0.
        -24    2    3    3    0    0  0.95355210561E+01  0.32570037804E+02 -0.53219948511E+02  0.10300704851E+03  0.81402429936E+02 0.  0.
          6    2    1    2  501    0  0.27593433742E+02  0.28242799427E+02 -0.33511543898E+03  0.38071774610E+03  0.17630822853E+03 0.  0.
         24    2    5    5    0    0  0.34533407997E+02  0.36154032203E+02 -0.76252284861E+02  0.12159813394E+03  0.80448896312E+02 0.  0.
          5    1    5    5  501    0 -0.69399742549E+01 -0.79112327765E+01 -0.25886315412E+03  0.25911961216E+03  0.47000000000E+01 0. -1.
        -13    1    6    6    0    0  0.72172702992E+00  0.25948308773E+02 -0.81824082627E+02  0.85842973597E+02  0.00000000000E+00 0.  1.
         14    1    6    6    0    0  0.33811680967E+02  0.10205723430E+02  0.55717977666E+01  0.35755160339E+02  0.00000000000E+00 0. -1.
         -5    1    3    3    0  503 -0.37128954798E+02 -0.60812837231E+02 -0.15038559111E+03  0.16647725512E+03  0.47000000000E+01 0.  1.
         11    1    4    4    0    0  0.32305821941E+02  0.99137702981E+01 -0.61199315279E+02  0.69909263788E+02  0.00000000000E+00 0. -1.
        -12    1    4    4    0    0 -0.22770300885E+02  0.22656267506E+02  0.79793667680E+01  0.33097784725E+02  0.00000000000E+00 0.  1.
</event>
<event>
12    1  0.8494789E-002  0.1881343E+03  0.7818608E-02  0.1160411E+00
         21   -1    0    0  501  502  0.00000000000E+00  0.00000000000E+00  0.31097250251E+03  0.31097250251E+03  0.00000000000E+00 0. -1.
         21   -1    0    0  502  503 -0.00000000000E+00 -0.00000000000E+00 -0.13890118910E+03  0.13890118910E+03  0.00000000000E+00 0. -1.
         -6    2    1    2    0  503  0.71976204941E+02  0.22365970852E+02 -0.11034688912E+02  0.18734305268E+03  0.17115736706E+03 0.  0.
        -24    2    3    3    0    0 -0.65867283325E+01 -0.32192644574E+02  0.15150394105E+02  0.88063016551E+02  0.80285796302E+02 0.  0.
          6    2    1    2  501    0 -0.71976204941E+02 -0.22365970852E+02  0.18310600232E+03  0.26253063893E+03  0.17237667348E+03 0.  0.
         24    2    5    5    0    0 -0.67085868401E+01 -0.69991300763E+02  0.11730229606E+03  0.15822219354E+03  0.79565360228E+02 0.  0.
          5    1    5    5  501    0 -0.65267618101E+02  0.47625329910E+02  0.65803706264E+02  0.10430844539E+03  0.47000000000E+01 0.  1.
        -11    1    6    6    0    0  0.15497364677E+02 -0.79629748459E+02  0.81405414054E+02  0.11492565679E+03  0.00000000000E+00 0.  1.
         12    1    6    6    0    0 -0.22205951517E+02  0.96384476965E+01  0.35896882005E+02  0.43296536749E+02  0.00000000000E+00 0. -1.
         -5    1    3    3    0  503  0.78562933274E+02  0.54558615426E+02 -0.26185083017E+02  0.99280036132E+02  0.47000000000E+01 0.  1.
         13    1    4    4    0    0  0.15957912654E+00 -0.10878398480E+01 -0.31538408176E+02  0.31557567259E+02  0.00000000000E+00 0. -1.
        -14    1    4    4    0    0 -0.67463074591E+01 -0.31104804726E+02  0.46688802281E+02  0.56505449293E+02  0.00000000000E+00 0.  1.
</event>
<event>
12    1  0.8494789E-002  0.1833576E+03  0.7818608E-02  0.1170672E+00
         21   -1    0    0  503  502  0.00000000000E+00  0.00000000000E+00  0.14532650449E+03  0.14532650449E+03  0.00000000000E+00 0.  1.
         21   -1    0    0  501  503 -0.00000000000E+00 -0.00000000000E+00 -0.25201745689E+03  0.25201745689E+03  0.00000000000E+00 0.  1.
          6    2    1    2  501    0  0.32571238861E+02  0.43697942879E+02  0.31852733473E+02  0.18610377314E+03  0.17507033425E+03 0.  0.
         24    2    3    3    0    0  0.49019262324E+02  0.58510807762E+02 -0.34756623559E+02  0.11575567518E+03  0.79780641457E+02 0.  0.
         -6    2    1    2    0  502 -0.32571238861E+02 -0.43697942879E+02 -0.13854368587E+03  0.21124018824E+03  0.14985882829E+03 0.  0.
        -24    2    5    5    0    0 -0.57266487679E+01 -0.39731995381E+02 -0.15296837921E+03  0.18015124269E+03  0.86276991380E+02 0.  0.
          5    1    3    3  501    0 -0.16448023462E+02 -0.14812864883E+02  0.66609357032E+02  0.70348097956E+02  0.47000000000E+01 0. -1.
        -11    1    4    4    0    0  0.48759933373E+01  0.55778439646E+02 -0.43212113112E+02  0.70726913972E+02  0.00000000000E+00 0.  1.
         12    1    4    4    0    0  0.44143268986E+02  0.27323681158E+01  0.84554895529E+01  0.45028761208E+02  0.00000000000E+00 0. -1.
         -5    1    5    5    0  502 -0.26844590094E+02 -0.39659474986E+01  0.14424693341E+02  0.31088945541E+02  0.47000000000E+01 0.  1.
         13    1    6    6    0    0  0.20179055084E+02  0.16498306894E+01 -0.71201953336E+00  0.20258903652E+02  0.00000000000E+00 0. -1.
        -14    1    6    6    0    0 -0.25905703851E+02 -0.41381826070E+02 -0.15225635968E+03  0.15989233904E+03  0.00000000000E+00 0.  1.
</event>
<event>
12    1  0.8494789E-002  0.2103845E+03  0.7818608E-02  0.1141429E+00
         21   -1    0    0  503  502  0.00000000000E+00  0.00000000000E+00  0.14238041856E+04  0.14238041856E+04  0.00000000000E+00 0.  1.
         21   -1    0    0  501  503 -0.00000000000E+00 -0.00000000000E+00 -0.52879932203E+02  0.52879932203E+02  0.00000000000E+00 0. -1.
          6    2    1    2  501    0 -0.91472943276E+02 -0.78061447560E+02  0.20931402674E+03  0.29617576673E+03  0.17160079854E+03 0.  0.
         24    2    3    3    0    0  0.19858914143E+02 -0.28745292278E+02  0.78354429155E+02  0.11729208427E+03  0.79983424320E+02 0.  0.
         -6    2    1    2    0  502  0.91472943276E+02  0.78061447560E+02  0.11616102267E+04  0.11805083511E+04  0.17262896438E+03 0.  0.
        -24    2    5    5    0    0  0.77559146611E+02  0.49660589966E+02  0.11260439014E+04  0.11326830864E+04  0.80712520248E+02 0.  0.
          5    1    3    3  501    0 -0.11133185742E+03 -0.49316155282E+02  0.13095959759E+03  0.17888368245E+03  0.47000000000E+01 0. -1.
        -11    1    4    4    0    0 -0.25360282730E+02 -0.33099013636E+02  0.34011206793E+02  0.53809393523E+02  0.00000000000E+00 0.  1.
         12    1    4    4    0    0  0.45219196873E+02  0.43537213575E+01  0.44343222362E+02  0.63482690750E+02  0.00000000000E+00 0. -1.
         -5    1    5    5    0  502  0.13913796665E+02  0.28400857594E+02  0.35566325291E+02  0.47825264708E+02  0.47000000000E+01 0.  1.
         11    1    6    6    0    0  0.68020343157E+01 -0.22023774211E+01  0.63644981410E+01  0.95720934870E+01  0.00000000000E+00 0. -1.
        -12    1    6    6    0    0  0.70757112295E+02  0.51862967387E+02  0.11196794033E+04  0.11231109929E+04  0.00000000000E+00 0.  1.
</event>
<event>
12    1  0.8494789E-002  0.2786318E+03  0.7818608E-02  0.1096505E+00
         21   -1    0    0  501  502  0.00000000000E+00  0.00000000000E+00  0.46930739072E+02  0.46930739072E+02  0.00000000000E+00 0. -1.
         21   -1    0    0  502  503 -0.00000000000E+00 -0.00000000000E+00 -0.16528701685E+04  0.16528701685E+04  0.00000000000E+00 0.  1.
         -6    2    1    2    0  503  0.17935277842E+03 -0.12552293949E+03 -0.77830959365E+03  0.82668101385E+03  0.17237240969E+03 0.  0.
        -24    2    3    3    0    0  0.66004716254E+02 -0.68854257973E+01 -0.19011705430E+03  0.21601318581E+03  0.78186766476E+02 0.  0.
          6    2    1    2  501    0 -0.17935277842E+03  0.12552293949E+03 -0.82762983580E+03  0.87311989374E+03  0.17159188875E+03 0.  0.
         24    2    5    5    0    0 -0.61498732251E+02  0.66855055721E+01 -0.42958588913E+03  0.44129471456E+03  0.79813525828E+02 0.  0.
          5    1    5    5  501    0 -0.11785404617E+03  0.11883743392E+03 -0.39804394666E+03  0.43182517918E+03  0.47000000000E+01 0. -1.
        -13    1    6    6    0    0 -0.79353475984E+02  0.49631458983E+01 -0.29531391055E+03  0.30582987547E+03  0.00000000000E+00 0.  1.
         14    1    6    6    0    0  0.17854743733E+02  0.17223596738E+01 -0.13427197859E+03  0.13546483909E+03  0.00000000000E+00 0. -1.
         -5    1    3    3    0  503  0.11334806216E+03 -0.11863751370E+03 -0.58819253935E+03  0.61066782804E+03  0.47000000000E+01 0.  1.
         13    1    4    4    0    0  0.13312051475E+02 -0.38415182356E+02 -0.65574413790E+02  0.77155302435E+02  0.00000000000E+00 0. -1.
        -14    1    4    4    0    0  0.52692664780E+02  0.31529756559E+02 -0.12454264051E+03  0.13885788338E+03  0.00000000000E+00 0.  1.
</event>
<event>
12    1  0.8494789E-002  0.2292529E+03  0.7818608E-02  0.1127211E+00
         21   -1    0    0  503  502  0.00000000000E+00  0.00000000000E+00  0.69396484187E+03  0.69396484187E+03  0.00000000000E+00 0.  1.
         21   -1    0    0  501  503 -0.00000000000E+00 -0.00000000000E+00 -0.77575047552E+02  0.77575047552E+02  0.00000000000E+00 0.  1.
          6    2    1    2  501    0  0.13557745489E+03 -0.69789119249E+02  0.24761835511E+03  0.33744886239E+03  0.17118737542E+03 0.  0.
         24    2    3    3    0    0  0.13248086078E+03 -0.52111914710E+02  0.10893215947E+03  0.19752737256E+03  0.82969979003E+02 0.  0.
         -6    2    1    2    0  502 -0.13557745489E+03  0.69789119249E+02  0.36877143921E+03  0.43409102703E+03  0.17085338138E+03 0.  0.
        -24    2    5    5    0    0 -0.17782322864E+02 -0.13189391983E+02  0.13092875014E+03  0.15596810241E+03  0.81814059234E+02 0.  0.
          5    1    3    3  501    0  0.30965941074E+01 -0.17677204538E+02  0.13868619564E+03  0.13992148983E+03  0.47000000000E+01 0. -1.
        -13    1    4    4    0    0  0.54430023808E+02 -0.65438390076E+02  0.48907413971E+02  0.98166926858E+02  0.00000000000E+00 0.  1.
         14    1    4    4    0    0  0.78050836977E+02  0.13326475365E+02  0.60024745495E+02  0.99360445702E+02  0.00000000000E+00 0. -1.
         -5    1    5    5    0  502 -0.11779513203E+03  0.82978511232E+02  0.23784268907E+03  0.27812292462E+03  0.47000000000E+01 0.  1.
         11    1    6    6    0    0  0.14595774062E+02 -0.89711536918E+01  0.12047017495E+03  0.12168229646E+03  0.00000000000E+00 0. -1.
        -12    1    6    6    0    0 -0.32378096926E+02 -0.42182382917E+01  0.10458575197E+02  0.34285805955E+02  0.00000000000E+00 0.  1.
</event>
<event>
12    1  0.8494789E-002  0.2053318E+03  0.7818608E-02  0.1145554E+00
         21   -1    0    0  501  502  0.00000000000E+00  0.00000000000E+00  0.63024095987E+03  0.63024095987E+03  0.00000000000E+00 0. -1.
         21   -1    0    0  502  503 -0.00000000000E+00 -0.00000000000E+00 -0.11619770675E+03  0.11619770675E+03  0.00000000000E+00 0. -1.
         -6    2    1    2    0  503  0.10822124284E+03 -0.30512088250E+02  0.13407336381E+02  0.20576904980E+03  0.17180896442E+03 0.  0.
        -24    2    3    3    0    0  0.24578552273E+02 -0.34396335014E+02  0.61808191596E+02  0.10893971620E+03  0.79122665046E+02 0.  0.
          6    2    1    2  501    0 -0.10822124284E+03  0.30512088250E+02  0.50063591674E+03  0.54066961682E+03  0.17042443629E+03 0.  0.
         24    2    5    5    0    0 -0.10889959494E+03  0.73927368610E+02  0.43705416893E+03  0.46353288506E+03  0.80758970715E+02 0.  0.
          5    1    5    5  501    0  0.67835210065E+00 -0.43415280360E+02  0.63581747819E+02  0.77136731756E+02  0.47000000000E+01 0. -1.
        -11    1    6    6    0    0 -0.90042925500E+01 -0.17058014795E+02  0.52555924085E+02  0.55983732544E+02  0.00000000000E+00 0.  1.
         12    1    6    6    0    0 -0.99895302393E+02  0.90985383405E+02  0.38449824484E+03  0.40754915252E+03  0.00000000000E+00 0. -1.
         -5    1    3    3    0  503  0.83642690569E+02  0.38842467640E+01 -0.48400855215E+02  0.96829333593E+02  0.47000000000E+01 0.  1.
         11    1    4    4    0    0 -0.20357507482E+02 -0.54774586332E+01 -0.66399855074E+01  0.22102490165E+02  0.00000000000E+00 0. -1.
        -12    1    4    4    0    0  0.44936059754E+02 -0.28918876380E+02  0.68448177104E+02  0.86837226039E+02  0.00000000000E+00 0.  1.
</event>
<event>
12    1  0.8494789E-002  0.1731327E+03  0.7818608E-02  0.1175677E+00
         21   -1    0    0  501  502  0.00000000000E+00  0.00000000000E+00  0.19510447895E+03  0.19510447895E+03  0.00000000000E+00 0.  1.
         21   -1    0    0  502  503 -0.00000000000E+00 -0.00000000000E+00 -0.29583220517E+03  0.29583220517E+03  0.00000000000E+00 0.  1.
         -6    2    1    2    0  503  0.85902929359E+01 -0.12751971585E+02 -0.22238523352E+03  0.27933449782E+03  0.16833348945E+03 0.  0.
        -24    2    3    3    0    0  0.24787661888E+02  0.90904224832E+01 -0.23475044243E+03  0.24909489909E+03  0.79015407190E+02 0.  0.
          6    2    1    2  501    0 -0.85902929359E+01  0.12751971585E+02  0.12165750730E+03  0.21160218630E+03  0.17244863077E+03 0.  0.
         24    2    5    5    0    0 -0.38647896721E+01  0.69211181724E+02  0.10951209120E+03  0.15346808338E+03  0.82185340671E+02 0.  0.
          5    1    5    5  501    0 -0.47255032638E+01 -0.56459210139E+02  0.12145416096E+02  0.58134102924E+02  0.47000000000E+01 0. -1.
        -11    1    6    6    0    0  0.50502591919E+00  0.16301394406E+02 -0.12406554088E+02  0.20491781159E+02  0.00000000000E+00 0.  1.
         12    1    6    6    0    0 -0.43698155913E+01  0.52909787319E+02  0.12191864529E+03  0.13297630222E+03  0.00000000000E+00 0. -1.
         -5    1    3    3    0  503 -0.16197368952E+02 -0.21842394069E+02  0.12365208905E+02  0.30239598722E+02  0.47000000000E+01 0.  1.
         11    1    4    4    0    0 -0.24290861560E+02  0.10894194097E+02 -0.38603445176E+02  0.46893020800E+02  0.00000000000E+00 0. -1.
        -12    1    4    4    0    0  0.49078523448E+02 -0.18037716137E+01 -0.19614699725E+03  0.20220187829E+03  0.00000000000E+00 0.  1.
</event>
<event>
12    1  0.8494789E-002  0.1745636E+03  0.7818608E-02  0.1173415E+00
         21   -1    0    0  503  502  0.00000000000E+00  0.00000000000E+00  0.13776382486E+04  0.13776382486E+04  0.00000000000E+00 0.  1.
         21   -1    0    0  501  503 -0.00000000000E+00 -0.00000000000E+00 -0.22100324128E+02  0.22100324128E+02  0.00000000000E+00 0.  1.
          6    2    1    2  501    0  0.55890045869E+01  0.26832662339E+02  0.62805508794E+03  0.65160508391E+03  0.17141984470E+03 0.  0.
         24    2    3    3    0    0  0.62577517283E+02 -0.16233160513E+02  0.39761599575E+03  0.41030315502E+03  0.77914939366E+02 0.  0.
         -6    2    1    2    0  502 -0.55890045869E+01 -0.26832662339E+02  0.72748283656E+03  0.74813348884E+03  0.17239840747E+03 0.  0.
        -24    2    5    5    0    0 -0.70043443978E+02 -0.25656055147E+02  0.49063965101E+03  0.50262881740E+03  0.79650133210E+02 0.  0.
          5    1    3    3  501    0 -0.56988512696E+02  0.43065822852E+02  0.23043909219E+03  0.24130192889E+03  0.47000000000E+01 0. -1.
        -11    1    4    4    0    0  0.30797828054E+02  0.28293940080E+01  0.34246078429E+03  0.34385447570E+03  0.00000000000E+00 0.  1.
         12    1    4    4    0    0  0.31779689230E+02 -0.19062554521E+02  0.55155211457E+02  0.66448679319E+02  0.00000000000E+00 0. -1.
         -5    1    5    5    0  502  0.64454439391E+02 -0.11766071918E+01  0.23684318554E+03  0.24550467144E+03  0.47000000000E+01 0.  1.
         13    1    6    6    0    0 -0.19574043706E+02  0.28737554762E+02  0.14435357630E+03  0.14848213775E+03  0.00000000000E+00 0. -1.
        -14    1    6    6    0    0 -0.50469400273E+02 -0.54393609909E+02  0.34628607472E+03  0.35414667965E+03  0.00000000000E+00 0.  1.
</event>
<event>
12    1  0.8494789E-002  0.2477065E+03  0.7818608E-02  0.1114835E+00
         21   -1    0    0  501  502  0.00000000000E+00  0.00000000000E+00  0.26453451333E+03  0.26453451333E+03  0.00000000000E+00 0. -1.
         21   -1    0    0  502  503 -0.00000000000E+00 -0.00000000000E+00 -0.23288165624E+03  0.23288165624E+03  0.00000000000E+00 0. -1.
         -6    2    1    2    0  503  0.43815839201E+02 -0.17295925927E+03 -0.31091531964E+01  0.24772600321E+03  0.17182483144E+03 0.  0.
        -24    2    3    3    0    0  0.16188749162E+01 -0.16606455657E+02 -0.23033663359E+02  0.84490409366E+02  0.79559314362E+02 0.  0.
          6    2    1    2  501    0 -0.43815839201E+02  0.17295925927E+03  0.34762010288E+02  0.24969016637E+03  0.17117841186E+03 0.  0.
         24    2    5    5    0    0  0.64871070423E+01  0.20164084573E+02  0.35182549344E+02  0.88758445861E+02  0.78686574896E+02 0.  0.
          5    1    5    5  501    0 -0.50302946243E+02  0.15279517470E+03 -0.42053905592E+00  0.16093172050E+03  0.47000000000E+01 0. -1.
        -11    1    6    6    0    0  0.12081079775E+02  0.39664045170E+02  0.49018563754E+02  0.64202870344E+02  0.00000000000E+00 0.  1.
         12    1    6    6    0    0 -0.55939727330E+01 -0.19499960597E+02 -0.13836014410E+02  0.24555575517E+02  0.00000000000E+00 0. -1.
         -5    1    3    3    0  503  0.42196964285E+02 -0.15635280361E+03  0.19924510162E+02  0.16323559384E+03  0.47000000000E+01 0.  1.
         13    1    4    4    0    0  0.10189562705E+02 -0.47809429783E+02 -0.12431948609E+02  0.50439291336E+02  0.00000000000E+00 0. -1.
        -14    1    4    4    0    0 -0.85706877890E+01  0.31202974126E+02 -0.10601714750E+02  0.34051118030E+02  0.00000000000E+00 0.  1.
</event>
<event>
12    1  0.8494789E-002  0.2017780E+03  0.7818608E-02  0.1150357E+00
         21   -1    0    0  501  502  0.00000000000E+00  0.00000000000E+00  0.11749088546E+03  0.11749088546E+03  0.00000000000E+00 0. -1.
         21   -1    0    0  502  503 -0.00000000000E+00 -0.00000000000E+00 -0.37743889666E+03  0.37743889666E+03  0.00000000000E+00 0. -1.
         -6    2    1    2    0  503  0.13974448117E+02 -0.88730491056E+02 -0.22068829280E+03  0.29902787919E+03  0.18068194351E+03 0.  0.
        -24    2    3    3    0    0  0.57207692484E+02 -0.11771872998E+02 -0.61482055859E+02  0.11692774687E+03  0.80503153488E+02 0.  0.
          6    2    1    2  501    0 -0.13974448117E+02  0.88730491056E+02 -0.39259718407E+02  0.19590190292E+03  0.16961086297E+03 0.  0.
         24    2    5    5    0    0  0.60725144653E+00 -0.22389587266E+01 -0.49949447164E+02  0.10303410949E+03  0.90087173097E+02 0.  0.
          5    1    5    5  501    0 -0.14581699563E+02  0.90969449782E+02  0.10689728757E+02  0.92867793431E+02  0.47000000000E+01 0. -1.
        -11    1    6    6    0    0  0.10381645731E+02 -0.30682015100E+02  0.11700404675E+02  0.34439281181E+02  0.00000000000E+00 0.  1.
         12    1    6    6    0    0 -0.97743942847E+01  0.28443056373E+02 -0.61649851839E+02  0.68594828313E+02  0.00000000000E+00 0. -1.
         -5    1    3    3    0  503 -0.43233244368E+02 -0.76958618057E+02 -0.15920623694E+03  0.18210013232E+03  0.47000000000E+01 0.  1.
         11    1    4    4    0    0  0.21589124398E+02 -0.24050355952E+02 -0.71050964604E+02  0.78056066292E+02  0.00000000000E+00 0. -1.
        -12    1    4    4    0    0  0.35618568087E+02  0.12278482954E+02  0.95689087456E+01  0.38871680576E+02  0.00000000000E+00 0.  1.
</event>
<event>
12    1  0.8494789E-002  0.2827800E+03  0.7818608E-02  0.1094240E+00
         21   -1    0    0  501  502  0.00000000000E+00  0.00000000000E+00  0.13433141713E+04  0.13433141713E+04  0.00000000000E+00 0. -1.
         21   -1    0    0  502  503 -0.00000000000E+00 -0.00000000000E+00 -0.12035215646E+03  0.12035215646E+03  0.00000000000E+00 0. -1.
         -6    2    1    2    0  503  0.90365890163E+02 -0.20559425690E+03  0.90580570584E+02  0.29651069287E+03  0.17111036976E+03 0.  0.
        -24    2    3    3    0    0  0.11628051783E+03 -0.11409859023E+03  0.31652627408E+02  0.18453919009E+03  0.80704254761E+02 0.  0.
          6    2    1    2  501    0 -0.90365890163E+02  0.20559425690E+03  0.11323814442E+04  0.11671556349E+04  0.17184163699E+03 0.  0.
         24    2    5    5    0    0 -0.59094615957E+01  0.82248898611E+02  0.29724528290E+03  0.31873270750E+03  0.80224544638E+02 0.  0.
          5    1    5    5  501    0 -0.84456428567E+02  0.12334535829E+03  0.83513616131E+03  0.84842292735E+03  0.47000000000E+01 0. -1.
        -11    1    6    6    0    0 -0.27767117317E+02  0.21655253380E+02  0.38868582227E+02  0.52447397336E+02  0.00000000000E+00 0.  1.
         12    1    6    6    0    0  0.21857655721E+02  0.60593645230E+02  0.25837670068E+03  0.26628531016E+03  0.00000000000E+00 0. -1.
         -5    1    3    3    0  503 -0.25914627671E+02 -0.91495666678E+02  0.58927943176E+02  0.11197150278E+03  0.47000000000E+01 0.  1.
         11    1    4    4    0    0  0.31101424148E+02 -0.33123049686E+02 -0.27350610849E+02  0.53032922966E+02  0.00000000000E+00 0. -1.
        -12    1    4    4    0    0  0.85179093686E+02 -0.80975540541E+02  0.59003238257E+02  0.13150626712E+03  0.00000000000E+00 0.  1.
</event>
<event>
12    1  0.8494789E-002  0.2058000E+03  0.7818608E-02  0.1145583E+00
         21   -1    0    0  503  502  0.00000000000E+00  0.00000000000E+00  0.94761344253E+02  0.94761344253E+02  0.00000000000E+00 0. -1.
         21   -1    0    0  501  503 -0.00000000000E+00 -0.00000000000E+00 -0.12591573321E+04  0.12591573321E+04  0.00000000000E+00 0. -1.
          6    2    1    2  501    0 -0.17971762449E+02  0.10567715326E+03 -0.11297456497E+04  0.11483374303E+04  0.17567861485E+03 0.  0.
         24    2    3    3    0    0  0.22630943746E+02  0.60511474649E+02 -0.31304696286E+03  0.32937018220E+03  0.79451354866E+02 0.  0.
         -6    2    1    2    0  502  0.17971762449E+02 -0.10567715326E+03 -0.34650338082E+02  0.20558124605E+03  0.17196615315E+03 0.  0.
        -24    2    5    5    0    0  0.73391853026E+02 -0.38834505915E+02 -0.22143262675E+02  0.11772999176E+03  0.80470764494E+02 0.  0.
          5    1    3    3  501    0 -0.40602706195E+02  0.45165678612E+02 -0.81669868687E+03  0.81896724806E+03  0.47000000000E+01 0. -1.
        -11    1    4    4    0    0  0.39070722738E+02  0.13405527529E+02 -0.21947234744E+03  0.22332563855E+03  0.00000000000E+00 0.  1.
         12    1    4    4    0    0 -0.16439778992E+02  0.47105947121E+02 -0.93574615419E+02  0.10604454365E+03  0.00000000000E+00 0. -1.
         -5    1    5    5    0  502 -0.55420090578E+02 -0.66842647346E+02 -0.12507075407E+02  0.87851254283E+02  0.47000000000E+01 0.  1.
         11    1    6    6    0    0  0.36991829660E+02 -0.55940757127E+02 -0.34812687101E+02  0.75562470530E+02  0.00000000000E+00 0. -1.
        -12    1    6    6    0    0  0.36400023367E+02  0.17106251212E+02  0.12669424426E+02  0.42167521233E+02  0.00000000000E+00 0.  1.
</event>
<event>
12    1  0.8494789E-002  0.2416162E+03  0.7818608E-02  0.1119153E+00
         21   -1    0    0  503  502  0.00000000000E+00  0.00000000000E+00  0.14451946711E+03  0.14451946711E+03  0.00000000000E+00 0.  1.
         21   -1    0    0  501  503 -0.00000000000E+00 -0.00000000000E+00 -0.62722100658E+03  0.62722100658E+03  0.00000000000E+00 0.  1.
          6    2    1    2  501    0 -0.16165136692E+03 -0.49682659217E+02 -0.47296623342E+03  0.52992824518E+03  0.16890043230E+03 0.  0.
         24    2    3    3    0    0 -0.13821811479E+03 -0.81832584077E+02 -0.44725628741E+03  0.48232754878E+03  0.82467318445E+02 0.  0.
         -6    2    1    2    0  502  0.16165136692E+03  0.49682659217E+02 -0.97353060484E+01  0.24181222851E+03  0.17256548501E+03 0.  0.
        -24    2    5    5    0    0  0.46753375314E+02  0.76737546676E+02  0.17218929284E+01  0.12312409591E+03  0.84154910165E+02 0.  0.
          5    1    3    3  501    0 -0.23433252129E+02  0.32149924860E+02 -0.25709946008E+02  0.47600696398E+02  0.47000000000E+01 0. -1.
        -13    1    4    4    0    0 -0.53554272097E+02 -0.32174531178E+01 -0.23094854480E+03  0.23709838129E+03  0.00000000000E+00 0.  1.
         14    1    4    4    0    0 -0.84663842698E+02 -0.78615130960E+02 -0.21630774261E+03  0.24522916749E+03  0.00000000000E+00 0. -1.
         -5    1    5    5    0  502  0.11489799161E+03 -0.27054887459E+02 -0.11457198977E+02  0.11868813260E+03  0.47000000000E+01 0.  1.
         13    1    6    6    0    0  0.53501342670E+02  0.91128408708E+02 -0.51710024522E+01  0.10579943198E+03  0.00000000000E+00 0. -1.
        -14    1    6    6    0    0 -0.67479673565E+01 -0.14390862032E+02  0.68928953807E+01  0.17324663927E+02  0.00000000000E+00 0.  1.
</event>
<event>
12    1  0.8494789E-002  0.1795261E+03  0.7818608E-02  0.1168573E+00
         21   -1    0    0  503  502  0.00000000000E+00  0.00000000000E+00  0.25573713193E+03  0.25573713193E+03  0.00000000000E+00 0. -1.
         21   -1    0    0  501  503 -0.00000000000E+00 -0.00000000000E+00 -0.13736966451E+03  0.13736966451E+03  0.00000000000E+00 0. -1.
          6    2    1    2  501    0 -0.12406825683E+02  0.49826723030E+02  0.32649428731E+00  0.17825034741E+03  0.17069401894E+03 0.  0.
         24    2    3    3    0    0  0.54010310043E+02  0.95061589786E+01 -0.19050995386E+02  0.98034632560E+02  0.78996000573E+02 0.  0.
         -6    2    1    2    0  502  0.12406825683E+02 -0.49826723030E+02  0.11804097313E+03  0.21485644903E+03  0.17202613377E+03 0.  0.
        -24    2    5    5    0    0 -0.56025207159E+02 -0.48280391674E+02  0.84152203861E+02  0.13833277333E+03  0.81145195211E+02 0.  0.
          5    1    3    3  501    0 -0.66417135726E+02  0.40320564052E+02  0.19377489673E+02  0.80215714854E+02  0.47000000000E+01 0. -1.
        -11    1    4    4    0    0  0.38046399566E+02 -0.39068888763E+01  0.27446892765E+02  0.47075728598E+02  0.00000000000E+00 0.  1.
         12    1    4    4    0    0  0.15963910477E+02  0.13413047855E+02 -0.46497888151E+02  0.50958903962E+02  0.00000000000E+00 0. -1.
         -5    1    5    5    0  502  0.68432032842E+02 -0.15463313564E+01  0.33888769272E+02  0.76523675698E+02  0.47000000000E+01 0.  1.
         13    1    6    6    0    0  0.20253892881E+02 -0.19306182401E+02  0.25340450968E+02  0.37750328621E+02  0.00000000000E+00 0. -1.
        -14    1    6    6    0    0 -0.76279100040E+02 -0.28974209273E+02  0.58811752893E+02  0.10058244471E+03  0.00000000000E+00 0.  1.
</event>
<event>
12    1  0.8494789E-002  0.3080202E+03  0.7818608E-02  0.1081368E+00
         21   -1    0    0  503  502  0.00000000000E+00  0.00000000000E+00  0.12590913272E+03  0.12590913272E+03  0.00000000000E+00 0.  1.
         21   -1    0    0  501  503 -0.00000000000E+00 -0.00000000000E+00 -0.75288272735E+03  0.75288272735E+03  0.00000000000E+00 0. -1.
          6    2    1    2  501    0  0.25434375955E+03 -0.21798366424E+02 -0.29921489138E+03  0.42901170298E+03  0.17133468205E+03 0.  0.
         24    2    3    3    0    0  0.16373395224E+03  0.12214470932E+02 -0.10280950946E+03  0.21000445577E+03  0.81080674587E+02 0.  0.
         -6    2    1    2    0  502 -0.25434375955E+03  0.21798366424E+02 -0.32775870325E+03  0.44978015709E+03  0.17236735581E+03 0.  0.
        -24    2    5    5    0    0 -0.23244074001E+03  0.15462976423E+02 -0.34253503105E+03  0.42220645051E+03  0.81610281800E+02 0.  0.
          5    1    3    3  501    0  0.90609807312E+02 -0.34012837356E+02 -0.19640538192E+03  0.21900724722E+03  0.47000000000E+01 0. -1.
        -11    1    4    4    0    0  0.41526030110E+02 -0.20749968389E+02  0.80332865197E+00  0.46428630195E+02  0.00000000000E+00 0.  1.
         12    1    4    4    0    0  0.12220792213E+03  0.32964439321E+02 -0.10361283811E+03  0.16357582557E+03  0.00000000000E+00 0. -1.
         -5    1    5    5    0  502 -0.21903019538E+02  0.63353900013E+01  0.14776327798E+02  0.27573706579E+02  0.47000000000E+01 0.  1.
         11    1    6    6    0    0 -0.63265792151E+02  0.24646894379E+02 -0.50628931985E+02  0.84695446235E+02  0.00000000000E+00 0. -1.
        -12    1    6    6    0    0 -0.16917494786E+03 -0.91839179564E+01 -0.29190609907E+03  0.33751100427E+03  0.00000000000E+00 0.  1.
</event>
<event>
12    1  0.8494789E-002  0.2501647E+03  0.7818608E-02  0.1113387E+00
         21   -1    0    0  503  502  0.00000000000E+00  0.00000000000E+00  0.30741885474E+03  0.30741885474E+03  0.00000000000E+00 0. -1.
         21   -1    0    0  501  503 -0.00000000000E+00 -0.00000000000E+00 -0.28256764556E+03  0.28256764556E+03  0.00000000000E+00 0. -1.
          6    2    1    2  501    0  0.10999463885E+03  0.14304932813E+03 -0.14446789987E+03  0.28888293764E+03  0.17326409527E+03 0.  0.
         24    2    3    3    0    0  0.78466521822E+02  0.16142099790E+03 -0.15471550314E+03  0.25069074228E+03  0.81824371321E+02 0.  0.
         -6    2    1    2    0  502 -0.10999463885E+03 -0.14304932813E+03  0.16931910905E+03  0.30110356267E+03  0.17155892254E+03 0.  0.
        -24    2    5    5    0    0 -0.22734746564E+02  0.17142739733E+02  0.42589095157E+02  0.78936117186E+02  0.60052787972E+02 0.  0.
          5    1    3    3  501    0  0.31528117033E+02 -0.18371669767E+02  0.10247603271E+02  0.38192195361E+02  0.47000000000E+01 0. -1.
        -11    1    4    4    0    0  0.59630512442E+02  0.99333781687E+02 -0.47175047179E+02  0.12509389783E+03  0.00000000000E+00 0.  1.
         12    1    4    4    0    0  0.18836009380E+02  0.62087216213E+02 -0.10754045596E+03  0.12559684445E+03  0.00000000000E+00 0. -1.
         -5    1    5    5    0  502 -0.87259892291E+02 -0.16019206787E+03  0.12673001390E+03  0.22216744548E+03  0.47000000000E+01 0.  1.
         13    1    6    6    0    0 -0.37302624159E+02  0.22778642469E+02  0.45450278689E+02  0.63056166667E+02  0.00000000000E+00 0. -1.
        -14    1    6    6    0    0  0.14567877595E+02 -0.56359027357E+01 -0.28611835316E+01  0.15879950519E+02  0.00000000000E+00 0.  1.
</event>
<event>
12    1  0.8494789E-002  0.2858806E+03  0.7818608E-02  0.1092757E+00
         21   -1    0    0  503  502  0.00000000000E+00  0.00000000000E+00  0.33287595111E+03  0.33287595111E+03  0.00000000000E+00 0. -1.
         21   -1    0    0  501  503 -0.00000000000E+00 -0.00000000000E+00 -0.33311141119E+03  0.33311141119E+03  0.00000000000E+00 0.  1.
          6    2    1    2  501    0  0.20293414786E+03  0.10050168074E+03 -0.17235092405E+03  0.33381517660E+03  0.17448459790E+03 0.  0.
         24    2    3    3    0    0  0.10304025677E+03  0.21395716627E+02 -0.16989330996E+02  0.13282796896E+03  0.79243679659E+02 0.  0.
         -6    2    1    2    0  502 -0.20293414786E+03 -0.10050168074E+03  0.17211546398E+03  0.33217218570E+03  0.17155690546E+03 0.  0.
        -24    2    5    5    0    0 -0.25197217869E+02 -0.32161134423E+02  0.27994534151E+02  0.93312856867E+02  0.79084492529E+02 0.  0.
          5    1    3    3  501    0  0.99893891092E+02  0.79105964117E+02 -0.15536159306E+03  0.20098720764E+03  0.47000000000E+01 0. -1.
        -13    1    4    4    0    0  0.94965212853E+02  0.44120415790E+02 -0.24551071131E+02  0.10755351150E+03  0.00000000000E+00 0.  1.
         14    1    4    4    0    0  0.80750439179E+01 -0.22724699163E+02  0.75617401351E+01  0.25274457466E+02  0.00000000000E+00 0. -1.
         -5    1    5    5    0  502 -0.17773692999E+03 -0.68340546320E+02  0.14412092983E+03  0.23885932883E+03  0.47000000000E+01 0.  1.
         11    1    6    6    0    0 -0.51025772500E+02 -0.23167691199E+02  0.27706407458E+01  0.56107466748E+02  0.00000000000E+00 0. -1.
        -12    1    6    6    0    0  0.25828554631E+02 -0.89934432237E+01  0.25223893405E+02  0.37205390119E+02  0.00000000000E+00 0.  1.
</event>
<event>
12    1  0.8494789E-002  0.2158951E+03  0.7818608E-02  0.1137018E+00
         21   -1    0    0  501  502  0.00000000000E+00  0.00000000000E+00  0.26032924539E+03  0.26032924539E+03  0.00000000000E+00 0. -1.
         21   -1    0    0  502  503 -0.00000000000E+00 -0.00000000000E+00 -0.46898546814E+03  0.46898546814E+03  0.00000000000E+00 0. -1.
         -6    2    1    2    0  503  0.29980868573E+01 -0.13047678647E+03 -0.39114596061E+03  0.44677273198E+03  0.17198119434E+03 0.  0.
        -24    2    3    3    0    0 -0.38301071555E+02 -0.13457218072E+03 -0.22125727478E+03  0.27182517322E+03  0.73194940058E+02 0.  0.
          6    2    1    2  501    0 -0.29980868573E+01  0.13047678647E+03  0.18248973786E+03  0.28254198155E+03  0.17173900716E+03 0.  0.
         24    2    5    5    0    0  0.44043305255E+02  0.81521825801E+02  0.42115308212E+02  0.12654021474E+03  0.75187139473E+02 0.  0.
          5    1    5    5  501    0 -0.47041392113E+02  0.48954960666E+02  0.14037442965E+03  0.15600176680E+03  0.47000000000E+01 0. -1.
        -13    1    6    6    0    0  0.33831069961E+02  0.51292446696E+02  0.63317723728E+02  0.88230326537E+02  0.00000000000E+00 0.  1.
         14    1    6    6    0    0  0.10212235294E+02  0.30229379105E+02 -0.21202415516E+02  0.38309888208E+02  0.00000000000E+00 0. -1.
         -5    1    3    3    0  503  0.41299158412E+02  0.40953942536E+01 -0.16988868583E+03  0.17494755875E+03  0.47000000000E+01 0.  1.
         13    1    4    4    0    0 -0.45391711456E+02 -0.33475730437E+02 -0.73308005541E+02  0.92493760187E+02  0.00000000000E+00 0. -1.
        -14    1    4    4    0    0  0.70906399006E+01 -0.10109645028E+03 -0.14794926923E+03  0.17933141304E+03  0.00000000000E+00 0.  1.
</event>
<event>
12    1  0.8494789E-002  0.2209246E+03  0.7818608E-02  0.1133213E+00
         21   -1    0    0  503  502  0.00000000000E+00  0.00000000000E+00  0.48716281070E+03  0.48716281070E+03  0.00000000000E+00 0.  1.
         21   -1    0    0  501  503 -0.00000000000E+00 -0.00000000000E+00 -0.12257767692E+03  0.12257767692E+03  0.00000000000E+00 0. -1.
          6    2    1    2  501    0 -0.79965628154E+02  0.11567755458E+03  0.51839841335E+02  0.22683411435E+03  0.17026610927E+03 0.  0.
         24    2    3    3    0    0  0.16393712038E+02  0.45480424836E+02  0.52369461996E+02  0.10752305047E+03  0.80507285355E+02 0.  0.
         -6    2    1    2    0  502  0.79965628154E+02 -0.11567755458E+03  0.31274529245E+03  0.38290637327E+03  0.17038742448E+03 0.  0.
        -24    2    5    5    0    0  0.10610743350E+03 -0.38191445740E+02  0.18408007669E+03  0.23037992050E+03  0.80449109141E+02 0.  0.
          5    1    3    3  501    0 -0.96359340192E+02  0.70197129741E+02 -0.52962066128E+00  0.11931106388E+03  0.47000000000E+01 0. -1.
        -11    1    4    4    0    0  0.29671720315E+02  0.53191567525E+02  0.63932595673E+02  0.88301362570E+02  0.00000000000E+00 0.  1.
         12    1    4    4    0    0 -0.13278008277E+02 -0.77111426886E+01 -0.11563133677E+02  0.19221687902E+02  0.00000000000E+00 0. -1.
         -5    1    5    5    0  502 -0.26141805341E+02 -0.77486108837E+02  0.12866521576E+03  0.15252645277E+03  0.47000000000E+01 0.  1.
         11    1    6    6    0    0  0.83507262509E+02 -0.54954531495E+02  0.98696968262E+02  0.14047973152E+03  0.00000000000E+00 0. -1.
        -12    1    6    6    0    0  0.22600170986E+02  0.16763085755E+02  0.85383108431E+02  0.89900188976E+02  0.00000000000E+00 0.  1.
</event>
<event>
12    1  0.8494789E-002  0.1783677E+03  0.7818608E-02  0.1170235E+00
         21   -1    0    0  501  502  0.00000000000E+00  0.00000000000E+00  0.83002417726E+03  0.83002417726E+03  0.00000000000E+00 0. -1.
         21   -1    0    0  502  503 -0.00000000000E+00 -0.00000000000E+00 -0.54520077303E+02  0.54520077303E+02  0.00000000000E+00 0.  1.
         -6    2    1    2    0  503  0.12738522043E+02 -0.44288237233E+02  0.13881250304E+03  0.22333987846E+03  0.16878409999E+03 0.  0.
        -24    2    3    3    0    0  0.62446697654E+02 -0.52407395727E+02  0.12589512130E+03  0.17113095003E+03  0.82402034651E+02 0.  0.
          6    2    1    2  501    0 -0.12738522043E+02  0.44288237233E+02  0.63669159692E+03  0.66120437611E+03  0.17231169283E+03 0.  0.
         24    2    5    5    0    0  0.37816279224E+00 -0.83806792064E+00  0.13137721984E+03  0.15368773547E+03  0.79743970148E+02 0.  0.
          5    1    5    5  501    0 -0.13116684836E+02  0.45126305153E+02  0.50531437708E+03  0.50751664064E+03  0.47000000000E+01 0. -1.
        -11    1    6    6    0    0 -0.83275755247E+01 -0.35857898089E+02  0.97395606864E+02  0.10412032273E+03  0.00000000000E+00 0.  1.
         12    1    6    6    0    0  0.87057383169E+01  0.35019830169E+02  0.33981612976E+02  0.49567412734E+02  0.00000000000E+00 0. -1.
         -5    1    3    3    0  503 -0.49708175611E+02  0.81191584941E+01  0.12917381731E+02  0.52208928432E+02  0.47000000000E+01 0.  1.
         13    1    4    4    0    0  0.19723519995E+02 -0.25910715993E+02  0.11522554492E+03  0.11973850110E+03  0.00000000000E+00 0. -1.
        -14    1    4    4    0    0  0.42723177660E+02 -0.26496679734E+02  0.10669576383E+02  0.51392448924E+02  0.00000000000E+00 0.  1.
</event>
<event>
12    1  0.8494789E-002  0.3564870E+03  0.7818608E-02  0.1060321E+00
         21   -1    0    0  501  502  0.00000000000E+00  0.00000000000E+00  0.26601188607E+03  0.26601188607E+03  0.00000000000E+00 0. -1.
         21   -1    0    0  502  503 -0.00000000000E+00 -0.00000000000E+00 -0.95083023676E+03  0.95083023676E+03  0.00000000000E+00 0.  1.
         -6    2    1    2    0  503  0.30836491327E+03  0.30741596118E+02 -0.77440669834E+03  0.85251902678E+03  0.17620723915E+03 0.  0.
        -24    2    3    3    0    0  0.68952030085E+02 -0.75213784099E+01 -0.16141818981E+03  0.19330769084E+03  0.80629261119E+02 0.  0.
          6    2    1    2  501    0 -0.30836491327E+03 -0.30741596118E+02  0.89588347648E+02  0.36432309604E+03  0.16932596024E+03 0.  0.
         24    2    5    5    0    0 -0.24382091245E+03  0.26000886885E+02  0.10103154154E+03  0.27749755772E+03  0.81687445106E+02 0.  0.
          5    1    5    5  501    0 -0.64544000820E+02 -0.56742483003E+02 -0.11443193891E+02  0.86825538326E+02  0.47000000000E+01 0. -1.
        -11    1    6    6    0    0 -0.14663902840E+02  0.25304861051E+02  0.13134421575E+02  0.32060553168E+02  0.00000000000E+00 0.  1.
         12    1    6    6    0    0 -0.22915700961E+03  0.69602583413E+00  0.87897119964E+02  0.24543700455E+03  0.00000000000E+00 0. -1.
         -5    1    3    3    0  503  0.23941288318E+03  0.38262974528E+02 -0.61298850853E+03  0.65921133594E+03  0.47000000000E+01 0.  1.
         11    1    4    4    0    0  0.65634820100E+02 -0.61937660703E+01 -0.52355906476E+02  0.84186895006E+02  0.00000000000E+00 0. -1.
        -12    1    4    4    0    0  0.33172099854E+01 -0.13276123396E+01 -0.10906228333E+03  0.10912079583E+03  0.00000000000E+00 0.  1.
</event>
<event>
12    1  0.8494789E-002  0.1930646E+03  0.7818608E-02  0.1156123E+00
         21   -1    0    0  501  502  0.00000000000E+00  0.00000000000E+00  0.20346965889E+03  0.20346965889E+03  0.00000000000E+00 0.  1.
         21   -1    0    0  502  503 -0.00000000000E+00 -0.00000000000E+00 -0.19871910809E+03  0.19871910809E+03  0.00000000000E+00 0. -1.
         -6    2    1    2    0  503 -0.86256756928E+02 -0.68382996622E+01 -0.56830822582E+02  0.19954076075E+03  0.17058658313E+03 0.  0.
        -24    2    3    3    0    0 -0.92244609491E+02 -0.54400845186E+02 -0.68593246983E+02  0.14995755045E+03  0.79458879110E+02 0.  0.
          6    2    1    2  501    0  0.86256756928E+02  0.68382996622E+01  0.61581373387E+02  0.20264800624E+03  0.17258898698E+03 0.  0.
         24    2    5    5    0    0  0.12129247560E+03  0.19380987875E+02  0.72512465825E+02  0.16357884458E+03  0.80078045458E+02 0.  0.
          5    1    5    5  501    0 -0.35035718677E+02 -0.12542688213E+02 -0.10931092437E+02  0.39069161659E+02  0.47000000000E+01 0. -1.
        -11    1    6    6    0    0  0.72741677245E+02  0.38432947960E+02  0.75053448211E+02  0.11136185696E+03  0.00000000000E+00 0.  1.
         12    1    6    6    0    0  0.48550798360E+02 -0.19051960084E+02 -0.25409823867E+01  0.52216987618E+02  0.00000000000E+00 0. -1.
         -5    1    3    3    0  503  0.59878525634E+01  0.47562545523E+02  0.11762424401E+02  0.49583210291E+02  0.47000000000E+01 0.  1.
         11    1    4    4    0    0 -0.15252201472E+02 -0.24506524239E+02 -0.60420927681E+02  0.66961838997E+02  0.00000000000E+00 0. -1.
        -12    1    4    4    0    0 -0.76992408019E+02 -0.29894320946E+02 -0.81723193019E+01  0.82995711457E+02  0.00000000000E+00 0.  1.
</event>
<event>
12    1  0.8494789E-002  0.1805225E+03  0.7818608E-02  0.1167534E+00
         21   -1    0    0  503  502  0.00000000000E+00  0.00000000000E+00  0.58379631919E+03  0.58379631919E+03  0.00000000000E+00 0. -1.
         21   -1    0    0  501  503 -0.00000000000E+00 -0.00000000000E+00 -0.59162244401E+02  0.59162244401E+02  0.00000000000E+00 0. -1.
          6    2    1    2  501    0  0.31980706086E+02  0.41932518532E+02  0.18321931150E+03  0.25721134524E+03  0.17264778695E+03 0.  0.
         24    2    3    3    0    0 -0.43739218628E+02  0.38003123026E+02  0.75497117454E+02  0.12539667140E+03  0.81652641411E+02 0.  0.
         -6    2    1    2    0  502 -0.31980706086E+02 -0.41932518532E+02  0.34141476329E+03  0.38574721835E+03  0.17162684581E+03 0.  0.
        -24    2    5    5    0    0 -0.85280967098E+02 -0.37323542796E+01  0.23774835098E+03  0.26299142251E+03  0.73167179124E+02 0.  0.
          5    1    3    3  501    0  0.75719924714E+02  0.39293955051E+01  0.10772219405E+03  0.13181467384E+03  0.47000000000E+01 0. -1.
        -11    1    4    4    0    0 -0.38479767073E+02  0.58114350753E+02  0.30997616589E+02  0.76281206543E+02  0.00000000000E+00 0.  1.
         12    1    4    4    0    0 -0.52594515544E+01 -0.20111227726E+02  0.44499500865E+02  0.49115464861E+02  0.00000000000E+00 0. -1.
         -5    1    5    5    0  502  0.53300261012E+02 -0.38200164252E+02  0.10366641231E+03  0.12275579584E+03  0.47000000000E+01 0.  1.
         13    1    6    6    0    0 -0.23512425570E+02  0.32801995930E+02  0.76449768933E+02  0.86448668371E+02  0.00000000000E+00 0. -1.
        -14    1    6    6    0    0 -0.61768541528E+02 -0.36534350209E+02  0.16129858205E+03  0.17654275414E+03  0.00000000000E+00 0.  1.
</event>
<event>
12    1  0.8494789E-002  0.1838801E+03  0.7818608E-02  0.1164692E+00
         21   -1    0    0  501  502  0.00000000000E+00  0.00000000000E+00  0.12854891103E+04  0.12854891103E+04  0.00000000000E+00 0. -1.
         21   -1    0    0  502  503 -0.00000000000E+00 -0.00000000000E+00 -0.26771372641E+02  0.26771372641E+02  0.00000000000E+00 0.  1.
         -6    2    1    2    0  503  0.10273471237E+02  0.63789764290E+02  0.51003514496E+03  0.54132759854E+03  0.16948463533E+03 0.  0.
        -24    2    3    3    0    0  0.21884059329E+02  0.64778345964E+02  0.16178221140E+03  0.19284807435E+03  0.79635103421E+02 0.  0.
          6    2    1    2  501    0 -0.10273471237E+02 -0.63789764290E+02  0.74868259273E+03  0.77093288442E+03  0.17215460899E+03 0.  0.
         24    2    5    5    0    0 -0.53584427490E+01 -0.20052488470E+02  0.15615382758E+03  0.17675316891E+03  0.80167634675E+02 0.  0.
          5    1    5    5  501    0 -0.49150284882E+01 -0.43737275820E+02  0.59252876515E+03  0.59417971552E+03  0.47000000000E+01 0. -1.
        -13    1    6    6    0    0  0.22348137836E+02  0.21243067388E+02  0.40830810677E+02  0.51165049373E+02  0.00000000000E+00 0.  1.
         14    1    6    6    0    0 -0.27706580585E+02 -0.41295555858E+02  0.11532301690E+03  0.12558811953E+03  0.00000000000E+00 0. -1.
         -5    1    3    3    0  503 -0.11610588091E+02 -0.98858167471E+00  0.34825293355E+03  0.34847952419E+03  0.47000000000E+01 0.  1.
         13    1    4    4    0    0 -0.21148579670E+02  0.38926053549E+01  0.76997919829E+02  0.79944320978E+02  0.00000000000E+00 0. -1.
        -14    1    4    4    0    0  0.43032638999E+02  0.60885740610E+02  0.84784291573E+02  0.11290375338E+03  0.00000000000E+00 0.  1.
</event>
<event>
12    1  0.8494789E-002  0.1964997E+03  0.7818608E-02  0.1152875E+00
         21   -1    0    0  501  502  0.00000000000E+00  0.00000000000E+00  0.11976864867E+03  0.11976864867E+03  0.00000000000E+00 0.  1.
         21   -1    0    0  502  503 -0.00000000000E+00 -0.00000000000E+00 -0.39044004927E+03  0.39044004927E+03  0.00000000000E+00 0.  1.
         -6    2    1    2    0  503  0.60760313304E+02 -0.70528244419E+02 -0.24251869773E+03  0.31170252221E+03  0.17227041147E+03 0.  0.
        -24    2    3    3    0    0  0.87185960272E+02 -0.78158067991E+02 -0.24587004580E+03  0.28359824212E+03  0.79156858545E+02 0.  0.
          6    2    1    2  501    0 -0.60760313304E+02  0.70528244419E+02 -0.28152702865E+02  0.19850617573E+03  0.17304935189E+03 0.  0.
         24    2    5    5    0    0  0.64675194330E+01 -0.10459056706E+02  0.14675135694E+02  0.84774745622E+02  0.82584364215E+02 0.  0.
          5    1    5    5  501    0 -0.67227832737E+02  0.80987301125E+02 -0.42827838559E+02  0.11373143010E+03  0.47000000000E+01 0. -1.
        -13    1    6    6    0    0  0.17229661031E+01 -0.35976729922E+02 -0.20204373162E+02  0.41297825644E+02  0.00000000000E+00 0.  1.
         14    1    6    6    0    0  0.47445533299E+01  0.25517673216E+02  0.34879508856E+02  0.43476919977E+02  0.00000000000E+00 0. -1.
         -5    1    3    3    0  503 -0.26425646968E+02  0.76298235723E+01  0.33513480624E+01  0.28104280088E+02  0.47000000000E+01 0.  1.
         11    1    4    4    0    0  0.46908122952E+02 -0.82861994146E+02 -0.13227520517E+03  0.16298224436E+03  0.00000000000E+00 0. -1.
        -12    1    4    4    0    0  0.40277837320E+02  0.47039261546E+01 -0.11359484062E+03  0.12061599776E+03  0.00000000000E+00 0.  1.
</event>
<event>
12    1  0.8494789E-002  0.2005384E+03  0.7818608E-02  0.1149604E+00
         21   -1    0    0  503  502  0.00000000000E+00  0.00000000000E+00  0.62277599314E+03  0.62277599314E+03  0.00000000000E+00 0.  1.
         21   -1    0    0  501  503 -0.00000000000E+00 -0.00000000000E+00 -0.72593876803E+02  0.72593876803E+02  0.00000000000E+00 0.  1.
          6    2    1    2  501    0 -0.64136324433E+02 -0.75065648938E+02  0.15517011125E+03  0.25236858141E+03  0.17281150915E+03 0.  0.
         24    2    3    3    0    0  0.92674901787E+01 -0.44394714010E+02  0.14629291301E+03  0.17218304096E+03  0.78667694710E+02 0.  0.
         -6    2    1    2    0  502  0.64136324433E+02  0.75065648938E+02  0.39501200509E+03  0.44300128853E+03  0.17454895507E+03 0.  0.
        -24    2    5    5    0    0 -0.74258926045E+01  0.96205712903E+02  0.26097191761E+03  0.28951875447E+03  0.80025523002E+02 0.  0.
          5    1    3    3  501    0 -0.73403814612E+02 -0.30670934928E+02  0.88771982411E+01  0.80185540452E+02  0.47000000000E+01 0. -1.
        -13    1    4    4    0    0  0.28772442092E+02 -0.59276479214E+02  0.99319264166E+02  0.11918838302E+03  0.00000000000E+00 0.  1.
         14    1    4    4    0    0 -0.19504951913E+02  0.14881765204E+02  0.46973648846E+02  0.52994657944E+02  0.00000000000E+00 0. -1.
         -5    1    5    5    0  502  0.71562217038E+02 -0.21140063964E+02  0.13404008747E+03  0.15348253406E+03  0.47000000000E+01 0.  1.
         11    1    6    6    0    0  0.13575642462E+02  0.22131964803E+01  0.28943676316E+01  0.14056090172E+02  0.00000000000E+00 0. -1.
        -12    1    6    6    0    0 -0.21001535067E+02  0.93992516422E+02  0.25807754998E+03  0.27546266430E+03  0.00000000000E+00 0.  1.
</event>
<event>
12    1  0.8494789E-002  0.1855699E+03  0.7818608E-02  0.1162577E+00
         21   -1    0    0  501  502  0.00000000000E+00  0.00000000000E+00  0.27545135813E+03  0.27545135813E+03  0.00000000000E+00 0.  1.
         21   -1    0    0  502  503 -0.00000000000E+00 -0.00000000000E+00 -0.12884953998E+03  0.12884953998E+03  0.00000000000E+00 0.  1.
         -6    2    1    2    0  503  0.68058906776E+02  0.10018957586E+02  0.37635170562E+02  0.18910348669E+03  0.17207942443E+03 0.  0.
        -24    2    3    3    0    0 -0.81951118378E+01 -0.19788694951E+02 -0.21700635184E+02  0.87880962770E+02  0.82422046469E+02 0.  0.
          6    2    1    2  501    0 -0.68058906776E+02 -0.10018957586E+02  0.10896664758E+03  0.21519741142E+03  0.17234790772E+03 0.  0.
         24    2    5    5    0    0 -0.80661040135E+02  0.35907206295E+02  0.11632149996E+03  0.16678036745E+03  0.80557238991E+02 0.  0.
          5    1    5    5  501    0  0.12602133359E+02 -0.45926163881E+02 -0.73548523701E+01  0.48417043976E+02  0.47000000000E+01 0. -1.
        -11    1    6    6    0    0 -0.45101262239E+02  0.64355221760E+01  0.44799314310E+01  0.45777828552E+02  0.00000000000E+00 0.  1.
         12    1    6    6    0    0 -0.35559777895E+02  0.29471684119E+02  0.11184156852E+03  0.12100253889E+03  0.00000000000E+00 0. -1.
         -5    1    3    3    0  503  0.76254018614E+02  0.29807652537E+02  0.59335805746E+02  0.10122252392E+03  0.47000000000E+01 0.  1.
         11    1    4    4    0    0 -0.20690385971E+02  0.19416663705E+02  0.15567478735E+02  0.32364259535E+02  0.00000000000E+00 0. -1.
        -12    1    4    4    0    0  0.12495274133E+02 -0.39205358656E+02 -0.37268113918E+02  0.55516703235E+02  0.00000000000E+00 0.  1.
</event>
<event>
12    1  0.8494789E-002  0.2010671E+03  0.7818608E-02  0.1150105E+00
         21   -1    0    0  501  502  0.00000000000E+00  0.00000000000E+00  0.80171590620E+03  0.80171590620E+03  0.00000000000E+00 0. -1.
         21   -1    0    0  502  503 -0.00000000000E+00 -0.00000000000E+00 -0.26239659476E+03  0.26239659476E+03  0.00000000000E+00 0. -1.
         -6    2    1    2    0  503  0.90177544460E+02 -0.14827541779E+01 -0.21095436361E+03  0.28736377624E+03  0.17303759211E+03 0.  0.
        -24    2    3    3    0    0  0.24532124873E+02  0.61020793229E+02 -0.10814952377E+03  0.15022538028E+03  0.80907249565E+02 0.  0.
          6    2    1    2  501    0 -0.90177544460E+02  0.14827541779E+01  0.75027367505E+03  0.77674872472E+03  0.17970477397E+03 0.  0.
         24    2    5    5    0    0  0.21121347183E+02 -0.23154339541E+02  0.36308404491E+03  0.37309995492E+03  0.79945718754E+02 0.  0.
          5    1    5    5  501    0 -0.11129889164E+03  0.24637093719E+02  0.38718963014E+03  0.40364876980E+03  0.47000000000E+01 0. -1.
        -11    1    6    6    0    0  0.17717106379E+02  0.24161412711E+02  0.22733610356E+03  0.22930192695E+03  0.00000000000E+00 0.  1.
         12    1    6    6    0    0  0.34042408042E+01 -0.47315752251E+02  0.13574794136E+03  0.14379802797E+03  0.00000000000E+00 0. -1.
         -5    1    3    3    0  503  0.65645419588E+02 -0.62503547407E+02 -0.10280483984E+03  0.13713839596E+03  0.47000000000E+01 0.  1.
         11    1    4    4    0    0 -0.28353300438E+02  0.34076974996E+02 -0.54170846643E+02  0.69997360640E+02  0.00000000000E+00 0. -1.
        -12    1    4    4    0    0  0.52885425310E+02  0.26943818233E+02 -0.53978677129E+02  0.80228019643E+02  0.00000000000E+00 0.  1.
</event>
<event>
12    1  0.8494789E-002  0.1895444E+03  0.7818608E-02  0.1159258E+00
         21   -1    0    0  501  502  0.00000000000E+00  0.00000000000E+00  0.71332537251E+03  0.71332537251E+03  0.00000000000E+00 0.  1.
         21   -1    0    0  502  503 -0.00000000000E+00 -0.00000000000E+00 -0.10427409197E+03  0.10427409197E+03  0.00000000000E+00 0. -1.
         -6    2    1    2    0  503 -0.56958093205E+02  0.57637440632E+02  0.87142000008E+01  0.18805066618E+03  0.16947217125E+03 0.  0.
        -24    2    3    3    0    0 -0.36513346219E+02  0.22786526605E+02 -0.59844087615E+02  0.10833302266E+03  0.79386892684E+02 0.  0.
          6    2    1    2  501    0  0.56958093205E+02 -0.57637440632E+02  0.60033708054E+03  0.62954879829E+03  0.17134987661E+03 0.  0.
         24    2    5    5    0    0  0.76336174910E+02 -0.91416062189E+02  0.53062410532E+03  0.54955820986E+03  0.79171818484E+02 0.  0.
          5    1    5    5  501    0 -0.19378081705E+02  0.33778621557E+02  0.69712975216E+02  0.79990588436E+02  0.47000000000E+01 0. -1.
        -13    1    6    6    0    0  0.47315324410E+02 -0.25517601861E+00  0.18062103676E+03  0.18671573035E+03  0.00000000000E+00 0.  1.
         14    1    6    6    0    0  0.29020850500E+02 -0.91160886170E+02  0.35000306856E+03  0.36284247951E+03  0.00000000000E+00 0. -1.
         -5    1    3    3    0  503 -0.20444746986E+02  0.34850914027E+02  0.68558287615E+02  0.79717643521E+02  0.47000000000E+01 0.  1.
         13    1    4    4    0    0 -0.20511953315E+02 -0.27034641254E+02 -0.39785675561E+02  0.52292561960E+02  0.00000000000E+00 0. -1.
        -14    1    4    4    0    0 -0.16001392904E+02  0.49821167859E+02 -0.20058412053E+02  0.56040460703E+02  0.00000000000E+00 0.  1.
</event>
<event>
12    1  0.8494789E-002  0.1783348E+03  0.7818608E-02  0.1170002E+00
         21   -1    0    0  501  502  0.00000000000E+00  0.00000000000E+00  0.14269123314E+03  0.14269123314E+03  0.00000000000E+00 0.  1.
         21   -1    0    0  502  503 -0.00000000000E+00 -0.00000000000E+00 -0.24785075989E+03  0.24785075989E+03  0.00000000000E+00 0. -1.
         -6    2    1    2    0  503  0.39457544945E+02  0.76883044091E+01 -0.11838523478E+03  0.21405223854E+03  0.17374489671E+03 0.  0.
        -24    2    3    3    0    0 -0.16118247958E+02  0.61004947839E+02 -0.62754740489E+02  0.11893034244E+03  0.78897828361E+02 0.  0.
          6    2    1    2  501    0 -0.39457544945E+02 -0.76883044091E+01  0.13225708035E+02  0.17648975449E+03  0.17134090641E+03 0.  0.
         24    2    5    5    0    0 -0.21920945536E+02  0.39722939737E+02  0.57172954503E+02  0.10934208988E+03  0.81415637923E+02 0.  0.
          5    1    5    5  501    0 -0.17536599409E+02 -0.47411244146E+02 -0.43947246467E+02  0.67147664609E+02  0.47000000000E+01 0. -1.
        -13    1    6    6    0    0 -0.23705350467E+02 -0.16206653064E+02  0.42846378358E+02  0.51579175863E+02  0.00000000000E+00 0.  1.
         14    1    6    6    0    0  0.17844049306E+01  0.55929592801E+02  0.14326576145E+02  0.57762914018E+02  0.00000000000E+00 0. -1.
         -5    1    3    3    0  503  0.55575792903E+02 -0.53316643430E+02 -0.55630494293E+02  0.95121896106E+02  0.47000000000E+01 0.  1.
         11    1    4    4    0    0  0.18506292033E+02  0.25774164507E+02  0.79204812077E+01  0.32703584259E+02  0.00000000000E+00 0. -1.
        -12    1    4    4    0    0 -0.34624539991E+02  0.35230783332E+02 -0.70675221697E+02  0.86226758177E+02  0.00000000000E+00 0.  1.
</event>
<event>
12    1  0.8494789E-002  0.1785278E+03  0.7818608E-02  0.1169513E+00
         21   -1    0    0  501  502  0.00000000000E+00  0.00000000000E+00  0.70789856925E+03  0.70789856925E+03  0.00000000000E+00 0. -1.
         21   -1    0    0  502  503 -0.00000000000E+00 -0.00000000000E+00 -0.47741836215E+02  0.47741836215E+02  0.00000000000E+00 0. -1.
         -6    2    1    2    0  503  0.87443804903E+01 -0.41597712228E+02  0.23630382985E+03  0.29616154668E+03  0.17339356354E+03 0.  0.
        -24    2    3    3    0    0 -0.31023142609E+02 -0.38990598307E+02  0.52889867725E+02  0.10840898494E+03  0.80451648674E+02 0.  0.
          6    2    1    2  501    0 -0.87443804903E+01  0.41597712228E+02  0.42385290318E+03  0.45947885879E+03  0.17222863955E+03 0.  0.
         24    2    5    5    0    0 -0.38050286936E+02 -0.11423193065E+02  0.12067990754E+03  0.15027664689E+03  0.80256568841E+02 0.  0.
          5    1    5    5  501    0  0.29305906446E+02  0.53020905293E+02  0.30317299564E+03  0.30920221189E+03  0.47000000000E+01 0. -1.
        -11    1    6    6    0    0  0.14450529287E+02 -0.30422923052E+02  0.43304153232E+02  0.54860019421E+02  0.00000000000E+00 0.  1.
         12    1    6    6    0    0 -0.52500816223E+02  0.18999729987E+02  0.77375754307E+02  0.95416627472E+02  0.00000000000E+00 0. -1.
         -5    1    3    3    0  503  0.39767523099E+02 -0.26071139205E+01  0.18341396212E+03  0.18775256174E+03  0.47000000000E+01 0.  1.
         13    1    4    4    0    0 -0.30174768174E+02 -0.48531146190E+02  0.69045530858E+02  0.89627418330E+02  0.00000000000E+00 0. -1.
        -14    1    4    4    0    0 -0.84837443500E+00  0.95405478832E+01 -0.16155663134E+02  0.18781566611E+02  0.00000000000E+00 0.  1.
</event>
<event>
12    1  0.8494789E-002  0.1821666E+03  0.7818608E-02  0.1166121E+00
         21   -1    0    0  503  502  0.00000000000E+00  0.00000000000E+00  0.26368078448E+03  0.26368078448E+03  0.00000000000E+00 0.  1.
         21   -1    0    0  501  503 -0.00000000000E+00 -0.00000000000E+00 -0.12784718982E+03  0.12784718982E+03  0.00000000000E+00 0.  1.
          6    2    1    2  501    0 -0.49019229218E+02 -0.21887867552E+02  0.98307437945E+02  0.20553633294E+03  0.17233359575E+03 0.  0.
         24    2    3    3    0    0  0.33114475262E+01  0.42966282560E+02  0.77760776404E+02  0.11957811160E+03  0.79969489845E+02 0.  0.
         -6    2    1    2    0  502  0.49019229218E+02  0.21887867552E+02  0.37526156719E+02  0.18599164136E+03  0.17407674928E+03 0.  0.
        -24    2    5    5    0    0  0.13390556162E+02 -0.39775871955E+02 -0.30792958240E+00  0.10521214396E+03  0.96478357327E+02 0.  0.
          5    1    3    3  501    0 -0.52330676744E+02 -0.64854150112E+02  0.20546661541E+02  0.85958221338E+02  0.47000000000E+01 0. -1.
        -11    1    4    4    0    0  0.10459606698E+02  0.30020610986E+02  0.93035901900E+02  0.98317442494E+02  0.00000000000E+00 0.  1.
         12    1    4    4    0    0 -0.71481591714E+01  0.12945671574E+02 -0.15275125497E+02  0.21260669110E+02  0.00000000000E+00 0. -1.
         -5    1    5    5    0  502  0.35628673056E+02  0.61663739507E+02  0.37834086301E+02  0.80779497398E+02  0.47000000000E+01 0.  1.
         11    1    6    6    0    0 -0.17597643064E+02  0.25536072396E+02  0.90807172202E+01  0.32314508507E+02  0.00000000000E+00 0. -1.
        -12    1    6    6    0    0  0.30988199226E+02 -0.65311944351E+02 -0.93886468026E+01  0.72897635456E+02  0.00000000000E+00 0.  1.
</event>
<event>
12    1  0.8494789E-002  0.2321240E+03  0.7818608E-02  0.1125666E+00
         21   -1    0    0  501  502  0.00000000000E+00  0.00000000000E+00  0.13245699099E+04  0.13245699099E+04  0.00000000000E+00 0.  1.
         21   -1    0    0  502  503 -0.00000000000E+00 -0.00000000000E+00 -0.47879005927E+02  0.47879005927E+02  0.00000000000E+00 0.  1.
         -6    2    1    2    0  503  0.54210941036E+02 -0.14053783728E+03  0.91714875917E+03  0.94606734347E+03  0.17661217990E+03 0.  0.
        -24    2    3    3    0    0 -0.15440854040E+02 -0.56738507890E+02  0.66098476260E+03  0.66765077912E+03  0.73478079861E+02 0.  0.
          6    2    1    2  501    0 -0.54210941036E+02  0.14053783728E+03  0.35954214480E+03  0.42638157236E+03  0.17274542404E+03 0.  0.
         24    2    5    5    0    0 -0.36840020785E+02  0.14283937893E+03  0.17797239036E+03  0.24390770658E+03  0.77823661530E+02 0.  0.
          5    1    5    5  501    0 -0.17370920251E+02 -0.23015416554E+01  0.18156975444E+03  0.18247386578E+03  0.47000000000E+01 0. -1.
        -11    1    6    6    0    0 -0.91513923122E+01  0.11985724184E+03  0.16798513148E+03  0.20656357568E+03  0.00000000000E+00 0.  1.
         12    1    6    6    0    0 -0.27688628473E+02  0.22982137097E+02  0.99872588762E+01  0.37344130892E+02  0.00000000000E+00 0. -1.
         -5    1    3    3    0  503  0.69651795076E+02 -0.83799329386E+02  0.25616399658E+03  0.27841656435E+03  0.47000000000E+01 0.  1.
         13    1    4    4    0    0 -0.30141067629E+02 -0.50425519218E+02  0.26902304032E+03  0.27536269386E+03  0.00000000000E+00 0. -1.
        -14    1    4    4    0    0  0.14700213589E+02 -0.63129886714E+01  0.39196172228E+03  0.39228808526E+03  0.00000000000E+00 0.  1.
</event>
<event>
12    1  0.8494789E-002  0.1974657E+03  0.7818608E-02  0.1152860E+00
         21   -1    0    0  501  502  0.00000000000E+00  0.00000000000E+00  0.17346735517E+03  0.17346735517E+03  0.00000000000E+00 0. -1.
         21   -1    0    0  502  503 -0.00000000000E+00 -0.00000000000E+00 -0.29754818246E+03  0.29754818246E+03  0.00000000000E+00 0. -1.
         -6    2    1    2    0  503 -0.91052947466E+02 -0.19119273626E+02 -0.18193465309E+03  0.26524922933E+03  0.16911756207E+03 0.  0.
        -24    2    3    3    0    0 -0.11709568098E+03  0.23168873719E+02 -0.13018959012E+03  0.19337327427E+03  0.78712760160E+02 0.  0.
          6    2    1    2  501    0  0.91052947466E+02  0.19119273626E+02  0.57853825790E+02  0.20576630830E+03  0.17417382870E+03 0.  0.
         24    2    5    5    0    0  0.12055745117E+03 -0.19694325526E+02  0.26899560105E+02  0.14782437372E+03  0.78781302619E+02 0.  0.
          5    1    5    5  501    0 -0.29504503705E+02  0.38813599151E+02  0.30954265685E+02  0.57941934573E+02  0.47000000000E+01 0. -1.
        -11    1    6    6    0    0  0.36616260484E+02  0.27718580272E+02  0.22944527218E+02  0.51337330992E+02  0.00000000000E+00 0.  1.
         12    1    6    6    0    0  0.83941190687E+02 -0.47412905797E+02  0.39550328864E+01  0.96487042732E+02  0.00000000000E+00 0. -1.
         -5    1    3    3    0  503  0.26042733515E+02 -0.42288147344E+02 -0.51745062969E+02  0.71875955064E+02  0.47000000000E+01 0.  1.
         13    1    4    4    0    0 -0.10711957574E+03  0.27432483750E+02 -0.14023612712E+03  0.17858699847E+03  0.00000000000E+00 0. -1.
        -14    1    4    4    0    0 -0.99761052407E+01 -0.42636100311E+01  0.10046537004E+02  0.14786275800E+02  0.00000000000E+00 0.  1.
</event>
<event>
12    1  0.8494789E-002  0.1991221E+03  0.7818608E-02  0.1150692E+00
         21   -1    0    0  501  502  0.00000000000E+00  0.00000000000E+00  0.64995915498E+03  0.64995915498E+03  0.00000000000E+00 0.  1.
         21   -1    0    0  502  503 -0.00000000000E+00 -0.00000000000E+00 -0.19794349866E+03  0.19794349866E+03  0.00000000000E+00 0. -1.
         -6    2    1    2    0  503  0.91224276950E+02  0.42593340650E+02 -0.12683195574E+03  0.23608465465E+03  0.17179510410E+03 0.  0.
        -24    2    3    3    0    0  0.28084411321E+02 -0.45656786339E+01 -0.13114789972E+03  0.15701928231E+03  0.81521186429E+02 0.  0.
          6    2    1    2  501    0 -0.91224276950E+02 -0.42593340650E+02  0.57884761206E+03  0.61181799899E+03  0.17064772056E+03 0.  0.
         24    2    5    5    0    0  0.16481294973E+01 -0.97468630139E+01  0.40869254828E+03  0.41514819780E+03  0.72254477002E+02 0.  0.
          5    1    5    5  501    0 -0.92872406447E+02 -0.32846477636E+02  0.17015506378E+03  0.19666980119E+03  0.47000000000E+01 0. -1.
        -11    1    6    6    0    0  0.88527166037E+01 -0.26151799298E+02  0.38201992324E+03  0.38301632987E+03  0.00000000000E+00 0.  1.
         12    1    6    6    0    0 -0.72045871064E+01  0.16404936284E+02  0.26672625042E+02  0.32131867928E+02  0.00000000000E+00 0. -1.
         -5    1    3    3    0  503  0.63139865629E+02  0.47159019284E+02  0.43159439789E+01  0.79065372344E+02  0.47000000000E+01 0.  1.
         13    1    4    4    0    0  0.24437688903E+02 -0.10814866007E+02 -0.10751259735E+01  0.26745426928E+02  0.00000000000E+00 0. -1.
        -14    1    4    4    0    0  0.36467224178E+01  0.62491873733E+01 -0.13007277374E+03  0.13027385538E+03  0.00000000000E+00 0.  1.
</event>
<event>
12    1  0.8494789E-002  0.2655465E+03  0.7818608E-02  0.1103898E+00
         21   -1    0    0  501  502  0.00000000000E+00  0.00000000000E+00  0.18302823086E+04  0.18302823086E+04  0.00000000000E+00 0.  1.
         21   -1    0    0  502  503 -0.00000000000E+00 -0.00000000000E+00 -0.40895500861E+02  0.40895500861E+02  0.00000000000E+00 0. -1.
         -6    2    1    2    0  503  0.10877160193E+03 -0.17004571523E+03  0.66799488433E+03  0.71884082538E+03  0.17253451854E+03 0.  0.
        -24    2    3    3    0    0  0.93070451044E+01 -0.29549629807E+02  0.14781304649E+03  0.17089595360E+03  0.79980801046E+02 0.  0.
          6    2    1    2  501    0 -0.10877160193E+03  0.17004571523E+03  0.11213919234E+04  0.11523369841E+04  0.17208681629E+03 0.  0.
         24    2    5    5    0    0 -0.13168272374E+03  0.87483020669E+02  0.82990253787E+03  0.84847900753E+03  0.78643405369E+02 0.  0.
          5    1    5    5  501    0  0.22911121812E+02  0.82562694566E+02  0.29148938557E+03  0.30385797659E+03  0.47000000000E+01 0. -1.
        -11    1    6    6    0    0 -0.79593519805E+02  0.72926395727E+02  0.69165288082E+03  0.70002649602E+03  0.00000000000E+00 0.  1.
         12    1    6    6    0    0 -0.52089203934E+02  0.14556624942E+02  0.13824965706E+03  0.14845251151E+03  0.00000000000E+00 0. -1.
         -5    1    3    3    0  503  0.99464556823E+02 -0.14049608543E+03  0.52018183785E+03  0.54794487178E+03  0.47000000000E+01 0.  1.
         11    1    4    4    0    0 -0.83892807479E+01 -0.11828436911E+02 -0.55308909165E+01  0.15520396437E+02  0.00000000000E+00 0. -1.
        -12    1    4    4    0    0  0.17696325852E+02 -0.17721192895E+02  0.15334393740E+03  0.15537555717E+03  0.00000000000E+00 0.  1.
</event>
<event>
12    1  0.8494789E-002  0.1810514E+03  0.7818608E-02  0.1167034E+00
         21   -1    0    0  501  502  0.00000000000E+00  0.00000000000E+00  0.76721616056E+03  0.76721616056E+03  0.00000000000E+00 0. -1.
         21   -1    0    0  502  503 -0.00000000000E+00 -0.00000000000E+00 -0.53097336033E+02  0.53097336033E+02  0.00000000000E+00 0. -1.
         -6    2    1    2    0  503  0.55056339649E+02 -0.17584947715E+02  0.17450715078E+03  0.25146042126E+03  0.17157845689E+03 0.  0.
        -24    2    3    3    0    0  0.27221044639E+02 -0.40206641168E+02  0.19038218157E+03  0.21195534228E+03  0.79511840602E+02 0.  0.
          6    2    1    2  501    0 -0.55056339649E+02  0.17584947715E+02  0.53961167375E+03  0.56885307533E+03  0.17050698502E+03 0.  0.
         24    2    5    5    0    0  0.87569705094E+01 -0.22058395128E+02  0.41462274143E+03  0.42294880401E+03  0.80065072145E+02 0.  0.
          5    1    5    5  501    0 -0.63813310158E+02  0.39643342844E+02  0.12498893232E+03  0.14590427131E+03  0.47000000000E+01 0. -1.
        -13    1    6    6    0    0 -0.23149545019E+02 -0.39986699552E+02  0.20370351974E+03  0.20887786271E+03  0.00000000000E+00 0.  1.
         14    1    6    6    0    0  0.31906515528E+02  0.17928304423E+02  0.21091922168E+03  0.21407094130E+03  0.00000000000E+00 0. -1.
         -5    1    3    3    0  503  0.27835295010E+02  0.22621693452E+02 -0.15875030794E+02  0.39505078986E+02  0.47000000000E+01 0.  1.
         11    1    4    4    0    0  0.54410517534E+02 -0.16399937620E+02  0.12301061831E+03  0.13550304273E+03  0.00000000000E+00 0. -1.
        -12    1    4    4    0    0 -0.27189472895E+02 -0.23806703548E+02  0.67371563263E+02  0.76452299551E+02  0.00000000000E+00 0.  1.
</event>
<event>
12    1  0.8494789E-002  0.1976874E+03  0.7818608E-02  0.1151933E+00
         21   -1    0    0  503  502  0.00000000000E+00  0.00000000000E+00  0.56175857056E+02  0.56175857056E+02  0.00000000000E+00 0.  1.
         21   -1    0    0  501  503 -0.00000000000E+00 -0.00000000000E+00 -0.73395308745E+03  0.73395308745E+03  0.00000000000E+00 0.  1.
          6    2    1    2  501    0 -0.94784267799E+02  0.13166872030E+02 -0.43425677427E+03  0.47713652243E+03  0.17298234332E+03 0.  0.
         24    2    3    3    0    0 -0.90222278695E+02 -0.49872711854E+02 -0.30809870886E+03  0.33595313690E+03  0.85512273013E+02 0.  0.
         -6    2    1    2    0  502  0.94784267799E+02 -0.13166872030E+02 -0.24352045612E+03  0.31299242207E+03  0.17176908855E+03 0.  0.
        -24    2    5    5    0    0 -0.11357746654E+02 -0.59856779941E-01 -0.14960143841E+03  0.17058177300E+03  0.81169876884E+02 0.  0.
          5    1    3    3  501    0 -0.45619891040E+01  0.63039583884E+02 -0.12615806541E+03  0.14118338553E+03  0.47000000000E+01 0. -1.
        -11    1    4    4    0    0 -0.66061615275E+02  0.12222878989E+02 -0.16196777316E+03  0.17534849679E+03  0.00000000000E+00 0.  1.
         12    1    4    4    0    0 -0.24160663420E+02 -0.62095590843E+02 -0.14613093570E+03  0.16060464012E+03  0.00000000000E+00 0. -1.
         -5    1    5    5    0  502  0.10614201445E+03 -0.13107015250E+02 -0.93919017712E+02  0.14241064907E+03  0.47000000000E+01 0.  1.
         11    1    6    6    0    0  0.16697754191E+02 -0.27447756640E+01 -0.13968224882E+03  0.14070351604E+03  0.00000000000E+00 0. -1.
        -12    1    6    6    0    0 -0.28055500845E+02  0.26849188841E+01 -0.99191895861E+01  0.29878256963E+02  0.00000000000E+00 0.  1.
</event>
<event>
12    1  0.8494789E-002  0.1991422E+03  0.7818608E-02  0.1150647E+00
         21   -1    0    0  503  502  0.00000000000E+00  0.00000000000E+00  0.43801019178E+03  0.43801019178E+03  0.00000000000E+00 0. -1.
         21   -1    0    0  501  503 -0.00000000000E+00 -0.00000000000E+00 -0.13827680697E+03  0.13827680697E+03  0.00000000000E+00 0. -1.
          6    2    1    2  501    0  0.52175534947E+02 -0.85811007972E+02 -0.20333444802E+02  0.19932493345E+03  0.17097123905E+03 0.  0.
         24    2    3    3    0    0  0.20770455481E+02 -0.35232752076E+02  0.53762071123E+02  0.10415837175E+03  0.79283336680E+02 0.  0.
         -6    2    1    2    0  502 -0.52175534947E+02  0.85811007972E+02  0.32006682961E+03  0.37696206530E+03  0.17196455369E+03 0.  0.
        -24    2    5    5    0    0 -0.58609206763E+01  0.92271963273E+02  0.30308443113E+03  0.32698927974E+03  0.80705334867E+02 0.  0.
          5    1    3    3  501    0  0.31405079466E+02 -0.50578255895E+02 -0.74095515925E+02  0.95166561700E+02  0.47000000000E+01 0. -1.
        -11    1    4    4    0    0  0.50411022731E+02 -0.21592485955E+02  0.23525038589E+02  0.59673562849E+02  0.00000000000E+00 0.  1.
         12    1    4    4    0    0 -0.29640567250E+02 -0.13640266121E+02  0.30237032534E+02  0.44484808904E+02  0.00000000000E+00 0. -1.
         -5    1    5    5    0  502 -0.46314614271E+02 -0.64609553014E+01  0.16982398478E+02  0.49972785559E+02  0.47000000000E+01 0.  1.
         11    1    6    6    0    0  0.80712095858E+01 -0.82380711583E+01  0.92679418604E+02  0.93394244327E+02  0.00000000000E+00 0. -1.
        -12    1    6    6    0    0 -0.13932130262E+02  0.10051003443E+03  0.21040501253E+03  0.23359503542E+03  0.00000000000E+00 0.  1.
</event>
<event>
12    1  0.8494789E-002  0.2441560E+03  0.7818608E-02  0.1117069E+00
         21   -1    0    0  501  502  0.00000000000E+00  0.00000000000E+00  0.44557913259E+03  0.44557913259E+03  0.00000000000E+00 0. -1.
         21   -1    0    0  502  503 -0.00000000000E+00 -0.00000000000E+00 -0.13759234055E+03  0.13759234055E+03  0.00000000000E+00 0. -1.
         -6    2    1    2    0  503  0.73604495619E+02  0.15647150787E+03  0.10516301256E+03  0.26576063726E+03  0.17224547181E+03 0.  0.
        -24    2    3    3    0    0  0.76427267529E+02  0.41949870186E+02  0.12949195029E+02  0.11862582941E+03  0.79394501829E+02 0.  0.
          6    2    1    2  501    0 -0.73604495619E+02 -0.15647150787E+03  0.20282377948E+03  0.31741083588E+03  0.17236936694E+03 0.  0.
         24    2    5    5    0    0  0.18582687512E+02 -0.11834144548E+03  0.10854775318E+03  0.18007024637E+03  0.79326319180E+02 0.  0.
          5    1    5    5  501    0 -0.92187183131E+02 -0.38130062393E+02  0.94276026297E+02  0.13734058951E+03  0.47000000000E+01 0. -1.
        -11    1    6    6    0    0  0.12838364080E+02  0.15897298146E+01 -0.58783975604E+01  0.14209376869E+02  0.00000000000E+00 0.  1.
         12    1    6    6    0    0  0.57443234328E+01 -0.11993117529E+03  0.11442615074E+03  0.16586086950E+03  0.00000000000E+00 0. -1.
         -5    1    3    3    0  503 -0.28227719101E+01  0.11452163768E+03  0.92213817531E+02  0.14713480785E+03  0.47000000000E+01 0.  1.
         11    1    4    4    0    0  0.24796243668E+02  0.51684873405E+02  0.28242209902E+02  0.63904634097E+02  0.00000000000E+00 0. -1.
        -12    1    4    4    0    0  0.51631023861E+02 -0.97350032182E+01 -0.15293014873E+02  0.54721195313E+02  0.00000000000E+00 0.  1.
</event>
<event>
12    1  0.8494789E-002  0.1747327E+03  0.7818608E-02  0.1173293E+00
         21   -1    0    0  503  502  0.00000000000E+00  0.00000000000E+00  0.90636934987E+02  0.90636934987E+02  0.00000000000E+00 0.  1.
         21   -1    0    0  501  503 -0.00000000000E+00 -0.00000000000E+00 -0.98543405422E+03  0.98543405422E+03  0.00000000000E+00 0.  1.
          6    2    1    2  501    0  0.25323542130E+02 -0.12156850414E+02 -0.88413656662E+03  0.90101338100E+03  0.17128506502E+03 0.  0.
         24    2    3    3    0    0  0.25524423589E+02 -0.19989076711E+02 -0.88720097286E+03  0.89137674737E+03  0.79849108407E+02 0.  0.
         -6    2    1    2    0  502 -0.25323542130E+02  0.12156850414E+02 -0.10660552610E+02  0.17505760821E+03  0.17245998960E+03 0.  0.
        -24    2    5    5    0    0  0.39735309633E+02 -0.10705663839E+02  0.30048710553E+02  0.94841133231E+02  0.79990058613E+02 0.  0.
          5    1    3    3  501    0 -0.20088145912E+00  0.78322262968E+01  0.30644062387E+01  0.96366336301E+01  0.47000000000E+01 0. -1.
        -11    1    4    4    0    0 -0.18294712800E+02 -0.18727100707E+02 -0.62408958536E+03  0.62463846453E+03  0.00000000000E+00 0.  1.
         12    1    4    4    0    0  0.43819136389E+02 -0.12619760035E+01 -0.26311138750E+03  0.26673828284E+03  0.00000000000E+00 0. -1.
         -5    1    5    5    0  502 -0.65058851763E+02  0.22862514253E+02 -0.40709263164E+02  0.80216474978E+02  0.47000000000E+01 0.  1.
         13    1    6    6    0    0 -0.11209152828E+02 -0.20757269084E+02 -0.13403596805E+02  0.27132374284E+02  0.00000000000E+00 0. -1.
        -14    1    6    6    0    0  0.50944462461E+02  0.10051605245E+02  0.43452307359E+02  0.67708758948E+02  0.00000000000E+00 0.  1.
</event>
<event>
12    1  0.8494789E-002  0.1829253E+03  0.7818608E-02  0.1165139E+00
         21   -1    0    0  503  502  0.00000000000E+00  0.00000000000E+00  0.44685737061E+03  0.44685737061E+03  0.00000000000E+00 0.  1.
         21   -1    0    0  501  503 -0.00000000000E+00 -0.00000000000E+00 -0.12335841618E+03  0.12335841618E+03  0.00000000000E+00 0.  1.
          6    2    1    2  501    0  0.54532182230E+02  0.28821449923E+02 -0.17257061113E+02  0.18373753385E+03  0.17221277627E+03 0.  0.
         24    2    3    3    0    0  0.65402461201E+02  0.28497294248E+02  0.47877597313E+02  0.11753419730E+03  0.80202528014E+02 0.  0.
         -6    2    1    2    0  502 -0.54532182230E+02 -0.28821449923E+02  0.34075601554E+03  0.38647825294E+03  0.17159936769E+03 0.  0.
        -24    2    5    5    0    0  0.27925243073E+02  0.12944805402E+02  0.20331189122E+03  0.22077784744E+03  0.80372542710E+02 0.  0.
          5    1    3    3  501    0 -0.10870278971E+02  0.32415567454E+00 -0.65134658426E+02  0.66203336548E+02  0.47000000000E+01 0. -1.
        -11    1    4    4    0    0  0.81734499836E+02  0.97356153973E+01  0.34071590123E+02  0.89085262103E+02  0.00000000000E+00 0.  1.
         12    1    4    4    0    0 -0.16332038635E+02  0.18761678851E+02  0.13806007191E+02  0.28448935197E+02  0.00000000000E+00 0. -1.
         -5    1    5    5    0  502 -0.82457425303E+02 -0.41766255325E+02  0.13744412432E+03  0.16570040549E+03  0.47000000000E+01 0.  1.
         11    1    6    6    0    0 -0.14275809589E+01  0.25654468849E+02  0.17838439343E+03  0.18022536331E+03  0.00000000000E+00 0. -1.
        -12    1    6    6    0    0  0.29352824032E+02 -0.12709663446E+02  0.24927497793E+02  0.40552484138E+02  0.00000000000E+00 0.  1.
</event>
<event>
12    1  0.8494789E-002  0.1751584E+03  0.7818608E-02  0.1173054E+00
         21   -1    0    0  503  502  0.00000000000E+00  0.00000000000E+00  0.24247437726E+03  0.24247437726E+03  0.00000000000E+00 0. -1.
         21   -1    0    0  501  503 -0.00000000000E+00 -0.00000000000E+00 -0.12908036490E+03  0.12908036490E+03  0.00000000000E+00 0. -1.
          6    2    1    2  501    0  0.14234926448E+02  0.19781841792E+02  0.24608905764E+02  0.17687866089E+03  0.17345462819E+03 0.  0.
         24    2    3    3    0    0 -0.67528734323E+01 -0.19674368300E+02 -0.44752973258E+02  0.94232181713E+02  0.80275733490E+02 0.  0.
         -6    2    1    2    0  502 -0.14234926448E+02 -0.19781841792E+02  0.88785106592E+02  0.19467608127E+03  0.17152850221E+03 0.  0.
        -24    2    5    5    0    0 -0.47498826326E+02  0.10037351397E+02 -0.34153682742E+01  0.92115421740E+02  0.78209329727E+02 0.  0.
          5    1    3    3  501    0  0.20987799880E+02  0.39456210092E+02  0.69361879022E+02  0.82646479176E+02  0.47000000000E+01 0. -1.
        -13    1    4    4    0    0 -0.26332347783E+01  0.15093962256E+02  0.17222101019E+02  0.23051298998E+02  0.00000000000E+00 0.  1.
         14    1    4    4    0    0 -0.41196386540E+01 -0.34768330556E+02 -0.61975074277E+02  0.71180882714E+02  0.00000000000E+00 0. -1.
         -5    1    5    5    0  502  0.33263899879E+02 -0.29819193190E+02  0.92200474866E+02  0.10256065953E+03  0.47000000000E+01 0.  1.
         13    1    6    6    0    0 -0.12548424033E+02 -0.12691636217E+02  0.32506226760E+02  0.37083626491E+02  0.00000000000E+00 0. -1.
        -14    1    6    6    0    0 -0.34950402294E+02  0.22728987615E+02 -0.35921595034E+02  0.55031795249E+02  0.00000000000E+00 0.  1.
</event>
<event>
12    1  0.8494789E-002  0.2592818E+03  0.7818608E-02  0.1107779E+00
         21   -1    0    0  501  502  0.00000000000E+00  0.00000000000E+00  0.37012326679E+03  0.37012326679E+03  0.00000000000E+00 0.  1.
         21   -1    0    0  502  503 -0.00000000000E+00 -0.00000000000E+00 -0.26679493242E+03  0.26679493242E+03  0.00000000000E+00 0.  1.
         -6    2    1    2    0  503 -0.16935663341E+03 -0.89641695823E+02 -0.12915799045E+03  0.28967025528E+03  0.17467045368E+03 0.  0.
        -24    2    3    3    0    0 -0.12244375823E+03  0.33632632017E+01 -0.11165283878E+03  0.18393823272E+03  0.79769239553E+02 0.  0.
          6    2    1    2  501    0  0.16935663341E+03  0.89641695823E+02  0.23248632483E+03  0.34724794393E+03  0.17266713765E+03 0.  0.
         24    2    5    5    0    0  0.18956130195E+03  0.57817933243E+02  0.22160906699E+03  0.30773357649E+03  0.79454231646E+02 0.  0.
          5    1    5    5  501    0 -0.20204668548E+02  0.31823762580E+02  0.10877257837E+02  0.39514367437E+02  0.47000000000E+01 0. -1.
        -11    1    6    6    0    0  0.74322781140E+02  0.62506061837E+02  0.86066656546E+02  0.12976267927E+03  0.00000000000E+00 0.  1.
         12    1    6    6    0    0  0.11523852081E+03 -0.46881285941E+01  0.13554241044E+03  0.17797089722E+03  0.00000000000E+00 0. -1.
         -5    1    3    3    0  503 -0.46912875176E+02 -0.93004959025E+02 -0.17505151675E+02  0.10573202256E+03  0.47000000000E+01 0.  1.
         11    1    4    4    0    0  0.86683495287E+01  0.19935999561E+01  0.33759816822E+01  0.95137782534E+01  0.00000000000E+00 0. -1.
        -12    1    4    4    0    0 -0.13111210776E+03  0.13696632457E+01 -0.11502882046E+03  0.17442445446E+03  0.00000000000E+00 0.  1.
</event>
<event>
12    1  0.8494789E-002  0.2367886E+03  0.7818608E-02  0.1122334E+00
         21   -1    0    0  501  502  0.00000000000E+00  0.00000000000E+00  0.96268389425E+03  0.96268389425E+03  0.00000000000E+00 0. -1.
         21   -1    0    0  502  503 -0.00000000000E+00 -0.00000000000E+00 -0.57796039768E+02  0.57796039768E+02  0.00000000000E+00 0. -1.
         -6    2    1    2    0  503 -0.50550231043E+02 -0.15169307067E+03  0.43273214725E+03  0.49328079285E+03  0.17465026704E+03 0.  0.
        -24    2    3    3    0    0  0.23344894829E+02 -0.12066625604E+03  0.34554447499E+03  0.37476103480E+03  0.77068278453E+02 0.  0.
          6    2    1    2  501    0  0.50550231043E+02  0.15169307067E+03  0.47215570723E+03  0.52719914117E+03  0.17158615630E+03 0.  0.
         24    2    5    5    0    0 -0.13077027103E+02  0.10281062006E+02  0.15472879764E+03  0.17388947939E+03  0.77587636584E+02 0.  0.
          5    1    5    5  501    0  0.63627258146E+02  0.14141200867E+03  0.31742690959E+03  0.35330966178E+03  0.47000000000E+01 0. -1.
        -11    1    6    6    0    0  0.14536965741E+02 -0.23735099965E+02  0.26690902695E+02  0.38562710356E+02  0.00000000000E+00 0.  1.
         12    1    6    6    0    0 -0.27613992844E+02  0.34016161971E+02  0.12803789495E+03  0.13532676904E+03  0.00000000000E+00 0. -1.
         -5    1    3    3    0  503 -0.73895125872E+02 -0.31026814633E+02  0.87187672261E+02  0.11851975805E+03  0.47000000000E+01 0.  1.
         13    1    4    4    0    0 -0.80889937951E+01 -0.67435142446E+02  0.26303266223E+03  0.27165991912E+03  0.00000000000E+00 0. -1.
        -14    1    4    4    0    0  0.31433888624E+02 -0.53231113593E+02  0.82511812766E+02  0.10310111568E+03  0.00000000000E+00 0.  1.
</event>
<event>
12    1  0.8494789E-002  0.2044156E+03  0.7818608E-02  0.1146369E+00
         21   -1    0    0  501  502  0.00000000000E+00  0.00000000000E+00  0.13857262703E+03  0.13857262703E+03  0.00000000000E+00 0.  1.
         21   -1    0    0  502  503 -0.00000000000E+00 -0.00000000000E+00 -0.37561673498E+03  0.37561673498E+03  0.00000000000E+00 0.  1.
         -6    2    1    2    0  503 -0.73929128100E+02 -0.84370647050E+02 -0.23468809108E+03  0.31123019212E+03  0.17088537189E+03 0.  0.
        -24    2    3    3    0    0 -0.13914816307E+01 -0.17844695209E+02 -0.18166830896E+03  0.19933470642E+03  0.80066106025E+02 0.  0.
          6    2    1    2  501    0  0.73929128100E+02  0.84370647050E+02 -0.23560168637E+01  0.20295916989E+03  0.16912407210E+03 0.  0.
         24    2    5    5    0    0  0.92107934949E+02  0.67679036761E+01 -0.63474236526E+01  0.12301746535E+03  0.81014386332E+02 0.  0.
          5    1    5    5  501    0 -0.18178806849E+02  0.77602743374E+02  0.39914067888E+01  0.79941704546E+02  0.47000000000E+01 0. -1.
        -13    1    6    6    0    0  0.28899120225E+02  0.34403732434E+02 -0.25181982673E+02  0.51506389958E+02  0.00000000000E+00 0.  1.
         14    1    6    6    0    0  0.63208814724E+02 -0.27635828757E+02  0.18834559020E+02  0.71511075390E+02  0.00000000000E+00 0. -1.
         -5    1    3    3    0  503 -0.72537646470E+02 -0.66525951841E+02 -0.53019782120E+02  0.11189548570E+03  0.47000000000E+01 0.  1.
         13    1    4    4    0    0 -0.28448789248E+01  0.28840361606E+02 -0.11027865053E+03  0.11402298258E+03  0.00000000000E+00 0. -1.
        -14    1    4    4    0    0  0.14533972941E+01 -0.46685056815E+02 -0.71389658433E+02  0.85311723840E+02  0.00000000000E+00 0.  1.
</event>
<event>
12    1  0.8494789E-002  0.2005558E+03  0.7818608E-02  0.1149955E+00
         21   -1    0    0  503  502  0.00000000000E+00  0.00000000000E+00  0.22585306969E+03  0.22585306969E+03  0.00000000000E+00 0.  1.
         21   -1    0    0  501  503 -0.00000000000E+00 -0.00000000000E+00 -0.20438345513E+03  0.20438345513E+03  0.00000000000E+00 0. -1.
          6    2    1    2  501    0  0.77611603101E+02  0.73470739248E+02 -0.70569147653E+02  0.20956990302E+03  0.16588559066E+03 0.  0.
         24    2    3    3    0    0 -0.37113147708E+00  0.17452181610E+02  0.14043328959E+02  0.81504502186E+02  0.78364867172E+02 0.  0.
         -6    2    1    2    0  502 -0.77611603101E+02 -0.73470739248E+02  0.92038762215E+02  0.22066662180E+03  0.16970890892E+03 0.  0.
        -24    2    5    5    0    0 -0.10200408917E+03 -0.54457531716E+02  0.19249984919E+02  0.14144041693E+03  0.79147789949E+02 0.  0.
          5    1    3    3  501    0  0.77982734578E+02  0.56018557638E+02 -0.84612476612E+02  0.12806540083E+03  0.47000000000E+01 0. -1.
        -11    1    4    4    0    0  0.28379262821E+02  0.11441875298E+02  0.34193103950E+02  0.45885372684E+02  0.00000000000E+00 0.  1.
         12    1    4    4    0    0 -0.28750394298E+02  0.60103063116E+01 -0.20149774992E+02  0.35619129502E+02  0.00000000000E+00 0. -1.
         -5    1    5    5    0  502  0.24392486073E+02 -0.19013207531E+02  0.72788777296E+02  0.79226204867E+02  0.47000000000E+01 0.  1.
         13    1    6    6    0    0 -0.31808055709E+02  0.12749134832E+02 -0.16317773228E+02  0.37954743710E+02  0.00000000000E+00 0. -1.
        -14    1    6    6    0    0 -0.70196033466E+02 -0.67206666548E+02  0.35567758148E+02  0.10348567322E+03  0.00000000000E+00 0.  1.
</event>
<event>
12    1  0.8494789E-002  0.4229741E+03  0.7818608E-02  0.1036333E+00
         21   -1    0    0  501  502  0.00000000000E+00  0.00000000000E+00  0.73083721766E+03  0.73083721766E+03  0.00000000000E+00 0.  1.
         21   -1    0    0  502  503 -0.00000000000E+00 -0.00000000000E+00 -0.27048906409E+03  0.27048906409E+03  0.00000000000E+00 0. -1.
         -6    2    1    2    0  503  0.15381483683E+03 -0.35102936417E+03  0.71711542184E+02  0.42901004248E+03  0.17895936056E+03 0.  0.
        -24    2    3    3    0    0  0.13220769831E+03 -0.13265521890E+03  0.42110988571E+02  0.20753223653E+03  0.78867047914E+02 0.  0.
          6    2    1    2  501    0 -0.15381483683E+03  0.35102936417E+03  0.38863661139E+03  0.57231623926E+03  0.17212449993E+03 0.  0.
         24    2    5    5    0    0 -0.91679022901E+01  0.16410106942E+03  0.19865111037E+03  0.26903171337E+03  0.76828300324E+02 0.  0.
          5    1    5    5  501    0 -0.14464693454E+03  0.18692829475E+03  0.18998550102E+03  0.30328452590E+03  0.47000000000E+01 0. -1.
        -11    1    6    6    0    0  0.16323327802E+02  0.12115876987E+03  0.17575974190E+03  0.21409667307E+03  0.00000000000E+00 0.  1.
         12    1    6    6    0    0 -0.25491230092E+02  0.42942299552E+02  0.22891368468E+02  0.54935040300E+02  0.00000000000E+00 0. -1.
         -5    1    3    3    0  503  0.21607138527E+02 -0.21837414527E+03  0.29600553613E+02  0.22147780596E+03  0.47000000000E+01 0.  1.
         11    1    4    4    0    0  0.92640652661E+02 -0.93672364583E+02 -0.89971373464E+01  0.13205207644E+03  0.00000000000E+00 0. -1.
        -12    1    4    4    0    0  0.39567045646E+02 -0.38982854317E+02  0.51108125917E+02  0.75480160086E+02  0.00000000000E+00 0.  1.
</event>
<event>
12    1  0.8494789E-002  0.2985828E+03  0.7818608E-02  0.1086397E+00
         21   -1    0    0  503  502  0.00000000000E+00  0.00000000000E+00  0.24628081207E+03  0.24628081207E+03  0.00000000000E+00 0. -1.
         21   -1    0    0  501  503 -0.00000000000E+00 -0.00000000000E+00 -0.54686553989E+03  0.54686553989E+03  0.00000000000E+00 0. -1.
          6    2    1    2  501    0  0.20048710072E+03  0.13984359079E+03 -0.38409386956E+03  0.48649747314E+03  0.17146539973E+03 0.  0.
         24    2    3    3    0    0  0.11613770780E+03  0.42343663985E+02 -0.10652413904E+03  0.18041235244E+03  0.76943301621E+02 0.  0.
         -6    2    1    2    0  502 -0.20048710072E+03 -0.13984359079E+03  0.83509141737E+02  0.30664887882E+03  0.16525268738E+03 0.  0.
        -24    2    5    5    0    0 -0.10944426942E+03 -0.41381438180E+02 -0.12040967838E+02  0.14192029579E+03  0.79409784760E+02 0.  0.
          5    1    3    3  501    0  0.84349392921E+02  0.97499926804E+02 -0.27756973052E+03  0.30608512070E+03  0.47000000000E+01 0. -1.
        -11    1    4    4    0    0  0.27441488227E+02  0.46063237368E+02 -0.58978141776E+02  0.79707454609E+02  0.00000000000E+00 0.  1.
         12    1    4    4    0    0  0.88696219571E+02 -0.37195733822E+01 -0.47545997261E+02  0.10070489783E+03  0.00000000000E+00 0. -1.
         -5    1    5    5    0  502 -0.91042831303E+02 -0.98462152609E+02  0.95550109575E+02  0.16472858303E+03  0.47000000000E+01 0.  1.
         11    1    6    6    0    0 -0.64917550358E+02 -0.44732525528E+02  0.26255825105E+02  0.83094256941E+02  0.00000000000E+00 0. -1.
        -12    1    6    6    0    0 -0.44526719058E+02  0.33510873479E+01 -0.38296792943E+02  0.58826038845E+02  0.00000000000E+00 0.  1.
</event>
<event>
12    1  0.8494789E-002  0.1953202E+03  0.7818608E-02  0.1153753E+00
         21   -1    0    0  503  502  0.00000000000E+00  0.00000000000E+00  0.13497856405E+03  0.13497856405E+03  0.00000000000E+00 0.  1.
         21   -1    0    0  501  503 -0.00000000000E+00 -0.00000000000E+00 -0.42206980487E+03  0.42206980487E+03  0.00000000000E+00 0. -1.
          6    2    1    2  501    0  0.62233049133E+02  0.74576324358E+02 -0.30365266842E+03  0.36104700654E+03  0.16945624019E+03 0.  0.
         24    2    3    3    0    0 -0.24610172941E+02  0.25567555045E+02 -0.93608357465E+02  0.12848667619E+03  0.80541547592E+02 0.  0.
         -6    2    1    2    0  502 -0.62233049133E+02 -0.74576324358E+02  0.16561427594E+02  0.19600136238E+03  0.16943338695E+03 0.  0.
        -24    2    5    5    0    0  0.91465783253E+01 -0.85665026173E+02  0.32633484926E+02  0.12185008761E+03  0.79751758020E+02 0.  0.
          5    1    3    3  501    0  0.86843222074E+02  0.49008769313E+02 -0.21004431095E+03  0.23256033035E+03  0.47000000000E+01 0. -1.
        -13    1    4    4    0    0 -0.25231452058E+02  0.10670104402E+02  0.57700787701E+01  0.27995912379E+02  0.00000000000E+00 0.  1.
         14    1    4    4    0    0  0.62127911703E+00  0.14897450642E+02 -0.99378436235E+02  0.10049076381E+03  0.00000000000E+00 0. -1.
         -5    1    5    5    0  502 -0.71379627458E+02  0.11088701815E+02 -0.16072057332E+02  0.74151274776E+02  0.47000000000E+01 0.  1.
         13    1    6    6    0    0  0.41967317399E+02 -0.65334746557E+02  0.13705589948E+02  0.78852571506E+02  0.00000000000E+00 0. -1.
        -14    1    6    6    0    0 -0.32820739073E+02 -0.20330279616E+02  0.18927894978E+02  0.42997516102E+02  0.00000000000E+00 0.  1.
</event>
<event>
12    1  0.8494789E-002  0.1910793E+03  0.7818608E-02  0.1157524E+00
         21   -1    0    0  501  502  0.00000000000E+00  0.00000000000E+00  0.42811898789E+03  0.42811898789E+03  0.00000000000E+00 0. -1.
         21   -1    0    0  502  503 -0.00000000000E+00 -0.00000000000E+00 -0.28594616116E+03  0.28594616116E+03  0.00000000000E+00 0. -1.
         -6    2    1    2    0  503  0.62218638912E+02 -0.55578968914E+02 -0.22804245298E+03  0.29751410533E+03  0.17190433879E+03 0.  0.
        -24    2    3    3    0    0  0.83516616338E+01 -0.93726935095E+02 -0.16048840519E+03  0.20294900639E+03  0.81100446238E+02 0.  0.
          6    2    1    2  501    0 -0.62218638912E+02  0.55578968914E+02  0.37021527970E+03  0.41655104372E+03  0.17174177677E+03 0.  0.
         24    2    5    5    0    0 -0.41833019517E+02  0.48492119938E+02  0.92177637165E+02  0.13763740552E+03  0.79660852289E+02 0.  0.
          5    1    5    5  501    0 -0.20385619395E+02  0.70868489767E+01  0.27803764254E+03  0.27891363820E+03  0.47000000000E+01 0. -1.
        -11    1    6    6    0    0  0.11313896988E+02  0.38294683176E+02  0.66894669547E+02  0.77906250317E+02  0.00000000000E+00 0.  1.
         12    1    6    6    0    0 -0.53146916505E+02  0.10197436762E+02  0.25282967618E+02  0.59731155205E+02  0.00000000000E+00 0. -1.
         -5    1    3    3    0  503  0.53866977278E+02  0.38147966180E+02 -0.67554047784E+02  0.94565098937E+02  0.47000000000E+01 0.  1.
         11    1    4    4    0    0  0.44835780235E+02 -0.47538883211E+02 -0.86186964635E+02  0.10815907488E+03  0.00000000000E+00 0. -1.
        -12    1    4    4    0    0 -0.36484118601E+02 -0.46188051883E+02 -0.74301440556E+02  0.94789931509E+02  0.00000000000E+00 0.  1.
</event>
<event>
12    1  0.8494789E-002  0.2097643E+03  0.7818608E-02  0.1141923E+00
         21   -1    0    0  503  502  0.00000000000E+00  0.00000000000E+00  0.29818767351E+02  0.29818767351E+02  0.00000000000E+00 0. -1.
         21   -1    0    0  501  503 -0.00000000000E+00 -0.00000000000E+00 -0.21091994197E+04  0.21091994197E+04  0.00000000000E+00 0. -1.
          6    2    1    2  501    0 -0.41350963865E+02 -0.11187417561E+03 -0.45222017937E+03  0.49850191852E+03  0.17255532086E+03 0.  0.
         24    2    3    3    0    0 -0.77251101586E+02 -0.23383595257E+02 -0.25000404157E+03  0.27482165768E+03  0.80687034330E+02 0.  0.
         -6    2    1    2    0  502  0.41350963865E+02  0.11187417561E+03 -0.16271604730E+04  0.16405162685E+04  0.17151294151E+03 0.  0.
        -24    2    5    5    0    0 -0.12024850828E+02  0.35543475767E+02 -0.11942735453E+04  0.11976974167E+04  0.82352081877E+02 0.  0.
          5    1    3    3  501    0  0.35900137721E+02 -0.88490580355E+02 -0.20221613780E+03  0.22368026084E+03  0.47000000000E+01 0. -1.
        -13    1    4    4    0    0 -0.33908767950E+02  0.13318837812E+02 -0.28790500630E+02  0.46433704473E+02  0.00000000000E+00 0.  1.
         14    1    4    4    0    0 -0.43342333637E+02 -0.36702433069E+02 -0.22121354094E+03  0.22838795321E+03  0.00000000000E+00 0. -1.
         -5    1    5    5    0  502  0.53375814693E+02  0.76330699845E+02 -0.43288692769E+03  0.44281885179E+03  0.47000000000E+01 0.  1.
         11    1    6    6    0    0  0.29579918090E+01  0.59927500910E+02 -0.91373224430E+03  0.91570009793E+03  0.00000000000E+00 0. -1.
        -12    1    6    6    0    0 -0.14982842637E+02 -0.24384025143E+02 -0.28054130097E+03  0.28199731879E+03  0.00000000000E+00 0.  1.
</event>
<event>
12    1  0.8494789E-002  0.2408368E+03  0.7818608E-02  0.1121130E+00
         21   -1    0    0  501  502  0.00000000000E+00  0.00000000000E+00  0.53025421706E+03  0.53025421706E+03  0.00000000000E+00 0.  1.
         21   -1    0    0  502  503 -0.00000000000E+00 -0.00000000000E+00 -0.13830472610E+03  0.13830472610E+03  0.00000000000E+00 0. -1.
         -6    2    1    2    0  503  0.63156250055E+02  0.15663906485E+03  0.33969435719E+02  0.24322068501E+03  0.17169120681E+03 0.  0.
        -24    2    3    3    0    0  0.91701696260E+02  0.11058079333E+03 -0.21159245347E+02  0.16577736154E+03  0.79981916612E+02 0.  0.
          6    2    1    2  501    0 -0.63156250055E+02 -0.15663906485E+03  0.35798005524E+03  0.42533825815E+03  0.15568688236E+03 0.  0.
         24    2    5    5    0    0 -0.20665943642E+02 -0.13959008944E+03  0.18508134271E+03  0.24641886710E+03  0.80960980380E+02 0.  0.
          5    1    5    5  501    0 -0.42490306413E+02 -0.17048975411E+02  0.17289871252E+03  0.17891939105E+03  0.47000000000E+01 0. -1.
        -13    1    6    6    0    0  0.19763497562E+02 -0.92325793385E+02  0.14287345852E+03  0.17125265869E+03  0.00000000000E+00 0.  1.
         14    1    6    6    0    0 -0.40429441204E+02 -0.47264296054E+02  0.42207884192E+02  0.75166208402E+02  0.00000000000E+00 0. -1.
         -5    1    3    3    0  503 -0.28545446204E+02  0.46058271519E+02  0.55128681066E+02  0.77443323473E+02  0.47000000000E+01 0.  1.
         11    1    4    4    0    0  0.10015348484E+02  0.41646552853E+02 -0.38379930854E+02  0.57513143386E+02  0.00000000000E+00 0. -1.
        -12    1    4    4    0    0  0.81686347776E+02  0.68934240478E+02  0.17220685507E+02  0.10826421815E+03  0.00000000000E+00 0.  1.
</event>
<event>
12    1  0.8494789E-002  0.2421461E+03  0.7818608E-02  0.1118625E+00
         21   -1    0    0  503  502  0.00000000000E+00  0.00000000000E+00  0.42900874829E+03  0.42900874829E+03  0.00000000000E+00 0. -1.
         21   -1    0    0  501  503 -0.00000000000E+00 -0.00000000000E+00 -0.32818250093E+03  0.32818250093E+03  0.00000000000E+00 0.  1.
          6    2    1    2  501    0 -0.15051707961E+03  0.74514383063E+02 -0.23938046169E+03  0.34049634486E+03  0.17443328491E+03 0.  0.
         24    2    3    3    0    0 -0.66180136939E+02  0.43054909038E+02 -0.22153569683E+03  0.24861085069E+03  0.80596243065E+02 0.  0.
         -6    2    1    2    0  502  0.15051707961E+03 -0.74514383063E+02  0.34020670905E+03  0.41669490437E+03  0.17229699330E+03 0.  0.
        -24    2    5    5    0    0  0.15354490309E+02 -0.37677736885E+02  0.19989728399E+03  0.21836515670E+03  0.77904077455E+02 0.  0.
          5    1    3    3  501    0 -0.84336942671E+02  0.31459474025E+02 -0.17844764868E+02  0.91885494167E+02  0.47000000000E+01 0. -1.
        -13    1    4    4    0    0 -0.82176573954E+02  0.22685047227E+02 -0.15002952707E+03  0.17255856880E+03  0.00000000000E+00 0.  1.
         14    1    4    4    0    0  0.15996437015E+02  0.20369861811E+02 -0.71506169757E+02  0.76052281890E+02  0.00000000000E+00 0. -1.
         -5    1    5    5    0  502  0.13516258930E+03 -0.36836646178E+02  0.14030942507E+03  0.19832974767E+03  0.47000000000E+01 0.  1.
         13    1    6    6    0    0  0.14143086916E+02 -0.33731988573E+01  0.17585941135E+03  0.17645945126E+03  0.00000000000E+00 0. -1.
        -14    1    6    6    0    0  0.12114033930E+01 -0.34304538027E+02  0.24037872641E+02  0.41905705442E+02  0.00000000000E+00 0.  1.
</event>
<event>
12    1  0.8494789E-002  0.3191027E+03  0.7818608E-02  0.1076632E+00
         21   -1    0    0  503  502  0.00000000000E+00  0.00000000000E+00  0.70962571673E+03  0.70962571673E+03  0.00000000000E+00 0. -1.
         21   -1    0    0  501  503 -0.00000000000E+00 -0.00000000000E+00 -0.14244898629E+03  0.14244898629E+03  0.00000000000E+00 0.  1.
          6    2    1    2  501    0 -0.17423588452E+03  0.19628946468E+03  0.32394930214E+03  0.45471932674E+03  0.18149054618E+03 0.  0.
         24    2    3    3    0    0 -0.14468777046E+02  0.61534076115E+02  0.60363538390E+02  0.11829089716E+03  0.79706910306E+02 0.  0.
         -6    2    1    2    0  502  0.17423588452E+03 -0.19628946468E+03  0.24322742830E+03  0.39735537628E+03  0.17275420627E+03 0.  0.
        -24    2    5    5    0    0  0.17963158425E+03 -0.11238569718E+03  0.20268161663E+03  0.30389410826E+03  0.79835708320E+02 0.  0.
          5    1    3    3  501    0 -0.15976710747E+03  0.13475538857E+03  0.26358576375E+03  0.33642842958E+03  0.47000000000E+01 0. -1.
        -11    1    4    4    0    0 -0.13615613674E+02  0.95972338993E+01  0.64084292493E+02  0.66213959092E+02  0.00000000000E+00 0.  1.
         12    1    4    4    0    0 -0.85316337118E+00  0.51936842215E+02 -0.37207541037E+01  0.52076938064E+02  0.00000000000E+00 0. -1.
         -5    1    5    5    0  502 -0.53956997300E+01 -0.83903767507E+02  0.40545811667E+02  0.93461268027E+02  0.47000000000E+01 0.  1.
         13    1    6    6    0    0  0.72468516899E+02 -0.77674519964E+01  0.93535825361E+02  0.11857896052E+03  0.00000000000E+00 0. -1.
        -14    1    6    6    0    0  0.10716306735E+03 -0.10461824518E+03  0.10914579127E+03  0.18531514774E+03  0.00000000000E+00 0.  1.
</event>
<event>
12    1  0.8494789E-002  0.1978148E+03  0.7818608E-02  0.1152272E+00
         21   -1    0    0  503  502  0.00000000000E+00  0.00000000000E+00  0.25868664640E+03  0.25868664640E+03  0.00000000000E+00 0.  1.
         21   -1    0    0  501  503 -0.00000000000E+00 -0.00000000000E+00 -0.15224154771E+03  0.15224154771E+03  0.00000000000E+00 0. -1.
          6    2    1    2  501    0  0.95156023536E+02  0.13709837455E+02  0.84168007435E+02  0.21497663225E+03  0.17288166612E+03 0.  0.
         24    2    3    3    0    0  0.13162029801E+03  0.37355630991E+02  0.47801233965E+02  0.15811364712E+03  0.63210928043E+02 0.  0.
         -6    2    1    2    0  502 -0.95156023536E+02 -0.13709837455E+02  0.22277091247E+02  0.19595156186E+03  0.16928708558E+03 0.  0.
        -24    2    5    5    0    0  0.37915066251E+01  0.13792996245E+02 -0.18218892619E+02  0.85457062920E+02  0.82257882824E+02 0.  0.
          5    1    3    3  501    0 -0.36464274472E+02 -0.23645793536E+02  0.36366773470E+02  0.56862985125E+02  0.47000000000E+01 0. -1.
        -11    1    4    4    0    0  0.39566339434E+02  0.42984984138E+02  0.20827317136E+02  0.62024037410E+02  0.00000000000E+00 0.  1.
         12    1    4    4    0    0  0.92053958574E+02 -0.56293531471E+01  0.26973916829E+02  0.96089609714E+02  0.00000000000E+00 0. -1.
         -5    1    5    5    0  502 -0.98947530161E+02 -0.27502833701E+02  0.40495983867E+02  0.11049449894E+03  0.47000000000E+01 0.  1.
         13    1    6    6    0    0  0.15979278442E+02  0.19133091563E+02 -0.47305275333E+02  0.53471502753E+02  0.00000000000E+00 0. -1.
        -14    1    6    6    0    0 -0.12187771817E+02 -0.53400953175E+01  0.29086382714E+02  0.31985560167E+02  0.00000000000E+00 0.  1.
</event>
<event>
12    1  0.8494789E-002  0.2202132E+03  0.7818608E-02  0.1134065E+00
         21   -1    0    0  501  502  0.00000000000E+00  0.00000000000E+00  0.18848431109E+03  0.18848431109E+03  0.00000000000E+00 0. -1.
         21   -1    0    0  502  503 -0.00000000000E+00 -0.00000000000E+00 -0.26762710518E+03  0.26762710518E+03  0.00000000000E+00 0.  1.
         -6    2    1    2    0  503 -0.12474759905E+03 -0.47002889246E+02 -0.88637831670E+02  0.23569358175E+03  0.17298428890E+03 0.  0.
        -24    2    3    3    0    0 -0.80069494353E+02  0.81610879722E+01  0.78027509051E+01  0.11585171348E+03  0.82963903668E+02 0.  0.
          6    2    1    2  501    0  0.12474759905E+03  0.47002889246E+02  0.94950375796E+01  0.22041783453E+03  0.17527872367E+03 0.  0.
         24    2    5    5    0    0  0.15229060146E+03  0.27427422358E+02 -0.20121675427E+02  0.17523979147E+03  0.79745920905E+02 0.  0.
          5    1    5    5  501    0 -0.27543002408E+02  0.19575466888E+02  0.29616713007E+02  0.45178043061E+02  0.47000000000E+01 0. -1.
        -13    1    6    6    0    0  0.29689535514E+02  0.39176307320E+02 -0.17084196129E+02  0.52039613101E+02  0.00000000000E+00 0.  1.
         14    1    6    6    0    0  0.12260106594E+03 -0.11748884962E+02 -0.30374792979E+01  0.12320017836E+03  0.00000000000E+00 0. -1.
         -5    1    3    3    0  503 -0.44678104697E+02 -0.55163977218E+02 -0.96440582575E+02  0.11984186826E+03  0.47000000000E+01 0.  1.
         13    1    4    4    0    0 -0.63272887499E+01  0.66262662885E+01  0.35803682318E+02  0.36957349139E+02  0.00000000000E+00 0. -1.
        -14    1    4    4    0    0 -0.73742205603E+02  0.15348216836E+01 -0.28000931413E+02  0.78894364341E+02  0.00000000000E+00 0.  1.
</event>
<event>
12    1  0.8494789E-002  0.1773526E+03  0.7818608E-02  0.1171279E+00
         21   -1    0    0  503  502  0.00000000000E+00  0.00000000000E+00  0.87497574828E+02  0.87497574828E+02  0.00000000000E+00 0. -1.
         21   -1    0    0  501  503 -0.00000000000E+00 -0.00000000000E+00 -0.15775719410E+04  0.15775719410E+04  0.00000000000E+00 0. -1.
          6    2    1    2  501    0 -0.24410664100E+02  0.16850055474E+02 -0.14804283421E+04  0.14910137588E+04  0.17485464831E+03 0.  0.
         24    2    3    3    0    0 -0.81993512076E+01  0.28204020761E+01 -0.30817768133E+03  0.31855764472E+03  0.80189186993E+02 0.  0.
         -6    2    1    2    0  502  0.24410664100E+02 -0.16850055474E+02 -0.96460240201E+01  0.17405575695E+03  0.17123830137E+03 0.  0.
        -24    2    5    5    0    0 -0.15389938991E+02  0.51436108362E+02 -0.20001586440E+01  0.94509308658E+02  0.77752719070E+02 0.  0.
          5    1    3    3  501    0 -0.16211312893E+02  0.14029653398E+02 -0.11722506608E+04  0.11724561141E+04  0.47000000000E+01 0. -1.
        -13    1    4    4    0    0  0.28732024414E+02  0.69121759330E+01 -0.23120167383E+03  0.23308264925E+03  0.00000000000E+00 0.  1.
         14    1    4    4    0    0 -0.36931375621E+02 -0.40917738569E+01 -0.76976007508E+02  0.85474995469E+02  0.00000000000E+00 0. -1.
         -5    1    5    5    0  502  0.39800603091E+02 -0.68286163836E+02 -0.76458653761E+01  0.79546448288E+02  0.47000000000E+01 0.  1.
         13    1    6    6    0    0  0.74603742117E+01  0.70771579070E+01  0.32340462144E+02  0.33935952014E+02  0.00000000000E+00 0. -1.
        -14    1    6    6    0    0 -0.22850313203E+02  0.44358950455E+02 -0.34340620788E+02  0.60573356644E+02  0.00000000000E+00 0.  1.
</event>
<event>
12    1  0.8494789E-002  0.2034030E+03  0.7818608E-02  0.1147030E+00
         21   -1    0    0  503  502  0.00000000000E+00  0.00000000000E+00  0.30361134279E+02  0.30361134279E+02  0.00000000000E+00 0.  1.
         21   -1    0    0  501  503 -0.00000000000E+00 -0.00000000000E+00 -0.14592153536E+04  0.14592153536E+04  0.00000000000E+00 0.  1.
          6    2    1    2  501    0 -0.10926148662E+03 -0.85962313949E+01 -0.91119564190E+03  0.93362213751E+03  0.17135002244E+03 0.  0.
         24    2    3    3    0    0 -0.13574265784E+03 -0.21905247470E+02 -0.55441839586E+03  0.57558516229E+03  0.70799804759E+02 0.  0.
         -6    2    1    2    0  502  0.10926148662E+03  0.85962313949E+01 -0.51765857743E+03  0.55595435037E+03  0.17059563083E+03 0.  0.
        -24    2    5    5    0    0  0.25961383508E+02 -0.20830509449E+02 -0.11205528403E+03  0.14081466078E+03  0.78514192697E+02 0.  0.
          5    1    3    3  501    0  0.26481171227E+02  0.13309016075E+02 -0.35677724603E+03  0.35803697522E+03  0.47000000000E+01 0. -1.
        -11    1    4    4    0    0 -0.13789104562E+03 -0.77695897717E+01 -0.46660572489E+03  0.48661608018E+03  0.00000000000E+00 0.  1.
         12    1    4    4    0    0  0.21483877799E+01 -0.14135657698E+02 -0.87812670973E+02  0.88969082113E+02  0.00000000000E+00 0. -1.
         -5    1    5    5    0  502  0.83300103109E+02  0.29426740844E+02 -0.40560329340E+03  0.41513968959E+03  0.47000000000E+01 0.  1.
         11    1    6    6    0    0 -0.16781970031E+02 -0.12769236523E+02 -0.89239233269E+02  0.91696939283E+02  0.00000000000E+00 0. -1.
        -12    1    6    6    0    0  0.42743353538E+02 -0.80612729256E+01 -0.22816050758E+02  0.49117721497E+02  0.00000000000E+00 0.  1.
</event>
<event>
12    1  0.8494789E-002  0.2412583E+03  0.7818608E-02  0.1119050E+00
         21   -1    0    0  503  502  0.00000000000E+00  0.00000000000E+00  0.40405439069E+03  0.40405439069E+03  0.00000000000E+00 0. -1.
         21   -1    0    0  501  503 -0.00000000000E+00 -0.00000000000E+00 -0.26732966910E+03  0.26732966910E+03  0.00000000000E+00 0. -1.
          6    2    1    2  501    0  0.43670834452E+02 -0.16289576000E+03 -0.15994663158E+03  0.28899752656E+03  0.17173955572E+03 0.  0.
         24    2    3    3    0    0 -0.76361874666E+01 -0.12913245986E+03 -0.43038418394E+02  0.15685369869E+03  0.77571088597E+02 0.  0.
         -6    2    1    2    0  502 -0.43670834452E+02  0.16289576000E+03  0.29667135316E+03  0.38238653323E+03  0.17252071933E+03 0.  0.
        -24    2    5    5    0    0  0.19359799643E+02  0.29081303820E+02  0.70923835634E+02  0.11245468778E+03  0.79970883879E+02 0.  0.
          5    1    3    3  501    0  0.51307021919E+02 -0.33763300139E+02 -0.11690821318E+03  0.13214382787E+03  0.47000000000E+01 0. -1.
        -11    1    4    4    0    0  0.20668202266E+02 -0.10731926459E+03 -0.50426037515E+02  0.12036355095E+03  0.00000000000E+00 0.  1.
         12    1    4    4    0    0 -0.28304389733E+02 -0.21813195274E+02  0.73876191213E+01  0.36490147745E+02  0.00000000000E+00 0. -1.
         -5    1    5    5    0  502 -0.63030634095E+02  0.13381445618E+03  0.22574751753E+03  0.26993184545E+03  0.47000000000E+01 0.  1.
         11    1    6    6    0    0  0.29247540680E+02  0.43599006595E+02  0.77576679305E+02  0.93671944487E+02  0.00000000000E+00 0. -1.
        -12    1    6    6    0    0 -0.98877410370E+01 -0.14517702775E+02 -0.66528436710E+01  0.18782743293E+02  0.00000000000E+00 0.  1.
</event>
<event>
12    1  0.8494789E-002  0.2180821E+03  0.7818608E-02  0.1135449E+00
         21   -1    0    0  503  502  0.00000000000E+00  0.00000000000E+00  0.60590874926E+03  0.60590874926E+03  0.00000000000E+00 0.  1.
         21   -1    0    0  501  503 -0.00000000000E+00 -0.00000000000E+00 -0.14271027551E+03  0.14271027551E+03  0.00000000000E+00 0.  1.
          6    2    1    2  501    0  0.11180076672E+03  0.72072751160E+02 -0.19768741769E+02  0.21897622319E+03  0.17281750570E+03 0.  0.
         24    2    3    3    0    0  0.82873884480E+02 -0.23838495872E+02 -0.17075287589E+02  0.11865136826E+03  0.79688312370E+02 0.  0.
         -6    2    1    2    0  502 -0.11180076672E+03 -0.72072751160E+02  0.48296721552E+03  0.52964280158E+03  0.17196009159E+03 0.  0.
        -24    2    5    5    0    0 -0.82728563630E+02 -0.97355611608E+02  0.46102317346E+03  0.48505528083E+03  0.80088255333E+02 0.  0.
          5    1    3    3  501    0  0.28926882238E+02  0.95911247032E+02 -0.26934541797E+01  0.10032485494E+03  0.47000000000E+01 0. -1.
        -11    1    4    4    0    0  0.71127800461E+02 -0.92224001071E+01 -0.45252216112E+02  0.84805540651E+02  0.00000000000E+00 0.  1.
         12    1    4    4    0    0  0.11746084019E+02 -0.14616095765E+02  0.28176928523E+02  0.33845827604E+02  0.00000000000E+00 0. -1.
         -5    1    5    5    0  502 -0.29072203088E+02  0.25282860449E+02  0.21944042063E+02  0.44587520753E+02  0.47000000000E+01 0.  1.
         13    1    6    6    0    0  0.11524515717E+02 -0.31882272669E+02  0.14285638592E+03  0.14682384265E+03  0.00000000000E+00 0. -1.
        -14    1    6    6    0    0 -0.94253079348E+02 -0.65473338939E+02  0.31816678754E+03  0.33823143817E+03  0.00000000000E+00 0.  1.
</event>
<event>
12    1  0.8494789E-002  0.1922269E+03  0.7818608E-02  0.1156757E+00
         21   -1    0    0  501  502  0.00000000000E+00  0.00000000000E+00  0.78880491674E+03  0.78880491674E+03  0.00000000000E+00 0.  1.
         21   -1    0    0  502  503 -0.00000000000E+00 -0.00000000000E+00 -0.10083346802E+03  0.10083346802E+03  0.00000000000E+00 0.  1.
         -6    2    1    2    0  503  0.45205788608E+02 -0.74083192099E+02  0.17014595500E+02  0.19168833081E+03  0.17006774248E+03 0.  0.
        -24    2    3    3    0    0 -0.37982871521E+02 -0.54519561665E+02  0.22160928019E+02  0.10594648835E+03  0.79488807579E+02 0.  0.
          6    2    1    2  501    0 -0.45205788608E+02  0.74083192099E+02  0.67095685323E+03  0.69795005395E+03  0.17152054174E+03 0.  0.
         24    2    5    5    0    0  0.42426239608E+02  0.37271623377E+02  0.32925299380E+03  0.34324160816E+03  0.78854980405E+02 0.  0.
          5    1    5    5  501    0 -0.87632028216E+02  0.36811568721E+02  0.34170385943E+03  0.35470844578E+03  0.47000000000E+01 0. -1.
        -11    1    6    6    0    0  0.27446315342E+02 -0.82170845705E+00  0.26901210334E+03  0.27040985036E+03  0.00000000000E+00 0.  1.
         12    1    6    6    0    0  0.14979924266E+02  0.38093331834E+02  0.60240890458E+02  0.72831757801E+02  0.00000000000E+00 0. -1.
         -5    1    3    3    0  503  0.83188660129E+02 -0.19563630434E+02 -0.51463325188E+01  0.85741842459E+02  0.47000000000E+01 0.  1.
         13    1    4    4    0    0 -0.41356818500E+02 -0.12067310392E+01  0.31132204309E+02  0.51778922172E+02  0.00000000000E+00 0. -1.
        -14    1    4    4    0    0  0.33739469787E+01 -0.53312830626E+02 -0.89712762898E+01  0.54167566180E+02  0.00000000000E+00 0.  1.
</event>
<event>
12    1  0.8494789E-002  0.1961298E+03  0.7818608E-02  0.1153254E+00
         21   -1    0    0  501  502  0.00000000000E+00  0.00000000000E+00  0.21970290298E+03  0.21970290298E+03  0.00000000000E+00 0. -1.
         21   -1    0    0  502  503 -0.00000000000E+00 -0.00000000000E+00 -0.19736063889E+03  0.19736063889E+03  0.00000000000E+00 0. -1.
         -6    2    1    2    0  503  0.36314860633E+02 -0.86172414942E+02 -0.60192327469E+02  0.20515854820E+03  0.17240202845E+03 0.  0.
        -24    2    3    3    0    0  0.59629094055E+02 -0.94373039491E+01  0.56556425014E+01  0.10128422082E+03  0.81128389182E+02 0.  0.
          6    2    1    2  501    0 -0.36314860633E+02  0.86172414942E+02  0.82534591558E+02  0.21190499368E+03  0.17131057569E+03 0.  0.
         24    2    5    5    0    0 -0.57181119138E+02 -0.90892330708E+01  0.32266359578E+02  0.10209075292E+03  0.77647339481E+02 0.  0.
          5    1    5    5  501    0  0.20866258505E+02  0.95261648013E+02  0.50268231980E+02  0.10981424075E+03  0.47000000000E+01 0. -1.
        -13    1    6    6    0    0 -0.38839911057E+02  0.21329015854E+02  0.46126973392E+02  0.63962201983E+02  0.00000000000E+00 0.  1.
         14    1    6    6    0    0 -0.18341208081E+02 -0.30418248925E+02 -0.13860613814E+02  0.38128550940E+02  0.00000000000E+00 0. -1.
         -5    1    3    3    0  503 -0.23314233423E+02 -0.76735110993E+02 -0.65847969970E+02  0.10387432738E+03  0.47000000000E+01 0.  1.
         11    1    4    4    0    0  0.26241436505E+02 -0.41957612697E+02  0.18671211922E+02  0.52892990157E+02  0.00000000000E+00 0. -1.
        -12    1    4    4    0    0  0.33387657550E+02  0.32520308748E+02 -0.13015569420E+02  0.48391230663E+02  0.00000000000E+00 0.  1.
</event>
<event>
12    1  0.8494789E-002  0.2239087E+03  0.7818608E-02  0.1131114E+00
         21   -1    0    0  501  502  0.00000000000E+00  0.00000000000E+00  0.74412498870E+03  0.74412498870E+03  0.00000000000E+00 0.  1.
         21   -1    0    0  502  503 -0.00000000000E+00 -0.00000000000E+00 -0.72388504375E+02  0.72388504375E+02  0.00000000000E+00 0.  1.
         -6    2    1    2    0  503  0.10578230689E+03  0.95856210116E+02  0.22688810203E+03  0.31876840591E+03  0.17250152548E+03 0.  0.
        -24    2    3    3    0    0  0.41084482736E+02  0.18775595955E+02  0.28862399018E+02  0.96589427191E+02  0.80349372386E+02 0.  0.
          6    2    1    2  501    0 -0.10578230689E+03 -0.95856210116E+02  0.44484838229E+03  0.49774508717E+03  0.17170258910E+03 0.  0.
         24    2    5    5    0    0 -0.25351172949E+02 -0.36525912070E+01  0.94687761284E+02  0.12679330438E+03  0.80341437049E+02 0.  0.
          5    1    5    5  501    0 -0.80431133937E+02 -0.92203618909E+02  0.35016062101E+03  0.37095178278E+03  0.47000000000E+01 0. -1.
        -11    1    6    6    0    0 -0.52265310960E+01 -0.41303528885E+02  0.46994555931E+02  0.62783647654E+02  0.00000000000E+00 0.  1.
         12    1    6    6    0    0 -0.20124641853E+02  0.37650937678E+02  0.47693205354E+02  0.64009656729E+02  0.00000000000E+00 0. -1.
         -5    1    3    3    0  503  0.64697824150E+02  0.77080614162E+02  0.19802570302E+03  0.22217897872E+03  0.47000000000E+01 0.  1.
         13    1    4    4    0    0 -0.22960389279E+02 -0.45484425087E+01  0.26217728574E+01  0.23552950941E+02  0.00000000000E+00 0. -1.
        -14    1    4    4    0    0  0.64044872015E+02  0.23324038463E+02  0.26240626161E+02  0.73036476250E+02  0.00000000000E+00 0.  1.
</event>
<event>
12    1  0.8494789E-002  0.2058635E+03  0.7818608E-02  0.1144917E+00
         21   -1    0    0  503  502  0.00000000000E+00  0.00000000000E+00  0.82555096121E+02  0.82555096121E+02  0.00000000000E+00 0.  1.
         21   -1    0    0  501  503 -0.00000000000E+00 -0.00000000000E+00 -0.84493840225E+03  0.84493840225E+03  0.00000000000E+00 0.  1.
          6    2    1    2  501    0  0.10866238079E+03  0.21543813820E+02 -0.67197635704E+03  0.70280297027E+03  0.17351697810E+03 0.  0.
         24    2    3    3    0    0  0.14444532235E+03 -0.33863301223E+00 -0.54933833280E+03  0.57310549391E+03  0.76241310602E+02 0.  0.
         -6    2    1    2    0  502 -0.10866238079E+03 -0.21543813820E+02 -0.90406949090E+02  0.22469052810E+03  0.17332272805E+03 0.  0.
        -24    2    5    5    0    0  0.31658622392E+00 -0.10170385769E+02 -0.79280022283E+02  0.11445592093E+03  0.81922517838E+02 0.  0.
          5    1    3    3  501    0 -0.35782941557E+02  0.21882446832E+02 -0.12263802423E+03  0.12969747636E+03  0.47000000000E+01 0. -1.
        -11    1    4    4    0    0  0.37953141765E+02  0.13936839389E+02 -0.28360267557E+03  0.28647016258E+03  0.00000000000E+00 0.  1.
         12    1    4    4    0    0  0.10649218059E+03 -0.14275472401E+02 -0.26573565724E+03  0.28663533133E+03  0.00000000000E+00 0. -1.
         -5    1    5    5    0  502 -0.10897896702E+03 -0.11373428052E+02 -0.11126926807E+02  0.11023460717E+03  0.47000000000E+01 0.  1.
         11    1    6    6    0    0 -0.60008119289E+01 -0.39115146973E+02 -0.12665044632E+02  0.41550064044E+02  0.00000000000E+00 0. -1.
        -12    1    6    6    0    0  0.63173981528E+01  0.28944761205E+02 -0.66614977651E+02  0.72905856884E+02  0.00000000000E+00 0.  1.
</event>
<event>
12    1  0.8494789E-002  0.2456913E+03  0.7818608E-02  0.1116263E+00
         21   -1    0    0  503  502  0.00000000000E+00  0.00000000000E+00  0.59000630678E+03  0.59000630678E+03  0.00000000000E+00 0.  1.
         21   -1    0    0  501  503 -0.00000000000E+00 -0.00000000000E+00 -0.12257925391E+03  0.12257925391E+03  0.00000000000E+00 0. -1.
          6    2    1    2  501    0 -0.10268592028E+03  0.14144283248E+03  0.37995846810E+03  0.45178877548E+03  0.17086306531E+03 0.  0.
         24    2    3    3    0    0 -0.24394138323E+02  0.80127518065E+02  0.30717890308E+03  0.32846754459E+03  0.80725189480E+02 0.  0.
         -6    2    1    2    0  502  0.10268592028E+03 -0.14144283248E+03  0.87468584773E+02  0.26079678521E+03  0.17266654791E+03 0.  0.
        -24    2    5    5    0    0  0.10865202304E+03 -0.10005467343E+03  0.43502629185E+01  0.16763391964E+03  0.79158110403E+02 0.  0.
          5    1    3    3  501    0 -0.78291781958E+02  0.61315314418E+02  0.72779565023E+02  0.12332123089E+03  0.47000000000E+01 0. -1.
        -11    1    4    4    0    0 -0.32759928753E+02 -0.23594544480E+01  0.10250110696E+03  0.10763483119E+03  0.00000000000E+00 0.  1.
         12    1    4    4    0    0  0.83657904299E+01  0.82486972513E+02  0.20467779612E+03  0.22083271340E+03  0.00000000000E+00 0. -1.
         -5    1    5    5    0  502 -0.59661027584E+01 -0.41388159056E+02  0.83118321855E+02  0.93162865564E+02  0.47000000000E+01 0.  1.
         11    1    6    6    0    0  0.72061925678E+02 -0.39358882509E+02 -0.31827039381E+02  0.88062495993E+02  0.00000000000E+00 0. -1.
        -12    1    6    6    0    0  0.36590097361E+02 -0.60695790918E+02  0.36177302300E+02  0.79571423650E+02  0.00000000000E+00 0.  1.
</event>
<event>
12    1  0.8494789E-002  0.2013320E+03  0.7818608E-02  0.1148825E+00
         21   -1    0    0  501  502  0.00000000000E+00  0.00000000000E+00  0.68849939024E+02  0.68849939024E+02  0.00000000000E+00 0.  1.
         21   -1    0    0  502  503 -0.00000000000E+00 -0.00000000000E+00 -0.14955022601E+04  0.14955022601E+04  0.00000000000E+00 0.  1.
         -6    2    1    2    0  503  0.10292222223E+03 -0.13175149227E+02 -0.13240207820E+04  0.13392406811E+04  0.17253406182E+03 0.  0.
        -24    2    3    3    0    0  0.53484022507E+02  0.14793260776E+02 -0.11821045277E+04  0.11863070982E+04  0.82909804445E+02 0.  0.
          6    2    1    2  501    0 -0.10292222223E+03  0.13175149227E+02 -0.10263153908E+03  0.22511151798E+03  0.17139251538E+03 0.  0.
         24    2    5    5    0    0 -0.81134323614E+02  0.26750621011E+02  0.26399006168E+01  0.11665336026E+03  0.79389314090E+02 0.  0.
          5    1    5    5  501    0 -0.21787898614E+02 -0.13575471785E+02 -0.10527143970E+03  0.10845815772E+03  0.47000000000E+01 0. -1.
        -13    1    6    6    0    0 -0.18878625552E+02  0.43118676370E+02  0.18135283902E+02  0.50443148958E+02  0.00000000000E+00 0.  1.
         14    1    6    6    0    0 -0.62255698062E+02 -0.16368055358E+02 -0.15495383285E+02  0.66210211301E+02  0.00000000000E+00 0. -1.
         -5    1    3    3    0  503  0.49438199721E+02 -0.27968410003E+02 -0.14191625430E+03  0.15293358292E+03  0.47000000000E+01 0.  1.
         13    1    4    4    0    0 -0.72135937873E+01 -0.72306128432E+01 -0.20443047060E+02  0.22852480620E+02  0.00000000000E+00 0. -1.
        -14    1    4    4    0    0  0.60697616294E+02  0.22023873619E+02 -0.11616614806E+04  0.11634546176E+04  0.00000000000E+00 0.  1.
</event>
<event>
12    1  0.8494789E-002  0.1946222E+03  0.7818608E-02  0.1154679E+00
         21   -1    0    0  501  502  0.00000000000E+00  0.00000000000E+00  0.21167950636E+03  0.21167950636E+03  0.00000000000E+00 0. -1.
         21   -1    0    0  502  503 -0.00000000000E+00 -0.00000000000E+00 -0.27421153842E+03  0.27421153842E+03  0.00000000000E+00 0.  1.
         -6    2    1    2    0  503 -0.37379957828E+02  0.78267842359E+02 -0.17539817635E+03  0.26090976360E+03  0.17258698699E+03 0.  0.
        -24    2    3    3    0    0  0.14015977037E+02  0.77194910292E+02 -0.17668118751E+03  0.20927228281E+03  0.80144522888E+02 0.  0.
          6    2    1    2  501    0  0.37379957828E+02 -0.78267842359E+02  0.11286614430E+03  0.22498128118E+03  0.17422598531E+03 0.  0.
         24    2    5    5    0    0  0.11203654121E+01  0.23300636540E+02  0.23339949948E+02  0.84738836028E+02  0.78049613619E+02 0.  0.
          5    1    5    5  501    0  0.36259592416E+02 -0.10156847890E+03  0.89526194347E+02  0.14024244515E+03  0.47000000000E+01 0. -1.
        -11    1    6    6    0    0  0.68931547032E+01 -0.15759224353E+02 -0.19819829173E+02  0.26242986919E+02  0.00000000000E+00 0.  1.
         12    1    6    6    0    0 -0.57727892910E+01  0.39059860893E+02  0.43159779122E+02  0.58495849109E+02  0.00000000000E+00 0. -1.
         -5    1    3    3    0  503 -0.51395934865E+02  0.10729320669E+01  0.12830111510E+01  0.51637480782E+02  0.47000000000E+01 0.  1.
         13    1    4    4    0    0  0.13968555734E+02  0.76712274413E+02 -0.76983797845E+02  0.10957371366E+03  0.00000000000E+00 0. -1.
        -14    1    4    4    0    0  0.47421302442E-01  0.48263587921E+00 -0.99697389660E+02  0.99698569154E+02  0.00000000000E+00 0.  1.
</event>
<event>
12    1  0.8494789E-002  0.1935924E+03  0.7818608E-02  0.1155280E+00
         21   -1    0    0  501  502  0.00000000000E+00  0.00000000000E+00  0.64430219916E+02  0.64430219916E+02  0.00000000000E+00 0.  1.
         21   -1    0    0  502  503 -0.00000000000E+00 -0.00000000000E+00 -0.11593787340E+04  0.11593787340E+04  0.00000000000E+00 0.  1.
         -6    2    1    2    0  503  0.83251705260E+02 -0.30975927637E+02 -0.97957145591E+03  0.99851802299E+03  0.17201061149E+03 0.  0.
        -24    2    3    3    0    0  0.82550241763E+01  0.18746252857E+02 -0.23991504265E+03  0.25339353870E+03  0.78927120453E+02 0.  0.
          6    2    1    2  501    0 -0.83251705260E+02  0.30975927637E+02 -0.11537705815E+03  0.22529093091E+03  0.17191213884E+03 0.  0.
         24    2    5    5    0    0 -0.96101289916E+02  0.21420813829E+02 -0.20427662199E+02  0.12888610833E+03  0.80622765693E+02 0.  0.
          5    1    5    5  501    0  0.12849584657E+02  0.95551138078E+01 -0.94949395953E+02  0.96404822585E+02  0.47000000000E+01 0. -1.
        -11    1    6    6    0    0  0.13097442866E+02  0.11372061138E+02 -0.56056870237E+01  0.18228837351E+02  0.00000000000E+00 0.  1.
         12    1    6    6    0    0 -0.10919873278E+03  0.10048752691E+02 -0.14821975175E+02  0.11065727098E+03  0.00000000000E+00 0. -1.
         -5    1    3    3    0  503  0.74996681083E+02 -0.49722180495E+02 -0.73965641326E+03  0.74512448429E+03  0.47000000000E+01 0.  1.
         11    1    4    4    0    0  0.12959395507E+02  0.27162887725E+02 -0.24171790008E+03  0.24358430085E+03  0.00000000000E+00 0. -1.
        -12    1    4    4    0    0 -0.47043713304E+01 -0.84166348672E+01  0.18028574349E+01  0.98092378416E+01  0.00000000000E+00 0.  1.
</event>
<event>
12    1  0.8494789E-002  0.2544344E+03  0.7818608E-02  0.1110609E+00
         21   -1    0    0  501  502  0.00000000000E+00  0.00000000000E+00  0.13540893848E+03  0.13540893848E+03  0.00000000000E+00 0. -1.
         21   -1    0    0  502  503 -0.00000000000E+00 -0.00000000000E+00 -0.66942552934E+03  0.66942552934E+03  0.00000000000E+00 0. -1.
         -6    2    1    2    0  503  0.12930489918E+03 -0.13558670950E+03 -0.48248077047E+03  0.54523323871E+03  0.17142951314E+03 0.  0.
        -24    2    3    3    0    0  0.15110215701E+03 -0.71559919388E+02 -0.33555221700E+03  0.38341655192E+03  0.80375854788E+02 0.  0.
          6    2    1    2  501    0 -0.12930489918E+03  0.13558670950E+03 -0.51535820385E+02  0.25960122911E+03  0.17214338392E+03 0.  0.
         24    2    5    5    0    0 -0.70976746302E+02  0.15575439916E+03 -0.34433664722E+02  0.19538687828E+03  0.87711023033E+02 0.  0.
          5    1    5    5  501    0 -0.58328152879E+02 -0.20167689665E+02 -0.17102155663E+02  0.64214350834E+02  0.47000000000E+01 0. -1.
        -11    1    6    6    0    0  0.39286882677E+01  0.57335651056E+02 -0.42447027248E+02  0.71446214706E+02  0.00000000000E+00 0.  1.
         12    1    6    6    0    0 -0.74905434570E+02  0.98418748108E+02  0.80133625263E+01  0.12394066357E+03  0.00000000000E+00 0. -1.
         -5    1    3    3    0  503 -0.21797257829E+02 -0.64026790111E+02 -0.14692855347E+03  0.16181668679E+03  0.47000000000E+01 0.  1.
         11    1    4    4    0    0  0.87390847981E+02 -0.58414310458E+02 -0.12648590356E+03  0.16446299212E+03  0.00000000000E+00 0. -1.
        -12    1    4    4    0    0  0.63711309030E+02 -0.13145608930E+02 -0.20906631344E+03  0.21895355980E+03  0.00000000000E+00 0.  1.
</event>
<event>
12    1  0.8494789E-002  0.2153034E+03  0.7818608E-02  0.1138019E+00
         21   -1    0    0  501  502  0.00000000000E+00  0.00000000000E+00  0.17587364993E+03  0.17587364993E+03  0.00000000000E+00 0. -1.
         21   -1    0    0  502  503 -0.00000000000E+00 -0.00000000000E+00 -0.26445067967E+03  0.26445067967E+03  0.00000000000E+00 0. -1.
         -6    2    1    2    0  503  0.82833772099E+02  0.98807063898E+02 -0.72939030966E+02  0.22445378316E+03  0.16862718897E+03 0.  0.
        -24    2    3    3    0    0 -0.11377461298E+02  0.83106910921E+02 -0.30337384392E+02  0.11976738675E+03  0.79922867623E+02 0.  0.
          6    2    1    2  501    0 -0.82833772099E+02 -0.98807063898E+02 -0.15637998773E+02  0.21587054644E+03  0.17242759680E+03 0.  0.
         24    2    5    5    0    0 -0.69019687828E+02 -0.93095470798E+02  0.49772162490E+02  0.14860963345E+03  0.78594344609E+02 0.  0.
          5    1    5    5  501    0 -0.13814084271E+02 -0.57115931007E+01 -0.65410161262E+02  0.67260912991E+02  0.47000000000E+01 0. -1.
        -13    1    6    6    0    0  0.12513379190E+02 -0.33482897754E+01 -0.70003786236E+01  0.14724163951E+02  0.00000000000E+00 0.  1.
         14    1    6    6    0    0 -0.81533067018E+02 -0.89747181022E+02  0.56772541113E+02  0.13388546950E+03  0.00000000000E+00 0. -1.
         -5    1    3    3    0  503  0.94211233397E+02  0.15700152977E+02 -0.42601646574E+02  0.10468639641E+03  0.47000000000E+01 0.  1.
         11    1    4    4    0    0  0.24044935955E+02  0.88659498713E+01  0.10782971977E+02  0.27803533892E+02  0.00000000000E+00 0. -1.
        -12    1    4    4    0    0 -0.35422397253E+02  0.74240961050E+02 -0.41120356369E+02  0.91963852859E+02  0.00000000000E+00 0.  1.
</event>
<event>
12    1  0.8494789E-002  0.1859223E+03  0.7818608E-02  0.1162744E+00
         21   -1    0    0  501  502  0.00000000000E+00  0.00000000000E+00  0.13307294258E+04  0.13307294258E+04  0.00000000000E+00 0.  1.
         21   -1    0    0  502  503 -0.00000000000E+00 -0.00000000000E+00 -0.32371763636E+02  0.32371763636E+02  0.00000000000E+00 0.  1.
         -6    2    1    2    0  503  0.23277588679E+02 -0.68012522791E+02  0.34183146068E+03  0.38912189115E+03  0.17146296765E+03 0.  0.
        -24    2    3    3    0    0  0.14931986486E+01  0.29582378111E+02  0.14062394775E+03  0.16438676352E+03  0.79815829289E+02 0.  0.
          6    2    1    2  501    0 -0.23277588679E+02  0.68012522791E+02  0.95652620145E+03  0.97397929825E+03  0.16889567774E+03 0.  0.
         24    2    5    5    0    0  0.24657856256E+02  0.23812196839E+02  0.79830587324E+03  0.80278572958E+03  0.77444365625E+02 0.  0.
          5    1    5    5  501    0 -0.47935444934E+02  0.44200325951E+02  0.15822032821E+03  0.17119356867E+03  0.47000000000E+01 0. -1.
        -13    1    6    6    0    0 -0.25845470260E+02  0.17504130034E+02  0.21358292012E+03  0.21585190911E+03  0.00000000000E+00 0.  1.
         14    1    6    6    0    0  0.50503326516E+02  0.63080668053E+01  0.58472295312E+03  0.58693382046E+03  0.00000000000E+00 0. -1.
         -5    1    3    3    0  503  0.21784390030E+02 -0.97594900901E+02  0.20120751293E+03  0.22473512763E+03  0.47000000000E+01 0.  1.
         11    1    4    4    0    0 -0.36584484430E+02  0.58468720291E+01  0.86380870992E+02  0.93990772350E+02  0.00000000000E+00 0. -1.
        -12    1    4    4    0    0  0.38077683079E+02  0.23735506082E+02  0.54243076755E+02  0.70395991174E+02  0.00000000000E+00 0.  1.
</event>
<event>
12    1  0.8494789E-002  0.2378271E+03  0.7818608E-02  0.1121359E+00
         21   -1    0    0  501  502  0.00000000000E+00  0.00000000000E+00  0.14401585419E+03  0.14401585419E+03  0.00000000000E+00 0.  1.
         21   -1    0    0  502  503 -0.00000000000E+00 -0.00000000000E+00 -0.17467141487E+04  0.17467141487E+04  0.00000000000E+00 0. -1.
         -6    2    1    2    0  503  0.93795315763E+02  0.13448355698E+03 -0.16337577741E+04  0.16508833578E+04  0.17137096631E+03 0.  0.
        -24    2    3    3    0    0  0.11917950418E+03  0.10401986708E+03 -0.98114422493E+03  0.99704933601E+03  0.80246503684E+02 0.  0.
          6    2    1    2  501    0 -0.93795315763E+02 -0.13448355698E+03  0.31059479651E+02  0.23984664508E+03  0.17227400710E+03 0.  0.
         24    2    5    5    0    0 -0.90598987951E+02 -0.66462851527E+02 -0.37954029894E+02  0.14277972290E+03  0.79498764984E+02 0.  0.
          5    1    5    5  501    0 -0.31963278121E+01 -0.68020705456E+02  0.69013509545E+02  0.97066922182E+02  0.47000000000E+01 0. -1.
        -11    1    6    6    0    0 -0.40719324314E+02 -0.17720333340E+02  0.23129512314E+02  0.50070429658E+02  0.00000000000E+00 0.  1.
         12    1    6    6    0    0 -0.49879663637E+02 -0.48742518187E+02 -0.61083542208E+02  0.92709293237E+02  0.00000000000E+00 0. -1.
         -5    1    3    3    0  503 -0.25384188415E+02  0.30463689905E+02 -0.65261354918E+03  0.65383402175E+03  0.47000000000E+01 0.  1.
         13    1    4    4    0    0  0.68959095952E+02  0.75502749875E+02 -0.80988257700E+03  0.81631232422E+03  0.00000000000E+00 0. -1.
        -14    1    4    4    0    0  0.50220408226E+02  0.28517117203E+02 -0.17126164793E+03  0.18073701178E+03  0.00000000000E+00 0.  1.
</event>
<event>
12    1  0.8494789E-002  0.2096498E+03  0.7818608E-02  0.1142044E+00
         21   -1    0    0  501  502  0.00000000000E+00  0.00000000000E+00  0.73666025780E+02  0.73666025780E+02  0.00000000000E+00 0. -1.
         21   -1    0    0  502  503 -0.00000000000E+00 -0.00000000000E+00 -0.87532436213E+03  0.87532436213E+03  0.00000000000E+00 0. -1.
         -6    2    1    2    0  503  0.10512351102E+03  0.57017265464E+02 -0.66927518451E+03  0.70104210967E+03  0.17096445769E+03 0.  0.
        -24    2    3    3    0    0  0.94037851864E+02 -0.59353538924E+01 -0.56933169702E+03  0.58231252273E+03  0.77916281261E+02 0.  0.
          6    2    1    2  501    0 -0.10512351102E+03 -0.57017265464E+02 -0.13238315183E+03  0.24794827824E+03  0.17219503088E+03 0.  0.
         24    2    5    5    0    0  0.21172789617E+02 -0.14023398186E+02 -0.46901369057E+02  0.89428710470E+02  0.71783097733E+02 0.  0.
          5    1    5    5  501    0 -0.12629630064E+03 -0.42993867279E+02 -0.85481782778E+02  0.15851956777E+03  0.47000000000E+01 0. -1.
        -13    1    6    6    0    0  0.98459926010E+01 -0.10244593284E+02 -0.65666793327E+02  0.67186479352E+02  0.00000000000E+00 0.  1.
         14    1    6    6    0    0  0.11326797016E+02 -0.37788049017E+01  0.18765424270E+02  0.22242231119E+02  0.00000000000E+00 0. -1.
         -5    1    3    3    0  503  0.11085659158E+02  0.62952619357E+02 -0.99943487491E+02  0.11872958694E+03  0.47000000000E+01 0.  1.
         13    1    4    4    0    0  0.50119374738E+02 -0.10371271244E+01 -0.11028576443E+03  0.12114444764E+03  0.00000000000E+00 0. -1.
        -14    1    4    4    0    0  0.43918477126E+02 -0.48982267680E+01 -0.45904593259E+03  0.46116807509E+03  0.00000000000E+00 0.  1.
</event>
<event>
12    1  0.8494789E-002  0.4178769E+03  0.7818608E-02  0.1037788E+00
         21   -1    0    0  501  502  0.00000000000E+00  0.00000000000E+00  0.19941606035E+03  0.19941606035E+03  0.00000000000E+00 0. -1.
         21   -1    0    0  502  503 -0.00000000000E+00 -0.00000000000E+00 -0.10456689260E+04  0.10456689260E+04  0.00000000000E+00 0.  1.
         -6    2    1    2    0  503 -0.37620343272E+03 -0.58593897621E+02 -0.17172397800E+03  0.45178558898E+03  0.17221738052E+03 0.  0.
        -24    2    3    3    0    0 -0.22023571513E+03 -0.90071430311E+02 -0.63682599232E+02  0.25940109500E+03  0.81343849591E+02 0.  0.
          6    2    1    2  501    0  0.37620343272E+03  0.58593897621E+02 -0.67452888769E+03  0.79329939740E+03  0.17138391396E+03 0.  0.
         24    2    5    5    0    0  0.83272105482E+02  0.21420512615E+02 -0.23556159614E+03  0.26423891307E+03  0.83305796280E+02 0.  0.
          5    1    5    5  501    0  0.29293132724E+03  0.37173385007E+02 -0.43896729155E+03  0.52906048433E+03  0.47000000000E+01 0. -1.
        -11    1    6    6    0    0  0.83869867751E+02  0.27307761156E+02 -0.24073120051E+03  0.25638131647E+03  0.00000000000E+00 0.  1.
         12    1    6    6    0    0 -0.59776226812E+00 -0.58872485411E+01  0.51696043668E+01  0.78575966060E+01  0.00000000000E+00 0. -1.
         -5    1    3    3    0  503 -0.15596771760E+03  0.31477532690E+02 -0.10804137877E+03  0.19238449398E+03  0.47000000000E+01 0.  1.
         11    1    4    4    0    0 -0.32081995933E+02 -0.24508060463E+02  0.17815895942E+02  0.44128286154E+02  0.00000000000E+00 0. -1.
        -12    1    4    4    0    0 -0.18815371919E+03 -0.65563369848E+02 -0.81498495174E+02  0.21527280885E+03  0.00000000000E+00 0.  1.
</event>
<event>
12    1  0.8494789E-002  0.2645068E+03  0.7818608E-02  0.1105862E+00
         21   -1    0    0  503  502  0.00000000000E+00  0.00000000000E+00  0.28880304778E+03  0.28880304778E+03  0.00000000000E+00 0.  1.
         21   -1    0    0  501  503 -0.00000000000E+00 -0.00000000000E+00 -0.30859472731E+03  0.30859472731E+03  0.00000000000E+00 0. -1.
          6    2    1    2  501    0 -0.15556939503E+03 -0.11498808487E+03  0.13728741873E+03  0.28976538853E+03  0.16640928073E+03 0.  0.
         24    2    3    3    0    0 -0.98268153384E+02 -0.10072656544E+03  0.15916840546E+03  0.22661722299E+03  0.78856283872E+02 0.  0.
         -6    2    1    2    0  502  0.15556939503E+03  0.11498808487E+03 -0.15707909827E+03  0.30763238657E+03  0.18038776516E+03 0.  0.
        -24    2    5    5    0    0  0.14940993711E+03  0.89065185914E+02 -0.50744785020E+02  0.19790995592E+03  0.79607667952E+02 0.  0.
          5    1    3    3  501    0 -0.57301241643E+02 -0.14261519434E+02 -0.21880986725E+02  0.63148165535E+02  0.47000000000E+01 0. -1.
        -11    1    4    4    0    0 -0.10287511328E+02 -0.62549068451E+02  0.81221575225E+02  0.10302991379E+03  0.00000000000E+00 0.  1.
         12    1    4    4    0    0 -0.87980642056E+02 -0.38177496990E+02  0.77946830234E+02  0.12358730920E+03  0.00000000000E+00 0. -1.
         -5    1    5    5    0  502  0.61594579121E+01  0.25922898961E+02 -0.10633431325E+03  0.10972243064E+03  0.47000000000E+01 0.  1.
         11    1    6    6    0    0  0.16548598418E+02  0.49898048721E+02 -0.98551397678E+01  0.53486401596E+02  0.00000000000E+00 0. -1.
        -12    1    6    6    0    0  0.13286133870E+03  0.39167137192E+02 -0.40889645252E+02  0.14442355433E+03  0.00000000000E+00 0.  1.
</event>
<event>
12    1  0.8494789E-002  0.2251444E+03  0.7818608E-02  0.1130374E+00
         21   -1    0    0  501  502  0.00000000000E+00  0.00000000000E+00  0.84715986124E+02  0.84715986124E+02  0.00000000000E+00 0.  1.
         21   -1    0    0  502  503 -0.00000000000E+00 -0.00000000000E+00 -0.61758266141E+03  0.61758266141E+03  0.00000000000E+00 0.  1.
         -6    2    1    2    0  503 -0.14078487520E+03 -0.29526629581E+02 -0.19926435049E+03  0.30065971742E+03  0.17319867599E+03 0.  0.
        -24    2    3    3    0    0 -0.17276982324E+02 -0.40959368479E+02 -0.40880160172E+02  0.99432112796E+02  0.78989832098E+02 0.  0.
          6    2    1    2  501    0  0.14078487520E+03  0.29526629581E+02 -0.33360232481E+03  0.40163893012E+03  0.17126329476E+03 0.  0.
         24    2    5    5    0    0  0.11628464535E+03  0.66176535937E+02 -0.31848600706E+03  0.35479802961E+03  0.80912622433E+02 0.  0.
          5    1    5    5  501    0  0.24500229851E+02 -0.36649906356E+02 -0.15116317748E+02  0.46840900513E+02  0.47000000000E+01 0. -1.
        -11    1    6    6    0    0 -0.11992805541E+00  0.12099921192E+02 -0.75810284734E+00  0.12124239997E+02  0.00000000000E+00 0.  1.
         12    1    6    6    0    0  0.11640457341E+03  0.54076614745E+02 -0.31772790421E+03  0.34267378961E+03  0.00000000000E+00 0. -1.
         -5    1    3    3    0  503 -0.12350789288E+03  0.11432738897E+02 -0.15838419031E+03  0.20122760462E+03  0.47000000000E+01 0.  1.
         13    1    4    4    0    0 -0.17161184297E+02 -0.26922101221E+02  0.19520713195E+02  0.37421438031E+02  0.00000000000E+00 0. -1.
        -14    1    4    4    0    0 -0.11579802727E+00 -0.14037267258E+02 -0.60400873367E+02  0.62010674765E+02  0.00000000000E+00 0.  1.
</event>
<event>
12    1  0.8494789E-002  0.2745328E+03  0.7818608E-02  0.1098808E+00
         21   -1    0    0  501  502  0.00000000000E+00  0.00000000000E+00  0.45908156165E+03  0.45908156165E+03  0.00000000000E+00 0.  1.
         21   -1    0    0  502  503 -0.00000000000E+00 -0.00000000000E+00 -0.17211789770E+03  0.17211789770E+03  0.00000000000E+00 0. -1.
         -6    2    1    2    0  503  0.19881965376E+03 -0.77010665689E+02  0.74127821063E+02  0.28436458774E+03  0.17294041620E+03 0.  0.
        -24    2    3    3    0    0  0.18194720919E+03 -0.83309703251E+02  0.75255442182E+01  0.21521033595E+03  0.78826146022E+02 0.  0.
          6    2    1    2  501    0 -0.19881965376E+03  0.77010665689E+02  0.21283584289E+03  0.34683487160E+03  0.17185876408E+03 0.  0.
         24    2    5    5    0    0 -0.81227366148E+02  0.76366221532E+02  0.47711893868E+02  0.14406315278E+03  0.77769417964E+02 0.  0.
          5    1    5    5  501    0 -0.11759228761E+03  0.64444415748E+00  0.16512394902E+03  0.20277171882E+03  0.47000000000E+01 0. -1.
        -11    1    6    6    0    0 -0.55289861074E+02  0.22069418750E+02  0.57886206820E+02  0.83035178820E+02  0.00000000000E+00 0.  1.
         12    1    6    6    0    0 -0.25937505074E+02  0.54296802782E+02 -0.10174312953E+02  0.61027973962E+02  0.00000000000E+00 0. -1.
         -5    1    3    3    0  503  0.16872444573E+02  0.62990375615E+01  0.66602276845E+02  0.69154251793E+02  0.47000000000E+01 0.  1.
         13    1    4    4    0    0  0.11954784378E+03 -0.44093606404E+02  0.41567170912E+02  0.13402896245E+03  0.00000000000E+00 0. -1.
        -14    1    4    4    0    0  0.62399365415E+02 -0.39216096847E+02 -0.34041626694E+02  0.81181373504E+02  0.00000000000E+00 0.  1.
</event>
