<event>
12    1  0.8258923E-002  0.1893765E+03  0.7818608E-02  0.1159472E+00
         21   -1    0    0  501  502  0.00000000000E+00  0.00000000000E+00  0.40217563930E+02  0.40217563930E+02  0.00000000000E+00 0. -1.
         21   -1    0    0  502  503 -0.00000000000E+00 -0.00000000000E+00 -0.10612039120E+04  0.10612039120E+04  0.00000000000E+00 0. -1.
         -6    2    1    2    0  503  0.52701090761E+02 -0.54414913877E+02 -0.73426165685E+03  0.75780175772E+03  0.17142034726E+03 0.  0.
        -24    2    3    3    0    0  0.92361488026E+00 -0.78072944920E+02 -0.62169201076E+03  0.63156933454E+03  0.79263044892E+02 0.  0.
          6    2    1    2  501    0 -0.52701090761E+02  0.54414913877E+02 -0.28672469124E+03  0.34361971824E+03  0.17356576383E+03 0.  0.
         24    2    5    5    0    0 -0.50905237523E+02  0.27964945870E+02 -0.29834337037E+03  0.31429550297E+03  0.79996969568E+02 0.  0.
          5    1    5    5  501    0 -0.17958532377E+01  0.26449968006E+02  0.11618679127E+02  0.29324215267E+02  0.47000000000E+01 0. -1.
        -11    1    6    6    0    0 -0.88340015393E+01  0.36743447103E+02 -0.52286638690E+02  0.64513665790E+02  0.00000000000E+00 0.  1.
         12    1    6    6    0    0 -0.42071235984E+02 -0.87785012321E+01 -0.24605673168E+03  0.24978183718E+03  0.00000000000E+00 0. -1.
         -5    1    3    3    0  503  0.51777475881E+02  0.23658031044E+02 -0.11256964609E+03  0.12623242318E+03  0.47000000000E+01 0.  1.
         13    1    4    4    0    0  0.29091271444E+01 -0.63204411297E+02 -0.20351744741E+03  0.21312581268E+03  0.00000000000E+00 0. -1.
        -14    1    4    4    0    0 -0.19855122642E+01 -0.14868533623E+02 -0.41817456335E+03  0.41844352186E+03  0.00000000000E+00 0.  1.
</event>
<event>
12    1  0.8258923E-002  0.2069913E+03  0.7818608E-02  0.1144319E+00
         21   -1    0    0  503  502  0.00000000000E+00  0.00000000000E+00  0.11544141508E+04  0.11544141508E+04  0.00000000000E+00 0. -1.
         21   -1    0    0  501  503 -0.00000000000E+00 -0.00000000000E+00 -0.52334221542E+02  0.52334221542E+02  0.00000000000E+00 0.  1.
          6    2    1    2  501    0 -0.11244835026E+03  0.64091731553E+01  0.22076728204E+03  0.30145429031E+03  0.17161231701E+03 0.  0.
         24    2    3    3    0    0 -0.13592654235E+03 -0.63931850614E+01  0.22407920835E+03  0.27410132455E+03  0.80019664923E+02 0.  0.
         -6    2    1    2    0  502  0.11244835026E+03 -0.64091731553E+01  0.88131264723E+03  0.90529408204E+03  0.17366543651E+03 0.  0.
        -24    2    5    5    0    0  0.13954591674E+03  0.65965260642E+01  0.55911300387E+03  0.58166137896E+03  0.78778370414E+02 0.  0.
          5    1    3    3  501    0  0.23478192093E+02  0.12802358217E+02 -0.33119263123E+01  0.27352965758E+02  0.47000000000E+01 0. -1.
        -13    1    4    4    0    0 -0.25733695406E+02 -0.39331342033E+01  0.19204369305E+01  0.26103269947E+02  0.00000000000E+00 0.  1.
         14    1    4    4    0    0 -0.11019284695E+03 -0.24600508581E+01  0.22215877142E+03  0.24799805461E+03  0.00000000000E+00 0. -1.
         -5    1    5    5    0  502 -0.27097566480E+02 -0.13005699219E+02  0.32219964336E+03  0.32363270308E+03  0.47000000000E+01 0.  1.
         13    1    6    6    0    0  0.78604352393E+02 -0.14001842509E+02  0.43068603387E+03  0.43802414954E+03  0.00000000000E+00 0. -1.
        -14    1    6    6    0    0  0.60941564348E+02  0.20598368573E+02  0.12842697000E+03  0.14363722942E+03  0.00000000000E+00 0.  1.
</event>
<event>
12    1  0.8258923E-002  0.2038717E+03  0.7818608E-02  0.1146586E+00
         21   -1    0    0  501  502  0.00000000000E+00  0.00000000000E+00  0.10564953694E+03  0.10564953694E+03  0.00000000000E+00 0.  1.
         21   -1    0    0  502  503 -0.00000000000E+00 -0.00000000000E+00 -0.92650523507E+03  0.92650523507E+03  0.00000000000E+00 0.  1.
         -6    2    1    2    0  503  0.10185272425E+03 -0.39433583568E+02 -0.80199235575E+03  0.82741228533E+03  0.17172759327E+03 0.  0.
        -24    2    3    3    0    0  0.12182991417E+02 -0.57919832153E+01 -0.57055413823E+03  0.57689650382E+03  0.84235260520E+02 0.  0.
          6    2    1    2  501    0 -0.10185272425E+03  0.39433583568E+02 -0.18863342381E+02  0.20474248668E+03  0.17214724865E+03 0.  0.
         24    2    5    5    0    0 -0.48854560807E+01  0.31651078958E+01  0.36361973541E+02  0.87311745639E+02  0.79166042074E+02 0.  0.
          5    1    5    5  501    0 -0.96967268167E+02  0.36268475673E+02 -0.55225315922E+02  0.11743074104E+03  0.47000000000E+01 0. -1.
        -11    1    6    6    0    0 -0.88737096640E+01  0.34563839012E+01  0.61310038850E+02  0.62045226864E+02  0.00000000000E+00 0.  1.
         12    1    6    6    0    0  0.39882535833E+01 -0.29127600543E+00 -0.24948065309E+02  0.25266518775E+02  0.00000000000E+00 0. -1.
         -5    1    3    3    0  503  0.89669732831E+02 -0.33641600353E+02 -0.23143821752E+03  0.25051578151E+03  0.47000000000E+01 0.  1.
         11    1    4    4    0    0 -0.34663299823E+02 -0.99922592757E+01 -0.18503365212E+03  0.18851748464E+03  0.00000000000E+00 0. -1.
        -12    1    4    4    0    0  0.46846291241E+02  0.42002760604E+01 -0.38552048611E+03  0.38837901917E+03  0.00000000000E+00 0.  1.
</event>
<event>
12    1  0.8258923E-002  0.1801193E+03  0.7818608E-02  0.1168853E+00
         21   -1    0    0  501  502  0.00000000000E+00  0.00000000000E+00  0.43105684521E+03  0.43105684521E+03  0.00000000000E+00 0. -1.
         21   -1    0    0  502  503 -0.00000000000E+00 -0.00000000000E+00 -0.87762459154E+02  0.87762459154E+02  0.00000000000E+00 0. -1.
         -6    2    1    2    0  503 -0.19648201710E+02 -0.31295117455E+02  0.68233896812E+02  0.19261051099E+03  0.17628813931E+03 0.  0.
        -24    2    3    3    0    0 -0.78061310279E+02 -0.43177185112E+02  0.48684713094E+02  0.12970156593E+03  0.80588196642E+02 0.  0.
          6    2    1    2  501    0  0.19648201710E+02  0.31295117455E+02  0.27506048925E+03  0.32620879338E+03  0.17143065049E+03 0.  0.
         24    2    5    5    0    0 -0.42151274210E+02 -0.14571893919E+02  0.20069685140E+03  0.21908737354E+03  0.75703243458E+02 0.  0.
          5    1    5    5  501    0  0.61799475921E+02  0.45867011374E+02  0.74363637846E+02  0.10712141985E+03  0.47000000000E+01 0. -1.
        -13    1    6    6    0    0 -0.39699787299E+02  0.22408321351E+02  0.72505294407E+02  0.85645920477E+02  0.00000000000E+00 0.  1.
         14    1    6    6    0    0 -0.24514869111E+01 -0.36980215270E+02  0.12819155700E+03  0.13344145306E+03  0.00000000000E+00 0. -1.
         -5    1    3    3    0  503  0.58413108569E+02  0.11882067657E+02  0.19549183718E+02  0.62908945060E+02  0.47000000000E+01 0.  1.
         13    1    4    4    0    0 -0.61380932960E+02  0.11895181243E+02  0.28604123575E+02  0.68755437264E+02  0.00000000000E+00 0. -1.
        -14    1    4    4    0    0 -0.16680377318E+02 -0.55072366355E+02  0.20080589520E+02  0.60946128662E+02  0.00000000000E+00 0.  1.
</event>
<event>
12    1  0.8258923E-002  0.2869446E+03  0.7818608E-02  0.1092013E+00
         21   -1    0    0  501  502  0.00000000000E+00  0.00000000000E+00  0.52195240642E+03  0.52195240642E+03  0.00000000000E+00 0.  1.
         21   -1    0    0  502  503 -0.00000000000E+00 -0.00000000000E+00 -0.24834164880E+03  0.24834164880E+03  0.00000000000E+00 0.  1.
         -6    2    1    2    0  503  0.27892837069E+02  0.22934661121E+03 -0.96055359495E+02  0.30259515469E+03  0.17017437270E+03 0.  0.
        -24    2    3    3    0    0 -0.23920889941E+02  0.19188140044E+03 -0.11135662951E+03  0.23668215758E+03  0.78914282422E+02 0.  0.
          6    2    1    2  501    0 -0.27892837069E+02 -0.22934661121E+03  0.36966611712E+03  0.46769890053E+03  0.16944422381E+03 0.  0.
         24    2    5    5    0    0 -0.46604364015E+02 -0.16848446070E+03  0.16496089569E+03  0.25326793195E+03  0.79834629118E+02 0.  0.
          5    1    5    5  501    0  0.18711526946E+02 -0.60862150503E+02  0.20470522143E+03  0.21443096857E+03  0.47000000000E+01 0. -1.
        -11    1    6    6    0    0 -0.97965968590E+01 -0.14714850858E+03  0.14286925664E+03  0.20532968948E+03  0.00000000000E+00 0.  1.
         12    1    6    6    0    0 -0.36807767155E+02 -0.21335952119E+02  0.22091639049E+02  0.47938242476E+02  0.00000000000E+00 0. -1.
         -5    1    3    3    0  503  0.51813727009E+02  0.37465210768E+02  0.15301270017E+02  0.65912997114E+02  0.47000000000E+01 0.  1.
         13    1    4    4    0    0 -0.37696730251E+02  0.44198798983E+02 -0.15654177452E+02  0.60163365721E+02  0.00000000000E+00 0. -1.
        -14    1    4    4    0    0  0.13775840310E+02  0.14768260145E+03 -0.95702452059E+02  0.17651879186E+03  0.00000000000E+00 0.  1.
</event>
<event>
12    1  0.8258923E-002  0.1796747E+03  0.7818608E-02  0.1169015E+00
         21   -1    0    0  501  502  0.00000000000E+00  0.00000000000E+00  0.12202388981E+04  0.12202388981E+04  0.00000000000E+00 0.  1.
         21   -1    0    0  502  503 -0.00000000000E+00 -0.00000000000E+00 -0.32412667781E+02  0.32412667781E+02  0.00000000000E+00 0.  1.
         -6    2    1    2    0  503  0.37787481378E+00 -0.37797647516E+02  0.31850142708E+03  0.36568586168E+03  0.17565359500E+03 0.  0.
        -24    2    3    3    0    0  0.10589058672E+02  0.47788925457E+02  0.16925524786E+03  0.19327402403E+03  0.79445578094E+02 0.  0.
          6    2    1    2  501    0 -0.37787481378E+00  0.37797647516E+02  0.86932480327E+03  0.88696570423E+03  0.17191201806E+03 0.  0.
         24    2    5    5    0    0 -0.42449916206E+02  0.45260159167E+02  0.79394876797E+03  0.80019369005E+03  0.78133335032E+02 0.  0.
          5    1    5    5  501    0  0.42072041392E+02 -0.74625116509E+01  0.75376035295E+02  0.86772014174E+02  0.47000000000E+01 0. -1.
        -13    1    6    6    0    0  0.50897779572E+01  0.51568491554E+02  0.41079044696E+03  0.41404589899E+03  0.00000000000E+00 0.  1.
         14    1    6    6    0    0 -0.47539694163E+02 -0.63083323875E+01  0.38315832102E+03  0.38614779106E+03  0.00000000000E+00 0. -1.
         -5    1    3    3    0  503 -0.10211183858E+02 -0.85586572973E+02  0.14924617922E+03  0.17241183765E+03  0.47000000000E+01 0.  1.
         13    1    4    4    0    0 -0.50583278795E+01  0.57132764690E+02  0.16482352748E+03  0.17451800678E+03  0.00000000000E+00 0. -1.
        -14    1    4    4    0    0  0.15647386551E+02 -0.93438392326E+01  0.44317203801E+01  0.18756017248E+02  0.00000000000E+00 0.  1.
</event>
<event>
12    1  0.8258923E-002  0.2294741E+03  0.7818608E-02  0.1128966E+00
         21   -1    0    0  503  502  0.00000000000E+00  0.00000000000E+00  0.12950226217E+03  0.12950226217E+03  0.00000000000E+00 0. -1.
         21   -1    0    0  501  503 -0.00000000000E+00 -0.00000000000E+00 -0.44011354041E+03  0.44011354041E+03  0.00000000000E+00 0. -1.
          6    2    1    2  501    0  0.12512960345E+03 -0.48327344542E+02 -0.25685639819E+03  0.34443224459E+03  0.18618649771E+03 0.  0.
         24    2    3    3    0    0  0.12020970661E+03 -0.14773561457E+01 -0.88498447493E+02  0.16954480547E+03  0.80379784196E+02 0.  0.
         -6    2    1    2    0  502 -0.12512960345E+03  0.48327344542E+02 -0.53754880051E+02  0.22518355799E+03  0.17269944346E+03 0.  0.
        -24    2    5    5    0    0 -0.25200834317E+02  0.78035331594E+02 -0.25813650935E+02  0.11715057377E+03  0.79582142051E+02 0.  0.
          5    1    3    3  501    0  0.49198968368E+01 -0.46849988396E+02 -0.16835795070E+03  0.17488743912E+03  0.47000000000E+01 0. -1.
        -11    1    4    4    0    0  0.93914309211E+01 -0.10078585536E+02  0.13060432155E+02  0.18982933104E+02  0.00000000000E+00 0.  1.
         12    1    4    4    0    0  0.11081827569E+03  0.86012293903E+01 -0.10155887965E+03  0.15056187236E+03  0.00000000000E+00 0. -1.
         -5    1    5    5    0  502 -0.99928769132E+02 -0.29707987052E+02 -0.27941229116E+02  0.10803298422E+03  0.47000000000E+01 0.  1.
         13    1    6    6    0    0 -0.37781957242E+02  0.30370153681E+02 -0.43145515777E+02  0.64894977150E+02  0.00000000000E+00 0. -1.
        -14    1    6    6    0    0  0.12581122924E+02  0.47665177913E+02  0.17331864842E+02  0.52255596623E+02  0.00000000000E+00 0.  1.
</event>
<event>
12    1  0.8258923E-002  0.1715543E+03  0.7818608E-02  0.1177538E+00
         21   -1    0    0  501  502  0.00000000000E+00  0.00000000000E+00  0.65900929392E+03  0.65900929392E+03  0.00000000000E+00 0. -1.
         21   -1    0    0  502  503 -0.00000000000E+00 -0.00000000000E+00 -0.72485877203E+02  0.72485877203E+02  0.00000000000E+00 0. -1.
         -6    2    1    2    0  503  0.77440206286E+01 -0.60783533802E+01  0.58907628252E+02  0.17668952207E+03  0.16628939325E+03 0.  0.
        -24    2    3    3    0    0  0.55248376010E+02 -0.28697899848E+02  0.68142933096E+02  0.12306407552E+03  0.81396282746E+02 0.  0.
          6    2    1    2  501    0 -0.77440206286E+01  0.60783533802E+01  0.52761578847E+03  0.55480564905E+03  0.17127163147E+03 0.  0.
         24    2    5    5    0    0 -0.49852985474E+02  0.49671827094E+02  0.39583465627E+03  0.40967841979E+03  0.78731962808E+02 0.  0.
          5    1    5    5  501    0  0.42108964846E+02 -0.43593473714E+02  0.13178113219E+03  0.14512722926E+03  0.47000000000E+01 0. -1.
        -11    1    6    6    0    0 -0.40727352369E+02  0.21105813178E+02  0.78423685680E+02  0.90853987565E+02  0.00000000000E+00 0.  1.
         12    1    6    6    0    0 -0.91256331051E+01  0.28566013916E+02  0.31741097060E+03  0.31882443223E+03  0.00000000000E+00 0. -1.
         -5    1    3    3    0  503 -0.47504355381E+02  0.22619546468E+02 -0.92353048437E+01  0.53625446555E+02  0.47000000000E+01 0.  1.
         11    1    4    4    0    0 -0.92842591934E+01 -0.10282668687E+02  0.52309247283E+02  0.54112735057E+02  0.00000000000E+00 0. -1.
        -12    1    4    4    0    0  0.64532635203E+02 -0.18415231161E+02  0.15833685813E+02  0.68951340462E+02  0.00000000000E+00 0.  1.
</event>
<event>
12    1  0.8258923E-002  0.1983818E+03  0.7818608E-02  0.1151422E+00
         21   -1    0    0  501  502  0.00000000000E+00  0.00000000000E+00  0.14183156257E+03  0.14183156257E+03  0.00000000000E+00 0. -1.
         21   -1    0    0  502  503 -0.00000000000E+00 -0.00000000000E+00 -0.28802506520E+03  0.28802506520E+03  0.00000000000E+00 0. -1.
         -6    2    1    2    0  503 -0.88875810544E+02 -0.40323979233E+02 -0.11774240488E+03  0.22944503958E+03  0.17104624895E+03 0.  0.
        -24    2    3    3    0    0 -0.49154854155E+02 -0.90277507041E+02 -0.96853361441E+02  0.16212824040E+03  0.79616359793E+02 0.  0.
          6    2    1    2  501    0  0.88875810544E+02  0.40323979233E+02 -0.28451097760E+02  0.20041158819E+03  0.17271481325E+03 0.  0.
         24    2    5    5    0    0  0.24440200844E+02  0.48287709149E+01 -0.75548973261E+02  0.11293497710E+03  0.80162467814E+02 0.  0.
          5    1    5    5  501    0  0.64435609700E+02  0.35495208318E+02  0.47097875501E+02  0.87476611089E+02  0.47000000000E+01 0. -1.
        -13    1    6    6    0    0  0.20385654944E+02  0.29543295301E+02 -0.79828597827E+02  0.87527060135E+02  0.00000000000E+00 0.  1.
         14    1    6    6    0    0  0.40545458998E+01 -0.24714524386E+02  0.42796245666E+01  0.25407916965E+02  0.00000000000E+00 0. -1.
         -5    1    3    3    0  503 -0.39720956388E+02  0.49953527808E+02 -0.20889043436E+02  0.67316799185E+02  0.47000000000E+01 0.  1.
         13    1    4    4    0    0 -0.28557288828E+02 -0.55848214679E+02 -0.10392686527E+03  0.12138918878E+03  0.00000000000E+00 0. -1.
        -14    1    4    4    0    0 -0.20597565327E+02 -0.34429292362E+02  0.70735038300E+01  0.40739051613E+02  0.00000000000E+00 0.  1.
</event>
<event>
12    1  0.8258923E-002  0.1776524E+03  0.7818608E-02  0.1170195E+00
         21   -1    0    0  501  502  0.00000000000E+00  0.00000000000E+00  0.14186882124E+03  0.14186882124E+03  0.00000000000E+00 0.  1.
         21   -1    0    0  502  503 -0.00000000000E+00 -0.00000000000E+00 -0.34507799643E+03  0.34507799643E+03  0.00000000000E+00 0.  1.
         -6    2    1    2    0  503 -0.99776857063E+01  0.47632480917E+02 -0.24696391209E+03  0.30398545047E+03  0.17043348490E+03 0.  0.
        -24    2    3    3    0    0 -0.18807037986E+02 -0.33108198317E+02 -0.91466051790E+02  0.12848989696E+03  0.81815386804E+02 0.  0.
          6    2    1    2  501    0  0.99776857063E+01 -0.47632480917E+02  0.43754736894E+02  0.18296136720E+03  0.17085659905E+03 0.  0.
         24    2    5    5    0    0 -0.26868952285E+02 -0.78076810014E+02  0.65513206895E+02  0.13023516004E+03  0.76493710675E+02 0.  0.
          5    1    5    5  501    0  0.36846637991E+02  0.30444329097E+02 -0.21758470001E+02  0.52726207167E+02  0.47000000000E+01 0. -1.
        -13    1    6    6    0    0 -0.44350528253E+00 -0.81843992100E+02  0.63268653602E+02  0.10344833623E+03  0.00000000000E+00 0.  1.
         14    1    6    6    0    0 -0.26425447002E+02  0.37671820863E+01  0.22445532926E+01  0.26786823806E+02  0.00000000000E+00 0. -1.
         -5    1    3    3    0  503  0.88293522792E+01  0.80740679234E+02 -0.15549786030E+03  0.17549555351E+03  0.47000000000E+01 0.  1.
         11    1    4    4    0    0  0.16759172091E+02  0.67643989830E+00 -0.74836658477E+02  0.76693238764E+02  0.00000000000E+00 0. -1.
        -12    1    4    4    0    0 -0.35566210077E+02 -0.33784638215E+02 -0.16629393313E+02  0.51796658199E+02  0.00000000000E+00 0.  1.
</event>
<event>
12    1  0.8258923E-002  0.2121563E+03  0.7818608E-02  0.1140044E+00
         21   -1    0    0  503  502  0.00000000000E+00  0.00000000000E+00  0.13669806609E+04  0.13669806609E+04  0.00000000000E+00 0.  1.
         21   -1    0    0  501  503 -0.00000000000E+00 -0.00000000000E+00 -0.33004180770E+02  0.33004180770E+02  0.00000000000E+00 0. -1.
          6    2    1    2  501    0  0.74838428126E+02  0.98098638405E+02  0.61186660960E+03  0.64760406839E+03  0.17258663990E+03 0.  0.
         24    2    3    3    0    0  0.45273013906E+02  0.12353213153E+03  0.33265580419E+03  0.36564353898E+03  0.75666903088E+02 0.  0.
         -6    2    1    2    0  502 -0.74838428126E+02 -0.98098638405E+02  0.72210987050E+03  0.75238077324E+03  0.17149352670E+03 0.  0.
        -24    2    5    5    0    0  0.21354228733E+02 -0.78141768424E+02  0.39921009306E+03  0.41483424288E+03  0.78464078456E+02 0.  0.
          5    1    3    3  501    0  0.29565414220E+02 -0.25433493129E+02  0.27921080541E+03  0.28196052941E+03  0.47000000000E+01 0. -1.
        -11    1    4    4    0    0  0.46122643933E+02  0.70349238584E+02  0.27324956213E+03  0.28590494374E+03  0.00000000000E+00 0.  1.
         12    1    4    4    0    0 -0.84963002705E+00  0.53182892950E+02  0.59406242061E+02  0.79738595231E+02  0.00000000000E+00 0. -1.
         -5    1    5    5    0  502 -0.96192656859E+02 -0.19956869982E+02  0.32289977744E+03  0.33754653037E+03  0.47000000000E+01 0.  1.
         11    1    6    6    0    0  0.44486511668E+02 -0.24030643488E+02  0.13520796263E+03  0.14435274402E+03  0.00000000000E+00 0. -1.
        -12    1    6    6    0    0 -0.23132282935E+02 -0.54111124936E+02  0.26400213042E+03  0.27048149886E+03  0.00000000000E+00 0.  1.
</event>
<event>
12    1  0.8258923E-002  0.2492949E+03  0.7818608E-02  0.1113928E+00
         21   -1    0    0  503  502  0.00000000000E+00  0.00000000000E+00  0.24318535063E+03  0.24318535063E+03  0.00000000000E+00 0. -1.
         21   -1    0    0  501  503 -0.00000000000E+00 -0.00000000000E+00 -0.76163451489E+03  0.76163451489E+03  0.00000000000E+00 0.  1.
          6    2    1    2  501    0 -0.41885169141E+02  0.17389237943E+03 -0.66941458728E+03  0.71432755259E+03  0.17365205359E+03 0.  0.
         24    2    3    3    0    0  0.18447937499E+02  0.16349824514E+03 -0.43520796165E+03  0.47220577482E+03  0.80624570250E+02 0.  0.
         -6    2    1    2    0  502  0.41885169141E+02 -0.17389237943E+03  0.15096542301E+03  0.29049231293E+03  0.17205318337E+03 0.  0.
        -24    2    5    5    0    0  0.83771865369E+02 -0.95679559452E+02  0.50067018917E+02  0.15605155096E+03  0.75319829056E+02 0.  0.
          5    1    3    3  501    0 -0.60333106640E+02  0.10394134292E+02 -0.23420662563E+03  0.24212177777E+03  0.47000000000E+01 0. -1.
        -11    1    4    4    0    0  0.12557337215E+02  0.83625722183E+02 -0.11882666551E+03  0.14584486472E+03  0.00000000000E+00 0.  1.
         12    1    4    4    0    0  0.58906002845E+01  0.79872522960E+02 -0.31638129614E+03  0.32636091010E+03  0.00000000000E+00 0. -1.
         -5    1    5    5    0  502 -0.41886696228E+02 -0.78212819982E+02  0.10089840409E+03  0.13444076197E+03  0.47000000000E+01 0.  1.
         13    1    6    6    0    0  0.47496078007E+02 -0.73470822322E+02  0.67077791431E+02  0.11024186710E+03  0.00000000000E+00 0. -1.
        -14    1    6    6    0    0  0.36275787362E+02 -0.22208737130E+02 -0.17010772513E+02  0.45809683858E+02  0.00000000000E+00 0.  1.
</event>
<event>
12    1  0.8258923E-002  0.2955529E+03  0.7818608E-02  0.1087625E+00
         21   -1    0    0  501  502  0.00000000000E+00  0.00000000000E+00  0.82741049904E+03  0.82741049904E+03  0.00000000000E+00 0. -1.
         21   -1    0    0  502  503 -0.00000000000E+00 -0.00000000000E+00 -0.10701201564E+03  0.10701201564E+03  0.00000000000E+00 0. -1.
         -6    2    1    2    0  503  0.11709758888E+03 -0.20833406303E+03  0.42064030983E+03  0.51346354449E+03  0.17202213266E+03 0.  0.
        -24    2    3    3    0    0  0.13370393180E+03 -0.12403748034E+03  0.34722731754E+03  0.40035633024E+03  0.80351373416E+02 0.  0.
          6    2    1    2  501    0 -0.11709758888E+03  0.20833406303E+03  0.29975817356E+03  0.42095897019E+03  0.17388664361E+03 0.  0.
         24    2    5    5    0    0 -0.67964047073E+02  0.68704849563E+02  0.21435147354E+03  0.25000044718E+03  0.84936454653E+02 0.  0.
          5    1    5    5  501    0 -0.49133541803E+02  0.13962921347E+03  0.85406700014E+02  0.17095852301E+03  0.47000000000E+01 0. -1.
        -13    1    6    6    0    0 -0.65273888198E+01  0.60017021959E+02  0.14430601051E+03  0.15642529974E+03  0.00000000000E+00 0.  1.
         14    1    6    6    0    0 -0.61436658253E+02  0.86878276043E+01  0.70045463038E+02  0.93575147438E+02  0.00000000000E+00 0. -1.
         -5    1    3    3    0  503 -0.16606342920E+02 -0.84296582690E+02  0.73412992298E+02  0.11310721425E+03  0.47000000000E+01 0.  1.
         11    1    4    4    0    0  0.12062262410E+03 -0.73213432708E+02  0.20598749503E+03  0.24968154174E+03  0.00000000000E+00 0. -1.
        -12    1    4    4    0    0  0.13081307696E+02 -0.50824047632E+02  0.14123982250E+03  0.15067478850E+03  0.00000000000E+00 0.  1.
</event>
<event>
12    1  0.8258923E-002  0.2102740E+03  0.7818608E-02  0.1141581E+00
         21   -1    0    0  501  502  0.00000000000E+00  0.00000000000E+00  0.36803659103E+03  0.36803659103E+03  0.00000000000E+00 0.  1.
         21   -1    0    0  502  503 -0.00000000000E+00 -0.00000000000E+00 -0.23892584876E+03  0.23892584876E+03  0.00000000000E+00 0.  1.
         -6    2    1    2    0  503 -0.85369272489E+02  0.87674183429E+02  0.27923010411E+03  0.34954913472E+03  0.17099845444E+03 0.  0.
        -24    2    3    3    0    0  0.11370587935E+01  0.87520090675E+02  0.11922858800E+03  0.16759874518E+03  0.78821469257E+02 0.  0.
          6    2    1    2  501    0  0.85369272489E+02 -0.87674183429E+02 -0.15011936185E+03  0.25741330507E+03  0.16956152777E+03 0.  0.
         24    2    5    5    0    0  0.81113287632E+02 -0.32352234300E+02 -0.16080498758E+03  0.20071318108E+03  0.82471234593E+02 0.  0.
          5    1    5    5  501    0  0.42559848576E+01 -0.55321949130E+02  0.10685625732E+02  0.56700123985E+02  0.47000000000E+01 0. -1.
        -13    1    6    6    0    0 -0.10003379382E+02 -0.17499461330E+02 -0.63323076910E+02  0.66453824685E+02  0.00000000000E+00 0.  1.
         14    1    6    6    0    0  0.91116667014E+02 -0.14852772969E+02 -0.97481910669E+02  0.13425935640E+03  0.00000000000E+00 0. -1.
         -5    1    3    3    0  503 -0.86506331283E+02  0.15409275391E+00  0.16000151611E+03  0.18195038954E+03  0.47000000000E+01 0.  1.
         13    1    4    4    0    0 -0.30560573566E+02  0.33566771932E+02  0.18508478036E+02  0.49022857871E+02  0.00000000000E+00 0. -1.
        -14    1    4    4    0    0  0.31697632360E+02  0.53953318744E+02  0.10072010996E+03  0.11857588731E+03  0.00000000000E+00 0.  1.
</event>
<event>
12    1  0.8258923E-002  0.1933453E+03  0.7818608E-02  0.1155577E+00
         21   -1    0    0  503  502  0.00000000000E+00  0.00000000000E+00  0.91444819986E+03  0.91444819986E+03  0.00000000000E+00 0.  1.
         21   -1    0    0  501  503 -0.00000000000E+00 -0.00000000000E+00 -0.88891456613E+02  0.88891456613E+02  0.00000000000E+00 0.  1.
          6    2    1    2  501    0 -0.86510171460E+02 -0.45962820419E+00  0.43507495777E+02  0.19774458367E+03  0.17241170830E+03 0.  0.
         24    2    3    3    0    0 -0.74536969367E+02  0.42084078342E+02 -0.22121430811E+02  0.11848191566E+03  0.78878242790E+02 0.  0.
         -6    2    1    2    0  502  0.86510171460E+02  0.45962820419E+00  0.78204924747E+03  0.80559507280E+03  0.17291088696E+03 0.  0.
        -24    2    5    5    0    0  0.91657055635E+02 -0.56244456432E+01  0.30566653989E+03  0.32912253377E+03  0.80355201381E+02 0.  0.
          5    1    3    3  501    0 -0.11973202093E+02 -0.42543706547E+02  0.65628926588E+02  0.79262668010E+02  0.47000000000E+01 0. -1.
        -13    1    4    4    0    0 -0.90339156174E+02  0.33558798273E+02 -0.10154982435E+02  0.96904487760E+02  0.00000000000E+00 0.  1.
         14    1    4    4    0    0  0.15802186807E+02  0.85252800689E+01 -0.11966448376E+02  0.21577427903E+02  0.00000000000E+00 0. -1.
         -5    1    5    5    0  502 -0.51468841752E+01  0.60840738474E+01  0.47638270758E+03  0.47647253903E+03  0.47000000000E+01 0.  1.
         11    1    6    6    0    0  0.37528191675E+02 -0.39722894149E+02  0.17995364713E+03  0.18806804249E+03  0.00000000000E+00 0. -1.
        -12    1    6    6    0    0  0.54128863959E+02  0.34098448506E+02  0.12571289276E+03  0.14105449128E+03  0.00000000000E+00 0.  1.
</event>
<event>
12    1  0.8258923E-002  0.2169973E+03  0.7818608E-02  0.1136972E+00
         21   -1    0    0  503  502  0.00000000000E+00  0.00000000000E+00  0.60841407167E+02  0.60841407167E+02  0.00000000000E+00 0. -1.
         21   -1    0    0  501  503 -0.00000000000E+00 -0.00000000000E+00 -0.76461463389E+03  0.76461463389E+03  0.00000000000E+00 0. -1.
          6    2    1    2  501    0 -0.98650823909E+02 -0.84301885583E+02 -0.39208556024E+03  0.44812821945E+03  0.17392245844E+03 0.  0.
         24    2    3    3    0    0 -0.13772745919E+03 -0.38324133923E+02 -0.28577364303E+03  0.32579567753E+03  0.63550422394E+02 0.  0.
         -6    2    1    2    0  502  0.98650823909E+02  0.84301885583E+02 -0.31168766648E+03  0.37732782160E+03  0.16848825048E+03 0.  0.
        -24    2    5    5    0    0  0.10968738841E+02  0.32487654401E+02 -0.14345723748E+03  0.18061374016E+03  0.10423810834E+03 0.  0.
          5    1    3    3  501    0  0.39076635286E+02 -0.45977751659E+02 -0.10631191721E+03  0.12233254192E+03  0.47000000000E+01 0. -1.
        -11    1    4    4    0    0 -0.79098031239E+02 -0.32320167960E+02 -0.10340629363E+03  0.13414154228E+03  0.00000000000E+00 0.  1.
         12    1    4    4    0    0 -0.58629427956E+02 -0.60039659633E+01 -0.18236734940E+03  0.19165413524E+03  0.00000000000E+00 0. -1.
         -5    1    5    5    0  502  0.87682085068E+02  0.51814231181E+02 -0.16823042900E+03  0.19671408144E+03  0.47000000000E+01 0.  1.
         13    1    6    6    0    0  0.25702163613E+02  0.54842558982E+02 -0.14132387001E+03  0.15375546730E+03  0.00000000000E+00 0. -1.
        -14    1    6    6    0    0 -0.14733424773E+02 -0.22354904580E+02 -0.21333674658E+01  0.26858272861E+02  0.00000000000E+00 0.  1.
</event>
<event>
12    1  0.8258923E-002  0.1988409E+03  0.7818608E-02  0.1150999E+00
         21   -1    0    0  503  502  0.00000000000E+00  0.00000000000E+00  0.24291251950E+04  0.24291251950E+04  0.00000000000E+00 0.  1.
         21   -1    0    0  501  503 -0.00000000000E+00 -0.00000000000E+00 -0.42880671150E+02  0.42880671150E+02  0.00000000000E+00 0. -1.
          6    2    1    2  501    0  0.11277459945E+02  0.98202644664E+02  0.21909430602E+03  0.29587165538E+03  0.17253052196E+03 0.  0.
         24    2    3    3    0    0 -0.17306445821E+02  0.13070782545E+03  0.17151159672E+03  0.23137490608E+03  0.82061383437E+02 0.  0.
         -6    2    1    2    0  502 -0.11277459945E+02 -0.98202644664E+02  0.21671502179E+04  0.21761342108E+04  0.17102367114E+03 0.  0.
        -24    2    5    5    0    0 -0.35772825834E+02 -0.51091670071E+02  0.64739470751E+03  0.65544411478E+03  0.81222081154E+02 0.  0.
          5    1    3    3  501    0  0.28583905766E+02 -0.32505180790E+02  0.47582709298E+02  0.64496749306E+02  0.47000000000E+01 0. -1.
        -13    1    4    4    0    0 -0.19512212562E+02  0.11733996824E+02  0.74330724353E+02  0.77739756260E+02  0.00000000000E+00 0.  1.
         14    1    4    4    0    0  0.22057667408E+01  0.11897382863E+03  0.97180872367E+02  0.15363514982E+03  0.00000000000E+00 0. -1.
         -5    1    5    5    0  502  0.24495365889E+02 -0.47110974593E+02  0.15197555104E+04  0.15206900960E+04  0.47000000000E+01 0.  1.
         11    1    6    6    0    0 -0.44158122767E+02 -0.34435753653E+02  0.61865875810E+03  0.62118791031E+03  0.00000000000E+00 0. -1.
        -12    1    6    6    0    0  0.83852969328E+01 -0.16655916417E+02  0.28735949406E+02  0.34256204469E+02  0.00000000000E+00 0.  1.
</event>
<event>
12    1  0.8258923E-002  0.1862258E+03  0.7818608E-02  0.1162232E+00
         21   -1    0    0  501  502  0.00000000000E+00  0.00000000000E+00  0.14003698334E+04  0.14003698334E+04  0.00000000000E+00 0. -1.
         21   -1    0    0  502  503 -0.00000000000E+00 -0.00000000000E+00 -0.26374666236E+02  0.26374666236E+02  0.00000000000E+00 0. -1.
         -6    2    1    2    0  503  0.49423600190E+02 -0.50857093087E+02  0.87542324077E+03  0.89501167720E+03  0.17219441242E+03 0.  0.
        -24    2    3    3    0    0  0.52102877902E+02 -0.88907543794E+02  0.46023093970E+03  0.47804434970E+03  0.78068054925E+02 0.  0.
          6    2    1    2  501    0 -0.49423600190E+02  0.50857093087E+02  0.49857192641E+03  0.53173282245E+03  0.17069473483E+03 0.  0.
         24    2    5    5    0    0 -0.71582236564E+02  0.43229257854E+01  0.18290943510E+03  0.21185576433E+03  0.79273571593E+02 0.  0.
          5    1    5    5  501    0  0.22158636374E+02  0.46534167302E+02  0.31566249131E+03  0.31987705812E+03  0.47000000000E+01 0. -1.
        -13    1    6    6    0    0 -0.49524360128E+02 -0.24576783710E+02  0.51668782459E+02  0.75672608151E+02  0.00000000000E+00 0.  1.
         14    1    6    6    0    0 -0.22057876436E+02  0.28899709495E+02  0.13124065264E+03  0.13618315618E+03  0.00000000000E+00 0. -1.
         -5    1    3    3    0  503 -0.26792777121E+01  0.38050450707E+02  0.41519230107E+03  0.41696732749E+03  0.47000000000E+01 0.  1.
         11    1    4    4    0    0  0.66631804759E+02 -0.92774927570E+02  0.40368274838E+03  0.41953157919E+03  0.00000000000E+00 0. -1.
        -12    1    4    4    0    0 -0.14528926857E+02  0.38673837757E+01  0.56548191314E+02  0.58512770519E+02  0.00000000000E+00 0.  1.
</event>
<event>
12    1  0.8258923E-002  0.2599824E+03  0.7818608E-02  0.1107502E+00
         21   -1    0    0  503  502  0.00000000000E+00  0.00000000000E+00  0.18123718141E+03  0.18123718141E+03  0.00000000000E+00 0. -1.
         21   -1    0    0  501  503 -0.00000000000E+00 -0.00000000000E+00 -0.40756192442E+03  0.40756192442E+03  0.00000000000E+00 0.  1.
          6    2    1    2  501    0 -0.11553790712E+02  0.19115723929E+03 -0.20251125232E+03  0.32772841561E+03  0.17239642360E+03 0.  0.
         24    2    3    3    0    0  0.26098928993E+02  0.20026122558E+03 -0.16048398015E+03  0.27037868612E+03  0.81017365165E+02 0.  0.
         -6    2    1    2    0  502  0.11553790712E+02 -0.19115723929E+03 -0.23813490693E+02  0.26107069022E+03  0.17583015311E+03 0.  0.
        -24    2    5    5    0    0 -0.60573627732E+02 -0.13482597575E+03 -0.14414506641E+02  0.16895116653E+03  0.80557498458E+02 0.  0.
          5    1    3    3  501    0 -0.37652719705E+02 -0.91039862825E+01 -0.42027272165E+02  0.57349729494E+02  0.47000000000E+01 0. -1.
        -11    1    4    4    0    0 -0.43756380766E+01  0.18026169714E+03 -0.14195954878E+03  0.22949060799E+03  0.00000000000E+00 0.  1.
         12    1    4    4    0    0  0.30474567069E+02  0.19999528437E+02 -0.18524431373E+02  0.40888078133E+02  0.00000000000E+00 0. -1.
         -5    1    5    5    0  502  0.72127418444E+02 -0.56331263546E+02 -0.93989840515E+01  0.92119523693E+02  0.47000000000E+01 0.  1.
         13    1    6    6    0    0 -0.36822989836E+01 -0.94015777887E+02  0.10418012656E+02  0.94662879764E+02  0.00000000000E+00 0. -1.
        -14    1    6    6    0    0 -0.56891328749E+02 -0.40810197860E+02 -0.24832519298E+02  0.74288286767E+02  0.00000000000E+00 0.  1.
</event>
<event>
12    1  0.8258923E-002  0.1893499E+03  0.7818608E-02  0.1160954E+00
         21   -1    0    0  503  502  0.00000000000E+00  0.00000000000E+00  0.67093020808E+03  0.67093020808E+03  0.00000000000E+00 0.  1.
         21   -1    0    0  501  503 -0.00000000000E+00 -0.00000000000E+00 -0.60240011138E+02  0.60240011138E+02  0.00000000000E+00 0.  1.
          6    2    1    2  501    0 -0.53512216706E+02  0.26092671195E+01  0.44161533875E+03  0.47732046641E+03  0.17303281373E+03 0.  0.
         24    2    3    3    0    0 -0.76415334986E+02 -0.88665095104E+01  0.43702589897E+03  0.45087430916E+03  0.79862931800E+02 0.  0.
         -6    2    1    2    0  502  0.53512216706E+02 -0.26092671195E+01  0.16907485819E+03  0.25384975280E+03  0.18161228954E+03 0.  0.
        -24    2    5    5    0    0  0.10688652377E+03 -0.97248141756E+01  0.13532449953E+03  0.19012672420E+03  0.79474210324E+02 0.  0.
          5    1    3    3  501    0  0.22903118280E+02  0.11475776630E+02  0.45894397811E+01  0.26446157258E+02  0.47000000000E+01 0. -1.
        -11    1    4    4    0    0 -0.92138580977E+01 -0.13585117684E+02  0.27381724155E+03  0.27430882664E+03  0.00000000000E+00 0.  1.
         12    1    4    4    0    0 -0.67201476888E+02  0.47186081741E+01  0.16320865742E+03  0.17656548251E+03  0.00000000000E+00 0. -1.
         -5    1    5    5    0  502 -0.53374307065E+02  0.71155470562E+01  0.33750358660E+02  0.63723028602E+02  0.47000000000E+01 0.  1.
         13    1    6    6    0    0  0.10416260288E+03 -0.19847215040E+02  0.14235350843E+03  0.17750572145E+03  0.00000000000E+00 0. -1.
        -14    1    6    6    0    0  0.27239208934E+01  0.10122400864E+02 -0.70290089035E+01  0.12621002751E+02  0.00000000000E+00 0.  1.
</event>
<event>
12    1  0.8258923E-002  0.1914955E+03  0.7818608E-02  0.1157186E+00
         21   -1    0    0  501  502  0.00000000000E+00  0.00000000000E+00  0.12271227013E+03  0.12271227013E+03  0.00000000000E+00 0. -1.
         21   -1    0    0  502  503 -0.00000000000E+00 -0.00000000000E+00 -0.63357851714E+03  0.63357851714E+03  0.00000000000E+00 0. -1.
         -6    2    1    2    0  503  0.22115685070E+02  0.80240250951E+02 -0.53039221392E+03  0.56380239029E+03  0.17213260386E+03 0.  0.
        -24    2    3    3    0    0 -0.50876608285E+02  0.24851778423E+02 -0.31310345729E+03  0.32793748926E+03  0.79392579863E+02 0.  0.
          6    2    1    2  501    0 -0.22115685070E+02 -0.80240250951E+02  0.19525966911E+02  0.19248839698E+03  0.17246135274E+03 0.  0.
         24    2    5    5    0    0 -0.64990218141E+01  0.43404984052E+01  0.47991638796E+02  0.10176812467E+03  0.89400652083E+02 0.  0.
          5    1    5    5  501    0 -0.15616663256E+02 -0.84580749356E+02 -0.28465671885E+02  0.90720272315E+02  0.47000000000E+01 0. -1.
        -11    1    6    6    0    0  0.39953892841E+02 -0.86586309554E+01  0.16078315627E+02  0.43929462512E+02  0.00000000000E+00 0.  1.
         12    1    6    6    0    0 -0.46452914655E+02  0.12999129361E+02  0.31913323169E+02  0.57838662154E+02  0.00000000000E+00 0. -1.
         -5    1    3    3    0  503  0.72992293355E+02  0.55388472529E+02 -0.21728875663E+03  0.23586490103E+03  0.47000000000E+01 0.  1.
         13    1    4    4    0    0  0.26058667539E+01  0.41428446401E+02 -0.13071805167E+03  0.13715070451E+03  0.00000000000E+00 0. -1.
        -14    1    4    4    0    0 -0.53482475039E+02 -0.16576667978E+02 -0.18238540561E+03  0.19078678476E+03  0.00000000000E+00 0.  1.
</event>
<event>
12    1  0.8258923E-002  0.2608111E+03  0.7818608E-02  0.1106665E+00
         21   -1    0    0  503  502  0.00000000000E+00  0.00000000000E+00  0.13283139887E+03  0.13283139887E+03  0.00000000000E+00 0. -1.
         21   -1    0    0  501  503 -0.00000000000E+00 -0.00000000000E+00 -0.56012632133E+03  0.56012632133E+03  0.00000000000E+00 0. -1.
          6    2    1    2  501    0 -0.12636105788E+03  0.15035152834E+03 -0.31519759885E+03  0.40907705363E+03  0.17152787081E+03 0.  0.
         24    2    3    3    0    0 -0.65684926399E+01  0.19100956718E+02 -0.10173071619E+03  0.13128725679E+03  0.80493562071E+02 0.  0.
         -6    2    1    2    0  502  0.12636105788E+03 -0.15035152834E+03 -0.11209732360E+03  0.28388066657E+03  0.17160921848E+03 0.  0.
        -24    2    5    5    0    0  0.88249641118E+02 -0.17517901121E+03 -0.75422771699E+02  0.22526329072E+03  0.81112702632E+02 0.  0.
          5    1    3    3  501    0 -0.11979256524E+03  0.13125057162E+03 -0.21346688266E+03  0.27778979685E+03  0.47000000000E+01 0. -1.
        -11    1    4    4    0    0 -0.39436324915E+02  0.28589884582E+02 -0.57097325157E+02  0.75051380822E+02  0.00000000000E+00 0.  1.
         12    1    4    4    0    0  0.32867832275E+02 -0.94889278635E+01 -0.44633391032E+02  0.56235875964E+02  0.00000000000E+00 0. -1.
         -5    1    5    5    0  502  0.38111416767E+02  0.24827482876E+02 -0.36674551902E+02  0.58617375847E+02  0.47000000000E+01 0.  1.
         13    1    6    6    0    0  0.17170081723E+02 -0.11912090449E+03 -0.55691036230E+02  0.13261256769E+03  0.00000000000E+00 0. -1.
        -14    1    6    6    0    0  0.71079559395E+02 -0.56058106719E+02 -0.19731735468E+02  0.92650723027E+02  0.00000000000E+00 0.  1.
</event>
<event>
12    1  0.8258923E-002  0.2386513E+03  0.7818608E-02  0.1120726E+00
         21   -1    0    0  501  502  0.00000000000E+00  0.00000000000E+00  0.14457908634E+03  0.14457908634E+03  0.00000000000E+00 0. -1.
         21   -1    0    0  502  503 -0.00000000000E+00 -0.00000000000E+00 -0.98600483598E+03  0.98600483598E+03  0.00000000000E+00 0. -1.
         -6    2    1    2    0  503  0.12988287521E+03  0.10185815986E+03 -0.85893753873E+03  0.89147526722E+03  0.17236534055E+03 0.  0.
        -24    2    3    3    0    0  0.13658286108E+03  0.36641655782E+02 -0.71366827496E+03  0.73202831299E+03  0.80904607216E+02 0.  0.
          6    2    1    2  501    0 -0.12988287521E+03 -0.10185815986E+03  0.17511789101E+02  0.23910865510E+03  0.17210938435E+03 0.  0.
         24    2    5    5    0    0 -0.10281789485E+03 -0.13444167592E+03 -0.17709488604E+01  0.19233138857E+03  0.91335332943E+02 0.  0.
          5    1    5    5  501    0 -0.27064980358E+02  0.32583516059E+02  0.19282737961E+02  0.46777266528E+02  0.47000000000E+01 0. -1.
        -11    1    6    6    0    0 -0.86344537745E+01 -0.76917645405E+02  0.19774836254E+02  0.79886933322E+02  0.00000000000E+00 0.  1.
         12    1    6    6    0    0 -0.94183441078E+02 -0.57524030511E+02 -0.21545785115E+02  0.11244445525E+03  0.00000000000E+00 0. -1.
         -5    1    3    3    0  503 -0.66999858672E+01  0.65216504075E+02 -0.14526926378E+03  0.15944695423E+03  0.47000000000E+01 0.  1.
         13    1    4    4    0    0  0.89069422729E+02 -0.12238765637E+02 -0.31521331422E+03  0.32778435428E+03  0.00000000000E+00 0. -1.
        -14    1    4    4    0    0  0.47513438349E+02  0.48880421419E+02 -0.39845496074E+03  0.40424395872E+03  0.00000000000E+00 0.  1.
</event>
<event>
12    1  0.8258923E-002  0.2339001E+03  0.7818608E-02  0.1124041E+00
         21   -1    0    0  503  502  0.00000000000E+00  0.00000000000E+00  0.13167035865E+03  0.13167035865E+03  0.00000000000E+00 0.  1.
         21   -1    0    0  501  503 -0.00000000000E+00 -0.00000000000E+00 -0.43521183728E+03  0.43521183728E+03  0.00000000000E+00 0. -1.
          6    2    1    2  501    0  0.13102308262E+03  0.87498929137E+02 -0.89850203636E+02  0.25056397452E+03  0.17287606964E+03 0.  0.
         24    2    3    3    0    0  0.24997062714E+02  0.86264993818E+02 -0.79360258620E+02  0.14390953982E+03  0.79658036009E+02 0.  0.
         -6    2    1    2    0  502 -0.13102308262E+03 -0.87498929137E+02 -0.21369127499E+03  0.31631822141E+03  0.17195972030E+03 0.  0.
        -24    2    5    5    0    0 -0.92899886890E+02 -0.12766380093E+03 -0.15276186169E+03  0.23384957049E+03  0.80131143634E+02 0.  0.
          5    1    3    3  501    0  0.10602601991E+03  0.12339353185E+01 -0.10489945016E+02  0.10665443470E+03  0.47000000000E+01 0. -1.
        -13    1    4    4    0    0  0.27293851339E+02  0.41720813067E+02  0.33194423903E+01  0.49965981044E+02  0.00000000000E+00 0.  1.
         14    1    4    4    0    0 -0.22967886252E+01  0.44544180751E+02 -0.82679701010E+02  0.93943558778E+02  0.00000000000E+00 0. -1.
         -5    1    5    5    0  502 -0.38123195733E+02  0.40164871790E+02 -0.60929413302E+02  0.82468650918E+02  0.47000000000E+01 0.  1.
         11    1    6    6    0    0 -0.20337476790E+02 -0.56794350459E+02 -0.10643428217E+03  0.12234160220E+03  0.00000000000E+00 0. -1.
        -12    1    6    6    0    0 -0.72562410100E+02 -0.70869450468E+02 -0.46327579517E+02  0.11150796829E+03  0.00000000000E+00 0.  1.
</event>
<event>
12    1  0.8258923E-002  0.1811532E+03  0.7818608E-02  0.1166939E+00
         21   -1    0    0  503  502  0.00000000000E+00  0.00000000000E+00  0.13790455585E+02  0.13790455585E+02  0.00000000000E+00 0. -1.
         21   -1    0    0  501  503 -0.00000000000E+00 -0.00000000000E+00 -0.26418527181E+04  0.26418527181E+04  0.00000000000E+00 0. -1.
          6    2    1    2  501    0  0.50638050255E+02 -0.12617368574E+02 -0.17396027774E+04  0.17489035544E+04  0.17240188332E+03 0.  0.
         24    2    3    3    0    0 -0.19556260621E+02 -0.87211627504E+01 -0.13840575144E+04  0.13864439763E+04  0.78442273883E+02 0.  0.
         -6    2    1    2    0  502 -0.50638050255E+02  0.12617368574E+02 -0.88845948511E+03  0.90673961926E+03  0.17347354365E+03 0.  0.
        -24    2    5    5    0    0  0.18531788729E+02 -0.26668648662E+02 -0.29212408600E+03  0.30510363630E+03  0.81835831058E+02 0.  0.
          5    1    3    3  501    0  0.70194310876E+02 -0.38962058237E+01 -0.35554526299E+03  0.36245957807E+03  0.47000000000E+01 0. -1.
        -13    1    4    4    0    0  0.31339042846E+00 -0.37714178224E+02 -0.10191472679E+04  0.10198448956E+04  0.00000000000E+00 0.  1.
         14    1    4    4    0    0 -0.19869651049E+02  0.28993015474E+02 -0.36491024654E+03  0.36659908075E+03  0.00000000000E+00 0. -1.
         -5    1    5    5    0  502 -0.69169838984E+02  0.39286017236E+02 -0.59633539910E+03  0.60163598297E+03  0.47000000000E+01 0.  1.
         13    1    6    6    0    0  0.18246479799E+01 -0.19775867729E+02 -0.28497771199E+03  0.28566888283E+03  0.00000000000E+00 0. -1.
        -14    1    6    6    0    0  0.16707140749E+02 -0.68927809322E+01 -0.71463740133E+01  0.19434753472E+02  0.00000000000E+00 0.  1.
</event>
<event>
12    1  0.8258923E-002  0.1931490E+03  0.7818608E-02  0.1156590E+00
         21   -1    0    0  501  502  0.00000000000E+00  0.00000000000E+00  0.28140474947E+02  0.28140474947E+02  0.00000000000E+00 0. -1.
         21   -1    0    0  502  503 -0.00000000000E+00 -0.00000000000E+00 -0.17228934235E+04  0.17228934235E+04  0.00000000000E+00 0. -1.
         -6    2    1    2    0  503 -0.83746472933E+02  0.15173760934E+02 -0.12756152121E+04  0.12895330994E+04  0.16869419171E+03 0.  0.
        -24    2    3    3    0    0 -0.10625609396E+03 -0.31425784275E+02 -0.92367841406E+03  0.93378065672E+03  0.80539212989E+02 0.  0.
          6    2    1    2  501    0  0.83746472933E+02 -0.15173760934E+02 -0.41913773646E+03  0.46150079907E+03  0.17338636241E+03 0.  0.
         24    2    5    5    0    0  0.10529971765E+03 -0.13392228562E+02 -0.19313140726E+03  0.23441344351E+03  0.79890798632E+02 0.  0.
          5    1    5    5  501    0 -0.21553244720E+02 -0.17815323721E+01 -0.22600632920E+03  0.22708735555E+03  0.47000000000E+01 0. -1.
        -11    1    6    6    0    0  0.91902496664E+01  0.25010681442E+02 -0.61053847245E+02  0.66615066904E+02  0.00000000000E+00 0.  1.
         12    1    6    6    0    0  0.96109467987E+02 -0.38402910004E+02 -0.13207756002E+03  0.16779837661E+03  0.00000000000E+00 0. -1.
         -5    1    3    3    0  503  0.22509621026E+02  0.46599545209E+02 -0.35193679808E+03  0.35575244271E+03  0.47000000000E+01 0.  1.
         13    1    4    4    0    0 -0.10188349122E+03  0.32176339898E+01 -0.66976163182E+03  0.67747416365E+03  0.00000000000E+00 0. -1.
        -14    1    4    4    0    0 -0.43726027358E+01 -0.34643418265E+02 -0.25391678224E+03  0.25630649307E+03  0.00000000000E+00 0.  1.
</event>
<event>
12    1  0.8258923E-002  0.1885771E+03  0.7818608E-02  0.1160709E+00
         21   -1    0    0  501  502  0.00000000000E+00  0.00000000000E+00  0.11672556221E+03  0.11672556221E+03  0.00000000000E+00 0.  1.
         21   -1    0    0  502  503 -0.00000000000E+00 -0.00000000000E+00 -0.42050920364E+03  0.42050920364E+03  0.00000000000E+00 0.  1.
         -6    2    1    2    0  503 -0.65494843474E+02 -0.16222842961E+02 -0.29808493292E+03  0.35272646982E+03  0.17609253284E+03 0.  0.
        -24    2    3    3    0    0  0.46774286192E+01  0.10486033021E+02 -0.51886932480E+02  0.95290929836E+02  0.79096601190E+02 0.  0.
          6    2    1    2  501    0  0.65494843474E+02  0.16222842961E+02 -0.56987085137E+01  0.18450829603E+03  0.17163356569E+03 0.  0.
         24    2    5    5    0    0  0.22846011217E+02  0.74651411277E+02  0.27768519470E+01  0.11152373867E+03  0.79593089809E+02 0.  0.
          5    1    5    5  501    0  0.42648832257E+02 -0.58428568316E+02 -0.84755604608E+01  0.72984557363E+02  0.47000000000E+01 0. -1.
        -11    1    6    6    0    0  0.19175159389E+01 -0.49334206316E+01  0.25588215564E+02  0.26129911639E+02  0.00000000000E+00 0.  1.
         12    1    6    6    0    0  0.20928495279E+02  0.79584831909E+02 -0.22811363617E+02  0.85393827029E+02  0.00000000000E+00 0. -1.
         -5    1    3    3    0  503 -0.70172272093E+02 -0.26708875982E+02 -0.24619800044E+03  0.25743553999E+03  0.47000000000E+01 0.  1.
         11    1    4    4    0    0  0.26116923572E+02 -0.26327509960E+02 -0.20477093447E+02  0.42362044729E+02  0.00000000000E+00 0. -1.
        -12    1    4    4    0    0 -0.21439494953E+02  0.36813542981E+02 -0.31409839033E+02  0.52928885107E+02  0.00000000000E+00 0.  1.
</event>
<event>
12    1  0.8258923E-002  0.1936582E+03  0.7818608E-02  0.1155827E+00
         21   -1    0    0  503  502  0.00000000000E+00  0.00000000000E+00  0.62708240227E+03  0.62708240227E+03  0.00000000000E+00 0.  1.
         21   -1    0    0  501  503 -0.00000000000E+00 -0.00000000000E+00 -0.21805755006E+03  0.21805755006E+03  0.00000000000E+00 0.  1.
          6    2    1    2  501    0 -0.72149320175E+02 -0.45111379865E+02 -0.15686109652E+03  0.24703425728E+03  0.17082142627E+03 0.  0.
         24    2    3    3    0    0  0.14717176645E+02 -0.45291456723E+02 -0.12205548075E+03  0.15333611650E+03  0.79665004236E+02 0.  0.
         -6    2    1    2    0  502  0.72149320175E+02  0.45111379865E+02  0.56588594873E+03  0.59810569504E+03  0.17396250884E+03 0.  0.
        -24    2    5    5    0    0 -0.91097707677E+01  0.33644017960E+02  0.14304696851E+03  0.16735120182E+03  0.79555525766E+02 0.  0.
          5    1    3    3  501    0 -0.86866496820E+02  0.18007685816E+00 -0.34805615768E+02  0.93698140784E+02  0.47000000000E+01 0. -1.
        -11    1    4    4    0    0 -0.22418434074E+02 -0.48649909921E+02 -0.86935704880E+02  0.10211374396E+03  0.00000000000E+00 0.  1.
         12    1    4    4    0    0  0.37135610719E+02  0.33584531974E+01 -0.35119775873E+02  0.51222372541E+02  0.00000000000E+00 0. -1.
         -5    1    5    5    0  502  0.81259090942E+02  0.11467361905E+02  0.42283898021E+03  0.43075449323E+03  0.47000000000E+01 0.  1.
         11    1    6    6    0    0 -0.13985903938E+02  0.22177072872E+01 -0.56835177474E+01  0.15258640456E+02  0.00000000000E+00 0. -1.
        -12    1    6    6    0    0  0.48761331701E+01  0.31426310673E+02  0.14873048626E+03  0.15209256136E+03  0.00000000000E+00 0.  1.
</event>
<event>
12    1  0.8258923E-002  0.2576855E+03  0.7818608E-02  0.1111123E+00
         21   -1    0    0  503  502  0.00000000000E+00  0.00000000000E+00  0.13353682035E+03  0.13353682035E+03  0.00000000000E+00 0. -1.
         21   -1    0    0  501  503 -0.00000000000E+00 -0.00000000000E+00 -0.56064897163E+03  0.56064897163E+03  0.00000000000E+00 0.  1.
          6    2    1    2  501    0  0.31996964802E+01 -0.17011457287E+03 -0.76927878249E+02  0.26892325576E+03  0.19352677613E+03 0.  0.
         24    2    3    3    0    0 -0.64043700180E+02 -0.37215199136E+02 -0.28928960891E+02  0.11236686337E+03  0.79390557530E+02 0.  0.
         -6    2    1    2    0  502 -0.31996964802E+01  0.17011457287E+03 -0.35018427303E+03  0.42526253622E+03  0.17108475582E+03 0.  0.
        -24    2    5    5    0    0  0.85047170002E+01  0.15109879743E+02 -0.15858140469E+03  0.17848896117E+03  0.80060031655E+02 0.  0.
          5    1    3    3  501    0  0.67243396660E+02 -0.13289937373E+03 -0.47998917358E+02  0.15655639240E+03  0.47000000000E+01 0. -1.
        -11    1    4    4    0    0 -0.65577776169E+02 -0.44301070003E+02 -0.47590447664E+02  0.92346522618E+02  0.00000000000E+00 0.  1.
         12    1    4    4    0    0  0.15340759891E+01  0.70858708672E+01  0.18661486773E+02  0.20020340748E+02  0.00000000000E+00 0. -1.
         -5    1    5    5    0  502 -0.11704413480E+02  0.15500469313E+03 -0.19160286833E+03  0.24677357504E+03  0.47000000000E+01 0.  1.
         11    1    6    6    0    0  0.40597093979E+02 -0.13246760082E+01 -0.52062297655E+02  0.66033034484E+02  0.00000000000E+00 0. -1.
        -12    1    6    6    0    0 -0.32092376979E+02  0.16434555752E+02 -0.10651910704E+03  0.11245592669E+03  0.00000000000E+00 0.  1.
</event>
<event>
12    1  0.8258923E-002  0.1775317E+03  0.7818608E-02  0.1171365E+00
         21   -1    0    0  501  502  0.00000000000E+00  0.00000000000E+00  0.67008710401E+02  0.67008710401E+02  0.00000000000E+00 0. -1.
         21   -1    0    0  502  503 -0.00000000000E+00 -0.00000000000E+00 -0.56454897518E+03  0.56454897518E+03  0.00000000000E+00 0. -1.
         -6    2    1    2    0  503  0.91258163425E+01 -0.41090674640E+02 -0.38314850558E+03  0.42036350742E+03  0.16772291726E+03 0.  0.
        -24    2    3    3    0    0  0.21324402310E+02 -0.79738880879E+02 -0.34843168065E+03  0.36679264520E+03  0.79493328261E+02 0.  0.
          6    2    1    2  501    0 -0.91258163425E+01  0.41090674640E+02 -0.11439175920E+03  0.21119417816E+03  0.17246965603E+03 0.  0.
         24    2    5    5    0    0 -0.16240726897E+02  0.53851566567E+02 -0.46392801710E+01  0.10037378759E+03  0.83003746194E+02 0.  0.
          5    1    5    5  501    0  0.71149105540E+01 -0.12760891926E+02 -0.10975247903E+03  0.11082039057E+03  0.47000000000E+01 0. -1.
        -13    1    6    6    0    0 -0.48171901790E+02  0.46849059571E+02  0.98397106499E+00  0.67203680731E+02  0.00000000000E+00 0.  1.
         14    1    6    6    0    0  0.31931174894E+02  0.70025069961E+01 -0.56232512360E+01  0.33170106855E+02  0.00000000000E+00 0. -1.
         -5    1    3    3    0  503 -0.12198585967E+02  0.38648206239E+02 -0.34716824932E+02  0.53570862215E+02  0.47000000000E+01 0.  1.
         13    1    4    4    0    0  0.30797575245E+00  0.12541634326E+02 -0.10272692311E+03  0.10349013562E+03  0.00000000000E+00 0. -1.
        -14    1    4    4    0    0  0.21016426557E+02 -0.92280515206E+02 -0.24570475754E+03  0.26330250958E+03  0.00000000000E+00 0.  1.
</event>
<event>
12    1  0.8258923E-002  0.1811739E+03  0.7818608E-02  0.1168039E+00
         21   -1    0    0  503  502  0.00000000000E+00  0.00000000000E+00  0.41957637985E+02  0.41957637985E+02  0.00000000000E+00 0.  1.
         21   -1    0    0  501  503 -0.00000000000E+00 -0.00000000000E+00 -0.75833781937E+03  0.75833781937E+03  0.00000000000E+00 0.  1.
          6    2    1    2  501    0  0.56641289798E+01  0.56045985095E+02 -0.36119115565E+03  0.40408294383E+03  0.17219390167E+03 0.  0.
         24    2    3    3    0    0 -0.36147122711E+01 -0.16068181930E+02 -0.29076495861E+03  0.30274938961E+03  0.82714443370E+02 0.  0.
         -6    2    1    2    0  502 -0.56641289798E+01 -0.56045985095E+02 -0.35518902574E+03  0.39621251352E+03  0.16628853559E+03 0.  0.
        -24    2    5    5    0    0  0.23851588076E+02 -0.52982031163E+02 -0.10197524374E+03  0.14122256321E+03  0.78542142475E+02 0.  0.
          5    1    3    3  501    0  0.92788412510E+01  0.72114167025E+02 -0.70426197041E+02  0.10133355422E+03  0.47000000000E+01 0. -1.
        -13    1    4    4    0    0 -0.13108641591E+02  0.26920641364E+02 -0.19579711748E+03  0.19807339203E+03  0.00000000000E+00 0.  1.
         14    1    4    4    0    0  0.94939293198E+01 -0.42988823294E+02 -0.94967841123E+02  0.10467599758E+03  0.00000000000E+00 0. -1.
         -5    1    5    5    0  502 -0.29515717056E+02 -0.30639539316E+01 -0.25321378200E+03  0.25498995031E+03  0.47000000000E+01 0.  1.
         11    1    6    6    0    0 -0.12069388554E+02  0.14482042957E+02 -0.34284466170E+02  0.39125750201E+02  0.00000000000E+00 0. -1.
        -12    1    6    6    0    0  0.35920976631E+02 -0.67464074120E+02 -0.67690777569E+02  0.10209681301E+03  0.00000000000E+00 0.  1.
</event>
<event>
12    1  0.8258923E-002  0.2219520E+03  0.7818608E-02  0.1133042E+00
         21   -1    0    0  501  502  0.00000000000E+00  0.00000000000E+00  0.82903987473E+02  0.82903987473E+02  0.00000000000E+00 0.  1.
         21   -1    0    0  502  503 -0.00000000000E+00 -0.00000000000E+00 -0.71849807644E+03  0.71849807644E+03  0.00000000000E+00 0. -1.
         -6    2    1    2    0  503  0.11967201958E+02  0.13665133700E+03 -0.48826736818E+03  0.53500410918E+03  0.17031609490E+03 0.  0.
        -24    2    3    3    0    0  0.50581021049E+00  0.17736728814E+02 -0.31032714623E+03  0.32062859722E+03  0.78644213231E+02 0.  0.
          6    2    1    2  501    0 -0.11967201958E+02 -0.13665133700E+03 -0.14732672079E+03  0.26639795473E+03  0.17448755200E+03 0.  0.
         24    2    5    5    0    0  0.47112435227E+02 -0.13265445502E+03 -0.97012773036E+02  0.18855219741E+03  0.79521487822E+02 0.  0.
          5    1    5    5  501    0 -0.59079637185E+02 -0.39968819784E+01 -0.50313947749E+02  0.77845757326E+02  0.47000000000E+01 0. -1.
        -13    1    6    6    0    0 -0.88120203990E+01 -0.70471965797E+02 -0.17477663603E+02  0.73139718292E+02  0.00000000000E+00 0.  1.
         14    1    6    6    0    0  0.55924455626E+02 -0.62182489222E+02 -0.79535109433E+02  0.11541247912E+03  0.00000000000E+00 0. -1.
         -5    1    3    3    0  503  0.11461391748E+02  0.11891460818E+03 -0.17794022195E+03  0.21437551196E+03  0.47000000000E+01 0.  1.
         11    1    4    4    0    0 -0.34599305200E+02  0.26140456517E+02 -0.19593671361E+03  0.20067792885E+03  0.00000000000E+00 0. -1.
        -12    1    4    4    0    0  0.35105115411E+02 -0.84037277025E+01 -0.11439043262E+03  0.11995066837E+03  0.00000000000E+00 0.  1.
</event>
<event>
12    1  0.8258923E-002  0.1741385E+03  0.7818608E-02  0.1178113E+00
         21   -1    0    0  503  502  0.00000000000E+00  0.00000000000E+00  0.62290461955E+03  0.62290461955E+03  0.00000000000E+00 0.  1.
         21   -1    0    0  501  503 -0.00000000000E+00 -0.00000000000E+00 -0.44438595002E+02  0.44438595002E+02  0.00000000000E+00 0.  1.
          6    2    1    2  501    0  0.32844400858E+02  0.67063785926E+01  0.30502909037E+03  0.34316428614E+03  0.15360745792E+03 0.  0.
         24    2    3    3    0    0  0.51565479258E+02 -0.38932599882E+02  0.23655942309E+03  0.25864458151E+03  0.82230851323E+02 0.  0.
         -6    2    1    2    0  502 -0.32844400858E+02 -0.67063785926E+01  0.27343693418E+03  0.32417892842E+03  0.17088151004E+03 0.  0.
        -24    2    5    5    0    0  0.22018412462E+02  0.50550965038E+02  0.14201936290E+03  0.17061786653E+03  0.76816315897E+02 0.  0.
          5    1    3    3  501    0 -0.18721078400E+02  0.45638978474E+02  0.68469667279E+02  0.84519704626E+02  0.47000000000E+01 0. -1.
        -13    1    4    4    0    0  0.25064581150E+02  0.11832059353E+01  0.99537820351E+01  0.26994647271E+02  0.00000000000E+00 0.  1.
         14    1    4    4    0    0  0.26500898108E+02 -0.40115805817E+02  0.22660564105E+03  0.23164993424E+03  0.00000000000E+00 0. -1.
         -5    1    5    5    0  502 -0.54862813320E+02 -0.57257343631E+02  0.13141757128E+03  0.15356106188E+03  0.47000000000E+01 0.  1.
         13    1    6    6    0    0 -0.93631190918E+01  0.27216705633E+02  0.64165353550E+01  0.29488794323E+02  0.00000000000E+00 0. -1.
        -14    1    6    6    0    0  0.31381531554E+02  0.23334259405E+02  0.13560282755E+03  0.14112907221E+03  0.00000000000E+00 0.  1.
</event>
<event>
12    1  0.8258923E-002  0.1753897E+03  0.7818608E-02  0.1174446E+00
         21   -1    0    0  503  502  0.00000000000E+00  0.00000000000E+00  0.22254147220E+03  0.22254147220E+03  0.00000000000E+00 0. -1.
         21   -1    0    0  501  503 -0.00000000000E+00 -0.00000000000E+00 -0.13344829251E+03  0.13344829251E+03  0.00000000000E+00 0. -1.
          6    2    1    2  501    0 -0.20839519869E+02 -0.27329224275E+02  0.23982994471E+02  0.16890450499E+03  0.16362266253E+03 0.  0.
         24    2    3    3    0    0 -0.14788546646E+02 -0.22025188510E+02  0.78200781292E+02  0.11389172938E+03  0.78435666544E+02 0.  0.
         -6    2    1    2    0  502  0.20839519869E+02  0.27329224275E+02  0.65110185221E+02  0.18708525973E+03  0.17198949415E+03 0.  0.
        -24    2    5    5    0    0  0.39503733419E+01 -0.50135458145E+02  0.26000441597E+02  0.98554573863E+02  0.80671007513E+02 0.  0.
          5    1    3    3  501    0 -0.60509732224E+01 -0.53040357651E+01 -0.54217786821E+02  0.55012775608E+02  0.47000000000E+01 0. -1.
        -11    1    4    4    0    0 -0.13525168676E+02 -0.48154412458E+02  0.70835805195E+02  0.86714986735E+02  0.00000000000E+00 0.  1.
         12    1    4    4    0    0 -0.12633779703E+01  0.26129223948E+02  0.73649760971E+01  0.27176742647E+02  0.00000000000E+00 0. -1.
         -5    1    5    5    0  502  0.16889146527E+02  0.77464682421E+02  0.39109743624E+02  0.88530685862E+02  0.47000000000E+01 0.  1.
         11    1    6    6    0    0 -0.34219816172E+02 -0.31317405049E+02  0.30869907869E+02  0.55720076182E+02  0.00000000000E+00 0. -1.
        -12    1    6    6    0    0  0.38170189514E+02 -0.18818053096E+02 -0.48694662721E+01  0.42834497681E+02  0.00000000000E+00 0.  1.
</event>
<event>
12    1  0.8258923E-002  0.2195578E+03  0.7818608E-02  0.1134694E+00
         21   -1    0    0  503  502  0.00000000000E+00  0.00000000000E+00  0.89646667671E+02  0.89646667671E+02  0.00000000000E+00 0. -1.
         21   -1    0    0  501  503 -0.00000000000E+00 -0.00000000000E+00 -0.53389061681E+03  0.53389061681E+03  0.00000000000E+00 0. -1.
          6    2    1    2  501    0  0.12646635101E+03  0.36529270422E+02 -0.20250757395E+03  0.29868874395E+03  0.17572001230E+03 0.  0.
         24    2    3    3    0    0  0.10816404298E+03  0.12819186496E+02 -0.51423081939E+02  0.14459216293E+03  0.79992302669E+02 0.  0.
         -6    2    1    2    0  502 -0.12646635101E+03 -0.36529270422E+02 -0.24173637519E+03  0.32484854053E+03  0.17251658952E+03 0.  0.
        -24    2    5    5    0    0 -0.51075746796E+02 -0.16479180182E+01 -0.31984377561E+02  0.99197388395E+02  0.78776099878E+02 0.  0.
          5    1    3    3  501    0  0.18302308025E+02  0.23710083926E+02 -0.15108449201E+03  0.15409658103E+03  0.47000000000E+01 0. -1.
        -11    1    4    4    0    0  0.73454800946E+02 -0.27813249101E+02 -0.15114088643E+02  0.79985125387E+02  0.00000000000E+00 0.  1.
         12    1    4    4    0    0  0.34709242039E+02  0.40632435597E+02 -0.36308993296E+02  0.64607037539E+02  0.00000000000E+00 0. -1.
         -5    1    5    5    0  502 -0.75390604214E+02 -0.34881352403E+02 -0.20975199763E+03  0.22565115214E+03  0.47000000000E+01 0.  1.
         11    1    6    6    0    0 -0.63162770073E+02 -0.10051194593E+02 -0.46070285598E+02  0.78822796519E+02  0.00000000000E+00 0. -1.
        -12    1    6    6    0    0  0.12087023277E+02  0.84032765744E+01  0.14085908037E+02  0.20374591876E+02  0.00000000000E+00 0.  1.
</event>
<event>
12    1  0.8258923E-002  0.2374083E+03  0.7818608E-02  0.1121899E+00
         21   -1    0    0  503  502  0.00000000000E+00  0.00000000000E+00  0.24027066535E+03  0.24027066535E+03  0.00000000000E+00 0. -1.
         21   -1    0    0  501  503 -0.00000000000E+00 -0.00000000000E+00 -0.27176065511E+03  0.27176065511E+03  0.00000000000E+00 0.  1.
          6    2    1    2  501    0  0.16047021527E+03 -0.30169373139E+02 -0.11318495244E+03  0.26300860586E+03  0.17234213714E+03 0.  0.
         24    2    3    3    0    0  0.17705332857E+03  0.21763972535E+01 -0.70643354999E+02  0.20685590316E+03  0.80288624375E+02 0.  0.
         -6    2    1    2    0  502 -0.16047021527E+03  0.30169373139E+02  0.81694962674E+02  0.24902271460E+03  0.16934392341E+03 0.  0.
        -24    2    5    5    0    0 -0.12590018309E+03 -0.64532831651E+00  0.11835253125E+03  0.18977323962E+03  0.78455645256E+02 0.  0.
          5    1    3    3  501    0 -0.16583113292E+02 -0.32345770393E+02 -0.42541597438E+02  0.56152702708E+02  0.47000000000E+01 0. -1.
        -13    1    4    4    0    0  0.12002756566E+02  0.22959136282E+02 -0.20715638119E+02  0.33171158657E+02  0.00000000000E+00 0.  1.
         14    1    4    4    0    0  0.16505057200E+03 -0.20782739029E+02 -0.49927716880E+02  0.17368474450E+03  0.00000000000E+00 0. -1.
         -5    1    5    5    0  502 -0.34570032185E+02  0.30814701456E+02 -0.36657568579E+02  0.59249474978E+02  0.47000000000E+01 0.  1.
         13    1    6    6    0    0 -0.89976207411E+02 -0.71729298091E+01  0.31571401743E+02  0.95623858059E+02  0.00000000000E+00 0. -1.
        -14    1    6    6    0    0 -0.35923975677E+02  0.65276014926E+01  0.86781129510E+02  0.94149381564E+02  0.00000000000E+00 0.  1.
</event>
<event>
12    1  0.8258923E-002  0.2007448E+03  0.7818608E-02  0.1149150E+00
         21   -1    0    0  503  502  0.00000000000E+00  0.00000000000E+00  0.69757574441E+02  0.69757574441E+02  0.00000000000E+00 0. -1.
         21   -1    0    0  501  503 -0.00000000000E+00 -0.00000000000E+00 -0.80952309172E+03  0.80952309172E+03  0.00000000000E+00 0. -1.
          6    2    1    2  501    0  0.83048851391E+02  0.58497619628E+02 -0.60552979983E+03  0.63793792585E+03  0.17314553282E+03 0.  0.
         24    2    3    3    0    0  0.86121191470E+02  0.78253645404E+02 -0.60043328220E+03  0.61677653837E+03  0.79703696749E+02 0.  0.
         -6    2    1    2    0  502 -0.83048851391E+02 -0.58497619628E+02 -0.13423571745E+03  0.24134274031E+03  0.17293931665E+03 0.  0.
        -24    2    5    5    0    0 -0.84834310932E+02 -0.98313086490E+01 -0.25258745557E+02  0.12188702428E+03  0.83216149390E+02 0.  0.
          5    1    3    3  501    0 -0.30723400789E+01 -0.19756025776E+02 -0.50965176329E+01  0.21161387479E+02  0.47000000000E+01 0. -1.
        -11    1    4    4    0    0  0.62760258200E+01 -0.16128720258E+02 -0.66058667240E+02  0.68288151496E+02  0.00000000000E+00 0.  1.
         12    1    4    4    0    0  0.79845165650E+02  0.94382365662E+02 -0.53437461496E+03  0.54848838688E+03  0.00000000000E+00 0. -1.
         -5    1    5    5    0  502  0.17854595411E+01 -0.48666310979E+02 -0.10897697189E+03  0.11945571603E+03  0.47000000000E+01 0.  1.
         13    1    6    6    0    0 -0.38928530465E+02 -0.14733645689E+02  0.28936597120E+02  0.50693564210E+02  0.00000000000E+00 0. -1.
        -14    1    6    6    0    0 -0.45905780467E+02  0.49023370402E+01 -0.54195342676E+02  0.71193460068E+02  0.00000000000E+00 0.  1.
</event>
<event>
12    1  0.8258923E-002  0.2716301E+03  0.7818608E-02  0.1100568E+00
         21   -1    0    0  501  502  0.00000000000E+00  0.00000000000E+00  0.36193133283E+03  0.36193133283E+03  0.00000000000E+00 0. -1.
         21   -1    0    0  502  503 -0.00000000000E+00 -0.00000000000E+00 -0.27842403021E+03  0.27842403021E+03  0.00000000000E+00 0.  1.
         -6    2    1    2    0  503  0.10295103961E+03  0.18261429893E+03 -0.12529149762E+03  0.29774792519E+03  0.17032019507E+03 0.  0.
        -24    2    3    3    0    0  0.29406396533E+02  0.13813411289E+03 -0.13505012891E+03  0.21111870171E+03  0.79917454880E+02 0.  0.
          6    2    1    2  501    0 -0.10295103961E+03 -0.18261429893E+03  0.20879880024E+03  0.34260743785E+03  0.17273105905E+03 0.  0.
         24    2    5    5    0    0 -0.35399421590E+02 -0.18528749515E+03  0.15399365908E+03  0.25545205608E+03  0.77182452724E+02 0.  0.
          5    1    5    5  501    0 -0.67551618017E+02  0.26731962255E+01  0.54805141164E+02  0.87155381778E+02  0.47000000000E+01 0. -1.
        -11    1    6    6    0    0  0.15211578395E+02 -0.20351479044E+02  0.19381652847E+01  0.25481979932E+02  0.00000000000E+00 0.  1.
         12    1    6    6    0    0 -0.50610999985E+02 -0.16493601611E+03  0.15205549379E+03  0.22997007615E+03  0.00000000000E+00 0. -1.
         -5    1    3    3    0  503  0.73544643075E+02  0.44480186035E+02  0.97586312882E+01  0.86629223472E+02  0.47000000000E+01 0.  1.
         13    1    4    4    0    0 -0.23107712057E+02  0.49740997995E+02 -0.24263047033E+02  0.59973566589E+02  0.00000000000E+00 0. -1.
        -14    1    4    4    0    0  0.52514108590E+02  0.88393114898E+02 -0.11078708187E+03  0.15114513513E+03  0.00000000000E+00 0.  1.
</event>
<event>
12    1  0.8258923E-002  0.2019609E+03  0.7818608E-02  0.1148514E+00
         21   -1    0    0  501  502  0.00000000000E+00  0.00000000000E+00  0.44820282364E+02  0.44820282364E+02  0.00000000000E+00 0.  1.
         21   -1    0    0  502  503 -0.00000000000E+00 -0.00000000000E+00 -0.12395719979E+04  0.12395719979E+04  0.00000000000E+00 0.  1.
         -6    2    1    2    0  503  0.63753611222E+02 -0.79835767209E+02 -0.93081586726E+03  0.95205157097E+03  0.17188874996E+03 0.  0.
        -24    2    3    3    0    0  0.50514712250E+02 -0.39742791439E+02 -0.24051619781E+03  0.26044587493E+03  0.76503507967E+02 0.  0.
          6    2    1    2  501    0 -0.63753611222E+02  0.79835767209E+02 -0.26393584827E+03  0.33234070930E+03  0.17421234854E+03 0.  0.
         24    2    5    5    0    0 -0.32303641459E+02  0.12034605260E+03 -0.17259431761E+03  0.22748104572E+03  0.80200561501E+02 0.  0.
          5    1    5    5  501    0 -0.31449969763E+02 -0.40510285391E+02 -0.91341530664E+02  0.10485966357E+03  0.47000000000E+01 0. -1.
        -13    1    6    6    0    0 -0.91442179125E+01  0.19311327740E+02  0.49136490051E+01  0.21924599127E+02  0.00000000000E+00 0.  1.
         14    1    6    6    0    0 -0.23159423547E+02  0.10103472486E+03 -0.17750796661E+03  0.20555644660E+03  0.00000000000E+00 0. -1.
         -5    1    3    3    0  503  0.13238898972E+02 -0.40092975770E+02 -0.69029966945E+03  0.69160569604E+03  0.47000000000E+01 0.  1.
         11    1    4    4    0    0  0.53405993070E+02 -0.51193199261E+02 -0.13223373955E+03  0.15152130418E+03  0.00000000000E+00 0. -1.
        -12    1    4    4    0    0 -0.28912808198E+01  0.11450407822E+02 -0.10828245826E+03  0.10892457074E+03  0.00000000000E+00 0.  1.
</event>
<event>
12    1  0.8258923E-002  0.3300140E+03  0.7818608E-02  0.1071147E+00
         21   -1    0    0  501  502  0.00000000000E+00  0.00000000000E+00  0.40370125984E+03  0.40370125984E+03  0.00000000000E+00 0.  1.
         21   -1    0    0  502  503 -0.00000000000E+00 -0.00000000000E+00 -0.41590874316E+03  0.41590874316E+03  0.00000000000E+00 0.  1.
         -6    2    1    2    0  503  0.23221926215E+03  0.15939186127E+03 -0.24911709340E+03  0.41348345022E+03  0.17198164505E+03 0.  0.
        -24    2    3    3    0    0  0.12605478312E+03  0.14818176283E+03 -0.11027401024E+03  0.23828055454E+03  0.82277713597E+02 0.  0.
          6    2    1    2  501    0 -0.23221926215E+03 -0.15939186127E+03  0.23690961008E+03  0.40612655278E+03  0.17170050196E+03 0.  0.
         24    2    5    5    0    0 -0.48910303420E+02 -0.71193031503E+02  0.45773513657E+02  0.12695580704E+03  0.81005536062E+02 0.  0.
          5    1    5    5  501    0 -0.18330895873E+03 -0.88198829771E+02  0.19113609642E+03  0.27917074574E+03  0.47000000000E+01 0. -1.
        -13    1    6    6    0    0 -0.36001882690E+02 -0.88638595960E+02  0.43624600153E+02  0.10514771509E+03  0.00000000000E+00 0.  1.
         14    1    6    6    0    0 -0.12908420730E+02  0.17445564457E+02  0.21489135043E+01  0.21808091943E+02  0.00000000000E+00 0. -1.
         -5    1    3    3    0  503  0.10616447903E+03  0.11210098440E+02 -0.13884308316E+03  0.17520289568E+03  0.47000000000E+01 0.  1.
         13    1    4    4    0    0 -0.12079697799E+02  0.15337077661E+02 -0.86102737898E+01  0.21337334998E+02  0.00000000000E+00 0. -1.
        -14    1    4    4    0    0  0.13813448092E+03  0.13284468517E+03 -0.10166373645E+03  0.21694321954E+03  0.00000000000E+00 0.  1.
</event>
<event>
12    1  0.8258923E-002  0.1740960E+03  0.7818608E-02  0.1173727E+00
         21   -1    0    0  501  502  0.00000000000E+00  0.00000000000E+00  0.14915298330E+03  0.14915298330E+03  0.00000000000E+00 0.  1.
         21   -1    0    0  502  503 -0.00000000000E+00 -0.00000000000E+00 -0.44030637405E+03  0.44030637405E+03  0.00000000000E+00 0.  1.
         -6    2    1    2    0  503 -0.98659432056E+01 -0.20564228123E+02 -0.36196601596E+03  0.40151301186E+03  0.17225875208E+03 0.  0.
        -24    2    3    3    0    0 -0.39810017695E+02 -0.16050021387E+02 -0.90251357381E+02  0.12807568569E+03  0.80097647027E+02 0.  0.
          6    2    1    2  501    0  0.98659432056E+01  0.20564228123E+02  0.70812625203E+02  0.18794634550E+03  0.17259541299E+03 0.  0.
         24    2    5    5    0    0 -0.24291374889E+02  0.70165645001E+02  0.42741015306E+02  0.12133457313E+03  0.85918540578E+02 0.  0.
          5    1    5    5  501    0  0.34157318094E+02 -0.49601416878E+02  0.28071609897E+02  0.66611772367E+02  0.47000000000E+01 0. -1.
        -13    1    6    6    0    0 -0.43446450797E+02  0.14681337330E+02  0.42664154917E+02  0.62636777275E+02  0.00000000000E+00 0.  1.
         14    1    6    6    0    0  0.19155075908E+02  0.55484307671E+02  0.76860389452E-01  0.58697795856E+02  0.00000000000E+00 0. -1.
         -5    1    3    3    0  503  0.29944074490E+02 -0.45142067359E+01 -0.27171465858E+03  0.27343732617E+03  0.47000000000E+01 0.  1.
         11    1    4    4    0    0 -0.38166643452E+02  0.24690865965E+02 -0.67512910233E+02  0.81389953819E+02  0.00000000000E+00 0. -1.
        -12    1    4    4    0    0 -0.16433742429E+01 -0.40740887353E+02 -0.22738447148E+02  0.46685731866E+02  0.00000000000E+00 0.  1.
</event>
<event>
12    1  0.8258923E-002  0.1926411E+03  0.7818608E-02  0.1156513E+00
         21   -1    0    0  503  502  0.00000000000E+00  0.00000000000E+00  0.32152647166E+03  0.32152647166E+03  0.00000000000E+00 0.  1.
         21   -1    0    0  501  503 -0.00000000000E+00 -0.00000000000E+00 -0.52014019961E+03  0.52014019961E+03  0.00000000000E+00 0.  1.
          6    2    1    2  501    0  0.32093002147E+02  0.81733797687E+02 -0.47092430000E+03  0.50810462525E+03  0.16938193351E+03 0.  0.
         24    2    3    3    0    0 -0.25408934862E+02  0.90916487117E+02 -0.38523231715E+03  0.40439348568E+03  0.78858934115E+02 0.  0.
         -6    2    1    2    0  502 -0.32093002147E+02 -0.81733797687E+02  0.27231057206E+03  0.33356204601E+03  0.17146491307E+03 0.  0.
        -24    2    5    5    0    0  0.40460487103E+02 -0.41397532465E+02  0.92128133845E+02  0.13512106200E+03  0.80120544431E+02 0.  0.
          5    1    3    3  501    0  0.57501937009E+02 -0.91826894301E+01 -0.85691982857E+02  0.10371113957E+03  0.47000000000E+01 0. -1.
        -13    1    4    4    0    0  0.60927990298E+01 -0.12922832397E+02 -0.37810350983E+02  0.40419604632E+02  0.00000000000E+00 0.  1.
         14    1    4    4    0    0 -0.31501733892E+02  0.10383931951E+03 -0.34742196616E+03  0.36397388105E+03  0.00000000000E+00 0. -1.
         -5    1    5    5    0  502 -0.72553489251E+02 -0.40336265222E+02  0.18018243822E+03  0.19844098401E+03  0.47000000000E+01 0.  1.
         11    1    6    6    0    0  0.34123244309E+02  0.10093501006E+02  0.70385717686E+02  0.78869663490E+02  0.00000000000E+00 0. -1.
        -12    1    6    6    0    0  0.63372427945E+01 -0.51491033471E+02  0.21742416159E+02  0.56251398512E+02  0.00000000000E+00 0.  1.
</event>
<event>
12    1  0.8258923E-002  0.1980266E+03  0.7818608E-02  0.1151617E+00
         21   -1    0    0  501  502  0.00000000000E+00  0.00000000000E+00  0.83079008407E+03  0.83079008407E+03  0.00000000000E+00 0.  1.
         21   -1    0    0  502  503 -0.00000000000E+00 -0.00000000000E+00 -0.46977091581E+02  0.46977091581E+02  0.00000000000E+00 0.  1.
         -6    2    1    2    0  503 -0.94703367596E+02  0.24495718500E+02  0.39467703903E+03  0.44157048670E+03  0.17217944573E+03 0.  0.
        -24    2    3    3    0    0 -0.28470187637E+02 -0.15042542153E+01  0.60649975804E+02  0.10001668176E+03  0.74243536417E+02 0.  0.
          6    2    1    2  501    0  0.94703367596E+02 -0.24495718500E+02  0.38913595347E+03  0.43619668895E+03  0.17109059914E+03 0.  0.
         24    2    5    5    0    0  0.12214477808E+03  0.63881066562E+00  0.36145812066E+03  0.38958201321E+03  0.78755426055E+02 0.  0.
          5    1    5    5  501    0 -0.27441410484E+02 -0.25134529166E+02  0.27677832807E+02  0.46614675743E+02  0.47000000000E+01 0. -1.
        -13    1    6    6    0    0  0.26662469952E+02 -0.29472777762E+02  0.15664802352E+03  0.16161106152E+03  0.00000000000E+00 0.  1.
         14    1    6    6    0    0  0.95482308128E+02  0.30111588427E+02  0.20481009714E+03  0.22797095169E+03  0.00000000000E+00 0. -1.
         -5    1    3    3    0  503 -0.66233179958E+02  0.25999972715E+02  0.33402706322E+03  0.34155380495E+03  0.47000000000E+01 0.  1.
         13    1    4    4    0    0 -0.23869132631E+02 -0.30518283455E+02  0.59012561745E+02  0.70594500928E+02  0.00000000000E+00 0. -1.
        -14    1    4    4    0    0 -0.46010550066E+01  0.29014029239E+02  0.16374140591E+01  0.29422180828E+02  0.00000000000E+00 0.  1.
</event>
<event>
12    1  0.8258923E-002  0.2095179E+03  0.7818608E-02  0.1142028E+00
         21   -1    0    0  501  502  0.00000000000E+00  0.00000000000E+00  0.12080610804E+03  0.12080610804E+03  0.00000000000E+00 0.  1.
         21   -1    0    0  502  503 -0.00000000000E+00 -0.00000000000E+00 -0.43112251718E+03  0.43112251718E+03  0.00000000000E+00 0. -1.
         -6    2    1    2    0  503  0.17640228614E+02 -0.11821010381E+03 -0.45075170880E+02  0.21391876451E+03  0.17159446516E+03 0.  0.
        -24    2    3    3    0    0  0.12572790783E+01 -0.13066289274E+03 -0.79058694561E+02  0.17391322902E+03  0.83193519906E+02 0.  0.
          6    2    1    2  501    0 -0.17640228614E+02  0.11821010381E+03 -0.26524123826E+03  0.33800986071E+03  0.17208412231E+03 0.  0.
         24    2    5    5    0    0 -0.31177404565E+01  0.14561789758E+03 -0.16712849876E+03  0.23500360131E+03  0.77977337281E+02 0.  0.
          5    1    5    5  501    0 -0.14522488157E+02 -0.27407793775E+02 -0.98112739503E+02  0.10300625940E+03  0.47000000000E+01 0. -1.
        -13    1    6    6    0    0  0.33350447992E+02  0.71532191642E+02 -0.10652009951E+03  0.13257314367E+03  0.00000000000E+00 0.  1.
         14    1    6    6    0    0 -0.36468188449E+02  0.74085705939E+02 -0.60608399253E+02  0.10243045764E+03  0.00000000000E+00 0. -1.
         -5    1    3    3    0  503  0.16382949535E+02  0.12452788932E+02  0.33983523681E+02  0.40005535485E+02  0.47000000000E+01 0.  1.
         11    1    4    4    0    0 -0.16380042147E+02 -0.11597031538E+03 -0.31780104216E+02  0.12135647842E+03  0.00000000000E+00 0. -1.
        -12    1    4    4    0    0  0.17637321226E+02 -0.14692577362E+02 -0.47278590345E+02  0.52556750609E+02  0.00000000000E+00 0.  1.
</event>
<event>
12    1  0.8258923E-002  0.1877156E+03  0.7818608E-02  0.1160839E+00
         21   -1    0    0  501  502  0.00000000000E+00  0.00000000000E+00  0.24784661063E+03  0.24784661063E+03  0.00000000000E+00 0.  1.
         21   -1    0    0  502  503 -0.00000000000E+00 -0.00000000000E+00 -0.17604085813E+03  0.17604085813E+03  0.00000000000E+00 0.  1.
         -6    2    1    2    0  503  0.63125751648E+02  0.38943927353E+02 -0.58509608869E+02  0.19537215661E+03  0.17101290960E+03 0.  0.
        -24    2    3    3    0    0 -0.10407490479E+02  0.70305777396E+02 -0.34988465058E+02  0.11190936525E+03  0.79046158349E+02 0.  0.
          6    2    1    2  501    0 -0.63125751648E+02 -0.38943927353E+02  0.13031536137E+03  0.22851531214E+03  0.17244032149E+03 0.  0.
         24    2    5    5    0    0 -0.50082051651E+02  0.33393089511E+02  0.31395317204E+02  0.10518629181E+03  0.80344133067E+02 0.  0.
          5    1    5    5  501    0 -0.13043699997E+02 -0.72337016864E+02  0.98920044166E+02  0.12332902033E+03  0.47000000000E+01 0. -1.
        -13    1    6    6    0    0  0.13118867532E+01  0.20417748048E+02  0.45880889672E+02  0.50236057959E+02  0.00000000000E+00 0.  1.
         14    1    6    6    0    0 -0.51393938404E+02  0.12975341463E+02 -0.14485572468E+02  0.54950233853E+02  0.00000000000E+00 0. -1.
         -5    1    3    3    0  503  0.73533242127E+02 -0.31361850043E+02 -0.23521143811E+02  0.83462791362E+02  0.47000000000E+01 0.  1.
         13    1    4    4    0    0  0.52920512580E+01 -0.15186212741E+02  0.41105164736E+01  0.16598891819E+02  0.00000000000E+00 0. -1.
        -14    1    4    4    0    0 -0.15699541737E+02  0.85491990137E+02 -0.39098981532E+02  0.95310473429E+02  0.00000000000E+00 0.  1.
</event>
<event>
12    1  0.8258923E-002  0.1806162E+03  0.7818608E-02  0.1167907E+00
         21   -1    0    0  501  502  0.00000000000E+00  0.00000000000E+00  0.38718271445E+02  0.38718271445E+02  0.00000000000E+00 0.  1.
         21   -1    0    0  502  503 -0.00000000000E+00 -0.00000000000E+00 -0.99884202366E+03  0.99884202366E+03  0.00000000000E+00 0.  1.
         -6    2    1    2    0  503 -0.47682491154E+02 -0.18424513277E+02 -0.69065979299E+03  0.71316388141E+03  0.17023128223E+03 0.  0.
        -24    2    3    3    0    0 -0.31219652746E+01  0.50259211537E+02 -0.37424505971E+03  0.38629469052E+03  0.81415527963E+02 0.  0.
          6    2    1    2  501    0  0.47682491154E+02  0.18424513277E+02 -0.26946395923E+03  0.32439641370E+03  0.17323142106E+03 0.  0.
         24    2    5    5    0    0  0.28733748989E+02  0.75119783151E+02 -0.21881880822E+03  0.24590800833E+03  0.78233417282E+02 0.  0.
          5    1    5    5  501    0  0.18948742165E+02 -0.56695269875E+02 -0.50645151011E+02  0.78488405365E+02  0.47000000000E+01 0. -1.
        -13    1    6    6    0    0  0.12652580549E+02  0.47654849063E+02 -0.20562718455E+03  0.21145593266E+03  0.00000000000E+00 0.  1.
         14    1    6    6    0    0  0.16081168439E+02  0.27464934089E+02 -0.13191623676E+02  0.34452075672E+02  0.00000000000E+00 0. -1.
         -5    1    3    3    0  503 -0.44560525879E+02 -0.68683724813E+02 -0.31641473328E+03  0.32686919090E+03  0.47000000000E+01 0.  1.
         11    1    4    4    0    0  0.12993696300E+02  0.38867701715E+02 -0.67861725782E+02  0.79276403843E+02  0.00000000000E+00 0. -1.
        -12    1    4    4    0    0 -0.16115661575E+02  0.11391509821E+02 -0.30638333393E+03  0.30701828667E+03  0.00000000000E+00 0.  1.
</event>
<event>
12    1  0.8258923E-002  0.2024613E+03  0.7818608E-02  0.1147936E+00
         21   -1    0    0  501  502  0.00000000000E+00  0.00000000000E+00  0.97055103202E+02  0.97055103202E+02  0.00000000000E+00 0.  1.
         21   -1    0    0  502  503 -0.00000000000E+00 -0.00000000000E+00 -0.42123322007E+03  0.42123322007E+03  0.00000000000E+00 0. -1.
         -6    2    1    2    0  503  0.10005562139E+03 -0.24135258702E+02 -0.14631653120E+03  0.24879744388E+03  0.17291038921E+03 0.  0.
        -24    2    3    3    0    0  0.68448400654E+02  0.50355891961E+02 -0.79257088225E+02  0.14359760157E+03  0.84366377997E+02 0.  0.
          6    2    1    2  501    0 -0.10005562139E+03  0.24135258702E+02 -0.17786158568E+03  0.26949087940E+03  0.17434721774E+03 0.  0.
         24    2    5    5    0    0 -0.10323258582E+03 -0.38861940402E+02 -0.13673443878E+03  0.19404372962E+03  0.82398088988E+02 0.  0.
          5    1    5    5  501    0  0.31769644284E+01  0.62997199104E+02 -0.41127146899E+02  0.75447149780E+02  0.47000000000E+01 0. -1.
        -13    1    6    6    0    0 -0.24962313530E+02  0.25983723398E+02 -0.34805084779E+02  0.50096555819E+02  0.00000000000E+00 0.  1.
         14    1    6    6    0    0 -0.78270272290E+02 -0.64845663800E+02 -0.10192935400E+03  0.14394717380E+03  0.00000000000E+00 0. -1.
         -5    1    3    3    0  503  0.31607220737E+02 -0.74491150663E+02 -0.67059442971E+02  0.10519984231E+03  0.47000000000E+01 0.  1.
         11    1    4    4    0    0 -0.10400341585E+02  0.38145216029E+02 -0.20711869247E+02  0.44634136473E+02  0.00000000000E+00 0. -1.
        -12    1    4    4    0    0  0.78848742239E+02  0.12210675932E+02 -0.58545218978E+02  0.98963465099E+02  0.00000000000E+00 0.  1.
</event>
<event>
12    1  0.8258923E-002  0.1973088E+03  0.7818608E-02  0.1152118E+00
         21   -1    0    0  501  502  0.00000000000E+00  0.00000000000E+00  0.13942931418E+03  0.13942931418E+03  0.00000000000E+00 0. -1.
         21   -1    0    0  502  503 -0.00000000000E+00 -0.00000000000E+00 -0.30127952118E+03  0.30127952118E+03  0.00000000000E+00 0. -1.
         -6    2    1    2    0  503  0.56008055436E+02 -0.78954228110E+02 -0.20436561179E+02  0.19795671037E+03  0.17146000623E+03 0.  0.
        -24    2    3    3    0    0  0.95298328947E+02 -0.78786681863E+02 -0.41392485333E+02  0.15317954630E+03  0.80383597984E+02 0.  0.
          6    2    1    2  501    0 -0.56008055436E+02  0.78954228110E+02 -0.14141364582E+03  0.24275212499E+03  0.17193051664E+03 0.  0.
         24    2    5    5    0    0  0.75913574295E+01 -0.69126204446E+01 -0.99485586768E+02  0.12786934502E+03  0.79672921321E+02 0.  0.
          5    1    5    5  501    0 -0.63599412865E+02  0.85866848555E+02 -0.41928059050E+02  0.11488277997E+03  0.47000000000E+01 0. -1.
        -11    1    6    6    0    0  0.20535021005E+02 -0.14569217273E+02  0.20167461514E+01  0.25258987404E+02  0.00000000000E+00 0.  1.
         12    1    6    6    0    0 -0.12943663576E+02  0.76565968280E+01 -0.10150233292E+03  0.10261035761E+03  0.00000000000E+00 0. -1.
         -5    1    3    3    0  503 -0.39290273511E+02 -0.16754624730E+00  0.20955924154E+02  0.44777164062E+02  0.47000000000E+01 0.  1.
         11    1    4    4    0    0  0.40955069629E+02 -0.25959679489E+02 -0.57993664090E+02  0.75594231011E+02  0.00000000000E+00 0. -1.
        -12    1    4    4    0    0  0.54343259318E+02 -0.52827002374E+02  0.16601178757E+02  0.77585315294E+02  0.00000000000E+00 0.  1.
</event>
<event>
12    1  0.8258923E-002  0.1790169E+03  0.7818608E-02  0.1169013E+00
         21   -1    0    0  503  502  0.00000000000E+00  0.00000000000E+00  0.64622837580E+02  0.64622837580E+02  0.00000000000E+00 0.  1.
         21   -1    0    0  501  503 -0.00000000000E+00 -0.00000000000E+00 -0.49377061926E+03  0.49377061926E+03  0.00000000000E+00 0.  1.
          6    2    1    2  501    0  0.32422420374E+02  0.35044846676E+02 -0.22606413561E+03  0.28836098404E+03  0.17253321155E+03 0.  0.
         24    2    3    3    0    0 -0.19941174785E+02 -0.31211956154E+02 -0.15518524006E+03  0.17800783341E+03  0.78946142183E+02 0.  0.
         -6    2    1    2    0  502 -0.32422420374E+02 -0.35044846676E+02 -0.20308364607E+03  0.27003247280E+03  0.17145032646E+03 0.  0.
        -24    2    5    5    0    0 -0.26778620051E+01 -0.49619349836E+02 -0.21486017459E+03  0.23456514250E+03  0.79916585434E+02 0.  0.
          5    1    3    3  501    0  0.52363595160E+02  0.66256802830E+02 -0.70878895551E+02  0.11035315063E+03  0.47000000000E+01 0. -1.
        -11    1    4    4    0    0 -0.77114225379E+01 -0.42156273069E+02 -0.15579790880E+03  0.16158467063E+03  0.00000000000E+00 0.  1.
         12    1    4    4    0    0 -0.12229752247E+02  0.10944316915E+02  0.61266874127E+00  0.16423162782E+02  0.00000000000E+00 0. -1.
         -5    1    5    5    0  502 -0.29744558369E+02  0.14574503159E+02  0.11776528515E+02  0.35467330303E+02  0.47000000000E+01 0.  1.
         11    1    6    6    0    0  0.34468788484E+02 -0.36820399396E+01 -0.89619178145E+02  0.96089811578E+02  0.00000000000E+00 0. -1.
        -12    1    6    6    0    0 -0.37146650489E+02 -0.45937309896E+02 -0.12524099644E+03  0.13847533092E+03  0.00000000000E+00 0.  1.
</event>
<event>
12    1  0.8258923E-002  0.3085800E+03  0.7818608E-02  0.1081457E+00
         21   -1    0    0  503  502  0.00000000000E+00  0.00000000000E+00  0.97571603199E+02  0.97571603199E+02  0.00000000000E+00 0. -1.
         21   -1    0    0  501  503 -0.00000000000E+00 -0.00000000000E+00 -0.96547496787E+03  0.96547496787E+03  0.00000000000E+00 0.  1.
          6    2    1    2  501    0  0.15180352409E+03  0.20522615914E+03 -0.41706689594E+03  0.51671780506E+03  0.16700421568E+03 0.  0.
         24    2    3    3    0    0  0.12425191372E+03  0.69847212394E+02 -0.19429394500E+03  0.25454147484E+03  0.82000330544E+02 0.  0.
         -6    2    1    2    0  502 -0.15180352409E+03 -0.20522615914E+03 -0.45083646873E+03  0.54632876601E+03  0.17337679405E+03 0.  0.
        -24    2    5    5    0    0 -0.11826536566E+03 -0.62580248260E+02 -0.18069957698E+03  0.23897116607E+03  0.80943788538E+02 0.  0.
          5    1    3    3  501    0  0.27551610372E+02  0.13537894674E+03 -0.22277295094E+03  0.26217633022E+03  0.47000000000E+01 0. -1.
        -13    1    4    4    0    0  0.65433162913E+02  0.78420885980E+02 -0.99074867132E+02  0.14229252779E+03  0.00000000000E+00 0.  1.
         14    1    4    4    0    0  0.58818750802E+02 -0.85736735860E+01 -0.95219077871E+02  0.11224894706E+03  0.00000000000E+00 0. -1.
         -5    1    5    5    0  502 -0.33538158428E+02 -0.14264591088E+03 -0.27013689174E+03  0.30735759994E+03  0.47000000000E+01 0.  1.
         13    1    6    6    0    0 -0.60294369002E+02 -0.69025020374E+02 -0.75753940318E+02  0.11890552487E+03  0.00000000000E+00 0. -1.
        -14    1    6    6    0    0 -0.57970996658E+02  0.64447721141E+01 -0.10494563666E+03  0.12006564120E+03  0.00000000000E+00 0.  1.
</event>
<event>
12    1  0.8258923E-002  0.1753826E+03  0.7818608E-02  0.1172993E+00
         21   -1    0    0  501  502  0.00000000000E+00  0.00000000000E+00  0.43204265225E+02  0.43204265225E+02  0.00000000000E+00 0.  1.
         21   -1    0    0  502  503 -0.00000000000E+00 -0.00000000000E+00 -0.70695571288E+03  0.70695571288E+03  0.00000000000E+00 0.  1.
         -6    2    1    2    0  503 -0.25370713484E+02 -0.41109494942E+01 -0.30167588178E+03  0.34895183310E+03  0.17348910964E+03 0.  0.
        -24    2    3    3    0    0  0.12686675911E+02  0.50076457960E+02 -0.23839104312E+03  0.25723650821E+03  0.81680648446E+02 0.  0.
          6    2    1    2  501    0  0.25370713484E+02  0.41109494942E+01 -0.36207556587E+03  0.40120814501E+03  0.17090549204E+03 0.  0.
         24    2    5    5    0    0  0.76231588232E+02  0.14960786591E+02 -0.30157897171E+03  0.32129271815E+03  0.79019329132E+02 0.  0.
          5    1    5    5  501    0 -0.50860874748E+02 -0.10849837096E+02 -0.60496594159E+02  0.79915426859E+02  0.47000000000E+01 0. -1.
        -13    1    6    6    0    0 -0.57479880627E+01  0.18720377669E+02 -0.12562021370E+03  0.12713744530E+03  0.00000000000E+00 0.  1.
         14    1    6    6    0    0  0.81979576294E+02 -0.37595910782E+01 -0.17595875801E+03  0.19415527285E+03  0.00000000000E+00 0. -1.
         -5    1    3    3    0  503 -0.38057389395E+02 -0.54187407454E+02 -0.63284838665E+02  0.91715324886E+02  0.47000000000E+01 0.  1.
         13    1    4    4    0    0 -0.11231721448E+02  0.66142730161E+02 -0.18064994989E+03  0.19270551813E+03  0.00000000000E+00 0. -1.
        -14    1    4    4    0    0  0.23918397359E+02 -0.16066272201E+02 -0.57741093228E+02  0.64530990088E+02  0.00000000000E+00 0.  1.
</event>
<event>
12    1  0.8258923E-002  0.1879867E+03  0.7818608E-02  0.1161107E+00
         21   -1    0    0  501  502  0.00000000000E+00  0.00000000000E+00  0.98445034535E+02  0.98445034535E+02  0.00000000000E+00 0. -1.
         21   -1    0    0  502  503 -0.00000000000E+00 -0.00000000000E+00 -0.35236915519E+03  0.35236915519E+03  0.00000000000E+00 0. -1.
         -6    2    1    2    0  503 -0.58312581107E+02  0.33744690960E+02 -0.12158040649E+03  0.22091448757E+03  0.17170426405E+03 0.  0.
        -24    2    3    3    0    0 -0.28468802713E+00  0.73291400268E+02 -0.98765061835E+02  0.14692929619E+03  0.80386380929E+02 0.  0.
          6    2    1    2  501    0  0.58312581107E+02 -0.33744690960E+02 -0.13234371417E+03  0.22989970216E+03  0.17549915409E+03 0.  0.
         24    2    5    5    0    0  0.10632639436E+03 -0.20164078974E+02 -0.11518257586E+03  0.17692467074E+03  0.79519941627E+02 0.  0.
          5    1    5    5  501    0 -0.48013813256E+02 -0.13580611986E+02 -0.17161138311E+02  0.52975031415E+02  0.47000000000E+01 0. -1.
        -13    1    6    6    0    0 -0.67205346444E+01 -0.56642222796E+00  0.67203247452E+01  0.95209865417E+01  0.00000000000E+00 0.  1.
         14    1    6    6    0    0  0.11304692901E+03 -0.19597656746E+02 -0.12190290061E+03  0.16740368420E+03  0.00000000000E+00 0. -1.
         -5    1    3    3    0  503 -0.58027893080E+02 -0.39546709309E+02 -0.22815344654E+02  0.73985191384E+02  0.47000000000E+01 0.  1.
         13    1    4    4    0    0 -0.11361586758E+02  0.74803660855E+02 -0.37116396637E+02  0.84275145982E+02  0.00000000000E+00 0. -1.
        -14    1    4    4    0    0  0.11076898731E+02 -0.15122605862E+01 -0.61648665198E+02  0.62654150208E+02  0.00000000000E+00 0.  1.
</event>
<event>
12    1  0.8258923E-002  0.2582823E+03  0.7818608E-02  0.1108244E+00
         21   -1    0    0  503  502  0.00000000000E+00  0.00000000000E+00  0.56138955738E+03  0.56138955738E+03  0.00000000000E+00 0. -1.
         21   -1    0    0  501  503 -0.00000000000E+00 -0.00000000000E+00 -0.18452229763E+03  0.18452229763E+03  0.00000000000E+00 0. -1.
          6    2    1    2  501    0  0.14488775641E+03 -0.12633491583E+03 -0.34327956047E+02  0.26055351559E+03  0.17250145797E+03 0.  0.
         24    2    3    3    0    0  0.17635212281E+03 -0.97403886035E+02 -0.53876362043E+01  0.20872067898E+03  0.54292789368E+02 0.  0.
         -6    2    1    2    0  502 -0.14488775641E+03  0.12633491583E+03  0.41119521579E+03  0.48535833942E+03  0.17186692305E+03 0.  0.
        -24    2    5    5    0    0 -0.89746993578E+02  0.10436201702E+03  0.15431345672E+03  0.22166601842E+03  0.79857544085E+02 0.  0.
          5    1    3    3  501    0 -0.31464366398E+02 -0.28931029798E+02 -0.28940319842E+02  0.51832836606E+02  0.47000000000E+01 0. -1.
        -13    1    4    4    0    0  0.90805512054E+02 -0.19396885150E+02 -0.39831864886E+01  0.92939474646E+02  0.00000000000E+00 0.  1.
         14    1    4    4    0    0  0.85546610756E+02 -0.78007000885E+02 -0.14044497157E+01  0.11578120434E+03  0.00000000000E+00 0. -1.
         -5    1    5    5    0  502 -0.55140762833E+02  0.21972898816E+02  0.25688175908E+03  0.26369232100E+03  0.47000000000E+01 0.  1.
         11    1    6    6    0    0  0.13683048437E+02  0.23774710793E+02  0.34256958934E+02  0.43886238427E+02  0.00000000000E+00 0. -1.
        -12    1    6    6    0    0 -0.10343004201E+03  0.80587306223E+02  0.12005649778E+03  0.17777978000E+03  0.00000000000E+00 0.  1.
</event>
<event>
12    1  0.8258923E-002  0.2452918E+03  0.7818608E-02  0.1116449E+00
         21   -1    0    0  503  502  0.00000000000E+00  0.00000000000E+00  0.55124593668E+02  0.55124593668E+02  0.00000000000E+00 0.  1.
         21   -1    0    0  501  503 -0.00000000000E+00 -0.00000000000E+00 -0.18921883525E+04  0.18921883525E+04  0.00000000000E+00 0. -1.
          6    2    1    2  501    0  0.13122285186E+03 -0.11467519154E+03 -0.15524545819E+04  0.15715863933E+04  0.17146056729E+03 0.  0.
         24    2    3    3    0    0  0.66112955363E+02 -0.60740503558E+02 -0.12950428231E+04  0.13006045622E+04  0.79849745664E+02 0.  0.
         -6    2    1    2    0  502 -0.13122285186E+03  0.11467519154E+03 -0.28460917688E+03  0.37572655288E+03  0.17262161675E+03 0.  0.
        -24    2    5    5    0    0 -0.11626446757E+03  0.11227597317E+03 -0.13171076693E+03  0.22200757788E+03  0.76264788333E+02 0.  0.
          5    1    3    3  501    0  0.65109896499E+02 -0.53934687985E+02 -0.25741175883E+03  0.27098183108E+03  0.47000000000E+01 0. -1.
        -13    1    4    4    0    0  0.32966457491E+02  0.15111723603E+01 -0.78679928932E+03  0.78749107463E+03  0.00000000000E+00 0.  1.
         14    1    4    4    0    0  0.33146497872E+02 -0.62251675918E+02 -0.50824353378E+03  0.51311348755E+03  0.00000000000E+00 0. -1.
         -5    1    5    5    0  502 -0.14958384289E+02  0.23992183685E+01 -0.15289840995E+03  0.15371897499E+03  0.47000000000E+01 0.  1.
         13    1    6    6    0    0 -0.28150412304E+02  0.40070034356E+02 -0.86588524776E+02  0.99476761050E+02  0.00000000000E+00 0. -1.
        -14    1    6    6    0    0 -0.88114055269E+02  0.72205938818E+02 -0.45122242157E+02  0.12253081683E+03  0.00000000000E+00 0.  1.
</event>
<event>
12    1  0.8258923E-002  0.1779998E+03  0.7818608E-02  0.1169943E+00
         21   -1    0    0  503  502  0.00000000000E+00  0.00000000000E+00  0.54489905948E+02  0.54489905948E+02  0.00000000000E+00 0.  1.
         21   -1    0    0  501  503 -0.00000000000E+00 -0.00000000000E+00 -0.88449440750E+03  0.88449440750E+03  0.00000000000E+00 0.  1.
          6    2    1    2  501    0  0.25421642669E+01  0.45327088668E+02 -0.69153327615E+03  0.71407436650E+03  0.17211310611E+03 0.  0.
         24    2    3    3    0    0  0.67155530639E+02  0.22891435443E+02 -0.36737386663E+03  0.38274423138E+03  0.80595940752E+02 0.  0.
         -6    2    1    2    0  502 -0.25421642669E+01 -0.45327088668E+02 -0.13847122540E+03  0.22490994695E+03  0.17131607165E+03 0.  0.
        -24    2    5    5    0    0  0.40524255771E+02 -0.16192701667E+02 -0.14634344512E+03  0.17211230605E+03  0.79384022769E+02 0.  0.
          5    1    3    3  501    0 -0.64613366372E+02  0.22435653225E+02 -0.32415940953E+03  0.33133013511E+03  0.47000000000E+01 0. -1.
        -11    1    4    4    0    0  0.57985540368E+02  0.39983724029E+02 -0.34896582490E+03  0.35600304497E+03  0.00000000000E+00 0.  1.
         12    1    4    4    0    0  0.91699902707E+01 -0.17092288586E+02 -0.18408041726E+02  0.26741186414E+02  0.00000000000E+00 0. -1.
         -5    1    5    5    0  502 -0.43066420038E+02 -0.29134387002E+02  0.78722197261E+01  0.52797640897E+02  0.47000000000E+01 0.  1.
         13    1    6    6    0    0 -0.24649081696E+01 -0.43778440720E+01 -0.12045104807E+03  0.12055578074E+03  0.00000000000E+00 0. -1.
        -14    1    6    6    0    0  0.42989163940E+02 -0.11814857594E+02 -0.25892397056E+02  0.51556525306E+02  0.00000000000E+00 0.  1.
</event>
<event>
12    1  0.8258923E-002  0.1793113E+03  0.7818608E-02  0.1169213E+00
         21   -1    0    0  501  502  0.00000000000E+00  0.00000000000E+00  0.26524509487E+03  0.26524509487E+03  0.00000000000E+00 0. -1.
         21   -1    0    0  502  503 -0.00000000000E+00 -0.00000000000E+00 -0.15466499030E+03  0.15466499030E+03  0.00000000000E+00 0. -1.
         -6    2    1    2    0  503  0.35467082960E+02  0.14518558795E+02 -0.45629609169E+02  0.18209918624E+03  0.17207367572E+03 0.  0.
        -24    2    3    3    0    0 -0.24622517138E+02  0.50722116030E+02  0.30346997620E+01  0.96590341321E+02  0.78367615946E+02 0.  0.
          6    2    1    2  501    0 -0.35467082960E+02 -0.14518558795E+02  0.15620971374E+03  0.23781089893E+03  0.17516805205E+03 0.  0.
         24    2    5    5    0    0 -0.17698869214E-01 -0.71296026477E+02  0.71055188516E+02  0.12939631119E+03  0.81310773145E+02 0.  0.
          5    1    5    5  501    0 -0.35449384091E+02  0.56777467682E+02  0.85154525222E+02  0.10841458774E+03  0.47000000000E+01 0. -1.
        -13    1    6    6    0    0 -0.16839707836E+02 -0.16751203092E+02 -0.13543322289E+02  0.27342277587E+02  0.00000000000E+00 0.  1.
         14    1    6    6    0    0  0.16822008966E+02 -0.54544823385E+02  0.84598510805E+02  0.10205403360E+03  0.00000000000E+00 0. -1.
         -5    1    3    3    0  503  0.60089600098E+02 -0.36203557235E+02 -0.48664308931E+02  0.85508844923E+02  0.47000000000E+01 0.  1.
         13    1    4    4    0    0  0.24986718198E+02  0.36159543066E+02 -0.51153117414E+01  0.44249463898E+02  0.00000000000E+00 0. -1.
        -14    1    4    4    0    0 -0.49609235336E+02  0.14562572964E+02  0.81500115034E+01  0.52340877423E+02  0.00000000000E+00 0.  1.
</event>
<event>
12    1  0.8258923E-002  0.1951295E+03  0.7818608E-02  0.1153963E+00
         21   -1    0    0  501  502  0.00000000000E+00  0.00000000000E+00  0.50585526511E+02  0.50585526511E+02  0.00000000000E+00 0. -1.
         21   -1    0    0  502  503 -0.00000000000E+00 -0.00000000000E+00 -0.10762660905E+04  0.10762660905E+04  0.00000000000E+00 0. -1.
         -6    2    1    2    0  503  0.13376648981E+02 -0.88753457773E+02 -0.82238712085E+03  0.84521956023E+03  0.17326112502E+03 0.  0.
        -24    2    3    3    0    0  0.23789843796E+02 -0.49577533298E+02 -0.20036530385E+03  0.22186057978E+03  0.77794430365E+02 0.  0.
          6    2    1    2  501    0 -0.13376648981E+02  0.88753457773E+02 -0.20329344312E+03  0.28163205676E+03  0.17300948060E+03 0.  0.
         24    2    5    5    0    0  0.29474083199E+02  0.45621111608E+02 -0.19947830859E+03  0.22053189485E+03  0.76764012702E+02 0.  0.
          5    1    5    5  501    0 -0.42850732180E+02  0.43132346165E+02 -0.38151345328E+01  0.61100161911E+02  0.47000000000E+01 0. -1.
        -11    1    6    6    0    0 -0.49066099365E+01  0.56022932674E+00 -0.13333285732E+03  0.13342428385E+03  0.00000000000E+00 0.  1.
         12    1    6    6    0    0  0.34380693135E+02  0.45060882281E+02 -0.66145451263E+02  0.87107611006E+02  0.00000000000E+00 0. -1.
         -5    1    3    3    0  503 -0.10413194815E+02 -0.39175924475E+02 -0.62202181700E+03  0.62335898045E+03  0.47000000000E+01 0.  1.
         13    1    4    4    0    0  0.24806576781E+02 -0.12726199251E+02 -0.17477276988E+03  0.17698260787E+03  0.00000000000E+00 0. -1.
        -14    1    4    4    0    0 -0.10167329848E+01 -0.36851334047E+02 -0.25592533975E+02  0.44877971905E+02  0.00000000000E+00 0.  1.
</event>
<event>
12    1  0.8258923E-002  0.2047033E+03  0.7818608E-02  0.1146116E+00
         21   -1    0    0  503  502  0.00000000000E+00  0.00000000000E+00  0.35131835258E+03  0.35131835258E+03  0.00000000000E+00 0.  1.
         21   -1    0    0  501  503 -0.00000000000E+00 -0.00000000000E+00 -0.15342759281E+03  0.15342759281E+03  0.00000000000E+00 0.  1.
          6    2    1    2  501    0 -0.43913608440E+02  0.10133204578E+03 -0.21264106009E+02  0.20580472234E+03  0.17235670287E+03 0.  0.
         24    2    3    3    0    0  0.10584192386E+02  0.12999741381E+02  0.48725764130E+01  0.98670122585E+02  0.97113504136E+02 0.  0.
         -6    2    1    2    0  502  0.43913608440E+02 -0.10133204578E+03  0.21915486579E+03  0.29894122305E+03  0.17070562713E+03 0.  0.
        -24    2    5    5    0    0  0.77851520088E+01 -0.50624678405E+02  0.17398724933E+02  0.87744317671E+02  0.69086055024E+02 0.  0.
          5    1    3    3  501    0 -0.54497800826E+02  0.88332304404E+02 -0.26136682422E+02  0.10713459975E+03  0.47000000000E+01 0. -1.
        -13    1    4    4    0    0  0.68467974137E+00  0.53107866774E+02 -0.11307871724E+02  0.54302691117E+02  0.00000000000E+00 0.  1.
         14    1    4    4    0    0  0.98995126444E+01 -0.40108125393E+02  0.16180448137E+02  0.44367431468E+02  0.00000000000E+00 0. -1.
         -5    1    5    5    0  502  0.36128456432E+02 -0.50707367380E+02  0.20175614085E+03  0.21119690538E+03  0.47000000000E+01 0.  1.
         11    1    6    6    0    0 -0.33872812302E+01  0.10224238385E+02  0.23228512714E+02  0.25604150593E+02  0.00000000000E+00 0. -1.
        -12    1    6    6    0    0  0.11172433239E+02 -0.60848916789E+02 -0.58297877807E+01  0.62140167078E+02  0.00000000000E+00 0.  1.
</event>
<event>
12    1  0.8258923E-002  0.1766939E+03  0.7818608E-02  0.1171237E+00
         21   -1    0    0  503  502  0.00000000000E+00  0.00000000000E+00  0.13709686305E+03  0.13709686305E+03  0.00000000000E+00 0.  1.
         21   -1    0    0  501  503 -0.00000000000E+00 -0.00000000000E+00 -0.39952329296E+03  0.39952329296E+03  0.00000000000E+00 0.  1.
          6    2    1    2  501    0 -0.39431013700E+02 -0.15231894859E+02 -0.30750818016E+03  0.35426584375E+03  0.17075184251E+03 0.  0.
         24    2    3    3    0    0 -0.76537332748E+02  0.15332970971E+02 -0.13571630722E+03  0.17581241133E+03  0.79987652965E+02 0.  0.
         -6    2    1    2    0  502  0.39431013700E+02  0.15231894859E+02  0.45081750252E+02  0.18235431227E+03  0.17156315319E+03 0.  0.
        -24    2    5    5    0    0  0.12027862823E+02  0.34374387499E+02 -0.21584065625E+02  0.10762955928E+03  0.98954444779E+02 0.  0.
          5    1    3    3  501    0  0.37106319049E+02 -0.30564865830E+02 -0.17179187294E+03  0.17845343243E+03  0.47000000000E+01 0. -1.
        -13    1    4    4    0    0  0.63888210710E+01  0.22622974982E+02 -0.11218983070E+02  0.26047679606E+02  0.00000000000E+00 0.  1.
         14    1    4    4    0    0 -0.82926153819E+02 -0.72900040116E+01 -0.12449732415E+03  0.14976473172E+03  0.00000000000E+00 0. -1.
         -5    1    5    5    0  502  0.27403150877E+02 -0.19142492640E+02  0.66665815878E+02  0.74724752988E+02  0.47000000000E+01 0.  1.
         11    1    6    6    0    0 -0.28608697813E+02  0.21870999221E+01 -0.42873527244E+02  0.51588567871E+02  0.00000000000E+00 0. -1.
        -12    1    6    6    0    0  0.40636560636E+02  0.32187287577E+02  0.21289461619E+02  0.56040991407E+02  0.00000000000E+00 0.  1.
</event>
<event>
12    1  0.8258923E-002  0.3812513E+03  0.7818608E-02  0.1050511E+00
         21   -1    0    0  503  502  0.00000000000E+00  0.00000000000E+00  0.99522180488E+03  0.99522180488E+03  0.00000000000E+00 0.  1.
         21   -1    0    0  501  503 -0.00000000000E+00 -0.00000000000E+00 -0.31429533088E+03  0.31429533088E+03  0.00000000000E+00 0. -1.
          6    2    1    2  501    0  0.33314038948E+03 -0.66954643535E+02 -0.13873244394E+03  0.40570829586E+03  0.17287882152E+03 0.  0.
         24    2    3    3    0    0  0.66227575017E+02 -0.42033455201E+02 -0.23836392323E+02  0.11401203460E+03  0.79231732192E+02 0.  0.
         -6    2    1    2    0  502 -0.33314038948E+03  0.66954643535E+02  0.81965891794E+03  0.90380883991E+03  0.17194253094E+03 0.  0.
        -24    2    5    5    0    0 -0.33259211765E+03  0.92582084636E+02  0.76052504226E+03  0.83918708202E+03  0.81533181074E+02 0.  0.
          5    1    3    3  501    0  0.26691281447E+03 -0.24921188334E+02 -0.11489605162E+03  0.29169626126E+03  0.47000000000E+01 0. -1.
        -13    1    4    4    0    0  0.16234992856E+02  0.12993491587E+01 -0.42298268891E+02  0.45325565110E+02  0.00000000000E+00 0.  1.
         14    1    4    4    0    0  0.49992582161E+02 -0.43332804360E+02  0.18461876568E+02  0.68686469492E+02  0.00000000000E+00 0. -1.
         -5    1    5    5    0  502 -0.54827183564E+00 -0.25627441101E+02  0.59133875677E+02  0.64621757884E+02  0.47000000000E+01 0.  1.
         13    1    6    6    0    0 -0.39572570184E+02  0.32152539242E+02  0.16554101297E+03  0.17321547582E+03  0.00000000000E+00 0. -1.
        -14    1    6    6    0    0 -0.29301954747E+03  0.60429545394E+02  0.59498402929E+03  0.66597160620E+03  0.00000000000E+00 0.  1.
</event>
<event>
12    1  0.8258923E-002  0.2617609E+03  0.7818608E-02  0.1106288E+00
         21   -1    0    0  503  502  0.00000000000E+00  0.00000000000E+00  0.13523829027E+03  0.13523829027E+03  0.00000000000E+00 0. -1.
         21   -1    0    0  501  503 -0.00000000000E+00 -0.00000000000E+00 -0.53079479448E+03  0.53079479448E+03  0.00000000000E+00 0. -1.
          6    2    1    2  501    0 -0.40424098039E+01 -0.19804257387E+03 -0.27199691243E+03  0.37657543032E+03  0.16908439374E+03 0.  0.
         24    2    3    3    0    0 -0.31240309886E+01 -0.21192614059E+03 -0.19826628154E+03  0.30139635892E+03  0.81288364128E+02 0.  0.
         -6    2    1    2    0  502  0.40424098039E+01  0.19804257387E+03 -0.12355959178E+03  0.28945765442E+03  0.17111855201E+03 0.  0.
        -24    2    5    5    0    0  0.41802298155E+02  0.41400826458E+02 -0.59336006408E+02  0.11593761201E+03  0.80369818094E+02 0.  0.
          5    1    3    3  501    0 -0.91837881524E+00  0.13883566720E+02 -0.73730630891E+02  0.75179071397E+02  0.47000000000E+01 0. -1.
        -13    1    4    4    0    0 -0.26021201357E+02 -0.31420479449E+02 -0.15903479310E+02  0.43786642975E+02  0.00000000000E+00 0.  1.
         14    1    4    4    0    0  0.22897170368E+02 -0.18050566114E+03 -0.18236280223E+03  0.25760971595E+03  0.00000000000E+00 0. -1.
         -5    1    5    5    0  502 -0.37759888351E+02  0.15664174741E+03 -0.64223585373E+02  0.17352004241E+03  0.47000000000E+01 0.  1.
         13    1    6    6    0    0  0.22727510550E+02  0.63719893585E+02 -0.52904946362E+02  0.85881883560E+02  0.00000000000E+00 0. -1.
        -14    1    6    6    0    0  0.19074787605E+02 -0.22319067126E+02 -0.64310600457E+01  0.30055728454E+02  0.00000000000E+00 0.  1.
</event>
<event>
12    1  0.8258923E-002  0.2283259E+03  0.7818608E-02  0.1127926E+00
         21   -1    0    0  501  502  0.00000000000E+00  0.00000000000E+00  0.91346021007E+03  0.91346021007E+03  0.00000000000E+00 0.  1.
         21   -1    0    0  502  503 -0.00000000000E+00 -0.00000000000E+00 -0.72077338863E+02  0.72077338863E+02  0.00000000000E+00 0.  1.
         -6    2    1    2    0  503 -0.60478996286E+02 -0.13599815687E+03  0.19519893934E+03  0.30039194860E+03  0.17314586105E+03 0.  0.
        -24    2    3    3    0    0 -0.38935238097E+02 -0.10602387542E+03  0.21681378795E+03  0.25735844136E+03  0.80424708705E+02 0.  0.
          6    2    1    2  501    0  0.60478996286E+02  0.13599815687E+03  0.64618393186E+03  0.68514560033E+03  0.17238796997E+03 0.  0.
         24    2    5    5    0    0  0.99918560385E+02  0.56250702999E+02  0.40559538975E+03  0.42859137173E+03  0.77685799481E+02 0.  0.
          5    1    5    5  501    0 -0.39439564098E+02  0.79747453871E+02  0.24058854211E+03  0.25655422860E+03  0.47000000000E+01 0. -1.
        -11    1    6    6    0    0  0.15660245497E+01  0.21625135254E+00  0.13838552090E+03  0.13839455044E+03  0.00000000000E+00 0.  1.
         12    1    6    6    0    0  0.98352535835E+02  0.56034451646E+02  0.26720986885E+03  0.29019682129E+03  0.00000000000E+00 0. -1.
         -5    1    3    3    0  503 -0.21543758190E+02 -0.29974281445E+02 -0.21614848604E+02  0.43033507239E+02  0.47000000000E+01 0.  1.
         13    1    4    4    0    0 -0.35155057184E+02 -0.16680454820E+02  0.11722051996E+03  0.12351018548E+03  0.00000000000E+00 0. -1.
        -14    1    4    4    0    0 -0.37801809128E+01 -0.89343420605E+02  0.99593267988E+02  0.13384825588E+03  0.00000000000E+00 0.  1.
</event>
<event>
12    1  0.8258923E-002  0.2032911E+03  0.7818608E-02  0.1147306E+00
         21   -1    0    0  501  502  0.00000000000E+00  0.00000000000E+00  0.28169040082E+03  0.28169040082E+03  0.00000000000E+00 0. -1.
         21   -1    0    0  502  503 -0.00000000000E+00 -0.00000000000E+00 -0.17786790506E+03  0.17786790506E+03  0.00000000000E+00 0.  1.
         -6    2    1    2    0  503  0.10574842237E+03  0.10245348647E+02 -0.46089767698E+02  0.20696976975E+03  0.17153577732E+03 0.  0.
        -24    2    3    3    0    0  0.52354651680E+02  0.24190540282E+00  0.41101621994E+02  0.10413304449E+03  0.80082954197E+02 0.  0.
          6    2    1    2  501    0 -0.10574842237E+03 -0.10245348647E+02  0.14991226346E+03  0.25258853613E+03  0.17331931758E+03 0.  0.
         24    2    5    5    0    0 -0.10663835963E+03  0.47821515034E+02  0.11982574737E+03  0.18701536253E+03  0.83414021876E+02 0.  0.
          5    1    5    5  501    0  0.88993725557E+00 -0.58066863681E+02  0.30086516093E+02  0.65573173606E+02  0.47000000000E+01 0. -1.
        -13    1    6    6    0    0 -0.74982761183E+02  0.69027380560E+02  0.10442948734E+03  0.14592022330E+03  0.00000000000E+00 0.  1.
         14    1    6    6    0    0 -0.31655598443E+02 -0.21205865526E+02  0.15396260030E+02  0.41095139230E+02  0.00000000000E+00 0. -1.
         -5    1    3    3    0  503  0.53393770690E+02  0.10003443244E+02 -0.87191389692E+02  0.10283672526E+03  0.47000000000E+01 0.  1.
         13    1    4    4    0    0  0.39920036052E+02 -0.25261224917E+02  0.55029577305E+02  0.72525810172E+02  0.00000000000E+00 0. -1.
        -14    1    4    4    0    0  0.12434615628E+02  0.25503130320E+02 -0.13927955311E+02  0.31607234316E+02  0.00000000000E+00 0.  1.
</event>
<event>
12    1  0.8258923E-002  0.2024563E+03  0.7818608E-02  0.1147742E+00
         21   -1    0    0  503  502  0.00000000000E+00  0.00000000000E+00  0.28330516099E+03  0.28330516099E+03  0.00000000000E+00 0. -1.
         21   -1    0    0  501  503 -0.00000000000E+00 -0.00000000000E+00 -0.20254665461E+03  0.20254665461E+03  0.00000000000E+00 0. -1.
          6    2    1    2  501    0 -0.10457156545E+03  0.20045345572E+02 -0.89715344322E+02  0.22118239232E+03  0.17185976692E+03 0.  0.
         24    2    3    3    0    0 -0.95824723614E+02 -0.23108605268E+02 -0.10864028963E+03  0.17302624764E+03  0.91755024650E+02 0.  0.
         -6    2    1    2    0  502  0.10457156545E+03 -0.20045345572E+02  0.17047385070E+03  0.26466942328E+03  0.17219623011E+03 0.  0.
        -24    2    5    5    0    0  0.12706825199E+03 -0.21792918440E+02  0.18302947756E+03  0.23842273431E+03  0.82002064767E+02 0.  0.
          5    1    3    3  501    0 -0.87468418381E+01  0.43153950840E+02  0.18924945308E+02  0.48156144677E+02  0.47000000000E+01 0. -1.
        -11    1    4    4    0    0 -0.13039267093E+02 -0.33351887737E+02  0.30705540645E+00  0.35811523075E+02  0.00000000000E+00 0.  1.
         12    1    4    4    0    0 -0.82785456520E+02  0.10243282469E+02 -0.10894734504E+03  0.13721472457E+03  0.00000000000E+00 0. -1.
         -5    1    5    5    0  502 -0.22496686534E+02  0.17475728678E+01 -0.12555626852E+02  0.26246688964E+02  0.47000000000E+01 0.  1.
         11    1    6    6    0    0  0.74379935338E+02 -0.15479374054E+02  0.16621860386E+03  0.18275833790E+03  0.00000000000E+00 0. -1.
        -12    1    6    6    0    0  0.52688316648E+02 -0.63135443854E+01  0.16810873697E+02  0.55664396416E+02  0.00000000000E+00 0.  1.
</event>
<event>
12    1  0.8258923E-002  0.2190712E+03  0.7818608E-02  0.1136327E+00
         21   -1    0    0  501  502  0.00000000000E+00  0.00000000000E+00  0.11059413916E+03  0.11059413916E+03  0.00000000000E+00 0. -1.
         21   -1    0    0  502  503 -0.00000000000E+00 -0.00000000000E+00 -0.68468050317E+03  0.68468050317E+03  0.00000000000E+00 0. -1.
         -6    2    1    2    0  503  0.99859685430E+02  0.50021869648E+02 -0.53978314189E+03  0.58254445296E+03  0.18846234422E+03 0.  0.
        -24    2    3    3    0    0  0.32455291257E+02 -0.31980177197E+02 -0.12753824496E+03  0.15682666723E+03  0.79072890193E+02 0.  0.
          6    2    1    2  501    0 -0.99859685430E+02 -0.50021869648E+02 -0.34303222114E+02  0.21273018937E+03  0.17777310878E+03 0.  0.
         24    2    5    5    0    0 -0.79804747963E+02 -0.85895733526E+02  0.20773369009E+02  0.14384872949E+03  0.80709660382E+02 0.  0.
          5    1    5    5  501    0 -0.20054937466E+02  0.35873863878E+02 -0.55076591123E+02  0.68881459886E+02  0.47000000000E+01 0. -1.
        -13    1    6    6    0    0 -0.34516044291E+02 -0.65224118353E+02 -0.23273367257E+02  0.77376951038E+02  0.00000000000E+00 0.  1.
         14    1    6    6    0    0 -0.45288703673E+02 -0.20671615173E+02  0.44046736267E+02  0.66471778447E+02  0.00000000000E+00 0. -1.
         -5    1    3    3    0  503  0.67404394172E+02  0.82002046845E+02 -0.41224489693E+03  0.42571778573E+03  0.47000000000E+01 0.  1.
         11    1    4    4    0    0  0.48662558396E+02 -0.20768716357E+02 -0.37989689369E+02  0.65135249037E+02  0.00000000000E+00 0. -1.
        -12    1    4    4    0    0 -0.16207267138E+02 -0.11211460840E+02 -0.89548555589E+02  0.91691418193E+02  0.00000000000E+00 0.  1.
</event>
<event>
12    1  0.8258923E-002  0.1888858E+03  0.7818608E-02  0.1159711E+00
         21   -1    0    0  501  502  0.00000000000E+00  0.00000000000E+00  0.66602531104E+03  0.66602531104E+03  0.00000000000E+00 0. -1.
         21   -1    0    0  502  503 -0.00000000000E+00 -0.00000000000E+00 -0.53678788039E+02  0.53678788039E+02  0.00000000000E+00 0. -1.
         -6    2    1    2    0  503 -0.95413772651E+01  0.77359965297E+02  0.33675418689E+03  0.38559487019E+03  0.17089300576E+03 0.  0.
        -24    2    3    3    0    0  0.59367930033E+02  0.25887046054E+02  0.21377218847E+03  0.23544622390E+03  0.74442498042E+02 0.  0.
          6    2    1    2  501    0  0.95413772651E+01 -0.77359965297E+02  0.27559233611E+03  0.33410922889E+03  0.17205301217E+03 0.  0.
         24    2    5    5    0    0  0.49310783539E+02 -0.55695708086E+02  0.26631540029E+03  0.28764314175E+03  0.79253512798E+02 0.  0.
          5    1    5    5  501    0 -0.39769406274E+02 -0.21664257211E+02  0.92769358199E+01  0.46466087140E+02  0.47000000000E+01 0. -1.
        -13    1    6    6    0    0 -0.52517961205E+01  0.75337666673E+01  0.11028821509E+03  0.11066991186E+03  0.00000000000E+00 0.  1.
         14    1    6    6    0    0  0.54562579660E+02 -0.63229474753E+02  0.15602718520E+03  0.17697322989E+03  0.00000000000E+00 0. -1.
         -5    1    3    3    0  503 -0.68909307298E+02  0.51472919243E+02  0.12298199842E+03  0.15014864629E+03  0.47000000000E+01 0.  1.
         11    1    4    4    0    0  0.23104674402E+02  0.11536993627E+02  0.95508675103E+01  0.27534474235E+02  0.00000000000E+00 0. -1.
        -12    1    4    4    0    0  0.36263255631E+02  0.14350052427E+02  0.20422132096E+03  0.20791174966E+03  0.00000000000E+00 0.  1.
</event>
<event>
12    1  0.8258923E-002  0.1880721E+03  0.7818608E-02  0.1160348E+00
         21   -1    0    0  501  502  0.00000000000E+00  0.00000000000E+00  0.49040464347E+02  0.49040464347E+02  0.00000000000E+00 0.  1.
         21   -1    0    0  502  503 -0.00000000000E+00 -0.00000000000E+00 -0.75900414264E+03  0.75900414264E+03  0.00000000000E+00 0.  1.
         -6    2    1    2    0  503  0.53323990136E+02  0.53661914884E+02 -0.44828629822E+03  0.48613961622E+03  0.17218615582E+03 0.  0.
        -24    2    3    3    0    0  0.12374409820E+02 -0.27378957880E+02 -0.29309827283E+03  0.30627882447E+03  0.83650388097E+02 0.  0.
          6    2    1    2  501    0 -0.53323990136E+02 -0.53661914884E+02 -0.26167738007E+03  0.32190499076E+03  0.17153636000E+03 0.  0.
         24    2    5    5    0    0 -0.51029186843E+02 -0.24052458916E+02 -0.50064385576E+02  0.10816651635E+03  0.77530986491E+02 0.  0.
          5    1    5    5  501    0 -0.22948032925E+01 -0.29609455968E+02 -0.21161299450E+03  0.21373847441E+03  0.47000000000E+01 0. -1.
        -11    1    6    6    0    0 -0.43617734481E+02 -0.44565223851E+02 -0.57798820124E+02  0.85025111266E+02  0.00000000000E+00 0.  1.
         12    1    6    6    0    0 -0.74114523622E+01  0.20512764936E+02  0.77344345481E+01  0.23141405083E+02  0.00000000000E+00 0. -1.
         -5    1    3    3    0  503  0.40949580315E+02  0.81040872763E+02 -0.15518802539E+03  0.17986079175E+03  0.47000000000E+01 0.  1.
         13    1    4    4    0    0  0.29098647142E+02  0.11483838773E+01 -0.25129904102E+03  0.25298074644E+03  0.00000000000E+00 0. -1.
        -14    1    4    4    0    0 -0.16724237322E+02 -0.28527341757E+02 -0.41799231807E+02  0.53298078027E+02  0.00000000000E+00 0.  1.
</event>
<event>
12    1  0.8258923E-002  0.2860466E+03  0.7818608E-02  0.1092547E+00
         21   -1    0    0  503  502  0.00000000000E+00  0.00000000000E+00  0.70343113990E+03  0.70343113990E+03  0.00000000000E+00 0.  1.
         21   -1    0    0  501  503 -0.00000000000E+00 -0.00000000000E+00 -0.17960954663E+03  0.17960954663E+03  0.00000000000E+00 0.  1.
          6    2    1    2  501    0 -0.25814722737E+02  0.22734978554E+03 -0.65336303876E+00  0.28604736431E+03  0.17166345811E+03 0.  0.
         24    2    3    3    0    0 -0.58716462268E+02  0.60272327266E+02 -0.36805312426E+01  0.11566938664E+03  0.79281046411E+02 0.  0.
         -6    2    1    2    0  502  0.25814722737E+02 -0.22734978554E+03  0.52447495630E+03  0.59699332222E+03  0.17021375412E+03 0.  0.
        -24    2    5    5    0    0  0.22399088049E+01 -0.54337881578E+02  0.10372064193E+03  0.14142206125E+03  0.79275502386E+02 0.  0.
          5    1    3    3  501    0  0.32901739532E+02  0.16707745827E+03  0.30271682039E+01  0.17037797767E+03  0.47000000000E+01 0. -1.
        -11    1    4    4    0    0 -0.35844611084E+02  0.78095160534E+02 -0.82176294104E+01  0.86320447611E+02  0.00000000000E+00 0.  1.
         12    1    4    4    0    0 -0.22871851185E+02 -0.17822833269E+02  0.45370981678E+01  0.29348939029E+02  0.00000000000E+00 0. -1.
         -5    1    5    5    0  502  0.23574813932E+02 -0.17301190396E+03  0.42075431437E+03  0.45557126098E+03  0.47000000000E+01 0.  1.
         13    1    6    6    0    0  0.30326965956E+02 -0.10660386820E+02  0.89694331505E+01  0.33373933575E+02  0.00000000000E+00 0. -1.
        -14    1    6    6    0    0 -0.28087057151E+02 -0.43677494758E+02  0.94751208781E+02  0.10804812767E+03  0.00000000000E+00 0.  1.
</event>
<event>
12    1  0.8258923E-002  0.5831163E+03  0.7818608E-02  0.9941103E-01
         21   -1    0    0  503  502  0.00000000000E+00  0.00000000000E+00  0.80864812000E+03  0.80864812000E+03  0.00000000000E+00 0. -1.
         21   -1    0    0  501  503 -0.00000000000E+00 -0.00000000000E+00 -0.58350019930E+03  0.58350019930E+03  0.00000000000E+00 0.  1.
          6    2    1    2  501    0 -0.35073228681E+02  0.55610924275E+03 -0.25540118676E+03  0.63653462937E+03  0.17163608871E+03 0.  0.
         24    2    3    3    0    0 -0.74137713972E+02  0.24239958956E+03 -0.99934018967E+02  0.28421104121E+03  0.80840250767E+02 0.  0.
         -6    2    1    2    0  502  0.35073228681E+02 -0.55610924275E+03  0.48054910746E+03  0.75561368993E+03  0.17186326685E+03 0.  0.
        -24    2    5    5    0    0  0.21575544592E+02 -0.51912744644E+03  0.48614019249E+03  0.71557382272E+03  0.75860393112E+02 0.  0.
          5    1    3    3  501    0  0.39064485291E+02  0.31370965319E+03 -0.15546716779E+03  0.35232358816E+03  0.47000000000E+01 0. -1.
        -11    1    4    4    0    0 -0.63992309082E+02  0.16302324124E+03 -0.10470667166E+03  0.20404675909E+03  0.00000000000E+00 0.  1.
         12    1    4    4    0    0 -0.10145404890E+02  0.79376348323E+02  0.47726526909E+01  0.80164282116E+02  0.00000000000E+00 0. -1.
         -5    1    5    5    0  502  0.13497684089E+02 -0.36981796315E+02 -0.55910850318E+01  0.40039867211E+02  0.47000000000E+01 0.  1.
         11    1    6    6    0    0 -0.39259513072E+01 -0.30395769340E+03  0.23743569616E+03  0.38572192352E+03  0.00000000000E+00 0. -1.
        -12    1    6    6    0    0  0.25501495899E+02 -0.21516975304E+03  0.24870449633E+03  0.32985189921E+03  0.00000000000E+00 0.  1.
</event>
<event>
12    1  0.8258923E-002  0.2393493E+03  0.7818608E-02  0.1120862E+00
         21   -1    0    0  503  502  0.00000000000E+00  0.00000000000E+00  0.27499633493E+03  0.27499633493E+03  0.00000000000E+00 0. -1.
         21   -1    0    0  501  503 -0.00000000000E+00 -0.00000000000E+00 -0.53036361765E+03  0.53036361765E+03  0.00000000000E+00 0.  1.
          6    2    1    2  501    0  0.16016350957E+03  0.18539009700E+02 -0.44344120383E+03  0.50391286753E+03  0.17689554016E+03 0.  0.
         24    2    3    3    0    0  0.38121641452E+02 -0.30325206211E+02 -0.10061178166E+03  0.13671260626E+03  0.78706597071E+02 0.  0.
         -6    2    1    2    0  502 -0.16016350957E+03 -0.18539009700E+02  0.18807392112E+03  0.30144708505E+03  0.17176291976E+03 0.  0.
        -24    2    5    5    0    0  0.15549090706E+01 -0.17820320979E+02  0.69708436608E+02  0.10098302004E+03  0.70840120123E+02 0.  0.
          5    1    3    3  501    0  0.12204186811E+03  0.48864215911E+02 -0.34282942218E+03  0.36720026127E+03  0.47000000000E+01 0. -1.
        -13    1    4    4    0    0  0.53632435516E+02  0.29152731617E+01 -0.73803279972E+02  0.91279028762E+02  0.00000000000E+00 0.  1.
         14    1    4    4    0    0 -0.15510794065E+02 -0.33240479372E+02 -0.26808501687E+02  0.45433577496E+02  0.00000000000E+00 0. -1.
         -5    1    5    5    0  502 -0.16171841864E+03 -0.71868872132E+00  0.11836548451E+03  0.20046406502E+03  0.47000000000E+01 0.  1.
         11    1    6    6    0    0 -0.22464060554E+02 -0.36179482166E+02  0.44804120808E+02  0.61814223183E+02  0.00000000000E+00 0. -1.
        -12    1    6    6    0    0  0.24018969625E+02  0.18359161187E+02  0.24904315800E+02  0.39168796852E+02  0.00000000000E+00 0.  1.
</event>
<event>
12    1  0.8258923E-002  0.2159305E+03  0.7818608E-02  0.1137101E+00
         21   -1    0    0  501  502  0.00000000000E+00  0.00000000000E+00  0.34920902549E+03  0.34920902549E+03  0.00000000000E+00 0.  1.
         21   -1    0    0  502  503 -0.00000000000E+00 -0.00000000000E+00 -0.14869418911E+03  0.14869418911E+03  0.00000000000E+00 0.  1.
         -6    2    1    2    0  503  0.45977944113E+02 -0.12164007662E+03  0.19333663772E+02  0.21602985261E+03  0.17142003115E+03 0.  0.
        -24    2    3    3    0    0 -0.64512167753E+01 -0.91658494267E+02  0.64796839171E+02  0.14028882998E+03  0.83901297261E+02 0.  0.
          6    2    1    2  501    0 -0.45977944113E+02  0.12164007662E+03  0.18118117261E+03  0.28187336199E+03  0.17238241008E+03 0.  0.
         24    2    5    5    0    0 -0.65475773048E+02  0.11219761244E+03  0.20066858047E+03  0.25235769618E+03  0.80877354931E+02 0.  0.
          5    1    5    5  501    0  0.19497828936E+02  0.94424641816E+01 -0.19487407857E+02  0.29515665807E+02  0.47000000000E+01 0. -1.
        -11    1    6    6    0    0 -0.18285397367E+01  0.59326591383E+02  0.13237013960E+03  0.14506840407E+03  0.00000000000E+00 0.  1.
         12    1    6    6    0    0 -0.63647233312E+02  0.52871021056E+02  0.68298440871E+02  0.10728929211E+03  0.00000000000E+00 0. -1.
         -5    1    3    3    0  503  0.52429160888E+02 -0.29981582354E+02 -0.45463175399E+02  0.75741022631E+02  0.47000000000E+01 0.  1.
         13    1    4    4    0    0  0.25460711691E+02  0.13283559828E+01  0.19215308644E+02  0.31925545504E+02  0.00000000000E+00 0. -1.
        -14    1    4    4    0    0 -0.31911928466E+02 -0.92986850249E+02  0.45581530526E+02  0.10836328448E+03  0.00000000000E+00 0.  1.
</event>
<event>
12    1  0.8258923E-002  0.2587225E+03  0.7818608E-02  0.1108240E+00
         21   -1    0    0  501  502  0.00000000000E+00  0.00000000000E+00  0.12470581604E+04  0.12470581604E+04  0.00000000000E+00 0. -1.
         21   -1    0    0  502  503 -0.00000000000E+00 -0.00000000000E+00 -0.62056117484E+02  0.62056117484E+02  0.00000000000E+00 0.  1.
         -6    2    1    2    0  503  0.15475642338E+03 -0.11497360495E+03  0.34777496031E+03  0.43345672166E+03  0.17253644866E+03 0.  0.
        -24    2    3    3    0    0  0.15936731818E+03 -0.39843684999E+02  0.26633450157E+03  0.32245940843E+03  0.77849483103E+02 0.  0.
          6    2    1    2  501    0 -0.15475642338E+03  0.11497360495E+03  0.83722708264E+03  0.87565755627E+03  0.16928817893E+03 0.  0.
         24    2    5    5    0    0 -0.28620148322E+02  0.20093576658E+02  0.18068802517E+03  0.20039597463E+03  0.79293880556E+02 0.  0.
          5    1    5    5  501    0 -0.12613627506E+03  0.94880028292E+02  0.65653905747E+03  0.67526158164E+03  0.47000000000E+01 0. -1.
        -11    1    6    6    0    0 -0.57551135884E+00  0.47066211509E+02  0.11127537273E+03  0.12082122353E+03  0.00000000000E+00 0.  1.
         12    1    6    6    0    0 -0.28044636963E+02 -0.26972634851E+02  0.69412652445E+02  0.79574751100E+02  0.00000000000E+00 0. -1.
         -5    1    3    3    0  503 -0.46108948048E+01 -0.75129919951E+02  0.81440458740E+02  0.11099731322E+03  0.47000000000E+01 0.  1.
         11    1    4    4    0    0  0.13657287724E+03 -0.61219272680E+02  0.23145517765E+03  0.27562918823E+03  0.00000000000E+00 0. -1.
        -12    1    4    4    0    0  0.22794440947E+02  0.21375587682E+02  0.34879323929E+02  0.46830220206E+02  0.00000000000E+00 0.  1.
</event>
<event>
12    1  0.8258923E-002  0.1885207E+03  0.7818608E-02  0.1160023E+00
         21   -1    0    0  501  502  0.00000000000E+00  0.00000000000E+00  0.33074745348E+03  0.33074745348E+03  0.00000000000E+00 0.  1.
         21   -1    0    0  502  503 -0.00000000000E+00 -0.00000000000E+00 -0.26066421652E+03  0.26066421652E+03  0.00000000000E+00 0.  1.
         -6    2    1    2    0  503  0.58567843144E+02  0.49287338949E+02 -0.19210801551E+03  0.26848085968E+03  0.17122221924E+03 0.  0.
        -24    2    3    3    0    0  0.57572065420E+02  0.54679614623E+02 -0.44533390573E+02  0.12072962234E+03  0.79297010425E+02 0.  0.
          6    2    1    2  501    0 -0.58567843144E+02 -0.49287338949E+02  0.26219125248E+03  0.32293081031E+03  0.17228064703E+03 0.  0.
         24    2    5    5    0    0  0.26342288969E+02 -0.46683722017E+02  0.99354616902E+02  0.13920718842E+03  0.81449464811E+02 0.  0.
          5    1    5    5  501    0 -0.84910132114E+02 -0.26036169327E+01  0.16283663558E+03  0.18372362189E+03  0.47000000000E+01 0. -1.
        -11    1    6    6    0    0  0.37729474464E+02 -0.10239267384E+02  0.92490094822E+02  0.10041301450E+03  0.00000000000E+00 0.  1.
         12    1    6    6    0    0 -0.11387185494E+02 -0.36444454633E+02  0.68645220801E+01  0.38794173923E+02  0.00000000000E+00 0. -1.
         -5    1    3    3    0  503  0.99577772360E+00 -0.53922756735E+01 -0.14757462494E+03  0.14775123734E+03  0.47000000000E+01 0.  1.
         11    1    4    4    0    0  0.34153893844E+02  0.73522830788E+02 -0.24815818738E+02  0.84781601609E+02  0.00000000000E+00 0. -1.
        -12    1    4    4    0    0  0.23418171576E+02 -0.18843216165E+02 -0.19717571835E+02  0.35948020731E+02  0.00000000000E+00 0.  1.
</event>
<event>
12    1  0.8258923E-002  0.1855769E+03  0.7818608E-02  0.1162903E+00
         21   -1    0    0  501  502  0.00000000000E+00  0.00000000000E+00  0.28526590483E+03  0.28526590483E+03  0.00000000000E+00 0.  1.
         21   -1    0    0  502  503 -0.00000000000E+00 -0.00000000000E+00 -0.12587767307E+03  0.12587767307E+03  0.00000000000E+00 0.  1.
         -6    2    1    2    0  503  0.52639462789E+02  0.44169059452E+02  0.34275174013E+02  0.18871561072E+03  0.17238612276E+03 0.  0.
        -24    2    3    3    0    0  0.91814875282E+01 -0.39322132207E+02  0.45580481378E+01  0.89899760430E+02  0.80191404328E+02 0.  0.
          6    2    1    2  501    0 -0.52639462789E+02 -0.44169059452E+02  0.12511305776E+03  0.22242796718E+03  0.17058459634E+03 0.  0.
         24    2    5    5    0    0 -0.97114704446E+02 -0.46558018685E+02  0.69465003363E+02  0.15099583012E+03  0.79846346809E+02 0.  0.
          5    1    5    5  501    0  0.44475241658E+02  0.23889592327E+01  0.55648054393E+02  0.71432137057E+02  0.47000000000E+01 0. -1.
        -13    1    6    6    0    0  0.73184998406E+01 -0.18005892433E+02  0.30030826636E+02  0.35771820623E+02  0.00000000000E+00 0.  1.
         14    1    6    6    0    0 -0.10443320429E+03 -0.28552126251E+02  0.39434176727E+02  0.11522400950E+03  0.00000000000E+00 0. -1.
         -5    1    3    3    0  503  0.43457975261E+02  0.83491191659E+02  0.29717125875E+02  0.98815850290E+02  0.47000000000E+01 0.  1.
         11    1    4    4    0    0 -0.34757097153E+02 -0.20009743782E+02 -0.65469709371E+01  0.40636295072E+02  0.00000000000E+00 0. -1.
        -12    1    4    4    0    0  0.43938584681E+02 -0.19312388425E+02  0.11105019075E+02  0.49263465358E+02  0.00000000000E+00 0.  1.
</event>
<event>
12    1  0.8258923E-002  0.2258615E+03  0.7818608E-02  0.1129710E+00
         21   -1    0    0  501  502  0.00000000000E+00  0.00000000000E+00  0.69700503629E+02  0.69700503629E+02  0.00000000000E+00 0. -1.
         21   -1    0    0  502  503 -0.00000000000E+00 -0.00000000000E+00 -0.76747556346E+03  0.76747556346E+03  0.00000000000E+00 0.  1.
         -6    2    1    2    0  503 -0.13512646640E+03  0.56193882443E+02 -0.44126532916E+03  0.49540033782E+03  0.17114172387E+03 0.  0.
        -24    2    3    3    0    0 -0.82664594298E+02  0.89219223346E+02 -0.20506539119E+03  0.25115574349E+03  0.78954973595E+02 0.  0.
          6    2    1    2  501    0  0.13512646640E+03 -0.56193882443E+02 -0.25650973067E+03  0.34177572927E+03  0.17203631257E+03 0.  0.
         24    2    5    5    0    0  0.11606681100E+03 -0.98234089778E+02 -0.23284155739E+03  0.28969001219E+03  0.81139825651E+02 0.  0.
          5    1    5    5  501    0  0.19059655402E+02  0.42040207335E+02 -0.23668173278E+02  0.52085717074E+02  0.47000000000E+01 0. -1.
        -13    1    6    6    0    0  0.19854799911E+02 -0.41122093510E+01 -0.94599973845E+02  0.96748531755E+02  0.00000000000E+00 0.  1.
         14    1    6    6    0    0  0.96212011086E+02 -0.94121880427E+02 -0.13824158354E+03  0.19294148044E+03  0.00000000000E+00 0. -1.
         -5    1    3    3    0  503 -0.52461872100E+02 -0.33025340903E+02 -0.23619993797E+03  0.24424459434E+03  0.47000000000E+01 0.  1.
         11    1    4    4    0    0  0.93398568012E+00  0.45663873264E+02 -0.10039017067E+03  0.11029164981E+03  0.00000000000E+00 0. -1.
        -12    1    4    4    0    0 -0.83598579979E+02  0.43555350082E+02 -0.10467522052E+03  0.14086409367E+03  0.00000000000E+00 0.  1.
</event>
<event>
12    1  0.8258923E-002  0.2095037E+03  0.7818608E-02  0.1142642E+00
         21   -1    0    0  503  502  0.00000000000E+00  0.00000000000E+00  0.21869636916E+03  0.21869636916E+03  0.00000000000E+00 0. -1.
         21   -1    0    0  501  503 -0.00000000000E+00 -0.00000000000E+00 -0.20230464127E+03  0.20230464127E+03  0.00000000000E+00 0.  1.
          6    2    1    2  501    0 -0.64321138188E+01  0.11966170769E+03  0.40875487698E+02  0.21345398912E+03  0.17184732644E+03 0.  0.
         24    2    3    3    0    0 -0.27281062299E+02  0.15015416271E+03  0.47557735215E+02  0.17562264104E+03  0.72739569197E+02 0.  0.
         -6    2    1    2    0  502  0.64321138188E+01 -0.11966170769E+03 -0.24483759808E+02  0.20754702131E+03  0.16767830862E+03 0.  0.
        -24    2    5    5    0    0 -0.11941436333E+02 -0.94086129337E+02  0.44594336061E+02  0.13148408104E+03  0.79401581358E+02 0.  0.
          5    1    3    3  501    0  0.20848948480E+02 -0.30492455022E+02 -0.66822475167E+01  0.37831348084E+02  0.47000000000E+01 0. -1.
        -11    1    4    4    0    0  0.24059756462E+02  0.31796905544E+02  0.78673428571E+01  0.40642467529E+02  0.00000000000E+00 0.  1.
         12    1    4    4    0    0 -0.51340818761E+02  0.11835725717E+03  0.39690392358E+02  0.13498017351E+03  0.00000000000E+00 0. -1.
         -5    1    5    5    0  502  0.18373550152E+02 -0.25575578354E+02 -0.69078095869E+02  0.76062940268E+02  0.47000000000E+01 0.  1.
         11    1    6    6    0    0  0.21490253813E+02 -0.46304980218E+01  0.26250264016E+02  0.34239580631E+02  0.00000000000E+00 0. -1.
        -12    1    6    6    0    0 -0.33431690147E+02 -0.89455631316E+02  0.18344072045E+02  0.97244500407E+02  0.00000000000E+00 0.  1.
</event>
<event>
12    1  0.8258923E-002  0.3152615E+03  0.7818608E-02  0.1077953E+00
         21   -1    0    0  501  502  0.00000000000E+00  0.00000000000E+00  0.11246977085E+04  0.11246977085E+04  0.00000000000E+00 0. -1.
         21   -1    0    0  502  503 -0.00000000000E+00 -0.00000000000E+00 -0.14484327208E+03  0.14484327208E+03  0.00000000000E+00 0.  1.
         -6    2    1    2    0  503  0.22489519197E+03  0.13721681105E+03  0.93126264962E+02  0.32872831224E+03  0.17315744695E+03 0.  0.
        -24    2    3    3    0    0  0.17571749685E+03  0.15225067781E+03  0.10777361015E+03  0.27505245577E+03  0.99908932449E+02 0.  0.
          6    2    1    2  501    0 -0.22489519197E+03 -0.13721681105E+03  0.88672817143E+03  0.94081266831E+03  0.17156726448E+03 0.  0.
         24    2    5    5    0    0 -0.17689779990E+03 -0.14401049336E+03  0.83747981386E+03  0.87154944222E+03  0.78702844988E+02 0.  0.
          5    1    5    5  501    0 -0.47997392073E+02  0.67936823069E+01  0.49248357571E+02  0.69263226091E+02  0.47000000000E+01 0. -1.
        -11    1    6    6    0    0 -0.27147742283E+01 -0.12231922770E+01  0.10913126878E+03  0.10917188294E+03  0.00000000000E+00 0.  1.
         12    1    6    6    0    0 -0.17418302567E+03 -0.14278730108E+03  0.72834854507E+03  0.76237755928E+03  0.00000000000E+00 0. -1.
         -5    1    3    3    0  503  0.49177695117E+02 -0.15033866760E+02 -0.14647345188E+02  0.53675856470E+02  0.47000000000E+01 0.  1.
         13    1    4    4    0    0  0.26122136445E+02  0.48610121687E+02 -0.12922735217E+02  0.56677217896E+02  0.00000000000E+00 0. -1.
        -14    1    4    4    0    0  0.14959536041E+03  0.10364055613E+03  0.12069634537E+03  0.21837523787E+03  0.00000000000E+00 0.  1.
</event>
<event>
12    1  0.8258923E-002  0.2018434E+03  0.7818608E-02  0.1148416E+00
         21   -1    0    0  503  502  0.00000000000E+00  0.00000000000E+00  0.12452637591E+03  0.12452637591E+03  0.00000000000E+00 0.  1.
         21   -1    0    0  501  503 -0.00000000000E+00 -0.00000000000E+00 -0.82648878825E+03  0.82648878825E+03  0.00000000000E+00 0.  1.
          6    2    1    2  501    0 -0.10607940963E+03  0.42516614902E+01 -0.72085118372E+03  0.74828986427E+03  0.17041236496E+03 0.  0.
         24    2    3    3    0    0 -0.13406152269E+03 -0.13049538258E+02 -0.47503855099E+03  0.50024093649E+03  0.80228344755E+02 0.  0.
         -6    2    1    2    0  502  0.10607940963E+03 -0.42516614902E+01  0.18888771378E+02  0.20272529989E+03  0.17166782971E+03 0.  0.
        -24    2    5    5    0    0 -0.37284648805E+01  0.28912256919E+02 -0.62816974949E+01  0.85195485402E+02  0.79805958167E+02 0.  0.
          5    1    3    3  501    0  0.27982113057E+02  0.17301199748E+02 -0.24581263272E+03  0.24804892777E+03  0.47000000000E+01 0. -1.
        -11    1    4    4    0    0 -0.45263441808E+02 -0.27214355922E+02 -0.85813024420E+02  0.10076346308E+03  0.00000000000E+00 0.  1.
         12    1    4    4    0    0 -0.88798080881E+02  0.14164817664E+02 -0.38922552657E+03  0.39947747341E+03  0.00000000000E+00 0. -1.
         -5    1    5    5    0  502  0.10980787451E+03 -0.33163918409E+02  0.25170468873E+02  0.11752981448E+03  0.47000000000E+01 0.  1.
         13    1    6    6    0    0 -0.34557706872E+02  0.96906335469E+01  0.19310586917E+02  0.40755886076E+02  0.00000000000E+00 0. -1.
        -14    1    6    6    0    0  0.30829241991E+02  0.19221623372E+02 -0.25592284412E+02  0.44439599326E+02  0.00000000000E+00 0.  1.
</event>
<event>
12    1  0.8258923E-002  0.1777916E+03  0.7818608E-02  0.1170059E+00
         21   -1    0    0  503  502  0.00000000000E+00  0.00000000000E+00  0.79728575298E+02  0.79728575298E+02  0.00000000000E+00 0.  1.
         21   -1    0    0  501  503 -0.00000000000E+00 -0.00000000000E+00 -0.41148317463E+03  0.41148317463E+03  0.00000000000E+00 0.  1.
          6    2    1    2  501    0 -0.18527126215E+02  0.40746404864E+02 -0.11735758268E+03  0.21268721451E+03  0.17163777291E+03 0.  0.
         24    2    3    3    0    0 -0.59864289135E+02  0.64044217351E+02 -0.11428019574E+03  0.16490532029E+03  0.80301971530E+02 0.  0.
         -6    2    1    2    0  502  0.18527126215E+02 -0.40746404864E+02 -0.21439701666E+03  0.27852453542E+03  0.17206484872E+03 0.  0.
        -24    2    5    5    0    0 -0.12254759171E+02  0.40243577415E+02 -0.11017884338E+03  0.14291325514E+03  0.80716146594E+02 0.  0.
          5    1    3    3  501    0  0.41337162920E+02 -0.23297812487E+02 -0.30773869366E+01  0.47781894221E+02  0.47000000000E+01 0. -1.
        -13    1    4    4    0    0 -0.23438789485E+02  0.76115167895E+02 -0.67493054837E+02  0.10439448303E+03  0.00000000000E+00 0.  1.
         14    1    4    4    0    0 -0.36425499650E+02 -0.12070950544E+02 -0.46787140903E+02  0.60510837258E+02  0.00000000000E+00 0. -1.
         -5    1    5    5    0  502  0.30781885386E+02 -0.80989982280E+02 -0.10421817328E+03  0.13561128028E+03  0.47000000000E+01 0.  1.
         13    1    6    6    0    0  0.84395303093E+01  0.24264971238E+02 -0.11366908776E+03  0.11653615753E+03  0.00000000000E+00 0. -1.
        -14    1    6    6    0    0 -0.20694289480E+02  0.15978606178E+02  0.34902443760E+01  0.26377097609E+02  0.00000000000E+00 0.  1.
</event>
<event>
12    1  0.8258923E-002  0.2626377E+03  0.7818608E-02  0.1105953E+00
         21   -1    0    0  501  502  0.00000000000E+00  0.00000000000E+00  0.20261336749E+03  0.20261336749E+03  0.00000000000E+00 0. -1.
         21   -1    0    0  502  503 -0.00000000000E+00 -0.00000000000E+00 -0.33914598618E+03  0.33914598618E+03  0.00000000000E+00 0. -1.
         -6    2    1    2    0  503  0.19272012652E+03 -0.27172222956E+02 -0.88921015129E+02  0.27484094319E+03  0.17248542041E+03 0.  0.
        -24    2    3    3    0    0  0.95594587766E+02  0.43338930165E+02 -0.11347724386E+02  0.13185528506E+03  0.78996564940E+02 0.  0.
          6    2    1    2  501    0 -0.19272012652E+03  0.27172222956E+02 -0.47611603561E+02  0.26691841048E+03  0.17634964189E+03 0.  0.
         24    2    5    5    0    0 -0.17869254443E+03  0.51935352470E+02 -0.83695867225E+02  0.22072155207E+03  0.84170654554E+02 0.  0.
          5    1    5    5  501    0 -0.14027582093E+02 -0.24763129514E+02  0.36084263664E+02  0.46196858409E+02  0.47000000000E+01 0. -1.
        -11    1    6    6    0    0 -0.42579132893E+02  0.23364479837E+02  0.14248181529E+02  0.50615137586E+02  0.00000000000E+00 0.  1.
         12    1    6    6    0    0 -0.13611341153E+03  0.28570872632E+02 -0.97944048754E+02  0.17010641448E+03  0.00000000000E+00 0. -1.
         -5    1    3    3    0  503  0.97125538754E+02 -0.70511153120E+02 -0.77573290744E+02  0.14298565812E+03  0.47000000000E+01 0.  1.
         11    1    4    4    0    0  0.59252664546E+02 -0.10194049477E+02  0.15043651615E+02  0.61976675891E+02  0.00000000000E+00 0. -1.
        -12    1    4    4    0    0  0.36341923220E+02  0.53532979642E+02 -0.26391376001E+02  0.69878609172E+02  0.00000000000E+00 0.  1.
</event>
<event>
12    1  0.8258923E-002  0.2034378E+03  0.7818608E-02  0.1147008E+00
         21   -1    0    0  503  502  0.00000000000E+00  0.00000000000E+00  0.16927638630E+03  0.16927638630E+03  0.00000000000E+00 0.  1.
         21   -1    0    0  501  503 -0.00000000000E+00 -0.00000000000E+00 -0.27986240169E+03  0.27986240169E+03  0.00000000000E+00 0. -1.
          6    2    1    2  501    0  0.60945252053E+02  0.90295270800E+02 -0.13609989184E+03  0.24476546005E+03  0.17181207815E+03 0.  0.
         24    2    3    3    0    0  0.86542565138E+02  0.77345732693E+02 -0.36569495214E+02  0.14107697069E+03  0.71368100237E+02 0.  0.
         -6    2    1    2    0  502 -0.60945252053E+02 -0.90295270800E+02  0.25513876447E+02  0.20437332794E+03  0.17102613720E+03 0.  0.
        -24    2    5    5    0    0 -0.19604916079E+02 -0.61064413188E+02 -0.49497392556E+02  0.11375187964E+03  0.79851630910E+02 0.  0.
          5    1    3    3  501    0 -0.25597313085E+02  0.12949538106E+02 -0.99530396627E+02  0.10368848937E+03  0.47000000000E+01 0. -1.
        -11    1    4    4    0    0 -0.13135077857E+01  0.20371685837E+02  0.14039366451E+02  0.24775687617E+02  0.00000000000E+00 0.  1.
         12    1    4    4    0    0  0.87856072924E+02  0.56974046856E+02 -0.50608861665E+02  0.11630128307E+03  0.00000000000E+00 0. -1.
         -5    1    5    5    0  502 -0.41340335974E+02 -0.29230857612E+02  0.75011269003E+02  0.90621448303E+02  0.47000000000E+01 0.  1.
         11    1    6    6    0    0 -0.48602264939E+02 -0.24117324971E+02 -0.17852758834E+02  0.57118705508E+02  0.00000000000E+00 0. -1.
        -12    1    6    6    0    0  0.28997348860E+02 -0.36947088217E+02 -0.31644633722E+02  0.56633174130E+02  0.00000000000E+00 0.  1.
</event>
<event>
12    1  0.8258923E-002  0.1738192E+03  0.7818608E-02  0.1174266E+00
         21   -1    0    0  503  502  0.00000000000E+00  0.00000000000E+00  0.97891099862E+03  0.97891099862E+03  0.00000000000E+00 0.  1.
         21   -1    0    0  501  503 -0.00000000000E+00 -0.00000000000E+00 -0.10118383796E+03  0.10118383796E+03  0.00000000000E+00 0.  1.
          6    2    1    2  501    0  0.30816848306E+02 -0.31732330852E+01 -0.11592983477E+02  0.17420533624E+03  0.17103612005E+03 0.  0.
         24    2    3    3    0    0  0.37187825264E+02 -0.30071638481E+02  0.51981551009E+02  0.10472206491E+03  0.77313591592E+02 0.  0.
         -6    2    1    2    0  502 -0.30816848306E+02  0.31732330852E+01  0.88932014414E+03  0.90588950034E+03  0.16966355089E+03 0.  0.
        -24    2    5    5    0    0 -0.30408968811E+02  0.69319435603E+02  0.56917959095E+03  0.57895288527E+03  0.74102274420E+02 0.  0.
          5    1    3    3  501    0 -0.63709769586E+01  0.26898405396E+02 -0.63574534487E+02  0.69483271335E+02  0.47000000000E+01 0. -1.
        -13    1    4    4    0    0  0.52197232709E+02  0.53711438668E+00  0.47053266393E+02  0.70276948373E+02  0.00000000000E+00 0.  1.
         14    1    4    4    0    0 -0.15009407445E+02 -0.30608752868E+02  0.49282846167E+01  0.34445116537E+02  0.00000000000E+00 0. -1.
         -5    1    5    5    0  502 -0.40787949477E+00 -0.66146202517E+02  0.32014055319E+03  0.32693661507E+03  0.47000000000E+01 0.  1.
         13    1    6    6    0    0  0.54113519074E+01  0.49826877629E+02  0.15806961094E+03  0.16582521632E+03  0.00000000000E+00 0. -1.
        -14    1    6    6    0    0 -0.35820320718E+02  0.19492557973E+02  0.41110998000E+03  0.41312766895E+03  0.00000000000E+00 0.  1.
</event>
<event>
12    1  0.8258923E-002  0.1952543E+03  0.7818608E-02  0.1153860E+00
         21   -1    0    0  501  502  0.00000000000E+00  0.00000000000E+00  0.63133684826E+03  0.63133684826E+03  0.00000000000E+00 0.  1.
         21   -1    0    0  502  503 -0.00000000000E+00 -0.00000000000E+00 -0.86932283037E+02  0.86932283037E+02  0.00000000000E+00 0.  1.
         -6    2    1    2    0  503 -0.84686599787E+02  0.35727421574E+02  0.73580220169E+02  0.20865830344E+03  0.17226714707E+03 0.  0.
        -24    2    3    3    0    0 -0.80651362111E+02  0.87635737019E+02  0.29474273287E+02  0.14026107466E+03  0.67968902191E+02 0.  0.
          6    2    1    2  501    0  0.84686599787E+02 -0.35727421574E+02  0.47082434505E+03  0.50961082785E+03  0.17198652021E+03 0.  0.
         24    2    5    5    0    0  0.59384807542E+02 -0.82788801735E+02  0.23634987437E+03  0.26907949601E+03  0.78498222917E+02 0.  0.
          5    1    5    5  501    0  0.25301792245E+02  0.47061380160E+02  0.23447447068E+03  0.24053133184E+03  0.47000000000E+01 0. -1.
        -13    1    6    6    0    0  0.49185138998E+02 -0.71742562918E+02  0.23852268983E+03  0.25388825651E+03  0.00000000000E+00 0.  1.
         14    1    6    6    0    0  0.10199668544E+02 -0.11046238817E+02 -0.21728154636E+01  0.15191239497E+02  0.00000000000E+00 0. -1.
         -5    1    3    3    0  503 -0.40352376761E+01 -0.51908315445E+02  0.44105946882E+02  0.68397228787E+02  0.47000000000E+01 0.  1.
         11    1    4    4    0    0 -0.31225613203E+02  0.14723780711E+02  0.38503378183E+02  0.51714009416E+02  0.00000000000E+00 0. -1.
        -12    1    4    4    0    0 -0.49425748908E+02  0.72911956308E+02 -0.90291048962E+01  0.88547065242E+02  0.00000000000E+00 0.  1.
</event>
<event>
12    1  0.8258923E-002  0.1797326E+03  0.7818608E-02  0.1168120E+00
         21   -1    0    0  501  502  0.00000000000E+00  0.00000000000E+00  0.60221872186E+03  0.60221872186E+03  0.00000000000E+00 0.  1.
         21   -1    0    0  502  503 -0.00000000000E+00 -0.00000000000E+00 -0.11550785023E+03  0.11550785023E+03  0.00000000000E+00 0.  1.
         -6    2    1    2    0  503 -0.46747343292E+02 -0.26480809603E+02 -0.19506301590E+02  0.18054908653E+03  0.17126274979E+03 0.  0.
        -24    2    3    3    0    0 -0.81599779637E+02  0.42495168659E+01  0.23927287660E+02  0.11677125371E+03  0.79915131036E+02 0.  0.
          6    2    1    2  501    0  0.46747343292E+02  0.26480809603E+02  0.50621717322E+03  0.53717748555E+03  0.17151465574E+03 0.  0.
         24    2    5    5    0    0 -0.11914616664E+02 -0.36728823493E+02  0.19729391336E+03  0.21640910534E+03  0.80106479498E+02 0.  0.
          5    1    5    5  501    0  0.58661959956E+02  0.63209633096E+02  0.30892325986E+03  0.32076838022E+03  0.47000000000E+01 0. -1.
        -13    1    6    6    0    0  0.24032024266E+02  0.12886309625E+02  0.70445618274E+02  0.75539263301E+02  0.00000000000E+00 0.  1.
         14    1    6    6    0    0 -0.35946640930E+02 -0.49615133117E+02  0.12684829509E+03  0.14086984203E+03  0.00000000000E+00 0. -1.
         -5    1    3    3    0  503  0.34852436345E+02 -0.30730326469E+02 -0.43433589250E+02  0.63777832820E+02  0.47000000000E+01 0.  1.
         13    1    4    4    0    0 -0.52372996254E+02  0.34260896074E+02  0.37227574080E+02  0.72819173356E+02  0.00000000000E+00 0. -1.
        -14    1    4    4    0    0 -0.29226783383E+02 -0.30011379208E+02 -0.13300286420E+02  0.43952080357E+02  0.00000000000E+00 0.  1.
</event>
<event>
12    1  0.8258923E-002  0.1937523E+03  0.7818608E-02  0.1155295E+00
         21   -1    0    0  501  502  0.00000000000E+00  0.00000000000E+00  0.80807513856E+03  0.80807513856E+03  0.00000000000E+00 0.  1.
         21   -1    0    0  502  503 -0.00000000000E+00 -0.00000000000E+00 -0.12933077661E+03  0.12933077661E+03  0.00000000000E+00 0.  1.
         -6    2    1    2    0  503 -0.57479785829E+02 -0.67747710512E+02 -0.36505253742E+02  0.19637826472E+03  0.17128371565E+03 0.  0.
        -24    2    3    3    0    0 -0.79729758528E+02 -0.17544246248E+02 -0.66955355947E+02  0.13341202112E+03  0.81554354373E+02 0.  0.
          6    2    1    2  501    0  0.57479785829E+02  0.67747710512E+02  0.71524961569E+03  0.74102765044E+03  0.17218097432E+03 0.  0.
         24    2    5    5    0    0 -0.10474790344E+02  0.22502560200E+02  0.16516817867E+03  0.18490120313E+03  0.79321127225E+02 0.  0.
          5    1    5    5  501    0  0.67954576173E+02  0.45245150312E+02  0.55008143702E+03  0.55612644732E+03  0.47000000000E+01 0. -1.
        -11    1    6    6    0    0 -0.28349945131E+02  0.44147565538E+02  0.12790339246E+03  0.13824617440E+03  0.00000000000E+00 0.  1.
         12    1    6    6    0    0  0.17875154787E+02 -0.21645005338E+02  0.37264786206E+02  0.46655028729E+02  0.00000000000E+00 0. -1.
         -5    1    3    3    0  503  0.22249972699E+02 -0.50203464264E+02  0.30450102205E+02  0.62966243604E+02  0.47000000000E+01 0.  1.
         11    1    4    4    0    0 -0.58063122787E+02  0.27664042962E+02 -0.29103675420E+02  0.70594967411E+02  0.00000000000E+00 0. -1.
        -12    1    4    4    0    0 -0.21666635741E+02 -0.45208289210E+02 -0.37851680526E+02  0.62817053706E+02  0.00000000000E+00 0.  1.
</event>
<event>
12    1  0.8258923E-002  0.2273080E+03  0.7818608E-02  0.1129275E+00
         21   -1    0    0  503  502  0.00000000000E+00  0.00000000000E+00  0.14001231745E+04  0.14001231745E+04  0.00000000000E+00 0.  1.
         21   -1    0    0  501  503 -0.00000000000E+00 -0.00000000000E+00 -0.11542779364E+03  0.11542779364E+03  0.00000000000E+00 0.  1.
          6    2    1    2  501    0 -0.10453207196E+03 -0.95429707501E+02  0.12960302583E+02  0.22366126067E+03  0.17269223185E+03 0.  0.
         24    2    3    3    0    0 -0.10304620835E+03 -0.49711337569E+01  0.20406658471E+02  0.13276296822E+03  0.81032961160E+02 0.  0.
         -6    2    1    2    0  502  0.10453207196E+03  0.95429707501E+02  0.12717350783E+04  0.12918897074E+04  0.17786265434E+03 0.  0.
        -24    2    5    5    0    0 -0.19124591858E+02  0.45843664335E+02  0.49217662251E+03  0.50101473497E+03  0.79438940903E+02 0.  0.
          5    1    3    3  501    0 -0.14858636037E+01 -0.90458573744E+02 -0.74463558880E+01  0.90898292451E+02  0.47000000000E+01 0. -1.
        -13    1    4    4    0    0 -0.83260322978E+02 -0.33341381694E+02  0.33555597884E+02  0.95759632753E+02  0.00000000000E+00 0.  1.
         14    1    4    4    0    0 -0.19785885374E+02  0.28370247937E+02 -0.13148939414E+02  0.37003335468E+02  0.00000000000E+00 0. -1.
         -5    1    5    5    0  502  0.12365666381E+03  0.49586043166E+02  0.77955845574E+03  0.79087497248E+03  0.47000000000E+01 0.  1.
         13    1    6    6    0    0 -0.33786059052E+01  0.37220444510E+02  0.78436787915E+02  0.86885592395E+02  0.00000000000E+00 0. -1.
        -14    1    6    6    0    0 -0.15745985952E+02  0.86232198246E+01  0.41373983460E+03  0.41412914257E+03  0.00000000000E+00 0.  1.
</event>
<event>
12    1  0.8258923E-002  0.2172083E+03  0.7818608E-02  0.1136241E+00
         21   -1    0    0  501  502  0.00000000000E+00  0.00000000000E+00  0.49141975736E+03  0.49141975736E+03  0.00000000000E+00 0. -1.
         21   -1    0    0  502  503 -0.00000000000E+00 -0.00000000000E+00 -0.26868976963E+03  0.26868976963E+03  0.00000000000E+00 0. -1.
         -6    2    1    2    0  503  0.11594558343E+03  0.61208406347E+02 -0.19397046642E+03  0.29019601865E+03  0.17146235760E+03 0.  0.
        -24    2    3    3    0    0  0.59421945204E+02  0.89475730441E+02 -0.18145249510E+03  0.22559916969E+03  0.80206629887E+02 0.  0.
          6    2    1    2  501    0 -0.11594558343E+03 -0.61208406347E+02  0.41670045416E+03  0.46991350834E+03  0.17317502564E+03 0.  0.
         24    2    5    5    0    0 -0.12566603103E+03 -0.97414070260E+02  0.32568908572E+03  0.37137165740E+03  0.81006635077E+02 0.  0.
          5    1    5    5  501    0  0.97204476089E+01  0.36205663913E+02  0.91011368439E+02  0.98541850938E+02  0.47000000000E+01 0. -1.
        -11    1    6    6    0    0 -0.26627708845E+02 -0.61827133403E+02  0.83141008925E+02  0.10697689782E+03  0.00000000000E+00 0.  1.
         12    1    6    6    0    0 -0.99038322189E+02 -0.35586936858E+02  0.24254807679E+03  0.26439475958E+03  0.00000000000E+00 0. -1.
         -5    1    3    3    0  503  0.56523638221E+02 -0.28267324094E+02 -0.12517971322E+02  0.64596848957E+02  0.47000000000E+01 0.  1.
         11    1    4    4    0    0  0.57535054472E+02  0.50141011862E+02 -0.16706862822E+03  0.18367452218E+03  0.00000000000E+00 0. -1.
        -12    1    4    4    0    0  0.18868907317E+01  0.39334718578E+02 -0.14383866879E+02  0.41924647508E+02  0.00000000000E+00 0.  1.
</event>
<event>
12    1  0.8258923E-002  0.2048768E+03  0.7818608E-02  0.1146033E+00
         21   -1    0    0  501  502  0.00000000000E+00  0.00000000000E+00  0.11051448806E+03  0.11051448806E+03  0.00000000000E+00 0.  1.
         21   -1    0    0  502  503 -0.00000000000E+00 -0.00000000000E+00 -0.38204965465E+03  0.38204965465E+03  0.00000000000E+00 0. -1.
         -6    2    1    2    0  503 -0.10638664511E+03 -0.36715668403E+02 -0.10608987093E+03  0.22922661103E+03  0.16918516461E+03 0.  0.
        -24    2    3    3    0    0 -0.35549046175E+02 -0.65434930051E+01 -0.12372102834E+03  0.15009840302E+03  0.76916095527E+02 0.  0.
          6    2    1    2  501    0  0.10638664511E+03  0.36715668403E+02 -0.16544529565E+03  0.26333753168E+03  0.17119682000E+03 0.  0.
         24    2    5    5    0    0  0.11088233514E+03 -0.20785888565E+02 -0.15700060531E+03  0.20485639731E+03  0.67749598081E+02 0.  0.
          5    1    5    5  501    0 -0.44956900397E+01  0.57501556968E+02 -0.84446903375E+01  0.58481134373E+02  0.47000000000E+01 0. -1.
        -11    1    6    6    0    0 -0.78788103462E+00 -0.11300731421E+02 -0.45034019373E+02  0.46436948522E+02  0.00000000000E+00 0.  1.
         12    1    6    6    0    0  0.11167021618E+03 -0.94851571444E+01 -0.11196658594E+03  0.15841944879E+03  0.00000000000E+00 0. -1.
         -5    1    3    3    0  503 -0.70837598930E+02 -0.30172175398E+02  0.17631157410E+02  0.79128208004E+02  0.47000000000E+01 0.  1.
         13    1    4    4    0    0 -0.41241322450E+02 -0.28184500280E+02 -0.11621557287E+03  0.12649613476E+03  0.00000000000E+00 0. -1.
        -14    1    4    4    0    0  0.56922762748E+01  0.21641007275E+02 -0.75054554768E+01  0.23602268260E+02  0.00000000000E+00 0.  1.
</event>
<event>
12    1  0.8258923E-002  0.1886876E+03  0.7818608E-02  0.1160250E+00
         21   -1    0    0  503  502  0.00000000000E+00  0.00000000000E+00  0.36180091314E+02  0.36180091314E+02  0.00000000000E+00 0. -1.
         21   -1    0    0  501  503 -0.00000000000E+00 -0.00000000000E+00 -0.10519961562E+04  0.10519961562E+04  0.00000000000E+00 0. -1.
          6    2    1    2  501    0  0.65344603259E+02 -0.23674126108E+02 -0.35970619170E+03  0.40619151877E+03  0.17542127622E+03 0.  0.
         24    2    3    3    0    0  0.89454178769E+02 -0.20032138376E+02 -0.36124155377E+03  0.38131214895E+03  0.80623557978E+02 0.  0.
         -6    2    1    2    0  502 -0.65344603259E+02  0.23674126108E+02 -0.65610987317E+03  0.68198472873E+03  0.17260539716E+03 0.  0.
        -24    2    5    5    0    0 -0.25693980765E+02 -0.43167487097E+02 -0.47699355870E+03  0.48667800271E+03  0.82516729751E+02 0.  0.
          5    1    3    3  501    0 -0.24109575511E+02 -0.36419877321E+01  0.15353620665E+01  0.24879369820E+02  0.47000000000E+01 0. -1.
        -13    1    4    4    0    0  0.55389845592E+02  0.23270270390E+02 -0.12441817036E+03  0.13816447298E+03  0.00000000000E+00 0.  1.
         14    1    4    4    0    0  0.34064333178E+02 -0.43302408767E+02 -0.23682338341E+03  0.24314767597E+03  0.00000000000E+00 0. -1.
         -5    1    5    5    0  502 -0.39650622494E+02  0.66841613205E+02 -0.17911631447E+03  0.19530672602E+03  0.47000000000E+01 0.  1.
         13    1    6    6    0    0  0.18062732449E+02 -0.14040243183E+02 -0.36623425163E+02  0.43181778597E+02  0.00000000000E+00 0. -1.
        -14    1    6    6    0    0 -0.43756713213E+02 -0.29127243914E+02 -0.44037013354E+03  0.44349622411E+03  0.00000000000E+00 0.  1.
</event>
<event>
12    1  0.8258923E-002  0.1841838E+03  0.7818608E-02  0.1163856E+00
         21   -1    0    0  501  502  0.00000000000E+00  0.00000000000E+00  0.86494910795E+02  0.86494910795E+02  0.00000000000E+00 0. -1.
         21   -1    0    0  502  503 -0.00000000000E+00 -0.00000000000E+00 -0.44856053134E+03  0.44856053134E+03  0.00000000000E+00 0. -1.
         -6    2    1    2    0  503 -0.61993470373E+02 -0.21024077629E+02 -0.85808428407E+02  0.20302876511E+03  0.17196624920E+03 0.  0.
        -24    2    3    3    0    0 -0.92186974399E+02 -0.47250564858E+02 -0.46475115350E+02  0.14673777263E+03  0.92956890232E+02 0.  0.
          6    2    1    2  501    0  0.61993470373E+02  0.21024077629E+02 -0.27625719214E+03  0.33202667703E+03  0.17215828717E+03 0.  0.
         24    2    5    5    0    0  0.18346101666E+01  0.57657251469E+02 -0.22081999397E+03  0.24226894295E+03  0.81271437411E+02 0.  0.
          5    1    5    5  501    0  0.60158860206E+02 -0.36633173840E+02 -0.55437198171E+02  0.89757734084E+02  0.47000000000E+01 0. -1.
        -13    1    6    6    0    0 -0.10566514489E+02  0.34751315960E+02 -0.23554299861E+02  0.43290994806E+02  0.00000000000E+00 0.  1.
         14    1    6    6    0    0  0.12401124655E+02  0.22905935509E+02 -0.19726569411E+03  0.19897794814E+03  0.00000000000E+00 0. -1.
         -5    1    3    3    0  503  0.30193504026E+02  0.26226487229E+02 -0.39333313057E+02  0.56290992475E+02  0.47000000000E+01 0.  1.
         13    1    4    4    0    0 -0.41075454866E+02  0.24225797500E+02 -0.77519594539E+00  0.47693638839E+02  0.00000000000E+00 0. -1.
        -14    1    4    4    0    0 -0.51111519533E+02 -0.71476362358E+02 -0.45699919405E+02  0.99044133791E+02  0.00000000000E+00 0.  1.
</event>
<event>
12    1  0.8258923E-002  0.1860844E+03  0.7818608E-02  0.1162755E+00
         21   -1    0    0  503  502  0.00000000000E+00  0.00000000000E+00  0.13733933909E+03  0.13733933909E+03  0.00000000000E+00 0.  1.
         21   -1    0    0  501  503 -0.00000000000E+00 -0.00000000000E+00 -0.39245754484E+03  0.39245754484E+03  0.00000000000E+00 0.  1.
          6    2    1    2  501    0 -0.59224589368E+02  0.29848114263E+02 -0.28892926965E+03  0.34366774033E+03  0.17386469156E+03 0.  0.
         24    2    3    3    0    0 -0.94393247894E+02  0.34333638224E+02 -0.14255465662E+03  0.19298737729E+03  0.82664464582E+02 0.  0.
         -6    2    1    2    0  502  0.59224589368E+02 -0.29848114263E+02  0.33811063906E+02  0.18612914361E+03  0.17059427935E+03 0.  0.
        -24    2    5    5    0    0 -0.73947813767E+01 -0.71112613819E+01  0.70363014562E+02  0.10667324304E+03  0.79517131066E+02 0.  0.
          5    1    3    3  501    0  0.35168658526E+02 -0.44855239608E+01 -0.14637461303E+03  0.15068036305E+03  0.47000000000E+01 0. -1.
        -11    1    4    4    0    0 -0.46227459145E+02 -0.22084177343E+02 -0.84381255705E+02  0.98716185007E+02  0.00000000000E+00 0.  1.
         12    1    4    4    0    0 -0.48165788749E+02  0.56417815567E+02 -0.58173400919E+02  0.94271192279E+02  0.00000000000E+00 0. -1.
         -5    1    5    5    0  502  0.66619370745E+02 -0.22736852882E+02 -0.36551950657E+02  0.79455900562E+02  0.47000000000E+01 0.  1.
         11    1    6    6    0    0  0.35027491129E+01 -0.15041497610E+02 -0.14237871106E+02  0.21005543919E+02  0.00000000000E+00 0. -1.
        -12    1    6    6    0    0 -0.10897530490E+02  0.79302362280E+01  0.84600885668E+02  0.85667699124E+02  0.00000000000E+00 0.  1.
</event>
<event>
12    1  0.8258923E-002  0.3518617E+03  0.7818608E-02  0.1062115E+00
         21   -1    0    0  503  502  0.00000000000E+00  0.00000000000E+00  0.97950941339E+03  0.97950941339E+03  0.00000000000E+00 0.  1.
         21   -1    0    0  501  503 -0.00000000000E+00 -0.00000000000E+00 -0.13971518064E+03  0.13971518064E+03  0.00000000000E+00 0.  1.
          6    2    1    2  501    0  0.68316216003E+02  0.29799150602E+03  0.23990609218E+03  0.42375896454E+03  0.16896947634E+03 0.  0.
         24    2    3    3    0    0  0.10688842490E+03  0.23092498478E+03  0.21536556553E+03  0.34245668278E+03  0.78375817644E+02 0.  0.
         -6    2    1    2    0  502 -0.68316216003E+02 -0.29799150602E+03  0.59988814057E+03  0.69546562948E+03  0.17418558369E+03 0.  0.
        -24    2    5    5    0    0  0.38097252315E+01 -0.56807131779E+02  0.19853738039E+03  0.22167603855E+03  0.80508449422E+02 0.  0.
          5    1    3    3  501    0 -0.38572208900E+02  0.67066521244E+02  0.24540526646E+02  0.81302281759E+02  0.47000000000E+01 0. -1.
        -13    1    4    4    0    0  0.23021116675E+02  0.13320255508E+03  0.13272886360E+03  0.18944614993E+03  0.00000000000E+00 0.  1.
         14    1    4    4    0    0  0.83867308228E+02  0.97722429697E+02  0.82636701933E+02  0.15301053284E+03  0.00000000000E+00 0. -1.
         -5    1    5    5    0  502 -0.72125941234E+02 -0.24118437424E+03  0.40135076018E+03  0.47378959093E+03  0.47000000000E+01 0.  1.
         13    1    6    6    0    0 -0.88254558868E+01 -0.31911941237E+02  0.15564808471E+02  0.36585843271E+02  0.00000000000E+00 0. -1.
        -14    1    6    6    0    0  0.12635181118E+02 -0.24895190542E+02  0.18297257192E+03  0.18509019528E+03  0.00000000000E+00 0.  1.
</event>
<event>
12    1  0.8258923E-002  0.2132606E+03  0.7818608E-02  0.1139139E+00
         21   -1    0    0  503  502  0.00000000000E+00  0.00000000000E+00  0.52593400768E+03  0.52593400768E+03  0.00000000000E+00 0.  1.
         21   -1    0    0  501  503 -0.00000000000E+00 -0.00000000000E+00 -0.11075524595E+03  0.11075524595E+03  0.00000000000E+00 0. -1.
          6    2    1    2  501    0 -0.11467151870E+03  0.51183623261E+02  0.57456047242E+02  0.22022123400E+03  0.17154263041E+03 0.  0.
         24    2    3    3    0    0 -0.25751409292E+02 -0.21068097520E+02  0.61726532177E+02  0.10547183725E+03  0.78785429265E+02 0.  0.
         -6    2    1    2    0  502  0.11467151870E+03 -0.51183623261E+02  0.35772271450E+03  0.41646801963E+03  0.17236806670E+03 0.  0.
        -24    2    5    5    0    0  0.13432743864E+03 -0.33387878498E+02  0.19716661862E+03  0.25366939051E+03  0.79466175082E+02 0.  0.
          5    1    3    3  501    0 -0.88920109407E+02  0.72251720781E+02 -0.42704849345E+01  0.11474939675E+03  0.47000000000E+01 0. -1.
        -11    1    4    4    0    0  0.18319163938E+02  0.15689550872E+02  0.47094058162E+01  0.24575033613E+02  0.00000000000E+00 0.  1.
         12    1    4    4    0    0 -0.44070573230E+02 -0.36757648392E+02  0.57017126361E+02  0.80896803636E+02  0.00000000000E+00 0. -1.
         -5    1    5    5    0  502 -0.19655919938E+02 -0.17795744763E+02  0.16055609588E+03  0.16279862912E+03  0.47000000000E+01 0.  1.
         13    1    6    6    0    0  0.17592636900E+02  0.23813382637E+02  0.36914446425E+02  0.47320760989E+02  0.00000000000E+00 0. -1.
        -14    1    6    6    0    0  0.11673480174E+03 -0.57201261135E+02  0.16025217220E+03  0.20634862952E+03  0.00000000000E+00 0.  1.
</event>
<event>
12    1  0.8258923E-002  0.2546216E+03  0.7818608E-02  0.1111589E+00
         21   -1    0    0  503  502  0.00000000000E+00  0.00000000000E+00  0.60070800187E+02  0.60070800187E+02  0.00000000000E+00 0. -1.
         21   -1    0    0  501  503 -0.00000000000E+00 -0.00000000000E+00 -0.11932008158E+04  0.11932008158E+04  0.00000000000E+00 0. -1.
          6    2    1    2  501    0 -0.56530141941E+02 -0.17903157749E+03 -0.79266982243E+03  0.83256088311E+03  0.17200062213E+03 0.  0.
         24    2    3    3    0    0 -0.87937192353E+02 -0.99658215011E+02 -0.37062168294E+03  0.40194126496E+03  0.80818556023E+02 0.  0.
         -6    2    1    2    0  502  0.56530141941E+02  0.17903157749E+03 -0.34046019314E+03  0.42071073284E+03  0.16073709878E+03 0.  0.
        -24    2    5    5    0    0  0.63607997195E+02  0.15249840726E+03 -0.34575206616E+03  0.39235232884E+03  0.84226582324E+02 0.  0.
          5    1    3    3  501    0  0.31407050412E+02 -0.79373362475E+02 -0.42204813950E+03  0.43061961815E+03  0.47000000000E+01 0. -1.
        -13    1    4    4    0    0 -0.12014830951E+02 -0.50520877228E+02 -0.64870330011E+02  0.83095576985E+02  0.00000000000E+00 0.  1.
         14    1    4    4    0    0 -0.75922361402E+02 -0.49137337783E+02 -0.30575135292E+03  0.31884568798E+03  0.00000000000E+00 0. -1.
         -5    1    5    5    0  502 -0.70778552546E+01  0.26533170225E+02  0.52918730136E+01  0.28358403996E+02  0.47000000000E+01 0.  1.
         13    1    6    6    0    0  0.64855135257E+02  0.47356408174E+02 -0.14799580584E+03  0.16837926389E+03  0.00000000000E+00 0. -1.
        -14    1    6    6    0    0 -0.12471380615E+01  0.10514199909E+03 -0.19775626032E+03  0.22397306495E+03  0.00000000000E+00 0.  1.
</event>
<event>
12    1  0.8258923E-002  0.3453874E+03  0.7818608E-02  0.1065070E+00
         21   -1    0    0  501  502  0.00000000000E+00  0.00000000000E+00  0.15699597617E+03  0.15699597617E+03  0.00000000000E+00 0.  1.
         21   -1    0    0  502  503 -0.00000000000E+00 -0.00000000000E+00 -0.91143350882E+03  0.91143350882E+03  0.00000000000E+00 0.  1.
         -6    2    1    2    0  503 -0.18480048902E+03 -0.23539515748E+03 -0.60543568753E+03  0.69702571412E+03  0.17242497935E+03 0.  0.
        -24    2    3    3    0    0 -0.19145839342E+02 -0.93709475536E+02 -0.24378767467E+03  0.27473710353E+03  0.83066339549E+02 0.  0.
          6    2    1    2  501    0  0.18480048902E+03  0.23539515748E+03 -0.14900184511E+03  0.37140377086E+03  0.16179341845E+03 0.  0.
         24    2    5    5    0    0  0.14882399846E+03  0.14885449896E+03 -0.43195272916E+02  0.22997988967E+03  0.81967515956E+02 0.  0.
          5    1    5    5  501    0  0.35976490558E+02  0.86540658519E+02 -0.10580657220E+03  0.14142388119E+03  0.47000000000E+01 0. -1.
        -11    1    6    6    0    0  0.15328630561E+03  0.14299765330E+03 -0.54398353389E+02  0.21657377770E+03  0.00000000000E+00 0.  1.
         12    1    6    6    0    0 -0.44623071425E+01  0.58568456600E+01  0.11203080474E+02  0.13406111972E+02  0.00000000000E+00 0. -1.
         -5    1    3    3    0  503 -0.16565464968E+03 -0.14168568195E+03 -0.36164801286E+03  0.42228861060E+03  0.47000000000E+01 0.  1.
         11    1    4    4    0    0 -0.28800239334E+02 -0.49044254473E+01 -0.25128193703E+02  0.38534832210E+02  0.00000000000E+00 0. -1.
        -12    1    4    4    0    0  0.96543999924E+01 -0.88805050089E+02 -0.21865948096E+03  0.23620227132E+03  0.00000000000E+00 0.  1.
</event>
<event>
12    1  0.8258923E-002  0.2045245E+03  0.7818608E-02  0.1147090E+00
         21   -1    0    0  503  502  0.00000000000E+00  0.00000000000E+00  0.15649283788E+03  0.15649283788E+03  0.00000000000E+00 0. -1.
         21   -1    0    0  501  503 -0.00000000000E+00 -0.00000000000E+00 -0.26794954687E+03  0.26794954687E+03  0.00000000000E+00 0. -1.
          6    2    1    2  501    0 -0.97438219483E+02  0.34854693261E+02 -0.90760267487E+02  0.21887337260E+03  0.17017364903E+03 0.  0.
         24    2    3    3    0    0  0.87678571374E+01 -0.14831902806E+02 -0.19244353247E+02  0.81450286737E+02  0.77245992893E+02 0.  0.
         -6    2    1    2    0  502  0.97438219483E+02 -0.34854693261E+02 -0.20696441506E+02  0.20556901215E+03  0.17641207387E+03 0.  0.
        -24    2    5    5    0    0  0.19055990333E+02  0.25669611529E+02 -0.53788447378E+02  0.10105041969E+03  0.79346899905E+02 0.  0.
          5    1    3    3  501    0 -0.10620607662E+03  0.49686596067E+02 -0.71515914239E+02  0.13742308587E+03  0.47000000000E+01 0. -1.
        -13    1    4    4    0    0 -0.11734669209E+02 -0.36812481641E+02 -0.30632201929E+02  0.49307129921E+02  0.00000000000E+00 0.  1.
         14    1    4    4    0    0  0.20502526347E+02  0.21980578835E+02  0.11387848681E+02  0.32143156816E+02  0.00000000000E+00 0. -1.
         -5    1    5    5    0  502  0.78382229150E+02 -0.60524304790E+02  0.33092005872E+02  0.10451859246E+03  0.47000000000E+01 0.  1.
         11    1    6    6    0    0 -0.96427316914E+01 -0.24969470352E+02 -0.11648706932E+02  0.29191592922E+02  0.00000000000E+00 0. -1.
        -12    1    6    6    0    0  0.28698722025E+02  0.50639081881E+02 -0.42139740446E+02  0.71858826768E+02  0.00000000000E+00 0.  1.
</event>
<event>
12    1  0.8258923E-002  0.1893210E+03  0.7818608E-02  0.1159258E+00
         21   -1    0    0  503  502  0.00000000000E+00  0.00000000000E+00  0.19022775392E+04  0.19022775392E+04  0.00000000000E+00 0. -1.
         21   -1    0    0  501  503 -0.00000000000E+00 -0.00000000000E+00 -0.18775263467E+02  0.18775263467E+02  0.00000000000E+00 0.  1.
          6    2    1    2  501    0  0.56370942890E+02  0.53113692695E+02  0.96966573730E+03  0.98797473813E+03  0.17275327361E+03 0.  0.
         24    2    3    3    0    0  0.10003114247E+03  0.31773401966E+02  0.82209026903E+03  0.83253269147E+03  0.79135917244E+02 0.  0.
         -6    2    1    2    0  502 -0.56370942890E+02 -0.53113692695E+02  0.91383653841E+03  0.93307806451E+03  0.17186828673E+03 0.  0.
        -24    2    5    5    0    0  0.29236009941E+02 -0.53555156246E+02  0.55075224520E+03  0.56000831334E+03  0.80983803187E+02 0.  0.
          5    1    3    3  501    0 -0.43660199577E+02  0.21340290728E+02  0.14757546827E+03  0.15544204666E+03  0.47000000000E+01 0. -1.
        -13    1    4    4    0    0  0.24458675754E+02  0.43139247703E+02  0.21465304834E+03  0.22030695104E+03  0.00000000000E+00 0.  1.
         14    1    4    4    0    0  0.75572466713E+02 -0.11365845737E+02  0.60743722069E+03  0.61222574044E+03  0.00000000000E+00 0. -1.
         -5    1    5    5    0  502 -0.85606952831E+02  0.44146355169E+00  0.36308429321E+03  0.37306975117E+03  0.47000000000E+01 0.  1.
         11    1    6    6    0    0 -0.30279378805E+01 -0.66487787641E+02  0.37225838354E+03  0.37816147137E+03  0.00000000000E+00 0. -1.
        -12    1    6    6    0    0  0.32263947822E+02  0.12932631394E+02  0.17849386166E+03  0.18184684197E+03  0.00000000000E+00 0.  1.
</event>
<event>
12    1  0.8258923E-002  0.1963701E+03  0.7818608E-02  0.1152982E+00
         21   -1    0    0  501  502  0.00000000000E+00  0.00000000000E+00  0.31829210973E+03  0.31829210973E+03  0.00000000000E+00 0. -1.
         21   -1    0    0  502  503 -0.00000000000E+00 -0.00000000000E+00 -0.38538686591E+03  0.38538686591E+03  0.00000000000E+00 0. -1.
         -6    2    1    2    0  503  0.72557415376E+02 -0.61583772709E+02 -0.32512545945E+03  0.37982599008E+03  0.17176751371E+03 0.  0.
        -24    2    3    3    0    0  0.22328789524E+02 -0.46587046106E+02 -0.67828912502E+02  0.11720188658E+03  0.80415130049E+02 0.  0.
          6    2    1    2  501    0 -0.72557415376E+02  0.61583772709E+02  0.25803070327E+03  0.32385298557E+03  0.17100810753E+03 0.  0.
         24    2    5    5    0    0 -0.69054302599E+02  0.46937335854E+02  0.74825228221E+02  0.13996952791E+03  0.83791668799E+02 0.  0.
          5    1    5    5  501    0 -0.35031127776E+01  0.14646436856E+02  0.18320547505E+03  0.18388345766E+03  0.47000000000E+01 0. -1.
        -13    1    6    6    0    0  0.10975479351E+02  0.35196637014E+02  0.17377195726E+02  0.40758205743E+02  0.00000000000E+00 0.  1.
         14    1    6    6    0    0 -0.80029781950E+02  0.11740698839E+02  0.57448032495E+02  0.99211322165E+02  0.00000000000E+00 0. -1.
         -5    1    3    3    0  503  0.50228625853E+02 -0.14996726603E+02 -0.25729654695E+03  0.26262410350E+03  0.47000000000E+01 0.  1.
         13    1    4    4    0    0  0.32354301340E+02  0.16373808949E+01 -0.58788579483E+02  0.67123609177E+02  0.00000000000E+00 0. -1.
        -14    1    4    4    0    0 -0.10025511816E+02 -0.48224427001E+02 -0.90403330196E+01  0.50078277405E+02  0.00000000000E+00 0.  1.
</event>
<event>
12    1  0.8258923E-002  0.2222002E+03  0.7818608E-02  0.1132662E+00
         21   -1    0    0  503  502  0.00000000000E+00  0.00000000000E+00  0.33882190969E+03  0.33882190969E+03  0.00000000000E+00 0.  1.
         21   -1    0    0  501  503 -0.00000000000E+00 -0.00000000000E+00 -0.14568624121E+03  0.14568624121E+03  0.00000000000E+00 0.  1.
          6    2    1    2  501    0 -0.62583423442E+02  0.12210399040E+03  0.12089898598E+03  0.25296148371E+03  0.17477665195E+03 0.  0.
         24    2    3    3    0    0 -0.90340202750E+02  0.14351582883E+03  0.99948150489E+02  0.21185268745E+03  0.78318471874E+02 0.  0.
         -6    2    1    2    0  502  0.62583423442E+02 -0.12210399040E+03  0.72236682504E+02  0.23154666719E+03  0.17195828397E+03 0.  0.
        -24    2    5    5    0    0  0.42278497946E+02 -0.76942582679E+02  0.11542465186E+03  0.16567456806E+03  0.80109798571E+02 0.  0.
          5    1    3    3  501    0  0.27756779308E+02 -0.21411838422E+02  0.20950835488E+02  0.41108796259E+02  0.47000000000E+01 0. -1.
        -11    1    4    4    0    0 -0.96658537928E+02  0.97431244758E+02  0.57229804631E+02  0.14869758218E+03  0.00000000000E+00 0.  1.
         12    1    4    4    0    0  0.63183351779E+01  0.46084584068E+02  0.42718345858E+02  0.63155105265E+02  0.00000000000E+00 0. -1.
         -5    1    5    5    0  502  0.20304925496E+02 -0.45161407724E+02 -0.43187969353E+02  0.65872099130E+02  0.47000000000E+01 0.  1.
         13    1    6    6    0    0  0.67981190640E+01  0.16552986136E+02  0.10590303137E+02  0.20793515656E+02  0.00000000000E+00 0. -1.
        -14    1    6    6    0    0  0.35480378882E+02 -0.93495568814E+02  0.10483434872E+03  0.14488105240E+03  0.00000000000E+00 0.  1.
</event>
<event>
12    1  0.8258923E-002  0.2043802E+03  0.7818608E-02  0.1146099E+00
         21   -1    0    0  501  502  0.00000000000E+00  0.00000000000E+00  0.10181191885E+03  0.10181191885E+03  0.00000000000E+00 0.  1.
         21   -1    0    0  502  503 -0.00000000000E+00 -0.00000000000E+00 -0.86381170690E+03  0.86381170690E+03  0.00000000000E+00 0.  1.
         -6    2    1    2    0  503 -0.82905984211E+02  0.73259863127E+02 -0.73084858372E+03  0.75888306930E+03  0.17182389467E+03 0.  0.
        -24    2    3    3    0    0 -0.16521688823E+02  0.85419935933E+02 -0.29607376165E+03  0.31887627623E+03  0.80329792394E+02 0.  0.
          6    2    1    2  501    0  0.82905984211E+02 -0.73259863127E+02 -0.31151204331E+02  0.20674055645E+03  0.17184542585E+03 0.  0.
         24    2    5    5    0    0  0.53577431933E+02  0.14824702956E+02 -0.33904503122E+02  0.11374203272E+03  0.93259968077E+02 0.  0.
          5    1    5    5  501    0  0.29328552277E+02 -0.88084566083E+02  0.27532987909E+01  0.92998523725E+02  0.47000000000E+01 0. -1.
        -11    1    6    6    0    0  0.30815506043E+01 -0.26401434854E+02  0.16548105222E+02  0.31310884735E+02  0.00000000000E+00 0.  1.
         12    1    6    6    0    0  0.50495881329E+02  0.41226137810E+02 -0.50452608344E+02  0.82431147988E+02  0.00000000000E+00 0. -1.
         -5    1    3    3    0  503 -0.66384295388E+02 -0.12160072806E+02 -0.43477482206E+03  0.44000679307E+03  0.47000000000E+01 0.  1.
         13    1    4    4    0    0 -0.19368995919E+02 -0.10722923906E+02 -0.60448712229E+02  0.64375351729E+02  0.00000000000E+00 0. -1.
        -14    1    4    4    0    0  0.28473070958E+01  0.96142859839E+02 -0.23562504943E+03  0.25450092450E+03  0.00000000000E+00 0.  1.
</event>
<event>
12    1  0.8258923E-002  0.2030425E+03  0.7818608E-02  0.1147199E+00
         21   -1    0    0  501  502  0.00000000000E+00  0.00000000000E+00  0.72623045667E+03  0.72623045667E+03  0.00000000000E+00 0. -1.
         21   -1    0    0  502  503 -0.00000000000E+00 -0.00000000000E+00 -0.41294495422E+03  0.41294495422E+03  0.00000000000E+00 0. -1.
         -6    2    1    2    0  503 -0.39309376107E+02 -0.97486261321E+02 -0.37234972857E+03  0.42410764010E+03  0.17370714386E+03 0.  0.
        -24    2    3    3    0    0 -0.56496123310E+02 -0.11117944096E+03 -0.20668419669E+03  0.25692496785E+03  0.87973870559E+02 0.  0.
          6    2    1    2  501    0  0.39309376107E+02  0.97486261321E+02  0.68563523102E+03  0.71506777078E+03  0.17371657549E+03 0.  0.
         24    2    5    5    0    0 -0.36955362827E+02  0.10596039105E+03  0.46673941441E+03  0.48306434449E+03  0.53964586973E+02 0.  0.
          5    1    5    5  501    0  0.76264738935E+02 -0.84741297257E+01  0.21889581662E+03  0.23200342629E+03  0.47000000000E+01 0. -1.
        -11    1    6    6    0    0 -0.96162647390E-01  0.47270020563E+02  0.11114954193E+03  0.12078362787E+03  0.00000000000E+00 0.  1.
         12    1    6    6    0    0 -0.36859200180E+02  0.58690370484E+02  0.35558987248E+03  0.36228071662E+03  0.00000000000E+00 0. -1.
         -5    1    3    3    0  503  0.17186747203E+02  0.13693179642E+02 -0.16566553188E+03  0.16718267225E+03  0.47000000000E+01 0.  1.
         11    1    4    4    0    0 -0.33567252342E+02 -0.87293649679E+02 -0.20312817087E+03  0.22362467553E+03  0.00000000000E+00 0. -1.
        -12    1    4    4    0    0 -0.22928870969E+02 -0.23885791284E+02 -0.35560258221E+01  0.33300292323E+02  0.00000000000E+00 0.  1.
</event>
<event>
12    1  0.8258923E-002  0.1873333E+03  0.7818608E-02  0.1161395E+00
         21   -1    0    0  503  502  0.00000000000E+00  0.00000000000E+00  0.92538481961E+02  0.92538481961E+02  0.00000000000E+00 0. -1.
         21   -1    0    0  501  503 -0.00000000000E+00 -0.00000000000E+00 -0.80485003351E+03  0.80485003351E+03  0.00000000000E+00 0. -1.
          6    2    1    2  501    0  0.35694437545E+02 -0.56637910528E+02 -0.68315616256E+03  0.70779998252E+03  0.17261670555E+03 0.  0.
         24    2    3    3    0    0  0.77412578638E+02 -0.43272306354E+02 -0.61563896333E+03  0.62717923542E+03  0.80481428588E+02 0.  0.
         -6    2    1    2    0  502 -0.35694437545E+02  0.56637910528E+02 -0.29155388993E+02  0.18958853295E+03  0.17496236549E+03 0.  0.
        -24    2    5    5    0    0 -0.49831419953E+02  0.88650851435E+02  0.17393917051E+02  0.13116242106E+03  0.80986964843E+02 0.  0.
          5    1    3    3  501    0 -0.41718141093E+02 -0.13365604174E+02 -0.67517199230E+02  0.80620747101E+02  0.47000000000E+01 0. -1.
        -13    1    4    4    0    0  0.56056084898E+02 -0.14417145402E+02 -0.16033904464E+03  0.17046626638E+03  0.00000000000E+00 0.  1.
         14    1    4    4    0    0  0.21356493740E+02 -0.28855160952E+02 -0.45529991868E+03  0.45671296904E+03  0.00000000000E+00 0. -1.
         -5    1    5    5    0  502  0.14136982408E+02 -0.32012940907E+02 -0.46549306044E+02  0.58426111888E+02  0.47000000000E+01 0.  1.
         13    1    6    6    0    0 -0.44346475223E+01  0.68199966732E+01  0.35006877885E+02  0.35939671013E+02  0.00000000000E+00 0. -1.
        -14    1    6    6    0    0 -0.45396772431E+02  0.81830854762E+02 -0.17612960834E+02  0.95222750052E+02  0.00000000000E+00 0.  1.
</event>
<event>
12    1  0.8258923E-002  0.2272316E+03  0.7818608E-02  0.1128759E+00
         21   -1    0    0  503  502  0.00000000000E+00  0.00000000000E+00  0.93578803550E+02  0.93578803550E+02  0.00000000000E+00 0.  1.
         21   -1    0    0  501  503 -0.00000000000E+00 -0.00000000000E+00 -0.57923856486E+03  0.57923856486E+03  0.00000000000E+00 0.  1.
          6    2    1    2  501    0  0.10721526690E+03  0.10194887011E+03 -0.31927133164E+03  0.39187802774E+03  0.17246889531E+03 0.  0.
         24    2    3    3    0    0  0.62970312593E+02  0.92962323118E+02 -0.10421706400E+03  0.17208539357E+03  0.78389619613E+02 0.  0.
         -6    2    1    2    0  502 -0.10721526690E+03 -0.10194887011E+03 -0.16638842967E+03  0.28093934067E+03  0.17132751686E+03 0.  0.
        -24    2    5    5    0    0 -0.13014696038E+03 -0.10646505583E+03 -0.17423132023E+03  0.25584234022E+03  0.82617859406E+02 0.  0.
          5    1    3    3  501    0  0.44244954308E+02  0.89865469871E+01 -0.21505426763E+03  0.21979263417E+03  0.47000000000E+01 0. -1.
        -13    1    4    4    0    0  0.72958354282E+02  0.77397867300E+02 -0.10969743588E+03  0.15279685455E+03  0.00000000000E+00 0.  1.
         14    1    4    4    0    0 -0.99880416889E+01  0.15564455819E+02  0.54803718731E+01  0.19288539021E+02  0.00000000000E+00 0. -1.
         -5    1    5    5    0  502  0.22931693475E+02  0.45161857261E+01  0.78428905584E+01  0.25097000447E+02  0.47000000000E+01 0.  1.
         11    1    6    6    0    0  0.91131925635E+01  0.36189340169E+01 -0.82043039312E+01  0.12785052409E+02  0.00000000000E+00 0. -1.
        -12    1    6    6    0    0 -0.13926015294E+03 -0.11008398985E+03 -0.16602701630E+03  0.24305728781E+03  0.00000000000E+00 0.  1.
</event>
<event>
12    1  0.8258923E-002  0.2032945E+03  0.7818608E-02  0.1148047E+00
         21   -1    0    0  501  502  0.00000000000E+00  0.00000000000E+00  0.18466404915E+03  0.18466404915E+03  0.00000000000E+00 0. -1.
         21   -1    0    0  502  503 -0.00000000000E+00 -0.00000000000E+00 -0.34720725904E+03  0.34720725904E+03  0.00000000000E+00 0. -1.
         -6    2    1    2    0  503 -0.10410579114E+03 -0.77696105798E+01 -0.24396162607E+03  0.31756245455E+03  0.17444269817E+03 0.  0.
        -24    2    3    3    0    0 -0.11303971248E+03  0.42190816002E+02 -0.14024869864E+03  0.20200155939E+03  0.81098033087E+02 0.  0.
          6    2    1    2  501    0  0.10410579114E+03  0.77696105798E+01  0.81418416182E+02  0.21430885365E+03  0.16852579523E+03 0.  0.
         24    2    5    5    0    0 -0.60037350070E+01 -0.11843054170E+02  0.91613654289E+01  0.81072463155E+02  0.79451311502E+02 0.  0.
          5    1    5    5  501    0  0.11010952615E+03  0.19612664750E+02  0.72257050753E+02  0.13323639049E+03  0.47000000000E+01 0. -1.
        -13    1    6    6    0    0 -0.29484984537E+02  0.13138701562E+02 -0.18334947761E+02  0.37123578778E+02  0.00000000000E+00 0.  1.
         14    1    6    6    0    0  0.23481249530E+02 -0.24981755732E+02  0.27496313190E+02  0.43948884377E+02  0.00000000000E+00 0. -1.
         -5    1    3    3    0  503  0.89339213419E+01 -0.49960426582E+02 -0.10371292743E+03  0.11556089516E+03  0.47000000000E+01 0.  1.
         11    1    4    4    0    0 -0.43298326114E+02  0.59045081938E+02 -0.78413277757E+02  0.10728331126E+03  0.00000000000E+00 0. -1.
        -12    1    4    4    0    0 -0.69741386369E+02 -0.16854265937E+02 -0.61835420888E+02  0.94718248133E+02  0.00000000000E+00 0.  1.
</event>
<event>
12    1  0.8258923E-002  0.1912438E+03  0.7818608E-02  0.1160088E+00
         21   -1    0    0  501  502  0.00000000000E+00  0.00000000000E+00  0.26322275171E+03  0.26322275171E+03  0.00000000000E+00 0.  1.
         21   -1    0    0  502  503 -0.00000000000E+00 -0.00000000000E+00 -0.18890606070E+03  0.18890606070E+03  0.00000000000E+00 0.  1.
         -6    2    1    2    0  503  0.40189606777E+02  0.30638786352E+02 -0.89357465920E+02  0.20040791130E+03  0.17211808293E+03 0.  0.
        -24    2    3    3    0    0  0.43640953940E+02 -0.14866710849E+02  0.13107740553E+02  0.88140949947E+02  0.73969333125E+02 0.  0.
          6    2    1    2  501    0 -0.40189606777E+02 -0.30638786352E+02  0.16367415693E+03  0.25172090111E+03  0.18444577167E+03 0.  0.
         24    2    5    5    0    0 -0.42307374137E+02 -0.85190818270E+02  0.15148127863E+03  0.19558565901E+03  0.79118789225E+02 0.  0.
          5    1    5    5  501    0  0.21177673601E+01  0.54552031918E+02  0.12192878294E+02  0.56135242104E+02  0.47000000000E+01 0. -1.
        -13    1    6    6    0    0 -0.43535027311E+02 -0.51526026270E+02  0.14682383231E+03  0.16157805458E+03  0.00000000000E+00 0.  1.
         14    1    6    6    0    0  0.12276531733E+01 -0.33664792000E+02  0.46574463208E+01  0.34007604428E+02  0.00000000000E+00 0. -1.
         -5    1    3    3    0  503 -0.34513471629E+01  0.45505497201E+02 -0.10246520647E+03  0.11226696135E+03  0.47000000000E+01 0.  1.
         11    1    4    4    0    0 -0.19609781778E+02 -0.54442496904E+01  0.13079773190E+02  0.24192227322E+02  0.00000000000E+00 0. -1.
        -12    1    4    4    0    0  0.63250735719E+02 -0.94224611584E+01  0.27967362758E-01  0.63948722625E+02  0.00000000000E+00 0.  1.
</event>
<event>
12    1  0.8258923E-002  0.1787909E+03  0.7818608E-02  0.1170187E+00
         21   -1    0    0  503  502  0.00000000000E+00  0.00000000000E+00  0.21220792294E+03  0.21220792294E+03  0.00000000000E+00 0. -1.
         21   -1    0    0  501  503 -0.00000000000E+00 -0.00000000000E+00 -0.34367351409E+03  0.34367351409E+03  0.00000000000E+00 0. -1.
          6    2    1    2  501    0  0.80871695857E+01 -0.18459391488E+02 -0.27583268437E+03  0.32608143673E+03  0.17274050530E+03 0.  0.
         24    2    3    3    0    0 -0.46452161079E+02 -0.23338290138E+02 -0.94696408454E+02  0.13679122913E+03  0.83916336538E+02 0.  0.
         -6    2    1    2    0  502 -0.80871695857E+01  0.18459391488E+02  0.14436709322E+03  0.22980000029E+03  0.17765143141E+03 0.  0.
        -24    2    5    5    0    0 -0.59547620425E+02  0.24449288088E+02  0.14479048177E+03  0.17777763856E+03  0.80603463786E+02 0.  0.
          5    1    3    3  501    0  0.54539330664E+02  0.48788986499E+01 -0.18113627592E+03  0.18929020760E+03  0.47000000000E+01 0. -1.
        -11    1    4    4    0    0 -0.17807960798E+02  0.31209659749E+02 -0.25041150264E+02  0.43797551712E+02  0.00000000000E+00 0.  1.
         12    1    4    4    0    0 -0.28644200281E+02 -0.54547949887E+02 -0.69655258190E+02  0.92993677420E+02  0.00000000000E+00 0. -1.
         -5    1    5    5    0  502  0.51460450840E+02 -0.59898966005E+01 -0.42338855163E+00  0.52022361728E+02  0.47000000000E+01 0.  1.
         13    1    6    6    0    0  0.14211298369E+02  0.10527119592E+02  0.68523343348E+02  0.70768847891E+02  0.00000000000E+00 0. -1.
        -14    1    6    6    0    0 -0.73758918794E+02  0.13922168496E+02  0.76267138427E+02  0.10700879067E+03  0.00000000000E+00 0.  1.
</event>
<event>
12    1  0.8258923E-002  0.2842119E+03  0.7818608E-02  0.1094677E+00
         21   -1    0    0  503  502  0.00000000000E+00  0.00000000000E+00  0.12787340399E+04  0.12787340399E+04  0.00000000000E+00 0.  1.
         21   -1    0    0  501  503 -0.00000000000E+00 -0.00000000000E+00 -0.61507511657E+02  0.61507511657E+02  0.00000000000E+00 0. -1.
          6    2    1    2  501    0 -0.20776185042E+03 -0.50235467218E+02  0.56552569673E+03  0.63292631221E+03  0.18731741609E+03 0.  0.
         24    2    3    3    0    0 -0.74220995128E+02  0.25863295065E+02  0.36786209981E+03  0.38249235046E+03  0.69283530017E+02 0.  0.
         -6    2    1    2    0  502  0.20776185042E+03  0.50235467218E+02  0.65170083150E+03  0.70731523933E+03  0.17289385575E+03 0.  0.
        -24    2    5    5    0    0  0.14074765501E+03  0.78820866850E+01  0.24875441014E+03  0.29661751628E+03  0.78937726850E+02 0.  0.
          5    1    3    3  501    0 -0.13354085529E+03 -0.76098762284E+02  0.19766359692E+03  0.25043396176E+03  0.47000000000E+01 0. -1.
        -11    1    4    4    0    0 -0.66777986081E+02 -0.10538868040E+02  0.24053008027E+03  0.24985012844E+03  0.00000000000E+00 0.  1.
         12    1    4    4    0    0 -0.74430090468E+01  0.36402163106E+02  0.12733201954E+03  0.13264222202E+03  0.00000000000E+00 0. -1.
         -5    1    5    5    0  502  0.67014195408E+02  0.42353380533E+02  0.40294642137E+03  0.41069772305E+03  0.47000000000E+01 0.  1.
         11    1    6    6    0    0  0.29253556413E+02  0.33210718500E+02  0.45906726152E+02  0.63766369601E+02  0.00000000000E+00 0. -1.
        -12    1    6    6    0    0  0.11149409860E+03 -0.25328631815E+02  0.20284768399E+03  0.23285114668E+03  0.00000000000E+00 0.  1.
</event>
<event>
12    1  0.8258923E-002  0.2806507E+03  0.7818608E-02  0.1095423E+00
         21   -1    0    0  503  502  0.00000000000E+00  0.00000000000E+00  0.18963537238E+03  0.18963537238E+03  0.00000000000E+00 0.  1.
         21   -1    0    0  501  503 -0.00000000000E+00 -0.00000000000E+00 -0.57969631081E+03  0.57969631081E+03  0.00000000000E+00 0. -1.
          6    2    1    2  501    0  0.67464734722E+02  0.21082768617E+03  0.10225902157E+02  0.28083695638E+03  0.17252542801E+03 0.  0.
         24    2    3    3    0    0  0.10733056509E+03  0.19659869671E+03  0.88068794352E+01  0.23822413909E+03  0.80636725943E+02 0.  0.
         -6    2    1    2    0  502 -0.67464734722E+02 -0.21082768617E+03 -0.40028684059E+03  0.48849472681E+03  0.17145769064E+03 0.  0.
        -24    2    5    5    0    0 -0.39673679455E+01 -0.29655427727E+02 -0.15228055652E+03  0.17483167550E+03  0.80508151525E+02 0.  0.
          5    1    3    3  501    0 -0.39865830367E+02  0.14228989459E+02  0.14190227213E+01  0.42612817289E+02  0.47000000000E+01 0. -1.
        -13    1    4    4    0    0  0.42448361069E+02  0.15554204379E+03  0.82446758610E+01  0.16144090381E+03  0.00000000000E+00 0.  1.
         14    1    4    4    0    0  0.64882204020E+02  0.41056652924E+02  0.56220357422E+00  0.76783235284E+02  0.00000000000E+00 0. -1.
         -5    1    5    5    0  502 -0.63497366776E+02 -0.18117225844E+03 -0.24800628407E+03  0.31366305131E+03  0.47000000000E+01 0.  1.
         13    1    6    6    0    0 -0.20196803066E+02 -0.51041382274E+02 -0.12517169731E+03  0.13667877438E+03  0.00000000000E+00 0. -1.
        -14    1    6    6    0    0  0.16229435121E+02  0.21385954546E+02 -0.27108859209E+02  0.38152901119E+02  0.00000000000E+00 0.  1.
</event>
<event>
12    1  0.8258923E-002  0.1895108E+03  0.7818608E-02  0.1158965E+00
         21   -1    0    0  503  502  0.00000000000E+00  0.00000000000E+00  0.47989751164E+03  0.47989751164E+03  0.00000000000E+00 0. -1.
         21   -1    0    0  501  503 -0.00000000000E+00 -0.00000000000E+00 -0.81575439271E+02  0.81575439271E+02  0.00000000000E+00 0. -1.
          6    2    1    2  501    0  0.38476899224E+02 -0.69960068052E+02  0.28035809824E+03  0.33824698840E+03  0.17156770972E+03 0.  0.
         24    2    3    3    0    0  0.12873193343E+02 -0.70643134682E+01  0.25163937462E+03  0.26436680983E+03  0.79698253742E+02 0.  0.
         -6    2    1    2    0  502 -0.38476899224E+02  0.69960068052E+02  0.11796397413E+03  0.22322596251E+03  0.17187044030E+03 0.  0.
        -24    2    5    5    0    0  0.43303184678E+02  0.32966422530E+02  0.44214763749E+02  0.10696097223E+03  0.80769755663E+02 0.  0.
          5    1    3    3  501    0  0.25603705880E+02 -0.62895754584E+02  0.28718723619E+02  0.73880178572E+02  0.47000000000E+01 0. -1.
        -11    1    4    4    0    0  0.85881877410E+01  0.93168166472E+01  0.52487284397E+00  0.12682094962E+02  0.00000000000E+00 0.  1.
         12    1    4    4    0    0  0.42850056025E+01 -0.16381130115E+02  0.25111450177E+03  0.25168471487E+03  0.00000000000E+00 0. -1.
         -5    1    5    5    0  502 -0.81780083902E+02  0.36993645522E+02  0.73749210380E+02  0.11626499027E+03  0.47000000000E+01 0.  1.
         13    1    6    6    0    0  0.30244861838E+02  0.53258355491E+02  0.53285207922E+02  0.81182002196E+02  0.00000000000E+00 0. -1.
        -14    1    6    6    0    0  0.13058322840E+02 -0.20291932960E+02 -0.90704441733E+01  0.25778970037E+02  0.00000000000E+00 0.  1.
</event>
<event>
12    1  0.8258923E-002  0.3193323E+03  0.7818608E-02  0.1075964E+00
         21   -1    0    0  503  502  0.00000000000E+00  0.00000000000E+00  0.78000908476E+03  0.78000908476E+03  0.00000000000E+00 0. -1.
         21   -1    0    0  501  503 -0.00000000000E+00 -0.00000000000E+00 -0.11185517313E+04  0.11185517313E+04  0.00000000000E+00 0.  1.
          6    2    1    2  501    0  0.26883579180E+03 -0.19280451554E+02 -0.10613664560E+04  0.11083644956E+04  0.17125618905E+03 0.  0.
         24    2    3    3    0    0  0.14090632998E+03 -0.29425833469E+02 -0.37451950929E+03  0.40961583244E+03  0.82460862502E+02 0.  0.
         -6    2    1    2    0  502 -0.26883579180E+03  0.19280451554E+02  0.72282380945E+03  0.79019632054E+03  0.17114773359E+03 0.  0.
        -24    2    5    5    0    0 -0.18300491851E+03 -0.28781509486E+02  0.59620910057E+03  0.62978975766E+03  0.82768784955E+02 0.  0.
          5    1    3    3  501    0  0.12792946182E+03  0.10145381915E+02 -0.68684694674E+03  0.69874866313E+03  0.47000000000E+01 0. -1.
        -11    1    4    4    0    0  0.43987976803E+02  0.20243854432E+02 -0.18299890707E+03  0.18929700403E+03  0.00000000000E+00 0.  1.
         12    1    4    4    0    0  0.96918353176E+02 -0.49669687900E+02 -0.19152060222E+03  0.22031882841E+03  0.00000000000E+00 0. -1.
         -5    1    5    5    0  502 -0.85830873286E+02  0.48061961040E+02  0.12661470888E+03  0.16040656288E+03  0.47000000000E+01 0.  1.
         13    1    6    6    0    0 -0.95019566928E+02  0.22961949046E+02  0.23724306734E+03  0.25659353500E+03  0.00000000000E+00 0. -1.
        -14    1    6    6    0    0 -0.87985351586E+02 -0.51743458532E+02  0.35896603323E+03  0.37319622266E+03  0.00000000000E+00 0.  1.
</event>
<event>
12    1  0.8258923E-002  0.1955657E+03  0.7818608E-02  0.1153557E+00
         21   -1    0    0  501  502  0.00000000000E+00  0.00000000000E+00  0.16844789068E+04  0.16844789068E+04  0.00000000000E+00 0.  1.
         21   -1    0    0  502  503 -0.00000000000E+00 -0.00000000000E+00 -0.23129951103E+02  0.23129951103E+02  0.00000000000E+00 0.  1.
         -6    2    1    2    0  503  0.71359613304E+01 -0.93495062520E+02  0.71313586726E+03  0.73943840922E+03  0.17150553110E+03 0.  0.
        -24    2    3    3    0    0  0.26719750954E+02 -0.12954829799E+03  0.56387705509E+03  0.58457187438E+03  0.79184824654E+02 0.  0.
          6    2    1    2  501    0 -0.71359613304E+01  0.93495062520E+02  0.94821308840E+03  0.96817044864E+03  0.17162082612E+03 0.  0.
         24    2    5    5    0    0  0.18743378502E+02  0.12818313785E+03  0.73410810219E+03  0.74968466439E+03  0.79562297965E+02 0.  0.
          5    1    5    5  501    0 -0.25879339833E+02 -0.34688075334E+02  0.21410498621E+03  0.21848578425E+03  0.47000000000E+01 0. -1.
        -13    1    6    6    0    0 -0.10896296836E+02  0.40610756680E+02  0.42423768546E+03  0.42631628705E+03  0.00000000000E+00 0.  1.
         14    1    6    6    0    0  0.29639675339E+02  0.87572381174E+02  0.30987041673E+03  0.32336837734E+03  0.00000000000E+00 0. -1.
         -5    1    3    3    0  503 -0.19583789624E+02  0.36053235465E+02  0.14925881217E+03  0.15486653484E+03  0.47000000000E+01 0.  1.
         11    1    4    4    0    0 -0.14973710137E+01 -0.16310259653E+02  0.11527777469E+02  0.20028887719E+02  0.00000000000E+00 0. -1.
        -12    1    4    4    0    0  0.28217121968E+02 -0.11323803833E+03  0.55234927762E+03  0.56454298666E+03  0.00000000000E+00 0.  1.
</event>
<event>
12    1  0.8258923E-002  0.3043738E+03  0.7818608E-02  0.1083165E+00
         21   -1    0    0  503  502  0.00000000000E+00  0.00000000000E+00  0.32422045686E+03  0.32422045686E+03  0.00000000000E+00 0. -1.
         21   -1    0    0  501  503 -0.00000000000E+00 -0.00000000000E+00 -0.40896353101E+03  0.40896353101E+03  0.00000000000E+00 0.  1.
          6    2    1    2  501    0 -0.22423726480E+03 -0.11114525374E+03  0.15938435069E+03  0.34357933497E+03  0.17322750883E+03 0.  0.
         24    2    3    3    0    0 -0.16970454648E+03 -0.11701946629E+03  0.56480007375E+02  0.22687578912E+03  0.76088395084E+02 0.  0.
         -6    2    1    2    0  502  0.22423726480E+03  0.11114525374E+03 -0.24412742484E+03  0.38960465291E+03  0.17192430791E+03 0.  0.
        -24    2    5    5    0    0  0.45458477404E+02  0.12672299977E+02 -0.11298438235E+03  0.14695394707E+03  0.81258424496E+02 0.  0.
          5    1    3    3  501    0 -0.54532718323E+02  0.58742125549E+01  0.10290434332E+03  0.11670354585E+03  0.47000000000E+01 0. -1.
        -13    1    4    4    0    0  0.45771671804E+01  0.13706796631E+01  0.10053481156E+02  0.11131114297E+02  0.00000000000E+00 0.  1.
         14    1    4    4    0    0 -0.17428171366E+03 -0.11839014596E+03  0.46426526218E+02  0.21574467482E+03  0.00000000000E+00 0. -1.
         -5    1    5    5    0  502  0.17877878740E+03  0.98472953762E+02 -0.13114304249E+03  0.24265070583E+03  0.47000000000E+01 0.  1.
         13    1    6    6    0    0  0.54844313420E+02 -0.19026128092E+02 -0.53722549855E+02  0.79094908987E+02  0.00000000000E+00 0. -1.
        -14    1    6    6    0    0 -0.93858360161E+01  0.31698428069E+02 -0.59261832492E+02  0.67859038087E+02  0.00000000000E+00 0.  1.
</event>
<event>
12    1  0.8258923E-002  0.1851224E+03  0.7818608E-02  0.1163404E+00
         21   -1    0    0  501  502  0.00000000000E+00  0.00000000000E+00  0.31380973394E+03  0.31380973394E+03  0.00000000000E+00 0. -1.
         21   -1    0    0  502  503 -0.00000000000E+00 -0.00000000000E+00 -0.19529649144E+03  0.19529649144E+03  0.00000000000E+00 0. -1.
         -6    2    1    2    0  503 -0.32276127025E+02  0.59381410983E+02 -0.11072159126E+03  0.21570717021E+03  0.17234387765E+03 0.  0.
        -24    2    3    3    0    0  0.11610849777E+02  0.82310046047E+02 -0.26679771880E+02  0.11805008423E+03  0.79462297010E+02 0.  0.
          6    2    1    2  501    0  0.32276127025E+02 -0.59381410983E+02  0.22923483376E+03  0.29339905517E+03  0.17019546474E+03 0.  0.
         24    2    5    5    0    0 -0.40307579739E+02  0.15446199158E+00  0.11321204986E+03  0.14407962896E+03  0.79481107225E+02 0.  0.
          5    1    5    5  501    0  0.72583706763E+02 -0.59535872974E+02  0.11602278390E+03  0.14931942620E+03  0.47000000000E+01 0. -1.
        -11    1    6    6    0    0 -0.54583186580E+02 -0.17857100703E+02  0.10498922227E+03  0.11967011781E+03  0.00000000000E+00 0.  1.
         12    1    6    6    0    0  0.14275606842E+02  0.18011562694E+02  0.82228275910E+01  0.24409511158E+02  0.00000000000E+00 0. -1.
         -5    1    3    3    0  503 -0.43886976801E+02 -0.22928635064E+02 -0.84041819379E+02  0.97657085986E+02  0.47000000000E+01 0.  1.
         13    1    4    4    0    0  0.41083510112E+02  0.48372298807E+02  0.40615383468E+01  0.63594262231E+02  0.00000000000E+00 0. -1.
        -14    1    4    4    0    0 -0.29472660335E+02  0.33937747240E+02 -0.30741310226E+02  0.54455821997E+02  0.00000000000E+00 0.  1.
</event>
<event>
12    1  0.8258923E-002  0.7776448E+03  0.7818608E-02  0.9593435E-01
         21   -1    0    0  501  502  0.00000000000E+00  0.00000000000E+00  0.72156041252E+03  0.72156041252E+03  0.00000000000E+00 0. -1.
         21   -1    0    0  502  503 -0.00000000000E+00 -0.00000000000E+00 -0.84817928102E+03  0.84817928102E+03  0.00000000000E+00 0.  1.
         -6    2    1    2    0  503  0.46719969634E+03 -0.59752908429E+03 -0.15457059478E+03  0.79159268859E+03  0.16556072305E+03 0.  0.
        -24    2    3    3    0    0  0.93098227169E+02 -0.15122078587E+03 -0.53727961588E+02  0.20054756921E+03  0.76142154394E+02 0.  0.
          6    2    1    2  501    0 -0.46719969634E+03  0.59752908429E+03  0.27951726284E+02  0.77814700495E+03  0.17150772427E+03 0.  0.
         24    2    5    5    0    0 -0.37389964227E+03  0.37980695816E+03 -0.43935438011E+01  0.53903169639E+03  0.80508375492E+02 0.  0.
          5    1    5    5  501    0 -0.93300054075E+02  0.21772212612E+03  0.32345270085E+02  0.23911530857E+03  0.47000000000E+01 0. -1.
        -13    1    6    6    0    0 -0.14291006032E+03  0.11007243990E+03  0.27533864881E+02  0.18247559037E+03  0.00000000000E+00 0.  1.
         14    1    6    6    0    0 -0.23098958195E+03  0.26973451826E+03 -0.31927408682E+02  0.35655610601E+03  0.00000000000E+00 0. -1.
         -5    1    3    3    0  503  0.37410146917E+03 -0.44630829842E+03 -0.10084263319E+03  0.59104511938E+03  0.47000000000E+01 0.  1.
         13    1    4    4    0    0 -0.14882080999E+01 -0.65168523553E+02 -0.21986801321E+02  0.68793681816E+02  0.00000000000E+00 0. -1.
        -14    1    4    4    0    0  0.94586435269E+02 -0.86052262320E+02 -0.31741160267E+02  0.13175388739E+03  0.00000000000E+00 0.  1.
</event>
<event>
12    1  0.8258923E-002  0.1763596E+03  0.7818608E-02  0.1171945E+00
         21   -1    0    0  501  502  0.00000000000E+00  0.00000000000E+00  0.33842311741E+03  0.33842311741E+03  0.00000000000E+00 0.  1.
         21   -1    0    0  502  503 -0.00000000000E+00 -0.00000000000E+00 -0.14349610735E+03  0.14349610735E+03  0.00000000000E+00 0.  1.
         -6    2    1    2    0  503  0.11467587624E+02  0.25342092428E+02 -0.48265700056E+02  0.18284495965E+03  0.17415215833E+03 0.  0.
        -24    2    3    3    0    0  0.25217579202E+02  0.74396968756E+02 -0.63620129751E+02  0.12942874796E+03  0.80829726138E+02 0.  0.
          6    2    1    2  501    0 -0.11467587624E+02 -0.25342092428E+02  0.24319271012E+03  0.29907426512E+03  0.17184002615E+03 0.  0.
         24    2    5    5    0    0  0.24971502029E+02 -0.63733442420E+02  0.21414239606E+03  0.23851261260E+03  0.79660360169E+02 0.  0.
          5    1    5    5  501    0 -0.36439089654E+02  0.38391349993E+02  0.29050314058E+02  0.60561652520E+02  0.47000000000E+01 0. -1.
        -11    1    6    6    0    0 -0.12654416545E+02 -0.44918066961E+02  0.47290510416E+02  0.66439140370E+02  0.00000000000E+00 0.  1.
         12    1    6    6    0    0  0.37625918575E+02 -0.18815375459E+02  0.16685188564E+03  0.17207347223E+03  0.00000000000E+00 0. -1.
         -5    1    3    3    0  503 -0.13749991578E+02 -0.49054876328E+02  0.15354429696E+02  0.53416211689E+02  0.47000000000E+01 0.  1.
         11    1    4    4    0    0  0.22266591983E+02  0.25041140978E+02  0.14872499620E+02  0.36661302554E+02  0.00000000000E+00 0. -1.
        -12    1    4    4    0    0  0.29509872192E+01  0.49355827778E+02 -0.78492629371E+02  0.92767445404E+02  0.00000000000E+00 0.  1.
</event>
<event>
12    1  0.8258923E-002  0.2506052E+03  0.7818608E-02  0.1112945E+00
         21   -1    0    0  503  502  0.00000000000E+00  0.00000000000E+00  0.76017625072E+03  0.76017625072E+03  0.00000000000E+00 0. -1.
         21   -1    0    0  501  503 -0.00000000000E+00 -0.00000000000E+00 -0.96106566397E+02  0.96106566397E+02  0.00000000000E+00 0. -1.
          6    2    1    2  501    0 -0.18207291262E+03  0.14404679855E+01  0.17143405959E+03  0.30363238515E+03  0.17219282235E+03 0.  0.
         24    2    3    3    0    0 -0.11761132919E+02  0.15234299329E+01  0.62437891998E+02  0.10137422404E+03  0.78978464514E+02 0.  0.
         -6    2    1    2    0  502  0.18207291262E+03 -0.14404679855E+01  0.49263562474E+03  0.55265043196E+03  0.17198843198E+03 0.  0.
        -24    2    5    5    0    0  0.36090450624E+02 -0.20215518212E+02  0.28023657676E+03  0.29419574097E+03  0.79419186865E+02 0.  0.
          5    1    3    3  501    0 -0.17031177970E+03 -0.82961947346E-01  0.10899616759E+03  0.20225816111E+03  0.47000000000E+01 0. -1.
        -13    1    4    4    0    0 -0.24140889251E+02  0.33319174076E+02  0.16922783874E+02  0.44489667440E+02  0.00000000000E+00 0.  1.
         14    1    4    4    0    0  0.12379756331E+02 -0.31795744143E+02  0.45515108124E+02  0.56884556603E+02  0.00000000000E+00 0. -1.
         -5    1    5    5    0  502  0.14598246199E+03  0.18775050226E+02  0.21239904797E+03  0.25845469100E+03  0.47000000000E+01 0.  1.
         11    1    6    6    0    0  0.38498364192E+02  0.74560506804E+01  0.56694568805E+02  0.68934685530E+02  0.00000000000E+00 0. -1.
        -12    1    6    6    0    0 -0.24079135681E+01 -0.27671568892E+02  0.22354200796E+03  0.22526105543E+03  0.00000000000E+00 0.  1.
</event>
<event>
12    1  0.8258923E-002  0.2484973E+03  0.7818608E-02  0.1114317E+00
         21   -1    0    0  503  502  0.00000000000E+00  0.00000000000E+00  0.24493778464E+03  0.24493778464E+03  0.00000000000E+00 0. -1.
         21   -1    0    0  501  503 -0.00000000000E+00 -0.00000000000E+00 -0.49025195537E+03  0.49025195537E+03  0.00000000000E+00 0.  1.
          6    2    1    2  501    0 -0.15890910621E+03  0.85792017934E+02 -0.37910545732E+03  0.45329000930E+03  0.17070005969E+03 0.  0.
         24    2    3    3    0    0 -0.11655854787E+03  0.89218484848E+02 -0.16388190477E+03  0.23386216685E+03  0.79299440438E+02 0.  0.
         -6    2    1    2    0  502  0.15890910621E+03 -0.85792017934E+02  0.13379128660E+03  0.28189973072E+03  0.17016161561E+03 0.  0.
        -24    2    5    5    0    0  0.18101819563E+03 -0.97278602486E+02  0.10871305138E+03  0.24623796771E+03  0.81141207467E+02 0.  0.
          5    1    3    3  501    0 -0.42350558349E+02 -0.34264669135E+01 -0.21522355255E+03  0.21942784244E+03  0.47000000000E+01 0. -1.
        -13    1    4    4    0    0 -0.16485322381E+02  0.81900632446E+01 -0.75431951222E+02  0.77645490887E+02  0.00000000000E+00 0.  1.
         14    1    4    4    0    0 -0.10007322548E+03  0.81028421603E+02 -0.88449953552E+02  0.15621667597E+03  0.00000000000E+00 0. -1.
         -5    1    5    5    0  502 -0.22109089414E+02  0.11486584551E+02  0.25078235216E+02  0.35661763009E+02  0.47000000000E+01 0.  1.
         11    1    6    6    0    0  0.10520481632E+03 -0.55410376665E+02  0.10646431917E+03  0.15960267691E+03  0.00000000000E+00 0. -1.
        -12    1    6    6    0    0  0.75813379304E+02 -0.41868225821E+02  0.22487322108E+01  0.86635290797E+02  0.00000000000E+00 0.  1.
</event>
<event>
12    1  0.8258923E-002  0.2294895E+03  0.7818608E-02  0.1127364E+00
         21   -1    0    0  501  502  0.00000000000E+00  0.00000000000E+00  0.10657054363E+03  0.10657054363E+03  0.00000000000E+00 0.  1.
         21   -1    0    0  502  503 -0.00000000000E+00 -0.00000000000E+00 -0.48976790918E+03  0.48976790918E+03  0.00000000000E+00 0.  1.
         -6    2    1    2    0  503  0.50214193925E+02 -0.13885884892E+03 -0.19295509413E+03  0.29982842627E+03  0.17567632640E+03 0.  0.
        -24    2    3    3    0    0  0.80907290989E+02 -0.15431050731E+03 -0.14172903629E+03  0.23796552175E+03  0.78630448381E+02 0.  0.
          6    2    1    2  501    0 -0.50214193925E+02  0.13885884892E+03 -0.19024227142E+03  0.29651002654E+03  0.17298216327E+03 0.  0.
         24    2    5    5    0    0  0.82149484205E+01  0.72063015006E+01 -0.10521641120E+03  0.12918446118E+03  0.74153325390E+02 0.  0.
          5    1    5    5  501    0 -0.58429142345E+02  0.13165254742E+03 -0.85025860220E+02  0.16732556536E+03  0.47000000000E+01 0. -1.
        -11    1    6    6    0    0 -0.17320948108E+02  0.31797950033E+02 -0.34182586945E+02  0.49795322270E+02  0.00000000000E+00 0.  1.
         12    1    6    6    0    0  0.25535896528E+02 -0.24591648533E+02 -0.71033824256E+02  0.79389138914E+02  0.00000000000E+00 0. -1.
         -5    1    3    3    0  503 -0.30693097064E+02  0.15451658392E+02 -0.51226057839E+02  0.61862904524E+02  0.47000000000E+01 0.  1.
         11    1    4    4    0    0  0.60570379539E+02 -0.57634009514E+02 -0.30011193386E+02  0.88831985561E+02  0.00000000000E+00 0. -1.
        -12    1    4    4    0    0  0.20336911450E+02 -0.96676497794E+02 -0.11171784290E+03  0.14913353619E+03  0.00000000000E+00 0.  1.
</event>
<event>
12    1  0.8258923E-002  0.2134574E+03  0.7818608E-02  0.1139239E+00
         21   -1    0    0  501  502  0.00000000000E+00  0.00000000000E+00  0.38729250375E+02  0.38729250375E+02  0.00000000000E+00 0. -1.
         21   -1    0    0  502  503 -0.00000000000E+00 -0.00000000000E+00 -0.12115057129E+04  0.12115057129E+04  0.00000000000E+00 0. -1.
         -6    2    1    2    0  503 -0.11680180828E+03  0.49749122304E+02 -0.70533038891E+03  0.73635766600E+03  0.16915678280E+03 0.  0.
        -24    2    3    3    0    0 -0.42072919739E+02  0.83535970749E+02 -0.49915568116E+03  0.51442060730E+03  0.81998647482E+02 0.  0.
          6    2    1    2  501    0  0.11680180828E+03 -0.49749122304E+02 -0.46744607361E+03  0.51387729727E+03  0.17159955516E+03 0.  0.
         24    2    5    5    0    0  0.28495756531E+02  0.33716342201E+02 -0.20880829526E+03  0.22808010881E+03  0.80441481808E+02 0.  0.
          5    1    5    5  501    0  0.88306051749E+02 -0.83465464505E+02 -0.25863777835E+03  0.28579718846E+03  0.47000000000E+01 0. -1.
        -11    1    6    6    0    0  0.17338768975E+01 -0.15285209937E+02 -0.13322949529E+03  0.13411466134E+03  0.00000000000E+00 0.  1.
         12    1    6    6    0    0  0.26761879634E+02  0.49001552137E+02 -0.75578799966E+02  0.93965447467E+02  0.00000000000E+00 0. -1.
         -5    1    3    3    0  503 -0.74728888542E+02 -0.33786848445E+02 -0.20617470775E+03  0.22193705870E+03  0.47000000000E+01 0.  1.
         13    1    4    4    0    0 -0.14183939488E+02  0.37952905947E+02 -0.39764139922E+03  0.39970024967E+03  0.00000000000E+00 0. -1.
        -14    1    4    4    0    0 -0.27888980251E+02  0.45583064803E+02 -0.10151428194E+03  0.11472035763E+03  0.00000000000E+00 0.  1.
</event>
<event>
12    1  0.8258923E-002  0.2082587E+03  0.7818608E-02  0.1143122E+00
         21   -1    0    0  503  502  0.00000000000E+00  0.00000000000E+00  0.22662928562E+03  0.22662928562E+03  0.00000000000E+00 0. -1.
         21   -1    0    0  501  503 -0.00000000000E+00 -0.00000000000E+00 -0.35381111778E+03  0.35381111778E+03  0.00000000000E+00 0.  1.
          6    2    1    2  501    0  0.21854240099E+02 -0.11386307377E+03 -0.26077472346E+03  0.33372915847E+03  0.17300083075E+03 0.  0.
         24    2    3    3    0    0  0.35523377513E+01 -0.13965743782E+03 -0.15373511471E+03  0.22201579004E+03  0.78356279195E+02 0.  0.
         -6    2    1    2    0  502 -0.21854240099E+02  0.11386307377E+03  0.13359289130E+03  0.24671124493E+03  0.17197956387E+03 0.  0.
        -24    2    5    5    0    0 -0.40416519334E+02  0.49216440173E+02  0.14573428906E+03  0.17820395345E+03  0.80389134839E+02 0.  0.
          5    1    3    3  501    0  0.18301902348E+02  0.25794364049E+02 -0.10703960875E+03  0.11171336844E+03  0.47000000000E+01 0. -1.
        -13    1    4    4    0    0  0.96085869952E+01 -0.87637171882E+02 -0.14385366723E+03  0.16872011266E+03  0.00000000000E+00 0.  1.
         14    1    4    4    0    0 -0.60562492439E+01 -0.52020265935E+02 -0.98814474783E+01  0.53295677377E+02  0.00000000000E+00 0. -1.
         -5    1    5    5    0  502  0.18562279235E+02  0.64646633596E+02 -0.12141397757E+02  0.68507291474E+02  0.47000000000E+01 0.  1.
         13    1    6    6    0    0 -0.35866516345E+02 -0.31912841090E+01  0.10694521714E+03  0.11284445382E+03  0.00000000000E+00 0. -1.
        -14    1    6    6    0    0 -0.45500029891E+01  0.52407724282E+02  0.38789071916E+02  0.65359499628E+02  0.00000000000E+00 0.  1.
</event>
<event>
12    1  0.8258923E-002  0.2497192E+03  0.7818608E-02  0.1113516E+00
         21   -1    0    0  503  502  0.00000000000E+00  0.00000000000E+00  0.23106476264E+03  0.23106476264E+03  0.00000000000E+00 0.  1.
         21   -1    0    0  501  503 -0.00000000000E+00 -0.00000000000E+00 -0.32592379675E+03  0.32592379675E+03  0.00000000000E+00 0. -1.
          6    2    1    2  501    0  0.16948397456E+03 -0.63565674153E+02 -0.16313495788E+03  0.29810391260E+03  0.17171929321E+03 0.  0.
         24    2    3    3    0    0  0.35538255396E+02 -0.40662235737E+02 -0.17545907735E+02  0.98894764475E+02  0.80968701055E+02 0.  0.
         -6    2    1    2    0  502 -0.16948397456E+03  0.63565674153E+02  0.68275923779E+02  0.25888464679E+03  0.17202978234E+03 0.  0.
        -24    2    5    5    0    0 -0.37463252865E+02 -0.22251143135E+02  0.38940225898E+02  0.98645231360E+02  0.79472836813E+02 0.  0.
          5    1    3    3  501    0  0.13394571917E+03 -0.22903438415E+02 -0.14558905015E+03  0.19920914813E+03  0.47000000000E+01 0. -1.
        -13    1    4    4    0    0  0.46601359386E+01  0.24367175591E+02 -0.90462833783E+01  0.26406653635E+02  0.00000000000E+00 0.  1.
         14    1    4    4    0    0  0.30878119457E+02 -0.65029411328E+02 -0.84996243563E+01  0.72488110840E+02  0.00000000000E+00 0. -1.
         -5    1    5    5    0  502 -0.13202072170E+03  0.85816817288E+02  0.29335697881E+02  0.16023941543E+03  0.47000000000E+01 0.  1.
         13    1    6    6    0    0 -0.37279438026E+02 -0.48003674367E+02  0.13123692666E+02  0.62179904804E+02  0.00000000000E+00 0. -1.
        -14    1    6    6    0    0 -0.18381483905E+00  0.25752531232E+02  0.25816533232E+02  0.36465326556E+02  0.00000000000E+00 0.  1.
</event>
<event>
12    1  0.8258923E-002  0.1784250E+03  0.7818608E-02  0.1169500E+00
         21   -1    0    0  503  502  0.00000000000E+00  0.00000000000E+00  0.16941583678E+02  0.16941583678E+02  0.00000000000E+00 0. -1.
         21   -1    0    0  501  503 -0.00000000000E+00 -0.00000000000E+00 -0.19483954804E+04  0.19483954804E+04  0.00000000000E+00 0. -1.
          6    2    1    2  501    0 -0.41998790381E+02  0.26479890136E+02 -0.77302412409E+03  0.79334846454E+03  0.17137796473E+03 0.  0.
         24    2    3    3    0    0  0.12133217525E+02  0.43718191854E+02 -0.23227690566E+03  0.24960488751E+03  0.79319251759E+02 0.  0.
         -6    2    1    2    0  502  0.41998790381E+02 -0.26479890136E+02 -0.11584297726E+04  0.11719885995E+04  0.17068291169E+03 0.  0.
        -24    2    5    5    0    0  0.44805887952E+02  0.44729916950E+02 -0.55540508196E+03  0.56474928594E+03  0.80365526378E+02 0.  0.
          5    1    3    3  501    0 -0.54132007905E+02 -0.17238301718E+02 -0.54074721842E+03  0.54374357703E+03  0.47000000000E+01 0. -1.
        -11    1    4    4    0    0 -0.91656779455E+01  0.61371520505E+02 -0.18100621063E+03  0.19134712296E+03  0.00000000000E+00 0.  1.
         12    1    4    4    0    0  0.21298895470E+02 -0.17653328651E+02 -0.51270695036E+02  0.58257764549E+02  0.00000000000E+00 0. -1.
         -5    1    5    5    0  502 -0.28070975711E+01 -0.71209807086E+02 -0.60302469063E+03  0.60723931356E+03  0.47000000000E+01 0.  1.
         13    1    6    6    0    0 -0.13055389697E+02  0.41255881908E+02 -0.27855364720E+03  0.28189470616E+03  0.00000000000E+00 0. -1.
        -14    1    6    6    0    0  0.57861277649E+02  0.34740350416E+01 -0.27685143477E+03  0.28285457978E+03  0.00000000000E+00 0.  1.
</event>
<event>
12    1  0.8258923E-002  0.1966009E+03  0.7818608E-02  0.1155421E+00
         21   -1    0    0  501  502  0.00000000000E+00  0.00000000000E+00  0.53812462020E+03  0.53812462020E+03  0.00000000000E+00 0. -1.
         21   -1    0    0  502  503 -0.00000000000E+00 -0.00000000000E+00 -0.10732283730E+03  0.10732283730E+03  0.00000000000E+00 0.  1.
         -6    2    1    2    0  503  0.64978667613E+02  0.21788149905E+02  0.14087640529E+02  0.18468441877E+03  0.17091788146E+03 0.  0.
        -24    2    3    3    0    0  0.12694076669E+02  0.63712906543E+02 -0.25911226384E+02  0.10649642082E+03  0.80309538368E+02 0.  0.
          6    2    1    2  501    0 -0.64978667613E+02 -0.21788149905E+02  0.41671414237E+03  0.46076303872E+03  0.18426869152E+03 0.  0.
         24    2    5    5    0    0 -0.64560946571E+02  0.42856504256E+02  0.15427119952E+03  0.19043454585E+03  0.80379832503E+02 0.  0.
          5    1    5    5  501    0 -0.41772104203E+00 -0.64644654162E+02  0.26244294285E+03  0.27032849287E+03  0.47000000000E+01 0. -1.
        -13    1    6    6    0    0 -0.37404157375E+01 -0.15679674756E+02  0.18841346959E+01  0.16229383041E+02  0.00000000000E+00 0.  1.
         14    1    6    6    0    0 -0.60820530834E+02  0.58536179012E+02  0.15238706482E+03  0.17420516281E+03  0.00000000000E+00 0. -1.
         -5    1    3    3    0  503  0.52284590944E+02 -0.41924756637E+02  0.39998866912E+02  0.78187997951E+02  0.47000000000E+01 0.  1.
         13    1    4    4    0    0  0.45438512048E+02  0.47472316095E+02 -0.93746799476E+01  0.66378940913E+02  0.00000000000E+00 0. -1.
        -14    1    4    4    0    0 -0.32744435379E+02  0.16240590447E+02 -0.16536546436E+02  0.40117479911E+02  0.00000000000E+00 0.  1.
</event>
<event>
12    1  0.8258923E-002  0.2097176E+03  0.7818608E-02  0.1141830E+00
         21   -1    0    0  503  502  0.00000000000E+00  0.00000000000E+00  0.11105512945E+03  0.11105512945E+03  0.00000000000E+00 0. -1.
         21   -1    0    0  501  503 -0.00000000000E+00 -0.00000000000E+00 -0.48547317747E+03  0.48547317747E+03  0.00000000000E+00 0. -1.
          6    2    1    2  501    0 -0.92084165117E+02  0.77054408621E+02 -0.31558103440E+03  0.37891007817E+03  0.17194354513E+03 0.  0.
         24    2    3    3    0    0 -0.12860205247E+03  0.37527134467E+02 -0.23761453411E+03  0.28405847478E+03  0.79257659250E+02 0.  0.
         -6    2    1    2    0  502  0.92084165117E+02 -0.77054408621E+02 -0.58837013619E+02  0.21761822875E+03  0.17169456590E+03 0.  0.
        -24    2    5    5    0    0  0.57275420368E+01 -0.21588345508E+02 -0.76155438113E+02  0.11342625049E+03  0.81037041817E+02 0.  0.
          5    1    3    3  501    0  0.36517887357E+02  0.39527274154E+02 -0.77966500292E+02  0.94851603396E+02  0.47000000000E+01 0. -1.
        -11    1    4    4    0    0 -0.17706720240E+02 -0.21390534955E+02 -0.64235210304E+02  0.69980319877E+02  0.00000000000E+00 0.  1.
         12    1    4    4    0    0 -0.11089533223E+03  0.58917669422E+02 -0.17337932381E+03  0.21407815490E+03  0.00000000000E+00 0. -1.
         -5    1    5    5    0  502  0.86356623081E+02 -0.55466063113E+02  0.17318424494E+02  0.10419197826E+03  0.47000000000E+01 0.  1.
         13    1    6    6    0    0  0.24121285681E+02 -0.14440346441E+02  0.61584168222E+01  0.28779960493E+02  0.00000000000E+00 0. -1.
        -14    1    6    6    0    0 -0.18393743644E+02 -0.71479990669E+01 -0.82313854935E+02  0.84646289996E+02  0.00000000000E+00 0.  1.
</event>
<event>
12    1  0.8258923E-002  0.2134125E+03  0.7818608E-02  0.1138954E+00
         21   -1    0    0  501  502  0.00000000000E+00  0.00000000000E+00  0.11243437350E+03  0.11243437350E+03  0.00000000000E+00 0. -1.
         21   -1    0    0  502  503 -0.00000000000E+00 -0.00000000000E+00 -0.67388164448E+03  0.67388164448E+03  0.00000000000E+00 0.  1.
         -6    2    1    2    0  503 -0.10924843157E+03 -0.59947079936E+02 -0.52918566585E+03  0.57047875516E+03  0.17285736592E+03 0.  0.
        -24    2    3    3    0    0 -0.44446354450E+02  0.18437469834E+02 -0.13608192017E+03  0.16440475734E+03  0.78709697746E+02 0.  0.
          6    2    1    2  501    0  0.10924843157E+03  0.59947079936E+02 -0.32261605133E+02  0.21583726282E+03  0.17325137997E+03 0.  0.
         24    2    5    5    0    0  0.90480404655E+02  0.10178377966E+03 -0.49980794371E+02  0.16645499935E+03  0.81624417768E+02 0.  0.
          5    1    5    5  501    0  0.18768026916E+02 -0.41836699719E+02  0.17719189238E+02  0.49382263465E+02  0.47000000000E+01 0. -1.
        -11    1    6    6    0    0  0.10595241155E+03  0.84078775201E+02 -0.42849576052E+02  0.14188460142E+03  0.00000000000E+00 0.  1.
         12    1    6    6    0    0 -0.15472006891E+02  0.17705004454E+02 -0.71312183188E+01  0.24570397934E+02  0.00000000000E+00 0. -1.
         -5    1    3    3    0  503 -0.64802077120E+02 -0.78384549770E+02 -0.39310374568E+03  0.40607399782E+03  0.47000000000E+01 0.  1.
         11    1    4    4    0    0  0.12088121126E+02  0.28416710899E+02 -0.26486474441E+02  0.40683724743E+02  0.00000000000E+00 0. -1.
        -12    1    4    4    0    0 -0.56534475576E+02 -0.99792410644E+01 -0.10959544573E+03  0.12372103259E+03  0.00000000000E+00 0.  1.
</event>
<event>
12    1  0.8258923E-002  0.1787092E+03  0.7818608E-02  0.1170460E+00
         21   -1    0    0  501  502  0.00000000000E+00  0.00000000000E+00  0.81382885417E+02  0.81382885417E+02  0.00000000000E+00 0. -1.
         21   -1    0    0  502  503 -0.00000000000E+00 -0.00000000000E+00 -0.39093317160E+03  0.39093317160E+03  0.00000000000E+00 0. -1.
         -6    2    1    2    0  503 -0.14519382480E+02 -0.21008977200E+02 -0.11795424076E+03  0.21412659108E+03  0.17687510991E+03 0.  0.
        -24    2    3    3    0    0 -0.64837450412E+02  0.28430167081E+02 -0.57060255899E+02  0.12081901186E+03  0.79556215650E+02 0.  0.
          6    2    1    2  501    0  0.14519382480E+02  0.21008977200E+02 -0.19159604542E+03  0.25818946593E+03  0.17117408129E+03 0.  0.
         24    2    5    5    0    0  0.16363449403E+02 -0.50014251526E+02 -0.72275515021E+02  0.11923919217E+03  0.78898967336E+02 0.  0.
          5    1    5    5  501    0 -0.18440669227E+01  0.71023228727E+02 -0.11932053040E+03  0.13895027376E+03  0.47000000000E+01 0. -1.
        -11    1    6    6    0    0  0.25960772209E+02 -0.13946902441E+02  0.81495735126E+01  0.30576025409E+02  0.00000000000E+00 0.  1.
         12    1    6    6    0    0 -0.95973228064E+01 -0.36067349086E+02 -0.80425088534E+02  0.88663166765E+02  0.00000000000E+00 0. -1.
         -5    1    3    3    0  503  0.50318067932E+02 -0.49439144281E+02 -0.60893984857E+02  0.93307579217E+02  0.47000000000E+01 0.  1.
         11    1    4    4    0    0  0.82134138415E+01  0.32258868812E+02 -0.19683251368E+02  0.38672020484E+02  0.00000000000E+00 0. -1.
        -12    1    4    4    0    0 -0.73050864254E+02 -0.38287017308E+01 -0.37377004531E+02  0.82146991381E+02  0.00000000000E+00 0.  1.
</event>
<event>
12    1  0.8258923E-002  0.1738519E+03  0.7818608E-02  0.1174135E+00
         21   -1    0    0  501  502  0.00000000000E+00  0.00000000000E+00  0.92866724310E+02  0.92866724310E+02  0.00000000000E+00 0.  1.
         21   -1    0    0  502  503 -0.00000000000E+00 -0.00000000000E+00 -0.33109088849E+03  0.33109088849E+03  0.00000000000E+00 0.  1.
         -6    2    1    2    0  503 -0.12681267371E+02 -0.16266973090E+02 -0.15055739698E+03  0.22925288824E+03  0.17165059868E+03 0.  0.
        -24    2    3    3    0    0 -0.28117550733E+02  0.33436101748E+02 -0.27912204885E+02  0.95938944353E+02  0.80725586419E+02 0.  0.
          6    2    1    2  501    0  0.12681267371E+02  0.16266973090E+02 -0.87666767207E+02  0.19470472456E+03  0.17262398077E+03 0.  0.
         24    2    5    5    0    0 -0.49805217196E+02 -0.16514242834E+02 -0.77655106090E+02  0.12327999334E+03  0.80089708331E+02 0.  0.
          5    1    5    5  501    0  0.62486484567E+02  0.32781215925E+02 -0.10011661117E+02  0.71424731216E+02  0.47000000000E+01 0. -1.
        -11    1    6    6    0    0  0.19727815260E+02 -0.54317169543E+01 -0.30371194848E+01  0.20686090466E+02  0.00000000000E+00 0.  1.
         12    1    6    6    0    0 -0.69533032456E+02 -0.11082525880E+02 -0.74617986605E+02  0.10259390288E+03  0.00000000000E+00 0. -1.
         -5    1    3    3    0  503  0.15436283362E+02 -0.49703074839E+02 -0.12264519209E+03  0.13331394389E+03  0.47000000000E+01 0.  1.
         13    1    4    4    0    0 -0.49489069706E+01 -0.34544375350E+01  0.25962979760E+02  0.26655227197E+02  0.00000000000E+00 0. -1.
        -14    1    4    4    0    0 -0.23168643762E+02  0.36890539283E+02 -0.53875184645E+02  0.69283717156E+02  0.00000000000E+00 0.  1.
</event>
<event>
12    1  0.8258923E-002  0.3989632E+03  0.7818608E-02  0.1044237E+00
         21   -1    0    0  503  502  0.00000000000E+00  0.00000000000E+00  0.25319114586E+04  0.25319114586E+04  0.00000000000E+00 0.  1.
         21   -1    0    0  501  503 -0.00000000000E+00 -0.00000000000E+00 -0.64393586711E+02  0.64393586711E+02  0.00000000000E+00 0. -1.
          6    2    1    2  501    0 -0.15362613752E+03 -0.32452693934E+03  0.14466289852E+04  0.15006355489E+04  0.17393362255E+03 0.  0.
         24    2    3    3    0    0 -0.34872599073E+01 -0.95527501599E+02  0.50281812301E+03  0.51789272455E+03  0.79051532366E+02 0.  0.
         -6    2    1    2    0  502  0.15362613752E+03  0.32452693934E+03  0.10208888866E+04  0.10956694964E+04  0.17134410438E+03 0.  0.
        -24    2    5    5    0    0  0.14333403431E+03  0.20121941176E+03  0.54636193604E+03  0.60525274450E+03  0.82374890084E+02 0.  0.
          5    1    3    3  501    0 -0.15013887761E+03 -0.22899943774E+03  0.94381086223E+03  0.98274282430E+03  0.47000000000E+01 0. -1.
        -13    1    4    4    0    0 -0.12551309108E+02 -0.31582137909E+01  0.21693908825E+03  0.21732482068E+03  0.00000000000E+00 0.  1.
         14    1    4    4    0    0  0.90640492006E+01 -0.92369287808E+02  0.28587903477E+03  0.30056790387E+03  0.00000000000E+00 0. -1.
         -5    1    5    5    0  502  0.10292103210E+02  0.12330752758E+03  0.47452695058E+03  0.49041675193E+03  0.47000000000E+01 0.  1.
         13    1    6    6    0    0  0.27779521114E+02  0.28956487158E+02  0.34360526482E+02  0.52828266316E+02  0.00000000000E+00 0. -1.
        -14    1    6    6    0    0  0.11555451319E+03  0.17226292460E+03  0.51200140956E+03  0.55242447819E+03  0.00000000000E+00 0.  1.
</event>
<event>
12    1  0.8258923E-002  0.1777775E+03  0.7818608E-02  0.1169977E+00
         21   -1    0    0  501  502  0.00000000000E+00  0.00000000000E+00  0.56704438064E+02  0.56704438064E+02  0.00000000000E+00 0. -1.
         21   -1    0    0  502  503 -0.00000000000E+00 -0.00000000000E+00 -0.58817621808E+03  0.58817621808E+03  0.00000000000E+00 0. -1.
         -6    2    1    2    0  503 -0.28191390574E+02  0.22559734384E+02 -0.19185985507E+03  0.26156268761E+03  0.17407222479E+03 0.  0.
        -24    2    3    3    0    0  0.15842048230E+01  0.40067324103E+02 -0.27871091307E+02  0.93909753190E+02  0.80214361855E+02 0.  0.
          6    2    1    2  501    0  0.28191390574E+02 -0.22559734384E+02 -0.33961192495E+03  0.38331796853E+03  0.17404800866E+03 0.  0.
         24    2    5    5    0    0 -0.23469012858E+02  0.23448953730E+02 -0.27151293250E+03  0.28613175842E+03  0.83972987710E+02 0.  0.
          5    1    5    5  501    0  0.51660403432E+02 -0.46008688114E+02 -0.68098992447E+02  0.97186210118E+02  0.47000000000E+01 0. -1.
        -11    1    6    6    0    0 -0.23788845662E+02 -0.10797727975E+02 -0.23353676381E+03  0.23499344705E+03  0.00000000000E+00 0.  1.
         12    1    6    6    0    0  0.31983280379E+00  0.34246681705E+02 -0.37976168690E+02  0.51138311364E+02  0.00000000000E+00 0. -1.
         -5    1    3    3    0  503 -0.29775595397E+02 -0.17507589719E+02 -0.16398876377E+03  0.16765293442E+03  0.47000000000E+01 0.  1.
         11    1    4    4    0    0 -0.20871327819E+02  0.48393473919E+02 -0.40840137461E+02  0.66674263931E+02  0.00000000000E+00 0. -1.
        -12    1    4    4    0    0  0.22455532642E+02 -0.83261498161E+01  0.12969046155E+02  0.27235489259E+02  0.00000000000E+00 0.  1.
</event>
<event>
12    1  0.8258923E-002  0.1964041E+03  0.7818608E-02  0.1153031E+00
         21   -1    0    0  501  502  0.00000000000E+00  0.00000000000E+00  0.10895971923E+04  0.10895971923E+04  0.00000000000E+00 0.  1.
         21   -1    0    0  502  503 -0.00000000000E+00 -0.00000000000E+00 -0.52382609144E+02  0.52382609144E+02  0.00000000000E+00 0.  1.
         -6    2    1    2    0  503 -0.88264509908E+02  0.84524694198E+01  0.19266757192E+03  0.27512787249E+03  0.17524977889E+03 0.  0.
        -24    2    3    3    0    0 -0.11103869607E+02  0.23868262119E+02  0.20298738605E+02  0.85590235655E+02  0.78871159455E+02 0.  0.
          6    2    1    2  501    0  0.88264509908E+02 -0.84524694198E+01  0.84454701128E+03  0.86685192900E+03  0.17409923781E+03 0.  0.
         24    2    5    5    0    0 -0.71275738032E+01  0.34071092260E+02  0.30292879989E+03  0.31523586701E+03  0.79975948977E+02 0.  0.
          5    1    5    5  501    0  0.95392083712E+02 -0.42523561679E+02  0.54161821139E+03  0.55161606199E+03  0.47000000000E+01 0. -1.
        -11    1    6    6    0    0  0.13318500672E+02 -0.99809391168E+01  0.20743762873E+03  0.20810423210E+03  0.00000000000E+00 0.  1.
         12    1    6    6    0    0 -0.20446074475E+02  0.44052031376E+02  0.95491171158E+02  0.10713163491E+03  0.00000000000E+00 0. -1.
         -5    1    3    3    0  503 -0.77160640302E+02 -0.15415792699E+02  0.17236883332E+03  0.18953763683E+03  0.47000000000E+01 0.  1.
         13    1    4    4    0    0  0.29517927863E+02 -0.87884728929E+01  0.10621345230E+02  0.32578494373E+02  0.00000000000E+00 0. -1.
        -14    1    4    4    0    0 -0.40621797470E+02  0.32656735012E+02  0.96773933752E+01  0.53011741283E+02  0.00000000000E+00 0.  1.
</event>
<event>
12    1  0.8258923E-002  0.1800971E+03  0.7818608E-02  0.1168212E+00
         21   -1    0    0  503  502  0.00000000000E+00  0.00000000000E+00  0.43841064181E+03  0.43841064181E+03  0.00000000000E+00 0. -1.
         21   -1    0    0  501  503 -0.00000000000E+00 -0.00000000000E+00 -0.31503301023E+03  0.31503301023E+03  0.00000000000E+00 0. -1.
          6    2    1    2  501    0  0.51742030001E+02 -0.87064224693E+00 -0.26833605415E+03  0.32317057108E+03  0.17250212860E+03 0.  0.
         24    2    3    3    0    0  0.66177920265E+02  0.11275659157E+02 -0.72403984459E+02  0.12627619966E+03  0.78719019397E+02 0.  0.
         -6    2    1    2    0  502 -0.51742030001E+02  0.87064224693E+00  0.39171368573E+03  0.43027308096E+03  0.17034470030E+03 0.  0.
        -24    2    5    5    0    0 -0.71678649130E+02 -0.43262167516E+02  0.33951402603E+03  0.35891435232E+03  0.80872087572E+02 0.  0.
          5    1    3    3  501    0 -0.14435890264E+02 -0.12146301404E+02 -0.19593206969E+03  0.19689437142E+03  0.47000000000E+01 0. -1.
        -13    1    4    4    0    0 -0.27222231247E+01  0.31211014982E+01  0.14496388081E+02  0.15076373592E+02  0.00000000000E+00 0.  1.
         14    1    4    4    0    0  0.68900143390E+02  0.81545576584E+01 -0.86900372540E+02  0.11119982607E+03  0.00000000000E+00 0. -1.
         -5    1    5    5    0  502  0.19936619130E+02  0.44132809763E+02  0.52199659701E+02  0.71358728638E+02  0.47000000000E+01 0.  1.
         13    1    6    6    0    0 -0.56975904665E+02  0.67770262126E+01  0.23760776488E+03  0.24443737792E+03  0.00000000000E+00 0. -1.
        -14    1    6    6    0    0 -0.14702744466E+02 -0.50039193729E+02  0.10190626116E+03  0.11447697440E+03  0.00000000000E+00 0.  1.
</event>
<event>
12    1  0.8258923E-002  0.2069201E+03  0.7818608E-02  0.1144205E+00
         21   -1    0    0  503  502  0.00000000000E+00  0.00000000000E+00  0.73651368759E+02  0.73651368759E+02  0.00000000000E+00 0.  1.
         21   -1    0    0  501  503 -0.00000000000E+00 -0.00000000000E+00 -0.60719886620E+03  0.60719886620E+03  0.00000000000E+00 0.  1.
          6    2    1    2  501    0  0.39397338006E+02  0.10772748810E+03 -0.34083169091E+03  0.39872566659E+03  0.17221658961E+03 0.  0.
         24    2    3    3    0    0 -0.89616494929E+01  0.49649571493E+02 -0.71525774321E+02  0.11897684572E+03  0.80586365562E+02 0.  0.
         -6    2    1    2    0  502 -0.39397338006E+02 -0.10772748810E+03 -0.19271580653E+03  0.28212456837E+03  0.17116520690E+03 0.  0.
        -24    2    5    5    0    0  0.43030632661E+02 -0.61609045834E+02 -0.80932305067E+02  0.13570420685E+03  0.78856096015E+02 0.  0.
          5    1    3    3  501    0  0.48358987499E+02  0.58077916612E+02 -0.26930591659E+03  0.27974882087E+03  0.47000000000E+01 0. -1.
        -11    1    4    4    0    0 -0.30296780955E+02  0.41456698398E+02 -0.79611891616E+02  0.94734397475E+02  0.00000000000E+00 0.  1.
         12    1    4    4    0    0  0.21335131462E+02  0.81928730942E+01  0.80861172946E+01  0.24242448246E+02  0.00000000000E+00 0. -1.
         -5    1    5    5    0  502 -0.82427970667E+02 -0.46118442270E+02 -0.11178350147E+03  0.14642036151E+03  0.47000000000E+01 0.  1.
         13    1    6    6    0    0  0.46313181486E+02 -0.89102274765E+01 -0.11622815181E+02  0.48573580945E+02  0.00000000000E+00 0. -1.
        -14    1    6    6    0    0 -0.32825488256E+01 -0.52698818357E+02 -0.69309489886E+02  0.87130625909E+02  0.00000000000E+00 0.  1.
</event>
<event>
12    1  0.8258923E-002  0.1983344E+03  0.7818608E-02  0.1151232E+00
         21   -1    0    0  503  502  0.00000000000E+00  0.00000000000E+00  0.49418202221E+03  0.49418202221E+03  0.00000000000E+00 0. -1.
         21   -1    0    0  501  503 -0.00000000000E+00 -0.00000000000E+00 -0.79483080270E+02  0.79483080270E+02  0.00000000000E+00 0. -1.
          6    2    1    2  501    0  0.95696279149E+02 -0.17047785399E+02  0.20155051592E+03  0.28277050914E+03  0.17288188321E+03 0.  0.
         24    2    3    3    0    0 -0.10546779647E+02 -0.30662016593E+02  0.73123960815E+02  0.11547315444E+03  0.83279901111E+02 0.  0.
         -6    2    1    2    0  502 -0.95696279149E+02  0.17047785399E+02  0.21314842602E+03  0.29089459334E+03  0.17245001620E+03 0.  0.
        -24    2    5    5    0    0 -0.12658051176E+03  0.37100037099E+02  0.13214062336E+03  0.20178632933E+03  0.76534565094E+02 0.  0.
          5    1    3    3  501    0  0.10624305880E+03  0.13614231194E+02  0.12842655510E+03  0.16729735470E+03  0.47000000000E+01 0. -1.
        -13    1    4    4    0    0 -0.33447709995E+01  0.81344633022E+01  0.75435223481E+02  0.75946230505E+02  0.00000000000E+00 0.  1.
         14    1    4    4    0    0 -0.72020086473E+01 -0.38796479896E+02 -0.23112626659E+01  0.39526923938E+02  0.00000000000E+00 0. -1.
         -5    1    5    5    0  502  0.30884232608E+02 -0.20052251700E+02  0.81007802665E+02  0.89108264009E+02  0.47000000000E+01 0.  1.
         13    1    6    6    0    0 -0.72726659082E+02  0.58865178888E+02  0.91707202233E+02  0.13101330913E+03  0.00000000000E+00 0. -1.
        -14    1    6    6    0    0 -0.53853852675E+02 -0.21765141789E+02  0.40433421123E+02  0.70773020204E+02  0.00000000000E+00 0.  1.
</event>
<event>
12    1  0.8258923E-002  0.3197544E+03  0.7818608E-02  0.1075856E+00
         21   -1    0    0  503  502  0.00000000000E+00  0.00000000000E+00  0.50274033299E+03  0.50274033299E+03  0.00000000000E+00 0. -1.
         21   -1    0    0  501  503 -0.00000000000E+00 -0.00000000000E+00 -0.65817248273E+03  0.65817248273E+03  0.00000000000E+00 0. -1.
          6    2    1    2  501    0 -0.21770304918E+03 -0.15822133521E+03 -0.56053492304E+03  0.64532339087E+03  0.17266809291E+03 0.  0.
         24    2    3    3    0    0 -0.11576740437E+03 -0.22761525035E+02 -0.18597512205E+03  0.23415752364E+03  0.79516167648E+02 0.  0.
         -6    2    1    2    0  502  0.21770304918E+03  0.15822133521E+03  0.40510277331E+03  0.51558942485E+03  0.17115954410E+03 0.  0.
        -24    2    5    5    0    0  0.42279282202E+02  0.64884693542E+02  0.97086437667E+02  0.14900876562E+03  0.82342423414E+02 0.  0.
          5    1    3    3  501    0 -0.10193564481E+03 -0.13545981017E+03 -0.37455980099E+03  0.41116586723E+03  0.47000000000E+01 0. -1.
        -11    1    4    4    0    0  0.52440203736E+01 -0.20058162827E+02 -0.34643505484E+02  0.40373284705E+02  0.00000000000E+00 0.  1.
         12    1    4    4    0    0 -0.12101142474E+03 -0.27033622085E+01 -0.15133161657E+03  0.19378423893E+03  0.00000000000E+00 0. -1.
         -5    1    5    5    0  502  0.17542376698E+03  0.93336641665E+02  0.30801633564E+03  0.36658065923E+03  0.47000000000E+01 0.  1.
         11    1    6    6    0    0  0.37350150560E+02 -0.26318230684E+01  0.62824761376E+02  0.73136248752E+02  0.00000000000E+00 0. -1.
        -12    1    6    6    0    0  0.49291316430E+01  0.67516516611E+02  0.34261676290E+02  0.75872516870E+02  0.00000000000E+00 0.  1.
</event>
<event>
12    1  0.8258923E-002  0.2481297E+03  0.7818608E-02  0.1114648E+00
         21   -1    0    0  501  502  0.00000000000E+00  0.00000000000E+00  0.69663045487E+03  0.69663045487E+03  0.00000000000E+00 0.  1.
         21   -1    0    0  502  503 -0.00000000000E+00 -0.00000000000E+00 -0.11943834470E+03  0.11943834470E+03  0.00000000000E+00 0.  1.
         -6    2    1    2    0  503 -0.29211842739E+02  0.17648413133E+03  0.49740729530E+03  0.55542734737E+03  0.17054483405E+03 0.  0.
        -24    2    3    3    0    0  0.46354301749E+02  0.99156170999E+02  0.31904311796E+03  0.34679914841E+03  0.80625496493E+02 0.  0.
          6    2    1    2  501    0  0.29211842739E+02 -0.17648413133E+03  0.79784814878E+02  0.26064145221E+03  0.17195455666E+03 0.  0.
         24    2    5    5    0    0 -0.20030419178E+02 -0.92701322576E+02  0.10245067255E+03  0.16074054878E+03  0.79665744307E+02 0.  0.
          5    1    5    5  501    0  0.49242261917E+02 -0.83782808753E+02 -0.22665857675E+02  0.99900903427E+02  0.47000000000E+01 0. -1.
        -13    1    6    6    0    0  0.25525053996E+02 -0.37896624778E+02  0.15351560317E+02  0.48201171720E+02  0.00000000000E+00 0.  1.
         14    1    6    6    0    0 -0.45555473174E+02 -0.54804697798E+02  0.87099112237E+02  0.11253937706E+03  0.00000000000E+00 0. -1.
         -5    1    3    3    0  503 -0.75566144487E+02  0.77327960330E+02  0.17836417734E+03  0.20862819896E+03  0.47000000000E+01 0.  1.
         11    1    4    4    0    0 -0.76142232080E+01  0.23298089569E+02  0.16499049619E+03  0.16680120265E+03  0.00000000000E+00 0. -1.
        -12    1    4    4    0    0  0.53968524957E+02  0.75858081431E+02  0.15405262176E+03  0.17999794575E+03  0.00000000000E+00 0.  1.
</event>
<event>
12    1  0.8258923E-002  0.1744241E+03  0.7818608E-02  0.1173711E+00
         21   -1    0    0  503  502  0.00000000000E+00  0.00000000000E+00  0.92805688640E+02  0.92805688640E+02  0.00000000000E+00 0.  1.
         21   -1    0    0  501  503 -0.00000000000E+00 -0.00000000000E+00 -0.44293985109E+03  0.44293985109E+03  0.00000000000E+00 0.  1.
          6    2    1    2  501    0 -0.79865547738E+01 -0.13473784009E+02 -0.31278675264E+03  0.35736782126E+03  0.17213622260E+03 0.  0.
         24    2    3    3    0    0  0.14643875018E+02 -0.20698877054E+02 -0.32096692742E+03  0.33180723477E+03  0.80208390864E+02 0.  0.
         -6    2    1    2    0  502  0.79865547738E+01  0.13473784009E+02 -0.37347409812E+02  0.17837771848E+03  0.17371946787E+03 0.  0.
        -24    2    5    5    0    0  0.25431142920E+02 -0.55654184014E+02 -0.36457139640E+02  0.10692233240E+03  0.79744159072E+02 0.  0.
          5    1    3    3  501    0 -0.22630429791E+02  0.72250930446E+01  0.81801747766E+01  0.25560586484E+02  0.47000000000E+01 0. -1.
        -11    1    4    4    0    0  0.31575238273E+02  0.21093075752E+02 -0.12095434228E+03  0.12677486515E+03  0.00000000000E+00 0.  1.
         12    1    4    4    0    0 -0.16931363255E+02 -0.41791952806E+02 -0.20001258514E+03  0.20503236963E+03  0.00000000000E+00 0. -1.
         -5    1    5    5    0  502 -0.17444588147E+02  0.69127968023E+02 -0.89027017142E+00  0.71455386078E+02  0.47000000000E+01 0.  1.
         11    1    6    6    0    0  0.22018256429E+02  0.16816688789E+02 -0.13543271009E+02  0.30838690433E+02  0.00000000000E+00 0. -1.
        -12    1    6    6    0    0  0.34128864912E+01 -0.72470872802E+02 -0.22913868631E+02  0.76083641965E+02  0.00000000000E+00 0.  1.
</event>
<event>
12    1  0.8258923E-002  0.2363149E+03  0.7818608E-02  0.1123844E+00
         21   -1    0    0  503  502  0.00000000000E+00  0.00000000000E+00  0.11276265232E+03  0.11276265232E+03  0.00000000000E+00 0. -1.
         21   -1    0    0  501  503 -0.00000000000E+00 -0.00000000000E+00 -0.47645404139E+03  0.47645404139E+03  0.00000000000E+00 0.  1.
          6    2    1    2  501    0 -0.13641989348E+03  0.56896795035E+02 -0.18364416576E+03  0.29928233980E+03  0.18438304335E+03 0.  0.
         24    2    3    3    0    0 -0.24269914216E+02  0.56832597022E+02 -0.15193743744E+03  0.18264174399E+03  0.80337095615E+02 0.  0.
         -6    2    1    2    0  502  0.13641989348E+03 -0.56896795035E+02 -0.18004722331E+03  0.28993435391E+03  0.17261892807E+03 0.  0.
        -24    2    5    5    0    0  0.14588092626E+03 -0.57938554599E+02 -0.20018859102E+03  0.26716680908E+03  0.81636457213E+02 0.  0.
          5    1    3    3  501    0 -0.11214997927E+03  0.64198012335E-01 -0.31706728323E+02  0.11664059581E+03  0.47000000000E+01 0. -1.
        -13    1    4    4    0    0 -0.26742077635E+02  0.21625626531E+02 -0.91937995562E+01  0.35599612208E+02  0.00000000000E+00 0.  1.
         14    1    4    4    0    0  0.24721634190E+01  0.35206970491E+02 -0.14274363788E+03  0.14704213178E+03  0.00000000000E+00 0. -1.
         -5    1    5    5    0  502 -0.94610327762E+01  0.10417595642E+01  0.20141367706E+02  0.22767544822E+02  0.47000000000E+01 0.  1.
         11    1    6    6    0    0  0.46633496693E+02 -0.53887271986E+02 -0.49815758092E+02  0.86949012934E+02  0.00000000000E+00 0. -1.
        -12    1    6    6    0    0  0.99247429564E+02 -0.40512826122E+01 -0.15037283293E+03  0.18021779615E+03  0.00000000000E+00 0.  1.
</event>
<event>
12    1  0.8258923E-002  0.2428851E+03  0.7818608E-02  0.1118103E+00
         21   -1    0    0  503  502  0.00000000000E+00  0.00000000000E+00  0.24260389514E+03  0.24260389514E+03  0.00000000000E+00 0.  1.
         21   -1    0    0  501  503 -0.00000000000E+00 -0.00000000000E+00 -0.46653361083E+03  0.46653361083E+03  0.00000000000E+00 0.  1.
          6    2    1    2  501    0 -0.21204014952E+02  0.16731615177E+03 -0.35818751602E+03  0.43277181882E+03  0.17478228070E+03 0.  0.
         24    2    3    3    0    0  0.21281228588E+02  0.13778188267E+03 -0.16090494919E+03  0.22876257849E+03  0.83696933998E+02 0.  0.
         -6    2    1    2    0  502  0.21204014952E+02 -0.16731615177E+03  0.13425780033E+03  0.27636568715E+03  0.17294083148E+03 0.  0.
        -24    2    5    5    0    0 -0.18170617815E+02 -0.15743777656E+03  0.15005751705E+03  0.23255170478E+03  0.80288306354E+02 0.  0.
          5    1    3    3  501    0 -0.42485243540E+02  0.29534269099E+02 -0.19728256683E+03  0.20400924034E+03  0.47000000000E+01 0. -1.
        -13    1    4    4    0    0 -0.16421694967E+02  0.10314636086E+03 -0.13696532326E+03  0.17224501038E+03  0.00000000000E+00 0.  1.
         14    1    4    4    0    0  0.37702923555E+02  0.34635521806E+02 -0.23939625933E+02  0.56517568111E+02  0.00000000000E+00 0. -1.
         -5    1    5    5    0  502  0.39374632766E+02 -0.98783752098E+01 -0.15799716720E+02  0.43813982365E+02  0.47000000000E+01 0.  1.
         11    1    6    6    0    0  0.25204271643E+02 -0.46130797930E+02  0.74584554363E+02  0.91247803131E+02  0.00000000000E+00 0. -1.
        -12    1    6    6    0    0 -0.43374889457E+02 -0.11130697863E+03  0.75472962685E+02  0.14130390165E+03  0.00000000000E+00 0.  1.
</event>
<event>
12    1  0.8258923E-002  0.1789156E+03  0.7818608E-02  0.1169631E+00
         21   -1    0    0  503  502  0.00000000000E+00  0.00000000000E+00  0.16792651405E+03  0.16792651405E+03  0.00000000000E+00 0. -1.
         21   -1    0    0  501  503 -0.00000000000E+00 -0.00000000000E+00 -0.37378286803E+03  0.37378286803E+03  0.00000000000E+00 0. -1.
          6    2    1    2  501    0  0.34146967061E+02 -0.20489545590E+01 -0.29470205514E+03  0.34476092846E+03  0.17561487101E+03 0.  0.
         24    2    3    3    0    0  0.29064623428E+02 -0.64174711557E+02 -0.12308066472E+03  0.16210980871E+03  0.78534031558E+02 0.  0.
         -6    2    1    2    0  502 -0.34146967061E+02  0.20489545590E+01  0.88845701150E+02  0.19694845361E+03  0.17240916795E+03 0.  0.
        -24    2    5    5    0    0  0.29462645058E+02  0.50316674006E+02  0.55913264415E+02  0.11044648321E+03  0.75314788581E+02 0.  0.
          5    1    3    3  501    0  0.50823436331E+01  0.62125756999E+02 -0.17162139042E+03  0.18265111976E+03  0.47000000000E+01 0. -1.
        -13    1    4    4    0    0  0.14824045007E+02 -0.60674971336E+01  0.80863583267E+01  0.17943133027E+02  0.00000000000E+00 0.  1.
         14    1    4    4    0    0  0.14240578420E+02 -0.58107214424E+02 -0.13116702304E+03  0.14416667568E+03  0.00000000000E+00 0. -1.
         -5    1    5    5    0  502 -0.63609612119E+02 -0.48267719447E+02  0.32932436735E+02  0.86501970404E+02  0.47000000000E+01 0.  1.
         11    1    6    6    0    0  0.19193930750E+02 -0.37163787739E+00  0.55500416071E+02  0.58726836083E+02  0.00000000000E+00 0. -1.
        -12    1    6    6    0    0  0.10268714308E+02  0.50688311883E+02  0.41284834453E+00  0.51719647126E+02  0.00000000000E+00 0.  1.
</event>
<event>
12    1  0.8258923E-002  0.2595296E+03  0.7818608E-02  0.1107573E+00
         21   -1    0    0  503  502  0.00000000000E+00  0.00000000000E+00  0.13933836103E+04  0.13933836103E+04  0.00000000000E+00 0. -1.
         21   -1    0    0  501  503 -0.00000000000E+00 -0.00000000000E+00 -0.48403551605E+02  0.48403551605E+02  0.00000000000E+00 0. -1.
          6    2    1    2  501    0  0.56914469838E+02  0.18420436557E+03  0.72499339107E+03  0.77004610899E+03  0.17373856134E+03 0.  0.
         24    2    3    3    0    0  0.52878150067E+02  0.20365283048E+03  0.71017248960E+03  0.74482144278E+03  0.78380115608E+02 0.  0.
         -6    2    1    2    0  502 -0.56914469838E+02 -0.18420436557E+03  0.61998666761E+03  0.67174105291E+03  0.17228484836E+03 0.  0.
        -24    2    5    5    0    0  0.21182431402E+02 -0.46284194269E+02  0.30623346614E+03  0.32019552091E+03  0.78455807854E+02 0.  0.
          5    1    3    3  501    0  0.40363197706E+01 -0.19448464914E+02  0.14820901474E+02  0.25224666208E+02  0.47000000000E+01 0. -1.
        -13    1    4    4    0    0  0.18724639307E+01  0.15386008493E+02  0.16646538178E+03  0.16718540220E+03  0.00000000000E+00 0.  1.
         14    1    4    4    0    0  0.51005686137E+02  0.18826682199E+03  0.54370710782E+03  0.57763604058E+03  0.00000000000E+00 0. -1.
         -5    1    5    5    0  502 -0.78096901240E+02 -0.13792017130E+03  0.31375320147E+03  0.35154553200E+03  0.47000000000E+01 0.  1.
         11    1    6    6    0    0 -0.12515063726E+02 -0.37605303207E+02  0.62612682938E+02  0.74102184273E+02  0.00000000000E+00 0. -1.
        -12    1    6    6    0    0  0.33697495128E+02 -0.86788910624E+01  0.24362078321E+03  0.24609333664E+03  0.00000000000E+00 0.  1.
</event>
<event>
12    1  0.8258923E-002  0.1705368E+03  0.7818608E-02  0.1177327E+00
         21   -1    0    0  501  502  0.00000000000E+00  0.00000000000E+00  0.78678364881E+03  0.78678364881E+03  0.00000000000E+00 0. -1.
         21   -1    0    0  502  503 -0.00000000000E+00 -0.00000000000E+00 -0.59318660936E+02  0.59318660936E+02  0.00000000000E+00 0. -1.
         -6    2    1    2    0  503  0.42974415799E+01  0.10355583667E+01  0.10374977267E+03  0.19949309810E+03  0.17033478939E+03 0.  0.
        -24    2    3    3    0    0  0.22574566488E+02  0.51772546544E+02  0.21503464424E+02  0.10103071704E+03  0.80961714256E+02 0.  0.
          6    2    1    2  501    0 -0.42974415799E+01 -0.10355583667E+01  0.62371521521E+03  0.64660921165E+03  0.17047950763E+03 0.  0.
         24    2    5    5    0    0  0.16557088126E+02 -0.16434690035E+01  0.61971251276E+03  0.62485162466E+03  0.78224780028E+02 0.  0.
          5    1    5    5  501    0 -0.20854529705E+02  0.60791063673E+00  0.40027024430E+01  0.21757586985E+02  0.47000000000E+01 0. -1.
        -11    1    6    6    0    0  0.19502743232E+02 -0.22358408374E+02  0.90777390798E+02  0.95502827700E+02  0.00000000000E+00 0.  1.
         12    1    6    6    0    0 -0.29456551069E+01  0.20714939371E+02  0.52893512197E+03  0.52934879696E+03  0.00000000000E+00 0. -1.
         -5    1    3    3    0  503 -0.18277124908E+02 -0.50736988178E+02  0.82246308244E+02  0.98462381060E+02  0.47000000000E+01 0.  1.
         11    1    4    4    0    0  0.12974326953E+02 -0.21299963939E+02  0.37334546602E+01  0.25218253456E+02  0.00000000000E+00 0. -1.
        -12    1    4    4    0    0  0.96002395349E+01  0.73072510483E+02  0.17770009764E+02  0.75812463583E+02  0.00000000000E+00 0.  1.
</event>
<event>
12    1  0.8258923E-002  0.2134707E+03  0.7818608E-02  0.1139019E+00
         21   -1    0    0  503  502  0.00000000000E+00  0.00000000000E+00  0.16554498403E+03  0.16554498403E+03  0.00000000000E+00 0.  1.
         21   -1    0    0  501  503 -0.00000000000E+00 -0.00000000000E+00 -0.57253459994E+03  0.57253459994E+03  0.00000000000E+00 0.  1.
          6    2    1    2  501    0 -0.25114671681E+02 -0.12396649913E+03 -0.46971730472E+03  0.51558348599E+03  0.17086118645E+03 0.  0.
         24    2    3    3    0    0 -0.75173955750E+02 -0.10959151380E+03 -0.29310021902E+03  0.33138723987E+03  0.79046447346E+02 0.  0.
         -6    2    1    2    0  502  0.25114671681E+02  0.12396649913E+03  0.62727688802E+02  0.22249609798E+03  0.17196310951E+03 0.  0.
        -24    2    5    5    0    0  0.59889886000E+02  0.13429226961E+03  0.75944899201E+02  0.18360237461E+03  0.79504667313E+02 0.  0.
          5    1    3    3  501    0  0.50059284069E+02 -0.14374985330E+02 -0.17661708570E+03  0.18419624612E+03  0.47000000000E+01 0. -1.
        -11    1    4    4    0    0  0.64792653227E+01 -0.56540098946E+02 -0.97629201425E+02  0.11300541863E+03  0.00000000000E+00 0.  1.
         12    1    4    4    0    0 -0.81653221073E+02 -0.53051414853E+02 -0.19547101760E+03  0.21838182124E+03  0.00000000000E+00 0. -1.
         -5    1    5    5    0  502 -0.34775214319E+02 -0.10325770480E+02 -0.13217210399E+02  0.38893723371E+02  0.47000000000E+01 0.  1.
         11    1    6    6    0    0  0.21459390143E+02  0.92642382140E+02  0.84488294792E+01  0.95469885898E+02  0.00000000000E+00 0. -1.
        -12    1    6    6    0    0  0.38430495857E+02  0.41649887469E+02  0.67496069721E+02  0.88132488708E+02  0.00000000000E+00 0.  1.
</event>
<event>
12    1  0.8258923E-002  0.1910066E+03  0.7818608E-02  0.1157680E+00
         21   -1    0    0  503  502  0.00000000000E+00  0.00000000000E+00  0.50519496783E+03  0.50519496783E+03  0.00000000000E+00 0. -1.
         21   -1    0    0  501  503 -0.00000000000E+00 -0.00000000000E+00 -0.72468710653E+02  0.72468710653E+02  0.00000000000E+00 0. -1.
          6    2    1    2  501    0 -0.81020958440E+02 -0.19199369807E+02  0.19368150733E+03  0.27202217023E+03  0.17190265649E+03 0.  0.
         24    2    3    3    0    0 -0.75337706904E+02 -0.65221612476E+02  0.81152838004E+02  0.15022259064E+03  0.77790840130E+02 0.  0.
         -6    2    1    2    0  502  0.81020958440E+02  0.19199369807E+02  0.23904474985E+03  0.30564150825E+03  0.17129310444E+03 0.  0.
        -24    2    5    5    0    0  0.64233225587E+02 -0.52598375568E+02  0.11956984454E+03  0.16516700090E+03  0.78042898991E+02 0.  0.
          5    1    3    3  501    0 -0.56832515366E+01  0.46022242669E+02  0.11252866932E+03  0.12179957959E+03  0.47000000000E+01 0. -1.
        -13    1    4    4    0    0 -0.30016458573E+02  0.13495290009E+02  0.36037646045E+02  0.48803919619E+02  0.00000000000E+00 0.  1.
         14    1    4    4    0    0 -0.45321248330E+02 -0.78716902484E+02  0.45115191960E+02  0.10141867103E+03  0.00000000000E+00 0. -1.
         -5    1    5    5    0  502  0.16787732853E+02  0.71797745375E+02  0.11947490531E+03  0.14047450735E+03  0.47000000000E+01 0.  1.
         11    1    6    6    0    0  0.58346629222E+02  0.71465012746E+00  0.46993605324E+02  0.74921551023E+02  0.00000000000E+00 0. -1.
        -12    1    6    6    0    0  0.58865963650E+01 -0.53313025696E+02  0.72576239216E+02  0.90245449882E+02  0.00000000000E+00 0.  1.
</event>
<event>
12    1  0.8258923E-002  0.2966113E+03  0.7818608E-02  0.1086972E+00
         21   -1    0    0  501  502  0.00000000000E+00  0.00000000000E+00  0.14424477704E+03  0.14424477704E+03  0.00000000000E+00 0.  1.
         21   -1    0    0  502  503 -0.00000000000E+00 -0.00000000000E+00 -0.76387560059E+03  0.76387560059E+03  0.00000000000E+00 0. -1.
         -6    2    1    2    0  503  0.19961839208E+03  0.13654115899E+03 -0.51384729981E+03  0.59321020586E+03  0.17137184792E+03 0.  0.
        -24    2    3    3    0    0  0.98360947230E+02  0.78617353340E+02 -0.41250753759E+03  0.43861371558E+03  0.79774424116E+02 0.  0.
          6    2    1    2  501    0 -0.19961839208E+03 -0.13654115899E+03 -0.10578352375E+03  0.31491017177E+03  0.17171858324E+03 0.  0.
         24    2    5    5    0    0 -0.95958851661E+02 -0.14641157788E+03 -0.58797951337E+02  0.20057531486E+03  0.78286694290E+02 0.  0.
          5    1    5    5  501    0 -0.10365954042E+03  0.98704188823E+01 -0.46985572410E+02  0.11433485691E+03  0.47000000000E+01 0. -1.
        -11    1    6    6    0    0 -0.72382513792E+02 -0.76229566036E+02 -0.69141306519E+02  0.12582009103E+03  0.00000000000E+00 0.  1.
         12    1    6    6    0    0 -0.23576337869E+02 -0.70182011840E+02  0.10343355182E+02  0.74755223828E+02  0.00000000000E+00 0. -1.
         -5    1    3    3    0  503  0.10125744485E+03  0.57923805654E+02 -0.10133976222E+03  0.15459649028E+03  0.47000000000E+01 0.  1.
         13    1    4    4    0    0  0.65164744145E+00 -0.39871415674E+01 -0.11110050107E+03  0.11117393256E+03  0.00000000000E+00 0. -1.
        -14    1    4    4    0    0  0.97709299788E+02  0.82604494907E+02 -0.30140703651E+03  0.32743978302E+03  0.00000000000E+00 0.  1.
</event>
<event>
12    1  0.8258923E-002  0.2628010E+03  0.7818608E-02  0.1105562E+00
         21   -1    0    0  501  502  0.00000000000E+00  0.00000000000E+00  0.87582963274E+02  0.87582963274E+02  0.00000000000E+00 0.  1.
         21   -1    0    0  502  503 -0.00000000000E+00 -0.00000000000E+00 -0.11381778649E+04  0.11381778649E+04  0.00000000000E+00 0. -1.
         -6    2    1    2    0  503  0.36446963435E+02  0.19491751394E+03 -0.86627629254E+03  0.90526181610E+03  0.17246194446E+03 0.  0.
        -24    2    3    3    0    0  0.34849324381E+02  0.20908897997E+03 -0.64112832330E+03  0.67961368082E+03  0.76789004879E+02 0.  0.
          6    2    1    2  501    0 -0.36446963435E+02 -0.19491751394E+03 -0.18431860907E+03  0.32049901205E+03  0.17153730992E+03 0.  0.
         24    2    5    5    0    0 -0.52904743526E+02 -0.14096217775E+03 -0.54815933711E+02  0.17916582503E+03  0.80164573399E+02 0.  0.
          5    1    5    5  501    0  0.16457780091E+02 -0.53955336195E+02 -0.12950267536E+03  0.14133318702E+03  0.47000000000E+01 0. -1.
        -13    1    6    6    0    0 -0.37273116217E+02 -0.45398304715E+02  0.13982155662E+02  0.60380393676E+02  0.00000000000E+00 0.  1.
         14    1    6    6    0    0 -0.15631627309E+02 -0.95563873033E+02 -0.68798089373E+02  0.11878543136E+03  0.00000000000E+00 0. -1.
         -5    1    3    3    0  503  0.15976390534E+01 -0.14171466032E+02 -0.22514796924E+03  0.22564813528E+03  0.47000000000E+01 0.  1.
         13    1    4    4    0    0  0.57762151525E+02  0.14703472674E+03 -0.48402123498E+03  0.50914853720E+03  0.00000000000E+00 0. -1.
        -14    1    4    4    0    0 -0.22912827144E+02  0.62054253237E+02 -0.15710708832E+03  0.17046514363E+03  0.00000000000E+00 0.  1.
</event>
<event>
12    1  0.8258923E-002  0.2140516E+03  0.7818608E-02  0.1138427E+00
         21   -1    0    0  503  502  0.00000000000E+00  0.00000000000E+00  0.22732156768E+02  0.22732156768E+02  0.00000000000E+00 0.  1.
         21   -1    0    0  501  503 -0.00000000000E+00 -0.00000000000E+00 -0.20142453504E+04  0.20142453504E+04  0.00000000000E+00 0.  1.
          6    2    1    2  501    0 -0.97762167742E+02 -0.80146076519E+02 -0.98820283874E+03  0.10111196541E+04  0.17273467901E+03 0.  0.
         24    2    3    3    0    0 -0.62256181673E+02 -0.93940518251E+02 -0.93658204037E+03  0.94679424312E+03  0.80825536435E+02 0.  0.
         -6    2    1    2    0  502  0.97762167742E+02  0.80146076519E+02 -0.10033103549E+04  0.10258578531E+04  0.17254515787E+03 0.  0.
        -24    2    5    5    0    0 -0.79460230550E+01  0.71768729988E+02 -0.42706955371E+03  0.43992274365E+03  0.77004719250E+02 0.  0.
          5    1    3    3  501    0 -0.35505986069E+02  0.13794441731E+02 -0.51620798369E+02  0.64325410948E+02  0.47000000000E+01 0. -1.
        -13    1    4    4    0    0 -0.52604262757E+02 -0.10830295374E+03 -0.77642894402E+03  0.78570900680E+03  0.00000000000E+00 0.  1.
         14    1    4    4    0    0 -0.96519189160E+01  0.14362435485E+02 -0.16015309635E+03  0.16108523633E+03  0.00000000000E+00 0. -1.
         -5    1    5    5    0  502  0.10570819080E+03  0.83773465310E+01 -0.57624080122E+03  0.58593510949E+03  0.47000000000E+01 0.  1.
         11    1    6    6    0    0 -0.25360901894E+02  0.48369038778E+02 -0.38425187681E+03  0.38811369996E+03  0.00000000000E+00 0. -1.
        -12    1    6    6    0    0  0.17414878839E+02  0.23399691210E+02 -0.42817676895E+02  0.51809043693E+02  0.00000000000E+00 0.  1.
</event>
<event>
12    1  0.8258923E-002  0.1943450E+03  0.7818608E-02  0.1154606E+00
         21   -1    0    0  501  502  0.00000000000E+00  0.00000000000E+00  0.29581122155E+03  0.29581122155E+03  0.00000000000E+00 0.  1.
         21   -1    0    0  502  503 -0.00000000000E+00 -0.00000000000E+00 -0.20197823227E+03  0.20197823227E+03  0.00000000000E+00 0.  1.
         -6    2    1    2    0  503  0.35249370850E+02 -0.82354784332E+02 -0.10405349284E+03  0.22044752662E+03  0.17246783461E+03 0.  0.
        -24    2    3    3    0    0  0.27566551936E+00 -0.71977183936E+02 -0.13439626875E+03  0.17276494380E+03  0.81268553285E+02 0.  0.
          6    2    1    2  501    0 -0.35249370850E+02  0.82354784332E+02  0.19788648211E+03  0.27734192720E+03  0.17243739772E+03 0.  0.
         24    2    5    5    0    0  0.18396472562E+02  0.94070502899E+02  0.17913776615E+03  0.21912905124E+03  0.82094531602E+02 0.  0.
          5    1    5    5  501    0 -0.53645843412E+02 -0.11715718567E+02  0.18748715962E+02  0.58212875957E+02  0.47000000000E+01 0. -1.
        -11    1    6    6    0    0 -0.56026905036E+01  0.23840951345E+02  0.12471411724E+03  0.12709599577E+03  0.00000000000E+00 0.  1.
         12    1    6    6    0    0  0.23999163065E+02  0.70229551554E+02  0.54423648915E+02  0.92033055477E+02  0.00000000000E+00 0. -1.
         -5    1    3    3    0  503  0.34973705331E+02 -0.10377600396E+02  0.30342775912E+02  0.47682582822E+02  0.47000000000E+01 0.  1.
         13    1    4    4    0    0  0.32705783421E+02 -0.26704447629E+02 -0.22659275631E+02  0.47919083511E+02  0.00000000000E+00 0. -1.
        -14    1    4    4    0    0 -0.32430117902E+02 -0.45272736306E+02 -0.11173699312E+03  0.12484586029E+03  0.00000000000E+00 0.  1.
</event>
<event>
12    1  0.8258923E-002  0.2122192E+03  0.7818608E-02  0.1139876E+00
         21   -1    0    0  503  502  0.00000000000E+00  0.00000000000E+00  0.56385457112E+03  0.56385457112E+03  0.00000000000E+00 0. -1.
         21   -1    0    0  501  503 -0.00000000000E+00 -0.00000000000E+00 -0.90188556483E+02  0.90188556483E+02  0.00000000000E+00 0. -1.
          6    2    1    2  501    0  0.95656757820E+00 -0.12610360195E+03  0.12580892228E+03  0.24670804736E+03  0.17068667863E+03 0.  0.
         24    2    3    3    0    0  0.50768876636E+02 -0.12074277094E+03  0.61883257648E+02  0.16535335947E+03  0.79723900707E+02 0.  0.
         -6    2    1    2    0  502 -0.95656757820E+00  0.12610360195E+03  0.34785709236E+03  0.40733508024E+03  0.17033577852E+03 0.  0.
        -24    2    5    5    0    0 -0.12107354627E+02  0.66480472928E+00  0.97935853909E+02  0.12743876492E+03  0.80636079537E+02 0.  0.
          5    1    3    3  501    0 -0.49812309058E+02 -0.53608310124E+01  0.63925664627E+02  0.81354687885E+02  0.47000000000E+01 0. -1.
        -13    1    4    4    0    0  0.44036054079E+02 -0.45962967484E+02  0.63967770216E+02  0.90242141293E+02  0.00000000000E+00 0.  1.
         14    1    4    4    0    0  0.67328225567E+01 -0.74779803452E+02 -0.20845125680E+01  0.75111218181E+02  0.00000000000E+00 0. -1.
         -5    1    5    5    0  502  0.11150787049E+02  0.12543879722E+03  0.24992123845E+03  0.27989631532E+03  0.47000000000E+01 0.  1.
         11    1    6    6    0    0  0.77612272736E+01  0.32571321952E+02  0.15620036543E+02  0.36947438397E+02  0.00000000000E+00 0. -1.
        -12    1    6    6    0    0 -0.19868581900E+02 -0.31906517223E+02  0.82315817366E+02  0.90491326527E+02  0.00000000000E+00 0.  1.
</event>
<event>
12    1  0.8258923E-002  0.1867137E+03  0.7818608E-02  0.1162037E+00
         21   -1    0    0  501  502  0.00000000000E+00  0.00000000000E+00  0.84007858233E+03  0.84007858233E+03  0.00000000000E+00 0. -1.
         21   -1    0    0  502  503 -0.00000000000E+00 -0.00000000000E+00 -0.60877491195E+02  0.60877491195E+02  0.00000000000E+00 0. -1.
         -6    2    1    2    0  503 -0.72087211051E+02 -0.11360454814E+02  0.13361131965E+03  0.22959525336E+03  0.17186148404E+03 0.  0.
        -24    2    3    3    0    0 -0.85713002284E+02  0.30079928524E+02  0.13997276834E+03  0.18526100489E+03  0.80484428263E+02 0.  0.
          6    2    1    2  501    0  0.72087211051E+02  0.11360454814E+02  0.64558977148E+03  0.67136082016E+03  0.16915546659E+03 0.  0.
         24    2    5    5    0    0  0.42190467254E+02 -0.63410063531E+01  0.62148414904E+03  0.62881287015E+03  0.85690339415E+02 0.  0.
          5    1    5    5  501    0  0.29896743797E+02  0.17701461167E+02  0.24105622443E+02  0.42547950015E+02  0.47000000000E+01 0. -1.
        -13    1    6    6    0    0 -0.18386189832E+02 -0.26158587368E+02  0.21276752737E+03  0.21515655782E+03  0.00000000000E+00 0.  1.
         14    1    6    6    0    0  0.60576657086E+02  0.19817581015E+02  0.40871662167E+03  0.41365631233E+03  0.00000000000E+00 0. -1.
         -5    1    3    3    0  503  0.13625791233E+02 -0.41440383338E+02 -0.63614486957E+01  0.44334248470E+02  0.47000000000E+01 0.  1.
         13    1    4    4    0    0 -0.77517557776E+02 -0.11459947673E+02  0.99880875790E+02  0.12695074444E+03  0.00000000000E+00 0. -1.
        -14    1    4    4    0    0 -0.81954445082E+01  0.41539876197E+02  0.40091892554E+02  0.58310260450E+02  0.00000000000E+00 0.  1.
</event>
<event>
12    1  0.8258923E-002  0.1902849E+03  0.7818608E-02  0.1158258E+00
         21   -1    0    0  501  502  0.00000000000E+00  0.00000000000E+00  0.60548841695E+03  0.60548841695E+03  0.00000000000E+00 0.  1.
         21   -1    0    0  502  503 -0.00000000000E+00 -0.00000000000E+00 -0.71599287393E+02  0.71599287393E+02  0.00000000000E+00 0.  1.
         -6    2    1    2    0  503 -0.53600791608E+02  0.62520572992E+02  0.12894655924E+03  0.22966529168E+03  0.17128065902E+03 0.  0.
        -24    2    3    3    0    0 -0.23614273607E+02  0.10695742836E+03  0.84440253229E+02  0.15983172775E+03  0.80115538005E+02 0.  0.
          6    2    1    2  501    0  0.53600791608E+02 -0.62520572992E+02  0.40494257032E+03  0.44742241266E+03  0.17154143286E+03 0.  0.
         24    2    5    5    0    0  0.32438788721E+02 -0.38151930226E+02  0.86058370571E+02  0.12687462533E+03  0.78633851573E+02 0.  0.
          5    1    5    5  501    0  0.21162002887E+02 -0.24368642766E+02  0.31888419974E+03  0.32054778733E+03  0.47000000000E+01 0. -1.
        -11    1    6    6    0    0  0.14458984329E+02 -0.37345550316E+02  0.97598263812E+02  0.10549489777E+03  0.00000000000E+00 0.  1.
         12    1    6    6    0    0  0.17979804392E+02 -0.80637991003E+00 -0.11539893240E+02  0.21379727560E+02  0.00000000000E+00 0. -1.
         -5    1    3    3    0  503 -0.29986518001E+02 -0.44436855370E+02  0.44506306014E+02  0.69833563936E+02  0.47000000000E+01 0.  1.
         11    1    4    4    0    0 -0.49921765115E+02  0.46206688201E+02  0.54548429329E+02  0.87193874837E+02  0.00000000000E+00 0. -1.
        -12    1    4    4    0    0  0.26307491508E+02  0.60750740161E+02  0.29891823899E+02  0.72637852911E+02  0.00000000000E+00 0.  1.
</event>
<event>
12    1  0.8258923E-002  0.2973410E+03  0.7818608E-02  0.1087017E+00
         21   -1    0    0  501  502  0.00000000000E+00  0.00000000000E+00  0.44192360905E+03  0.44192360905E+03  0.00000000000E+00 0. -1.
         21   -1    0    0  502  503 -0.00000000000E+00 -0.00000000000E+00 -0.19815222523E+03  0.19815222523E+03  0.00000000000E+00 0.  1.
         -6    2    1    2    0  503  0.23633968052E+03 -0.35569081133E+02  0.10804311748E+03  0.31636213860E+03  0.17689003189E+03 0.  0.
        -24    2    3    3    0    0  0.16849653583E+03 -0.26713717235E+02  0.14548923228E+03  0.23822500745E+03  0.80494299108E+02 0.  0.
          6    2    1    2  501    0 -0.23633968052E+03  0.35569081133E+02  0.13572826633E+03  0.32371369568E+03  0.17101693006E+03 0.  0.
         24    2    5    5    0    0 -0.10636434615E+03 -0.11246904536E+02  0.31977767532E+01  0.13221501493E+03  0.77657693785E+02 0.  0.
          5    1    5    5  501    0 -0.12997533437E+03  0.46815985669E+02  0.13253048958E+03  0.19149868074E+03  0.47000000000E+01 0. -1.
        -13    1    6    6    0    0 -0.43440583934E+02 -0.28989593896E+02  0.31483415507E+02  0.60981032615E+02  0.00000000000E+00 0.  1.
         14    1    6    6    0    0 -0.62923762219E+02  0.17742689359E+02 -0.28285638754E+02  0.71233982320E+02  0.00000000000E+00 0. -1.
         -5    1    3    3    0  503  0.67843144687E+02 -0.88553638975E+01 -0.37446114795E+02  0.78137131148E+02  0.47000000000E+01 0.  1.
         11    1    4    4    0    0  0.93641376257E+02 -0.54545909403E+02  0.91433775905E+02  0.14178892395E+03  0.00000000000E+00 0. -1.
        -12    1    4    4    0    0  0.74855159576E+02  0.27832192168E+02  0.54055456374E+02  0.96436083495E+02  0.00000000000E+00 0.  1.
</event>
<event>
12    1  0.8258923E-002  0.1772248E+03  0.7818608E-02  0.1170733E+00
         21   -1    0    0  501  502  0.00000000000E+00  0.00000000000E+00  0.47958832031E+02  0.47958832031E+02  0.00000000000E+00 0. -1.
         21   -1    0    0  502  503 -0.00000000000E+00 -0.00000000000E+00 -0.66391348391E+03  0.66391348391E+03  0.00000000000E+00 0.  1.
         -6    2    1    2    0  503  0.17813186894E+02  0.37324434069E+02 -0.26041650976E+03  0.31500058992E+03  0.17233162823E+03 0.  0.
        -24    2    3    3    0    0  0.54181115199E+02  0.61710180145E+02 -0.10990956844E+03  0.15818311575E+03  0.78727665368E+02 0.  0.
          6    2    1    2  501    0 -0.17813186894E+02 -0.37324434069E+02 -0.35553814212E+03  0.39687172602E+03  0.17143329143E+03 0.  0.
         24    2    5    5    0    0 -0.10589569996E+02  0.20436345853E+02 -0.31532159159E+03  0.32596369210E+03  0.79340022816E+02 0.  0.
          5    1    5    5  501    0 -0.72236168975E+01 -0.57760779922E+02 -0.40216550528E+02  0.70908033922E+02  0.47000000000E+01 0. -1.
        -13    1    6    6    0    0 -0.25851344214E+02  0.28139505698E+02 -0.67595452290E+02  0.77648367329E+02  0.00000000000E+00 0.  1.
         14    1    6    6    0    0  0.15261774218E+02 -0.77031598449E+01 -0.24772613930E+03  0.24831532477E+03  0.00000000000E+00 0. -1.
         -5    1    3    3    0  503 -0.36367928305E+02 -0.24385746076E+02 -0.15050694132E+03  0.15681747418E+03  0.47000000000E+01 0.  1.
         13    1    4    4    0    0  0.52036476883E+02  0.15555045563E+02 -0.21470466513E+02  0.58401500847E+02  0.00000000000E+00 0. -1.
        -14    1    4    4    0    0  0.21446383154E+01  0.46155134583E+02 -0.88439101929E+02  0.99781614899E+02  0.00000000000E+00 0.  1.
</event>
<event>
12    1  0.8258923E-002  0.1779181E+03  0.7818608E-02  0.1169949E+00
         21   -1    0    0  503  502  0.00000000000E+00  0.00000000000E+00  0.16494471511E+04  0.16494471511E+04  0.00000000000E+00 0.  1.
         21   -1    0    0  501  503 -0.00000000000E+00 -0.00000000000E+00 -0.37897130293E+02  0.37897130293E+02  0.00000000000E+00 0.  1.
          6    2    1    2  501    0 -0.45628142622E+02 -0.10694470954E+02  0.21277712954E+03  0.27736072234E+03  0.17163497410E+03 0.  0.
         24    2    3    3    0    0 -0.86458761240E+02  0.13423194105E+02  0.10453821123E+03  0.15909595742E+03  0.82024304485E+02 0.  0.
         -6    2    1    2    0  502  0.45628142622E+02  0.10694470954E+02  0.13987728913E+04  0.14099835591E+04  0.17114828758E+03 0.  0.
        -24    2    5    5    0    0 -0.36265140549E+01  0.21269199706E+02  0.44904954565E+03  0.45891344108E+03  0.92144025807E+02 0.  0.
          5    1    3    3  501    0  0.40830618618E+02 -0.24117665059E+02  0.10823891831E+03  0.11826476492E+03  0.47000000000E+01 0. -1.
        -11    1    4    4    0    0 -0.26284707663E+02  0.39978568432E+02  0.19686483706E+02  0.51737118508E+02  0.00000000000E+00 0.  1.
         12    1    4    4    0    0 -0.60174053577E+02 -0.26555374327E+02  0.84851727525E+02  0.10735883892E+03  0.00000000000E+00 0. -1.
         -5    1    5    5    0  502  0.49254656677E+02 -0.10574728752E+02  0.94972334565E+03  0.95107011801E+03  0.47000000000E+01 0.  1.
         11    1    6    6    0    0  0.41483222369E+01  0.48776245602E+02  0.39259041550E+03  0.39563059166E+03  0.00000000000E+00 0. -1.
        -12    1    6    6    0    0 -0.77748362918E+01 -0.27507045896E+02  0.56459130147E+02  0.63282849417E+02  0.00000000000E+00 0.  1.
</event>
<event>
12    1  0.8258923E-002  0.1843926E+03  0.7818608E-02  0.1163841E+00
         21   -1    0    0  503  502  0.00000000000E+00  0.00000000000E+00  0.70930342113E+03  0.70930342113E+03  0.00000000000E+00 0. -1.
         21   -1    0    0  501  503 -0.00000000000E+00 -0.00000000000E+00 -0.60358328519E+02  0.60358328519E+02  0.00000000000E+00 0.  1.
          6    2    1    2  501    0  0.65841163439E+02  0.19013151629E+00  0.14750964858E+03  0.23539763613E+03  0.17122457686E+03 0.  0.
         24    2    3    3    0    0  0.10497576762E+03 -0.28219471107E+02  0.11717895537E+03  0.17812055768E+03  0.78611545893E+02 0.  0.
         -6    2    1    2    0  502 -0.65841163439E+02 -0.19013151629E+00  0.50143544403E+03  0.53426411352E+03  0.17223688195E+03 0.  0.
        -24    2    5    5    0    0  0.31857832342E+02 -0.28193746352E+01  0.23160908213E+03  0.24724431929E+03  0.80399727263E+02 0.  0.
          5    1    3    3  501    0 -0.39134604185E+02  0.28409602623E+02  0.30330693205E+02  0.57277078454E+02  0.47000000000E+01 0. -1.
        -13    1    4    4    0    0  0.29577537633E+02  0.20614338938E+02  0.83518617743E+01  0.37007233041E+02  0.00000000000E+00 0.  1.
         14    1    4    4    0    0  0.75398229991E+02 -0.48833810045E+02  0.10882709360E+03  0.14111332464E+03  0.00000000000E+00 0. -1.
         -5    1    5    5    0  502 -0.97698995781E+02  0.26292431189E+01  0.26982636191E+03  0.28701979422E+03  0.47000000000E+01 0.  1.
         11    1    6    6    0    0  0.26270384296E+02  0.13646887193E+02  0.22744603373E+03  0.22936448914E+03  0.00000000000E+00 0. -1.
        -12    1    6    6    0    0  0.55874480463E+01 -0.16466261829E+02  0.41630484012E+01  0.17879830152E+02  0.00000000000E+00 0.  1.
</event>
<event>
12    1  0.8258923E-002  0.3454579E+03  0.7818608E-02  0.1064510E+00
         21   -1    0    0  503  502  0.00000000000E+00  0.00000000000E+00  0.13531450301E+03  0.13531450301E+03  0.00000000000E+00 0.  1.
         21   -1    0    0  501  503 -0.00000000000E+00 -0.00000000000E+00 -0.88271835111E+03  0.88271835111E+03  0.00000000000E+00 0.  1.
          6    2    1    2  501    0  0.23990925095E+03 -0.17971464747E+03 -0.35533147669E+03  0.49547961284E+03  0.17142282580E+03 0.  0.
         24    2    3    3    0    0  0.12937240660E+03 -0.14395392780E+03 -0.14061998642E+03  0.25130685211E+03  0.76949336688E+02 0.  0.
         -6    2    1    2    0  502 -0.23990925095E+03  0.17971464747E+03 -0.39207237141E+03  0.52255324128E+03  0.17171878855E+03 0.  0.
        -24    2    5    5    0    0 -0.25100595965E+03  0.13229454029E+03 -0.31456987382E+03  0.43089883254E+03  0.78827414010E+02 0.  0.
          5    1    3    3  501    0  0.11053684435E+03 -0.35760719675E+02 -0.21471149027E+03  0.24417276073E+03  0.47000000000E+01 0. -1.
        -11    1    4    4    0    0  0.12713811890E+02 -0.67703900054E+02 -0.44629261650E+02  0.82080631642E+02  0.00000000000E+00 0.  1.
         12    1    4    4    0    0  0.11665859471E+03 -0.76250027746E+02 -0.95990724766E+02  0.16922622046E+03  0.00000000000E+00 0. -1.
         -5    1    5    5    0  502  0.11096708697E+02  0.47420107183E+02 -0.77502497589E+02  0.91654408741E+02  0.47000000000E+01 0.  1.
         11    1    6    6    0    0 -0.23977016957E+03  0.14277511730E+03 -0.29621432702E+03  0.40696117243E+03  0.00000000000E+00 0. -1.
        -12    1    6    6    0    0 -0.11235790080E+02 -0.10480577008E+02 -0.18355546806E+02  0.23937660113E+02  0.00000000000E+00 0.  1.
</event>
<event>
12    1  0.8258923E-002  0.1858397E+03  0.7818608E-02  0.1164717E+00
         21   -1    0    0  501  502  0.00000000000E+00  0.00000000000E+00  0.92511542830E+02  0.92511542830E+02  0.00000000000E+00 0. -1.
         21   -1    0    0  502  503 -0.00000000000E+00 -0.00000000000E+00 -0.54343390981E+03  0.54343390981E+03  0.00000000000E+00 0. -1.
         -6    2    1    2    0  503 -0.45618324534E+02  0.93275942964E+00 -0.40947453153E+03  0.44553980703E+03  0.16957130094E+03 0.  0.
        -24    2    3    3    0    0  0.29230910260E+01  0.38661407230E+02 -0.12006153629E+03  0.14963155824E+03  0.80446142564E+02 0.  0.
          6    2    1    2  501    0  0.45618324534E+02 -0.93275942964E+00 -0.41447835452E+02  0.19040564562E+03  0.18015128433E+03 0.  0.
         24    2    5    5    0    0 -0.10288090342E+02 -0.62744233286E+02 -0.29419163279E+02  0.10606725294E+03  0.79637248602E+02 0.  0.
          5    1    5    5  501    0  0.55906414876E+02  0.61811473857E+02 -0.12028672173E+02  0.84338392674E+02  0.47000000000E+01 0. -1.
        -11    1    6    6    0    0 -0.22906625280E+02 -0.24416781008E+02  0.22480426723E+02  0.40326942138E+02  0.00000000000E+00 0.  1.
         12    1    6    6    0    0  0.12618534938E+02 -0.38327452279E+02 -0.51899590002E+02  0.65740310804E+02  0.00000000000E+00 0. -1.
         -5    1    3    3    0  503 -0.48541415560E+02 -0.37728647800E+02 -0.28941299524E+03  0.29590824879E+03  0.47000000000E+01 0.  1.
         13    1    4    4    0    0 -0.13729263846E+02  0.24555952749E+02 -0.12426247014E+03  0.12740741339E+03  0.00000000000E+00 0. -1.
        -14    1    4    4    0    0  0.16652354872E+02  0.14105454481E+02  0.42009338507E+01  0.22224144846E+02  0.00000000000E+00 0.  1.
</event>
<event>
12    1  0.8258923E-002  0.3119415E+03  0.7818608E-02  0.1079700E+00
         21   -1    0    0  501  502  0.00000000000E+00  0.00000000000E+00  0.40034183417E+03  0.40034183417E+03  0.00000000000E+00 0. -1.
         21   -1    0    0  502  503 -0.00000000000E+00 -0.00000000000E+00 -0.35564042528E+03  0.35564042528E+03  0.00000000000E+00 0.  1.
         -6    2    1    2    0  503  0.22894474957E+03  0.11662990479E+03 -0.19210070449E+03  0.36434121026E+03  0.17269511800E+03 0.  0.
        -24    2    3    3    0    0  0.14119176856E+03  0.43665396391E+02 -0.18485607715E+03  0.24989043574E+03  0.80197744778E+02 0.  0.
          6    2    1    2  501    0 -0.22894474957E+03 -0.11662990479E+03  0.23680211339E+03  0.39164104919E+03  0.17688764077E+03 0.  0.
         24    2    5    5    0    0 -0.20208000260E+03 -0.10108313066E+03  0.25940640201E+03  0.35295693514E+03  0.78948020265E+02 0.  0.
          5    1    5    5  501    0 -0.26864746969E+02 -0.15546774134E+02 -0.22604288622E+02  0.38684114049E+02  0.47000000000E+01 0. -1.
        -11    1    6    6    0    0 -0.22793565315E+00  0.46176648312E+01 -0.29382538179E+01  0.54779666532E+01  0.00000000000E+00 0.  1.
         12    1    6    6    0    0 -0.20185206695E+03 -0.10570079549E+03  0.26234465583E+03  0.34747896848E+03  0.00000000000E+00 0. -1.
         -5    1    3    3    0  503  0.87752981011E+02  0.72964508400E+02 -0.72446273470E+01  0.11445077452E+03  0.47000000000E+01 0.  1.
         13    1    4    4    0    0  0.31840498572E+02 -0.41140872081E+01 -0.28234496296E+01  0.32229100681E+02  0.00000000000E+00 0. -1.
        -14    1    4    4    0    0  0.10935126999E+03  0.47779483599E+02 -0.18203262752E+03  0.21766133506E+03  0.00000000000E+00 0.  1.
</event>
<event>
12    1  0.8258923E-002  0.1824615E+03  0.7818608E-02  0.1165731E+00
         21   -1    0    0  501  502  0.00000000000E+00  0.00000000000E+00  0.16439198549E+03  0.16439198549E+03  0.00000000000E+00 0. -1.
         21   -1    0    0  502  503 -0.00000000000E+00 -0.00000000000E+00 -0.24715699538E+03  0.24715699538E+03  0.00000000000E+00 0.  1.
         -6    2    1    2    0  503 -0.34555759343E+02  0.41095348342E+02 -0.13002842655E+03  0.22306547834E+03  0.17311235587E+03 0.  0.
        -24    2    3    3    0    0  0.35761415942E+02  0.43105173799E+01 -0.23993884002E+02  0.90539846317E+02  0.79525454235E+02 0.  0.
          6    2    1    2  501    0  0.34555759343E+02 -0.41095348342E+02  0.47263416663E+02  0.18848350253E+03  0.17438254504E+03 0.  0.
         24    2    5    5    0    0  0.71907483182E+02 -0.21439782878E+02 -0.16926325190E+02  0.11151659090E+03  0.80740938399E+02 0.  0.
          5    1    5    5  501    0 -0.37351723839E+02 -0.19655565463E+02  0.64189741853E+02  0.76966911634E+02  0.47000000000E+01 0. -1.
        -13    1    6    6    0    0 -0.67089687236E+01  0.16255042395E+02 -0.16814403447E+02  0.24330245126E+02  0.00000000000E+00 0.  1.
         14    1    6    6    0    0  0.78616451906E+02 -0.37694825273E+02 -0.11192174236E+00  0.87186345772E+02  0.00000000000E+00 0. -1.
         -5    1    3    3    0  503 -0.70317175285E+02  0.36784830962E+02 -0.10603454255E+03  0.13252563202E+03  0.47000000000E+01 0.  1.
         13    1    4    4    0    0 -0.21447697307E+01 -0.20553558533E+02  0.18991970581E+02  0.28066773098E+02  0.00000000000E+00 0. -1.
        -14    1    4    4    0    0  0.37906185673E+02  0.24864075913E+02 -0.42985854583E+02  0.62473073220E+02  0.00000000000E+00 0.  1.
</event>
<event>
12    1  0.8258923E-002  0.2439799E+03  0.7818608E-02  0.1117506E+00
         21   -1    0    0  503  502  0.00000000000E+00  0.00000000000E+00  0.23128478667E+04  0.23128478667E+04  0.00000000000E+00 0.  1.
         21   -1    0    0  501  503 -0.00000000000E+00 -0.00000000000E+00 -0.36280492906E+02  0.36280492906E+02  0.00000000000E+00 0.  1.
          6    2    1    2  501    0 -0.59350193641E+02  0.15998467730E+03  0.50202827958E+03  0.55817433841E+03  0.17438077906E+03 0.  0.
         24    2    3    3    0    0  0.30001811687E+02  0.84597134707E+02  0.18744547729E+03  0.22253838692E+03  0.79565965041E+02 0.  0.
         -6    2    1    2    0  502  0.59350193641E+02 -0.15998467730E+03  0.17745390942E+04  0.17909540212E+04  0.17149275987E+03 0.  0.
        -24    2    5    5    0    0  0.88965126978E+02 -0.68398663120E+02  0.81335912890E+03  0.82495502638E+03  0.80028445225E+02 0.  0.
          5    1    3    3  501    0 -0.89352005328E+02  0.75387542592E+02  0.31458280229E+03  0.33563595149E+03  0.47000000000E+01 0. -1.
        -11    1    4    4    0    0  0.23020030978E+02  0.80284367640E+02  0.82919940526E+02  0.11769119785E+03  0.00000000000E+00 0.  1.
         12    1    4    4    0    0  0.69817807093E+01  0.43127670664E+01  0.10452553676E+03  0.10484718908E+03  0.00000000000E+00 0. -1.
         -5    1    5    5    0  502 -0.29614933337E+02 -0.91586014178E+02  0.96117996528E+03  0.96599899478E+03  0.47000000000E+01 0.  1.
         13    1    6    6    0    0  0.16279913710E+02  0.70247377428E+01  0.31809820517E+02  0.36417677192E+02  0.00000000000E+00 0. -1.
        -14    1    6    6    0    0  0.72685213269E+02 -0.75423400863E+02  0.78154930838E+03  0.78853734919E+03  0.00000000000E+00 0.  1.
</event>
<event>
12    1  0.8258923E-002  0.2739118E+03  0.7818608E-02  0.1099668E+00
         21   -1    0    0  503  502  0.00000000000E+00  0.00000000000E+00  0.29354622002E+02  0.29354622002E+02  0.00000000000E+00 0.  1.
         21   -1    0    0  501  503 -0.00000000000E+00 -0.00000000000E+00 -0.25162133664E+04  0.25162133664E+04  0.00000000000E+00 0.  1.
          6    2    1    2  501    0 -0.18850899127E+03  0.97124907919E+02 -0.12442032484E+04  0.12739974183E+04  0.17337477031E+03 0.  0.
         24    2    3    3    0    0 -0.79108490703E+02  0.81658667472E+02 -0.94146364482E+03  0.95169161368E+03  0.80229930536E+02 0.  0.
         -6    2    1    2    0  502  0.18850899127E+03 -0.97124907919E+02 -0.12426554960E+04  0.12715705701E+04  0.16652370848E+03 0.  0.
        -24    2    5    5    0    0  0.58615009132E+02 -0.21494897140E+01 -0.30675607054E+03  0.32192716270E+03  0.78086309081E+02 0.  0.
          5    1    3    3  501    0 -0.10940050057E+03  0.15466240446E+02 -0.30273960360E+03  0.32230580464E+03  0.47000000000E+01 0. -1.
        -11    1    4    4    0    0 -0.62287238491E+01  0.47718082850E+02 -0.54736160532E+03  0.54947296513E+03  0.00000000000E+00 0.  1.
         12    1    4    4    0    0 -0.72879766854E+02  0.33940584622E+02 -0.39410203950E+03  0.40221864855E+03  0.00000000000E+00 0. -1.
         -5    1    5    5    0  502  0.12989398214E+03 -0.94975418205E+02 -0.93589942544E+03  0.94964340739E+03  0.47000000000E+01 0.  1.
         13    1    6    6    0    0  0.64319485193E+02  0.76300075031E+01 -0.30322815951E+03  0.31006858904E+03  0.00000000000E+00 0. -1.
        -14    1    6    6    0    0 -0.57044760610E+01 -0.97794972172E+01 -0.35279110354E+01  0.11858573659E+02  0.00000000000E+00 0.  1.
</event>
<event>
12    1  0.8258923E-002  0.1752928E+03  0.7818608E-02  0.1172842E+00
         21   -1    0    0  501  502  0.00000000000E+00  0.00000000000E+00  0.53963722628E+03  0.53963722628E+03  0.00000000000E+00 0. -1.
         21   -1    0    0  502  503 -0.00000000000E+00 -0.00000000000E+00 -0.67209389137E+02  0.67209389137E+02  0.00000000000E+00 0. -1.
         -6    2    1    2    0  503 -0.25434376813E+02  0.53271988495E+01  0.11373637504E+03  0.20761344766E+03  0.17173262378E+03 0.  0.
        -24    2    3    3    0    0 -0.72451006237E+01 -0.77385429083E+01 -0.10895920986E+02  0.80897771484E+02  0.79456603297E+02 0.  0.
          6    2    1    2  501    0  0.25434376813E+02 -0.53271988495E+01  0.35869146210E+03  0.39923316776E+03  0.17335590754E+03 0.  0.
         24    2    5    5    0    0 -0.52878576057E+02 -0.88530401445E+01  0.21069330805E+03  0.23168946078E+03  0.80086303786E+02 0.  0.
          5    1    5    5  501    0  0.78312952870E+02  0.35258412950E+01  0.14799815405E+03  0.16754370697E+03  0.47000000000E+01 0. -1.
        -13    1    6    6    0    0 -0.11123638423E+02  0.18027114245E+02  0.74301559393E+01  0.22448149078E+02  0.00000000000E+00 0.  1.
         14    1    6    6    0    0 -0.41754937634E+02 -0.26880154389E+02  0.20326315212E+03  0.20924131171E+03  0.00000000000E+00 0. -1.
         -5    1    3    3    0  503 -0.18189276190E+02  0.13065741758E+02  0.12463229603E+03  0.12671567618E+03  0.47000000000E+01 0.  1.
         13    1    4    4    0    0  0.33308344026E+02 -0.42511512542E+01  0.10145329294E+02  0.35077710519E+02  0.00000000000E+00 0. -1.
        -14    1    4    4    0    0 -0.40553444650E+02 -0.34873916540E+01 -0.21041250280E+02  0.45820060965E+02  0.00000000000E+00 0.  1.
</event>
<event>
12    1  0.8258923E-002  0.2234439E+03  0.7818608E-02  0.1131513E+00
         21   -1    0    0  503  502  0.00000000000E+00  0.00000000000E+00  0.45955195213E+03  0.45955195213E+03  0.00000000000E+00 0. -1.
         21   -1    0    0  501  503 -0.00000000000E+00 -0.00000000000E+00 -0.19696538358E+03  0.19696538358E+03  0.00000000000E+00 0. -1.
          6    2    1    2  501    0  0.13527274694E+03  0.44975836201E+02 -0.89239202019E+02  0.23973378585E+03  0.17084235715E+03 0.  0.
         24    2    3    3    0    0  0.58352990697E+02  0.89619019944E+02 -0.50184458360E+02  0.14248654550E+03  0.79669916075E+02 0.  0.
         -6    2    1    2    0  502 -0.13527274694E+03 -0.44975836201E+02  0.35182577057E+03  0.41678354985E+03  0.17206281608E+03 0.  0.
        -24    2    5    5    0    0 -0.14767810453E+03 -0.28887276282E+01  0.32189235519E+03  0.36346078771E+03  0.81681629339E+02 0.  0.
          5    1    3    3  501    0  0.76919756243E+02 -0.44643183743E+02 -0.39054743658E+02  0.97247240359E+02  0.47000000000E+01 0. -1.
        -11    1    4    4    0    0 -0.39609701680E+01 -0.22387568556E+01  0.13686239188E+02  0.14422706405E+02  0.00000000000E+00 0.  1.
         12    1    4    4    0    0  0.62313960865E+02  0.91857776799E+02 -0.63870697549E+02  0.12806383909E+03  0.00000000000E+00 0. -1.
         -5    1    5    5    0  502  0.12405357593E+02 -0.42087108573E+02  0.29933415381E+02  0.53322762132E+02  0.47000000000E+01 0.  1.
         11    1    6    6    0    0 -0.57993476868E+02 -0.31671672766E+02  0.79285153893E+02  0.10321082231E+03  0.00000000000E+00 0. -1.
        -12    1    6    6    0    0 -0.89684627664E+02  0.28782945138E+02  0.24260720129E+03  0.26024996540E+03  0.00000000000E+00 0.  1.
</event>
<event>
12    1  0.8258923E-002  0.3675255E+03  0.7818608E-02  0.1056269E+00
         21   -1    0    0  501  502  0.00000000000E+00  0.00000000000E+00  0.35928668568E+03  0.35928668568E+03  0.00000000000E+00 0.  1.
         21   -1    0    0  502  503 -0.00000000000E+00 -0.00000000000E+00 -0.44796110180E+03  0.44796110180E+03  0.00000000000E+00 0.  1.
         -6    2    1    2    0  503  0.28437990585E+03 -0.14169430815E+03 -0.21367825006E+03  0.42512745699E+03  0.18473156830E+03 0.  0.
        -24    2    3    3    0    0  0.15694329301E+03 -0.10714338060E+03 -0.20808653511E+03  0.29288822619E+03  0.79828602147E+02 0.  0.
          6    2    1    2  501    0 -0.28437990585E+03  0.14169430815E+03  0.12500383393E+03  0.38212033049E+03  0.17158315962E+03 0.  0.
         24    2    5    5    0    0 -0.67747081117E+02  0.48613494395E+02  0.25573682194E+01  0.11639670413E+03  0.81170892343E+02 0.  0.
          5    1    5    5  501    0 -0.21663282473E+03  0.93080813758E+02  0.12244646571E+03  0.26572362636E+03  0.47000000000E+01 0. -1.
        -11    1    6    6    0    0 -0.16225826111E+02  0.40690174690E+02  0.34060649613E+02  0.55489599038E+02  0.00000000000E+00 0.  1.
         12    1    6    6    0    0 -0.51521255006E+02  0.79233197046E+01 -0.31503281394E+02  0.60907105096E+02  0.00000000000E+00 0. -1.
         -5    1    3    3    0  503  0.12743661283E+03 -0.34550927553E+02 -0.55917149435E+01  0.13223923080E+03  0.47000000000E+01 0.  1.
         11    1    4    4    0    0  0.92468148973E+01  0.55345085810E+00  0.62628245964E+01  0.11181809582E+02  0.00000000000E+00 0. -1.
        -12    1    4    4    0    0  0.14769647812E+03 -0.10769683146E+03 -0.21434935971E+03  0.28170641661E+03  0.00000000000E+00 0.  1.
</event>
<event>
12    1  0.8258923E-002  0.1816825E+03  0.7818608E-02  0.1166463E+00
         21   -1    0    0  501  502  0.00000000000E+00  0.00000000000E+00  0.27893981105E+03  0.27893981105E+03  0.00000000000E+00 0.  1.
         21   -1    0    0  502  503 -0.00000000000E+00 -0.00000000000E+00 -0.12934167162E+03  0.12934167162E+03  0.00000000000E+00 0.  1.
         -6    2    1    2    0  503  0.23845605681E+01 -0.56892622230E+02  0.13462068772E+02  0.18218057282E+03  0.17252848235E+03 0.  0.
        -24    2    3    3    0    0 -0.55586359559E+02 -0.62587585298E+02  0.29525402948E+02  0.12157380018E+03  0.83074606638E+02 0.  0.
          6    2    1    2  501    0 -0.23845605681E+01  0.56892622230E+02  0.13613607066E+03  0.22610090985E+03  0.17130713677E+03 0.  0.
         24    2    5    5    0    0 -0.62143183885E+02  0.34794095776E+02  0.12234937784E+03  0.16074342496E+03  0.76135891717E+02 0.  0.
          5    1    5    5  501    0  0.59758623317E+02  0.22098526454E+02  0.13786692825E+02  0.65357484891E+02  0.47000000000E+01 0. -1.
        -11    1    6    6    0    0 -0.22056752467E+02 -0.10305604590E+02  0.88012769973E+02  0.91317870616E+02  0.00000000000E+00 0.  1.
         12    1    6    6    0    0 -0.40086431418E+02  0.45099700366E+02  0.34336607864E+02  0.69425554348E+02  0.00000000000E+00 0. -1.
         -5    1    3    3    0  503  0.57970920127E+02  0.56949630681E+01 -0.16063334176E+02  0.60606772638E+02  0.47000000000E+01 0.  1.
         11    1    4    4    0    0 -0.25112064067E+02 -0.12100636819E+02  0.51566031343E+02  0.58618228919E+02  0.00000000000E+00 0. -1.
        -12    1    4    4    0    0 -0.30474295492E+02 -0.50486948479E+02 -0.22040628395E+02  0.62955571259E+02  0.00000000000E+00 0.  1.
</event>
<event>
12    1  0.8258923E-002  0.2640419E+03  0.7818608E-02  0.1105148E+00
         21   -1    0    0  503  502  0.00000000000E+00  0.00000000000E+00  0.61210529837E+03  0.61210529837E+03  0.00000000000E+00 0. -1.
         21   -1    0    0  501  503 -0.00000000000E+00 -0.00000000000E+00 -0.11287875269E+03  0.11287875269E+03  0.00000000000E+00 0. -1.
          6    2    1    2  501    0 -0.12894240047E+03 -0.15331882343E+03  0.23687642687E+03  0.35472319779E+03  0.17200378249E+03 0.  0.
         24    2    3    3    0    0 -0.10076599660E+03 -0.18211911153E+03  0.18969979441E+03  0.29250510573E+03  0.79070019749E+02 0.  0.
         -6    2    1    2    0  502  0.12894240047E+03  0.15331882343E+03  0.26235011881E+03  0.37026085327E+03  0.16772808462E+03 0.  0.
        -24    2    5    5    0    0  0.14698363829E+03  0.12930727007E+03  0.26576117309E+03  0.33967055663E+03  0.80140663243E+02 0.  0.
          5    1    3    3  501    0 -0.28176403867E+02  0.28800288104E+02  0.47176632466E+02  0.62218092068E+02  0.47000000000E+01 0. -1.
        -11    1    4    4    0    0  0.10869453633E+02 -0.83992731857E+01  0.28692537201E+01  0.14033012123E+02  0.00000000000E+00 0.  1.
         12    1    4    4    0    0 -0.11163545023E+03 -0.17371983834E+03  0.18683054069E+03  0.27847209360E+03  0.00000000000E+00 0. -1.
         -5    1    5    5    0  502 -0.18041237826E+02  0.24011553359E+02 -0.34110542780E+01  0.30590296636E+02  0.47000000000E+01 0.  1.
         11    1    6    6    0    0  0.68415082226E+02  0.10710587259E+03  0.13416081086E+03  0.18480101350E+03  0.00000000000E+00 0. -1.
        -12    1    6    6    0    0  0.78568556067E+02  0.22201397476E+02  0.13160036223E+03  0.15486954314E+03  0.00000000000E+00 0.  1.
</event>
<event>
12    1  0.8258923E-002  0.2105922E+03  0.7818608E-02  0.1142908E+00
         21   -1    0    0  503  502  0.00000000000E+00  0.00000000000E+00  0.20709740451E+03  0.20709740451E+03  0.00000000000E+00 0.  1.
         21   -1    0    0  501  503 -0.00000000000E+00 -0.00000000000E+00 -0.20998321404E+03  0.20998321404E+03  0.00000000000E+00 0.  1.
          6    2    1    2  501    0 -0.98047956750E+02 -0.72144915866E+02 -0.33119686377E+02  0.20432921751E+03  0.16073339664E+03 0.  0.
         24    2    3    3    0    0 -0.98626593718E+02 -0.38465919724E+02  0.26917933875E+02  0.13532765632E+03  0.79888468701E+02 0.  0.
         -6    2    1    2    0  502  0.98047956750E+02  0.72144915866E+02  0.30233876844E+02  0.21275140104E+03  0.17184522288E+03 0.  0.
        -24    2    5    5    0    0  0.92541227878E+02 -0.11327701126E+02  0.40949766616E+02  0.12828293270E+03  0.78021995397E+02 0.  0.
          5    1    3    3  501    0  0.57863696784E+00 -0.33678996143E+02 -0.60037620252E+02  0.69001561196E+02  0.47000000000E+01 0. -1.
        -13    1    4    4    0    0 -0.33069323855E+01  0.20117259927E+02  0.77708410644E+01  0.21818018234E+02  0.00000000000E+00 0.  1.
         14    1    4    4    0    0 -0.95319661333E+02 -0.58583179651E+02  0.19147092811E+02  0.11350963808E+03  0.00000000000E+00 0. -1.
         -5    1    5    5    0  502  0.55067288719E+01  0.83472616992E+02 -0.10715889772E+02  0.84468468342E+02  0.47000000000E+01 0.  1.
         13    1    6    6    0    0 -0.13075098882E+02 -0.88212530654E+01  0.31919315623E+01  0.16092269682E+02  0.00000000000E+00 0. -1.
        -14    1    6    6    0    0  0.10561632676E+03 -0.25064480607E+01  0.37757835054E+02  0.11219066302E+03  0.00000000000E+00 0.  1.
</event>
<event>
12    1  0.8258923E-002  0.1842915E+03  0.7818608E-02  0.1164037E+00
         21   -1    0    0  501  502  0.00000000000E+00  0.00000000000E+00  0.61876380940E+03  0.61876380940E+03  0.00000000000E+00 0.  1.
         21   -1    0    0  502  503 -0.00000000000E+00 -0.00000000000E+00 -0.56903418140E+02  0.56903418140E+02  0.00000000000E+00 0.  1.
         -6    2    1    2    0  503 -0.38980135343E+02  0.47654242254E+02  0.35164312502E+03  0.39700912602E+03  0.17370371618E+03 0.  0.
        -24    2    3    3    0    0 -0.22852353151E+02  0.73759773114E+02  0.34834365433E+03  0.36579085241E+03  0.80603424397E+02 0.  0.
          6    2    1    2  501    0  0.38980135343E+02 -0.47654242254E+02  0.21021726625E+03  0.27865810152E+03  0.17224593104E+03 0.  0.
         24    2    5    5    0    0  0.54298831069E+02 -0.58422430693E+02  0.22513894584E+03  0.25425804327E+03  0.87166875411E+02 0.  0.
          5    1    5    5  501    0 -0.15318695726E+02  0.10768188439E+02 -0.14921679594E+02  0.24400058256E+02  0.47000000000E+01 0. -1.
        -13    1    6    6    0    0  0.38433936547E+02 -0.13815596042E+01  0.25796598077E+02  0.46309185458E+02  0.00000000000E+00 0.  1.
         14    1    6    6    0    0  0.15864894522E+02 -0.57040871089E+02  0.19934234776E+03  0.20794885781E+03  0.00000000000E+00 0. -1.
         -5    1    3    3    0  503 -0.16127782192E+02 -0.26105530860E+02  0.32994706870E+01  0.31218273603E+02  0.47000000000E+01 0.  1.
         13    1    4    4    0    0  0.28902951319E+01  0.65375997386E+02  0.12768610286E+03  0.14347862455E+03  0.00000000000E+00 0. -1.
        -14    1    4    4    0    0 -0.25742648283E+02  0.83837757282E+01  0.22065755147E+03  0.22231222786E+03  0.00000000000E+00 0.  1.
</event>
<event>
12    1  0.8258923E-002  0.1814837E+03  0.7818608E-02  0.1166638E+00
         21   -1    0    0  501  502  0.00000000000E+00  0.00000000000E+00  0.96953667857E+02  0.96953667857E+02  0.00000000000E+00 0.  1.
         21   -1    0    0  502  503 -0.00000000000E+00 -0.00000000000E+00 -0.34897440575E+03  0.34897440575E+03  0.00000000000E+00 0.  1.
         -6    2    1    2    0  503  0.54341884309E+02  0.17915173329E+02 -0.85506563416E+02  0.19962886670E+03  0.17107401383E+03 0.  0.
        -24    2    3    3    0    0  0.59430716104E+02  0.74515613212E+02 -0.60530232040E+02  0.13737605044E+03  0.78253968682E+02 0.  0.
          6    2    1    2  501    0 -0.54341884309E+02 -0.17915173329E+02 -0.16651417448E+03  0.24629920691E+03  0.17222756804E+03 0.  0.
         24    2    5    5    0    0  0.44291476520E+01  0.26047557209E+02 -0.26432285197E+02  0.88084853641E+02  0.79763294532E+02 0.  0.
          5    1    5    5  501    0 -0.58771031961E+02 -0.43962730538E+02 -0.14008188928E+03  0.15821435327E+03  0.47000000000E+01 0. -1.
        -11    1    6    6    0    0  0.27585937217E+02 -0.16644658504E+02  0.11350823469E+01  0.32238439801E+02  0.00000000000E+00 0.  1.
         12    1    6    6    0    0 -0.23156789565E+02  0.42692215714E+02 -0.27567367544E+02  0.55846413840E+02  0.00000000000E+00 0. -1.
         -5    1    3    3    0  503 -0.50888317951E+01 -0.56600439883E+02 -0.24976331376E+02  0.62252816266E+02  0.47000000000E+01 0.  1.
         13    1    4    4    0    0 -0.10667842250E+02  0.68507724964E+01  0.10777689019E+02  0.16640147916E+02  0.00000000000E+00 0. -1.
        -14    1    4    4    0    0  0.70098558354E+02  0.67664840716E+02 -0.71307921059E+02  0.12073590252E+03  0.00000000000E+00 0.  1.
</event>
<event>
12    1  0.8258923E-002  0.2871315E+03  0.7818608E-02  0.1091907E+00
         21   -1    0    0  503  502  0.00000000000E+00  0.00000000000E+00  0.44164968317E+02  0.44164968317E+02  0.00000000000E+00 0.  1.
         21   -1    0    0  501  503 -0.00000000000E+00 -0.00000000000E+00 -0.19209528145E+04  0.19209528145E+04  0.00000000000E+00 0. -1.
          6    2    1    2  501    0  0.13118980691E+03 -0.18890115663E+03 -0.77022320423E+03  0.82200259180E+03  0.17190132105E+03 0.  0.
         24    2    3    3    0    0  0.15515722813E+03 -0.11561655298E+03 -0.57235045236E+03  0.60958605208E+03  0.81050365919E+02 0.  0.
         -6    2    1    2    0  502 -0.13118980691E+03  0.18890115663E+03 -0.11065646419E+04  0.11431151910E+04  0.17126768727E+03 0.  0.
        -24    2    5    5    0    0 -0.13500123986E+03  0.13820447790E+03 -0.10311278225E+04  0.10520246647E+04  0.78774972598E+02 0.  0.
          5    1    3    3  501    0 -0.23967421219E+02 -0.73284603648E+02 -0.19787275187E+03  0.21241653972E+03  0.47000000000E+01 0. -1.
        -11    1    4    4    0    0  0.17013500658E+02  0.11934336493E+02 -0.76869019591E+02  0.79628724497E+02  0.00000000000E+00 0.  1.
         12    1    4    4    0    0  0.13814372747E+03 -0.12755088947E+03 -0.49548143277E+03  0.52995732759E+03  0.00000000000E+00 0. -1.
         -5    1    5    5    0  502  0.38114329549E+01  0.50696678729E+02 -0.75436819374E+02  0.91090526251E+02  0.47000000000E+01 0.  1.
         11    1    6    6    0    0 -0.67499602169E+02  0.16980039029E+02 -0.31886252371E+03  0.32637068963E+03  0.00000000000E+00 0. -1.
        -12    1    6    6    0    0 -0.67501637692E+02  0.12122443887E+03 -0.71226529882E+03  0.72565397509E+03  0.00000000000E+00 0.  1.
</event>
<event>
12    1  0.8258923E-002  0.2360556E+03  0.7818608E-02  0.1123042E+00
         21   -1    0    0  501  502  0.00000000000E+00  0.00000000000E+00  0.21619710114E+03  0.21619710114E+03  0.00000000000E+00 0. -1.
         21   -1    0    0  502  503 -0.00000000000E+00 -0.00000000000E+00 -0.27330912089E+03  0.27330912089E+03  0.00000000000E+00 0. -1.
         -6    2    1    2    0  503 -0.13137334368E+03 -0.85835822495E+02  0.36739466216E+02  0.23547801132E+03  0.17167807543E+03 0.  0.
        -24    2    3    3    0    0 -0.12215529941E+03 -0.15533690279E+02 -0.14463965025E+02  0.14789237605E+03  0.80620939609E+02 0.  0.
          6    2    1    2  501    0  0.13137334368E+03  0.85835822495E+02 -0.93851485958E+02  0.25402821071E+03  0.17633912376E+03 0.  0.
         24    2    5    5    0    0  0.13272000504E+03  0.17759244196E+02 -0.41021955142E+02  0.16771897983E+03  0.92286861999E+02 0.  0.
          5    1    5    5  501    0 -0.13466613615E+01  0.68076578299E+02 -0.52829530815E+02  0.86309230885E+02  0.47000000000E+01 0. -1.
        -11    1    6    6    0    0 -0.52228982639E+01  0.23181801746E+02 -0.12125140273E+02  0.26677586568E+02  0.00000000000E+00 0.  1.
         12    1    6    6    0    0  0.13794290331E+03 -0.54225575494E+01 -0.28896814869E+02  0.14104139326E+03  0.00000000000E+00 0. -1.
         -5    1    3    3    0  503 -0.92180442724E+01 -0.70302132216E+02  0.51203431240E+02  0.87585635267E+02  0.47000000000E+01 0.  1.
         11    1    4    4    0    0 -0.68118490310E+02 -0.20701208325E+02  0.30453978243E+02  0.77434575863E+02  0.00000000000E+00 0. -1.
        -12    1    4    4    0    0 -0.54036809097E+02  0.51675180462E+01 -0.44917943268E+02  0.70457800190E+02  0.00000000000E+00 0.  1.
</event>
<event>
12    1  0.8258923E-002  0.2139216E+03  0.7818608E-02  0.1138792E+00
         21   -1    0    0  501  502  0.00000000000E+00  0.00000000000E+00  0.92687438209E+02  0.92687438209E+02  0.00000000000E+00 0.  1.
         21   -1    0    0  502  503 -0.00000000000E+00 -0.00000000000E+00 -0.82408755735E+03  0.82408755735E+03  0.00000000000E+00 0. -1.
         -6    2    1    2    0  503  0.12396017788E+03 -0.15899219505E+02 -0.65668321414E+03  0.69018049594E+03  0.17174796172E+03 0.  0.
        -24    2    3    3    0    0  0.15510929978E+03  0.42433675077E+01 -0.56409242471E+03  0.59032492076E+03  0.78780374512E+02 0.  0.
          6    2    1    2  501    0 -0.12396017788E+03  0.15899219505E+02 -0.74716904998E+02  0.22659449962E+03  0.17361895197E+03 0.  0.
         24    2    5    5    0    0 -0.14751161218E+03 -0.71794916122E+01 -0.29452847756E+02  0.17039644056E+03  0.79726130515E+02 0.  0.
          5    1    5    5  501    0  0.23551434294E+02  0.23078711118E+02 -0.45264057243E+02  0.56198059061E+02  0.47000000000E+01 0. -1.
        -13    1    6    6    0    0 -0.24397208643E+02  0.12265088094E+02  0.22479951732E+02  0.35369540644E+02  0.00000000000E+00 0.  1.
         14    1    6    6    0    0 -0.12311440354E+03 -0.19444579707E+02 -0.51932799487E+02  0.13502689991E+03  0.00000000000E+00 0. -1.
         -5    1    3    3    0  503 -0.31149121898E+02 -0.20142587013E+02 -0.92590789424E+02  0.99855575171E+02  0.47000000000E+01 0.  1.
         11    1    4    4    0    0  0.56039495824E+02 -0.30783164103E+02 -0.14900349222E+03  0.16214212586E+03  0.00000000000E+00 0. -1.
        -12    1    4    4    0    0  0.99069803958E+02  0.35026531611E+02 -0.41508893250E+03  0.42818279491E+03  0.00000000000E+00 0.  1.
</event>
<event>
12    1  0.8258923E-002  0.1867888E+03  0.7818608E-02  0.1161874E+00
         21   -1    0    0  501  502  0.00000000000E+00  0.00000000000E+00  0.63335346299E+02  0.63335346299E+02  0.00000000000E+00 0.  1.
         21   -1    0    0  502  503 -0.00000000000E+00 -0.00000000000E+00 -0.89040959764E+03  0.89040959764E+03  0.00000000000E+00 0.  1.
         -6    2    1    2    0  503 -0.37397419709E+02 -0.58232766501E+02 -0.11499282295E+03  0.21757240020E+03  0.17124478942E+03 0.  0.
        -24    2    3    3    0    0  0.14100080808E+02  0.22698080153E+02 -0.32719572130E+02  0.91109867013E+02  0.80724360297E+02 0.  0.
          6    2    1    2  501    0  0.37397419709E+02  0.58232766501E+02 -0.71208142838E+03  0.73617254373E+03  0.17349475900E+03 0.  0.
         24    2    5    5    0    0 -0.32645150930E+02  0.39763458173E+02 -0.55473051797E+03  0.56288527917E+03  0.80417979661E+02 0.  0.
          5    1    5    5  501    0  0.70042570639E+02  0.18469308328E+02 -0.15735091041E+03  0.17328726456E+03  0.47000000000E+01 0. -1.
        -11    1    6    6    0    0  0.22570201700E+02  0.32798035360E+02 -0.23093942658E+03  0.23434620517E+03  0.00000000000E+00 0.  1.
         12    1    6    6    0    0 -0.55215352630E+02  0.69654228132E+01 -0.32379109140E+03  0.32853907401E+03  0.00000000000E+00 0. -1.
         -5    1    3    3    0  503 -0.51497500517E+02 -0.80930846654E+02 -0.82273250822E+02  0.12646253319E+03  0.47000000000E+01 0.  1.
         11    1    4    4    0    0  0.26295007382E+02 -0.22930736087E+02 -0.25762355449E+02  0.43369863142E+02  0.00000000000E+00 0. -1.
        -12    1    4    4    0    0 -0.12194926574E+02  0.45628816240E+02 -0.69572166807E+01  0.47740003871E+02  0.00000000000E+00 0.  1.
</event>
<event>
12    1  0.8258923E-002  0.2796909E+03  0.7818608E-02  0.1096117E+00
         21   -1    0    0  501  502  0.00000000000E+00  0.00000000000E+00  0.33852408277E+03  0.33852408277E+03  0.00000000000E+00 0.  1.
         21   -1    0    0  502  503 -0.00000000000E+00 -0.00000000000E+00 -0.46323489974E+03  0.46323489974E+03  0.00000000000E+00 0.  1.
         -6    2    1    2    0  503  0.16913917823E+02 -0.21750198032E+03 -0.34699357722E+03  0.44449629381E+03  0.17198610562E+03 0.  0.
        -24    2    3    3    0    0 -0.21385392905E+02 -0.17961123540E+03 -0.17492735394E+03  0.26413160507E+03  0.80301897428E+02 0.  0.
          6    2    1    2  501    0 -0.16913917823E+02  0.21750198032E+03  0.22228276025E+03  0.35726268870E+03  0.17502517297E+03 0.  0.
         24    2    5    5    0    0 -0.36074209198E+02  0.31305945174E+02  0.83670583219E+02  0.12430023273E+03  0.78538974959E+02 0.  0.
          5    1    5    5  501    0  0.19160291375E+02  0.18619603515E+03  0.13861217703E+03  0.23296245597E+03  0.47000000000E+01 0. -1.
        -13    1    6    6    0    0 -0.13444695660E+02  0.49115682542E+02  0.80601390239E+02  0.95339887882E+02  0.00000000000E+00 0.  1.
         14    1    6    6    0    0 -0.22629513538E+02 -0.17809737367E+02  0.30691929801E+01  0.28960344846E+02  0.00000000000E+00 0. -1.
         -5    1    3    3    0  503  0.38299310728E+02 -0.37890744925E+02 -0.17206622327E+03  0.18036468874E+03  0.47000000000E+01 0.  1.
         11    1    4    4    0    0  0.29352247115E+02 -0.85154683079E+02 -0.69574629758E+02  0.11381345952E+03  0.00000000000E+00 0. -1.
        -12    1    4    4    0    0 -0.50737640020E+02 -0.94456552318E+02 -0.10535272419E+03  0.15031814556E+03  0.00000000000E+00 0.  1.
</event>
<event>
12    1  0.8258923E-002  0.1817501E+03  0.7818608E-02  0.1166323E+00
         21   -1    0    0  503  502  0.00000000000E+00  0.00000000000E+00  0.26932499738E+02  0.26932499738E+02  0.00000000000E+00 0. -1.
         21   -1    0    0  501  503 -0.00000000000E+00 -0.00000000000E+00 -0.19293979741E+04  0.19293979741E+04  0.00000000000E+00 0. -1.
          6    2    1    2  501    0  0.56809135062E+02 -0.56228950680E+01 -0.15426170252E+04  0.15531878324E+04  0.17165739581E+03 0.  0.
         24    2    3    3    0    0 -0.22126004189E+02 -0.40907804635E+02 -0.73554878224E+03  0.74148775242E+03  0.81296170897E+02 0.  0.
         -6    2    1    2    0  502 -0.56809135062E+02  0.56228950680E+01 -0.35984844918E+03  0.40314264145E+03  0.17255198694E+03 0.  0.
        -24    2    5    5    0    0 -0.84802990438E+02 -0.17218505038E+02 -0.18604070189E+03  0.22555714509E+03  0.93684891195E+02 0.  0.
          5    1    3    3  501    0  0.78935139251E+02  0.35284909567E+02 -0.80706824292E+03  0.81170007994E+03  0.47000000000E+01 0. -1.
        -11    1    4    4    0    0  0.15243934395E+02  0.18989713935E+01 -0.45411208386E+03  0.45437183929E+03  0.00000000000E+00 0.  1.
         12    1    4    4    0    0 -0.37369938583E+02 -0.42806776029E+02 -0.28143669838E+03  0.28711591314E+03  0.00000000000E+00 0. -1.
         -5    1    5    5    0  502  0.27993855376E+02  0.22841400106E+02 -0.17380774729E+03  0.17758549636E+03  0.47000000000E+01 0.  1.
         11    1    6    6    0    0 -0.10294083555E+02 -0.39899807240E+02 -0.10668616039E+03  0.11436738868E+03  0.00000000000E+00 0. -1.
        -12    1    6    6    0    0 -0.74508906883E+02  0.22681302202E+02 -0.79354541500E+02  0.11118975641E+03  0.00000000000E+00 0.  1.
</event>
<event>
12    1  0.8258923E-002  0.2085439E+03  0.7818608E-02  0.1142888E+00
         21   -1    0    0  503  502  0.00000000000E+00  0.00000000000E+00  0.13164200879E+03  0.13164200879E+03  0.00000000000E+00 0.  1.
         21   -1    0    0  501  503 -0.00000000000E+00 -0.00000000000E+00 -0.35100018256E+03  0.35100018256E+03  0.00000000000E+00 0.  1.
          6    2    1    2  501    0 -0.11514912633E+03 -0.25217809368E+02 -0.16978699377E+03  0.26828763179E+03  0.17104201506E+03 0.  0.
         24    2    3    3    0    0 -0.13893400708E+03 -0.53036528154E+02 -0.15374566255E+03  0.22805063422E+03  0.79081169523E+02 0.  0.
         -6    2    1    2    0  502  0.11514912633E+03  0.25217809368E+02 -0.49571180009E+02  0.21435455956E+03  0.17203289253E+03 0.  0.
        -24    2    5    5    0    0  0.45573111547E+02 -0.58421871069E+01 -0.88763144077E+02  0.12854287468E+03  0.80829049465E+02 0.  0.
          5    1    3    3  501    0  0.23784880741E+02  0.27818718786E+02 -0.16041331220E+02  0.40236997578E+02  0.47000000000E+01 0. -1.
        -13    1    4    4    0    0 -0.11075250294E+03 -0.21022118646E+02 -0.66359469977E+02  0.13081141248E+03  0.00000000000E+00 0.  1.
         14    1    4    4    0    0 -0.28181504137E+02 -0.32014409508E+02 -0.87386192571E+02  0.97239221735E+02  0.00000000000E+00 0. -1.
         -5    1    5    5    0  502  0.69576014787E+02  0.31059996475E+02  0.39191964067E+02  0.85811684881E+02  0.47000000000E+01 0.  1.
         11    1    6    6    0    0  0.34045514318E+02 -0.41729804786E+02 -0.63019160552E+02  0.82896853073E+02  0.00000000000E+00 0. -1.
        -12    1    6    6    0    0  0.11527597229E+02  0.35887617679E+02 -0.25743983525E+02  0.45646021604E+02  0.00000000000E+00 0.  1.
</event>
<event>
12    1  0.8258923E-002  0.2257590E+03  0.7818608E-02  0.1129748E+00
         21   -1    0    0  503  502  0.00000000000E+00  0.00000000000E+00  0.31007947106E+03  0.31007947106E+03  0.00000000000E+00 0.  1.
         21   -1    0    0  501  503 -0.00000000000E+00 -0.00000000000E+00 -0.16441116444E+03  0.16441116444E+03  0.00000000000E+00 0.  1.
          6    2    1    2  501    0 -0.96543703367E+02 -0.11009823644E+03  0.61140076472E+02  0.23342604363E+03  0.17119375154E+03 0.  0.
         24    2    3    3    0    0 -0.69525375568E+02  0.81814173117E+00  0.56279684532E+02  0.11906631998E+03  0.78580776643E+02 0.  0.
         -6    2    1    2    0  502  0.96543703367E+02  0.11009823644E+03  0.84528230154E+02  0.24106459187E+03  0.17182784242E+03 0.  0.
        -24    2    5    5    0    0  0.63813557251E+02 -0.74706633205E+01  0.40860611533E+02  0.11136239616E+03  0.81265077389E+02 0.  0.
          5    1    3    3  501    0 -0.27018327799E+02 -0.11091637817E+03  0.48603919406E+01  0.11435972365E+03  0.47000000000E+01 0. -1.
        -11    1    4    4    0    0 -0.83323395715E+02 -0.11714935131E+02  0.54698246973E+02  0.10035898665E+03  0.00000000000E+00 0.  1.
         12    1    4    4    0    0  0.13798020146E+02  0.12533076862E+02  0.15814375585E+01  0.18707333331E+02  0.00000000000E+00 0. -1.
         -5    1    5    5    0  502  0.32730146116E+02  0.11756889976E+03  0.43667618621E+02  0.12970219571E+03  0.47000000000E+01 0.  1.
         13    1    6    6    0    0 -0.80204389883E+01 -0.23935591178E+02  0.25891189192E+02  0.36160664325E+02  0.00000000000E+00 0. -1.
        -14    1    6    6    0    0  0.71833996240E+02  0.16464927858E+02  0.14969422340E+02  0.75201731831E+02  0.00000000000E+00 0.  1.
</event>
<event>
12    1  0.8258923E-002  0.1795253E+03  0.7818608E-02  0.1168625E+00
         21   -1    0    0  501  502  0.00000000000E+00  0.00000000000E+00  0.10815970599E+03  0.10815970599E+03  0.00000000000E+00 0. -1.
         21   -1    0    0  502  503 -0.00000000000E+00 -0.00000000000E+00 -0.32590125205E+03  0.32590125205E+03  0.00000000000E+00 0. -1.
         -6    2    1    2    0  503  0.29371779892E+02  0.43137941126E+02 -0.17554415661E+03  0.25108777010E+03  0.17177233175E+03 0.  0.
        -24    2    3    3    0    0  0.16460251353E+02  0.91104182900E+02 -0.15768275048E+03  0.19809165941E+03  0.76194118622E+02 0.  0.
          6    2    1    2  501    0 -0.29371779892E+02 -0.43137941126E+02 -0.42197389455E+02  0.18297318794E+03  0.17022039951E+03 0.  0.
         24    2    5    5    0    0  0.86874608300E+01 -0.46962344427E+02  0.32781333541E+02  0.98669980607E+02  0.79876251005E+02 0.  0.
          5    1    5    5  501    0 -0.38059240722E+02  0.38244033006E+01 -0.74978722996E+02  0.84303207335E+02  0.47000000000E+01 0. -1.
        -11    1    6    6    0    0 -0.14975816175E+02  0.44057331279E+01 -0.17175314898E+02  0.23209416114E+02  0.00000000000E+00 0.  1.
         12    1    6    6    0    0  0.23663277005E+02 -0.51368077554E+02  0.49956648440E+02  0.75460564493E+02  0.00000000000E+00 0. -1.
         -5    1    3    3    0  503  0.12911528539E+02 -0.47966241774E+02 -0.17861406127E+02  0.52996110687E+02  0.47000000000E+01 0.  1.
         11    1    4    4    0    0 -0.27113219333E+02  0.38281139306E+02 -0.91682652235E+02  0.10298680017E+03  0.00000000000E+00 0. -1.
        -12    1    4    4    0    0  0.43573470686E+02  0.52823043594E+02 -0.66000098248E+02  0.95104859239E+02  0.00000000000E+00 0.  1.
</event>
<event>
12    1  0.8258923E-002  0.1852404E+03  0.7818608E-02  0.1162882E+00
         21   -1    0    0  501  502  0.00000000000E+00  0.00000000000E+00  0.26494279003E+03  0.26494279003E+03  0.00000000000E+00 0.  1.
         21   -1    0    0  502  503 -0.00000000000E+00 -0.00000000000E+00 -0.19394511365E+03  0.19394511365E+03  0.00000000000E+00 0.  1.
         -6    2    1    2    0  503 -0.51136378679E+01  0.67947281867E+02 -0.96936104840E+02  0.20885637432E+03  0.17199242503E+03 0.  0.
        -24    2    3    3    0    0 -0.33248768634E+02 -0.18925890651E+02 -0.56178258059E+02  0.10874730500E+03  0.84889985939E+02 0.  0.
          6    2    1    2  501    0  0.51136378679E+01 -0.67947281867E+02  0.16793378122E+03  0.25003152937E+03  0.17225280374E+03 0.  0.
         24    2    5    5    0    0 -0.51647471082E+02 -0.57398777458E+02  0.15688043378E+03  0.19106237706E+03  0.77014807019E+02 0.  0.
          5    1    5    5  501    0  0.56761108950E+02 -0.10548504410E+02  0.11053347438E+02  0.58969152310E+02  0.47000000000E+01 0. -1.
        -11    1    6    6    0    0  0.66351699495E+01 -0.27882269934E+02  0.10081097166E+02  0.30382148986E+02  0.00000000000E+00 0.  1.
         12    1    6    6    0    0 -0.58282641032E+02 -0.29516507524E+02  0.14679933662E+03  0.16068022807E+03  0.00000000000E+00 0. -1.
         -5    1    3    3    0  503  0.28135130766E+02  0.86873172518E+02 -0.40757846781E+02  0.10010906932E+03  0.47000000000E+01 0.  1.
         11    1    4    4    0    0  0.94516584809E+01 -0.94698705293E+01  0.18124951339E+02  0.22528341193E+02  0.00000000000E+00 0. -1.
        -12    1    4    4    0    0 -0.42700427115E+02 -0.94560201218E+01 -0.74303209398E+02  0.86218963802E+02  0.00000000000E+00 0.  1.
</event>
<event>
12    1  0.8258923E-002  0.1738929E+03  0.7818608E-02  0.1174008E+00
         21   -1    0    0  501  502  0.00000000000E+00  0.00000000000E+00  0.18690254050E+03  0.18690254050E+03  0.00000000000E+00 0.  1.
         21   -1    0    0  502  503 -0.00000000000E+00 -0.00000000000E+00 -0.40600328839E+03  0.40600328839E+03  0.00000000000E+00 0.  1.
         -6    2    1    2    0  503 -0.34761704352E+01 -0.22872343404E+02 -0.33982535360E+03  0.38173288546E+03  0.17234702504E+03 0.  0.
        -24    2    3    3    0    0  0.45208494881E+02  0.11300527378E+02 -0.10723127608E+03  0.14160775843E+03  0.79891806526E+02 0.  0.
          6    2    1    2  501    0  0.34761704352E+01  0.22872343404E+02  0.12072460571E+03  0.21117294343E+03  0.17171008637E+03 0.  0.
         24    2    5    5    0    0 -0.41541292367E+02  0.39361860497E+02  0.12904265970E+03  0.16228781120E+03  0.80064290468E+02 0.  0.
          5    1    5    5  501    0  0.45017462802E+02 -0.16489517093E+02 -0.83180539929E+01  0.48885132232E+02  0.47000000000E+01 0. -1.
        -13    1    6    6    0    0  0.15763413073E+02 -0.13263768568E+02  0.27959902577E+02  0.34729942419E+02  0.00000000000E+00 0.  1.
         14    1    6    6    0    0 -0.57304705440E+02  0.52625629065E+02  0.10108275712E+03  0.12755786878E+03  0.00000000000E+00 0. -1.
         -5    1    3    3    0  503 -0.48684665316E+02 -0.34172870782E+02 -0.23259407752E+03  0.24012512703E+03  0.47000000000E+01 0.  1.
         13    1    4    4    0    0  0.13440752069E+02  0.43485572625E+02 -0.67495058917E+02  0.81407811793E+02  0.00000000000E+00 0. -1.
        -14    1    4    4    0    0  0.31767742812E+02 -0.32185045247E+02 -0.39736217163E+02  0.60199946639E+02  0.00000000000E+00 0.  1.
</event>
<event>
12    1  0.8258923E-002  0.1861011E+03  0.7818608E-02  0.1162201E+00
         21   -1    0    0  501  502  0.00000000000E+00  0.00000000000E+00  0.13576337199E+03  0.13576337199E+03  0.00000000000E+00 0. -1.
         21   -1    0    0  502  503 -0.00000000000E+00 -0.00000000000E+00 -0.52143525457E+03  0.52143525457E+03  0.00000000000E+00 0. -1.
         -6    2    1    2    0  503  0.62887803715E+02 -0.27013155892E+02 -0.42832663513E+03  0.46700889657E+03  0.17305784197E+03 0.  0.
        -24    2    3    3    0    0  0.72890787265E+02  0.37972083808E+02 -0.33272246027E+03  0.35088228761E+03  0.75227642347E+02 0.  0.
          6    2    1    2  501    0 -0.62887803715E+02  0.27013155892E+02  0.42654752553E+02  0.19018972998E+03  0.17224435848E+03 0.  0.
         24    2    5    5    0    0 -0.59488503804E+02  0.31279355270E+02  0.92782969284E+02  0.13954702262E+03  0.79670646922E+02 0.  0.
          5    1    5    5  501    0 -0.33992999117E+01 -0.42661993782E+01 -0.50128216731E+02  0.50642707369E+02  0.47000000000E+01 0. -1.
        -13    1    6    6    0    0 -0.11518957602E+02  0.47678080975E+02  0.25437750913E+02  0.55253642063E+02  0.00000000000E+00 0.  1.
         14    1    6    6    0    0 -0.47969546202E+02 -0.16398725705E+02  0.67345218371E+02  0.84293380553E+02  0.00000000000E+00 0. -1.
         -5    1    3    3    0  503 -0.10002983550E+02 -0.64985239699E+02 -0.95604174860E+02  0.11612660896E+03  0.47000000000E+01 0.  1.
         13    1    4    4    0    0  0.42030015651E+02  0.59120384464E+02 -0.19116845673E+03  0.20446789705E+03  0.00000000000E+00 0. -1.
        -14    1    4    4    0    0  0.30860771614E+02 -0.21148300656E+02 -0.14155400354E+03  0.14641439056E+03  0.00000000000E+00 0.  1.
</event>
<event>
12    1  0.8258923E-002  0.2272976E+03  0.7818608E-02  0.1129486E+00
         21   -1    0    0  501  502  0.00000000000E+00  0.00000000000E+00  0.12707764265E+03  0.12707764265E+03  0.00000000000E+00 0. -1.
         21   -1    0    0  502  503 -0.00000000000E+00 -0.00000000000E+00 -0.56277540150E+03  0.56277540150E+03  0.00000000000E+00 0. -1.
         -6    2    1    2    0  503 -0.12656858961E+03  0.73932684836E+02 -0.40656794379E+03  0.46579147652E+03  0.17371976547E+03 0.  0.
        -24    2    3    3    0    0 -0.96285882406E+02  0.22936745706E+02 -0.12559014703E+03  0.17858381569E+03  0.79512443943E+02 0.  0.
          6    2    1    2  501    0  0.12656858961E+03 -0.73932684836E+02 -0.29129815059E+02  0.22406156763E+03  0.16694127770E+03 0.  0.
         24    2    5    5    0    0  0.16751202929E+02 -0.12778923331E+02 -0.45504438991E+02  0.97215758579E+02  0.83284728896E+02 0.  0.
          5    1    5    5  501    0  0.10981738668E+03 -0.61153761505E+02  0.16374623933E+02  0.12684580905E+03  0.47000000000E+01 0. -1.
        -11    1    6    6    0    0 -0.24942166004E+02 -0.71169419089E+00  0.98908079210E+01  0.26841129539E+02  0.00000000000E+00 0.  1.
         12    1    6    6    0    0  0.41693368933E+02 -0.12067229140E+02 -0.55395246912E+02  0.70374629040E+02  0.00000000000E+00 0. -1.
         -5    1    3    3    0  503 -0.30282707205E+02  0.50995939129E+02 -0.28097779677E+03  0.28720766083E+03  0.47000000000E+01 0.  1.
         13    1    4    4    0    0 -0.38565301497E+02  0.45959492296E+02 -0.86147086159E+02  0.10498036895E+03  0.00000000000E+00 0. -1.
        -14    1    4    4    0    0 -0.57720580910E+02 -0.23022746589E+02 -0.39443060867E+02  0.73603446738E+02  0.00000000000E+00 0.  1.
</event>
<event>
12    1  0.8258923E-002  0.1790989E+03  0.7818608E-02  0.1168721E+00
         21   -1    0    0  503  502  0.00000000000E+00  0.00000000000E+00  0.13506587064E+03  0.13506587064E+03  0.00000000000E+00 0. -1.
         21   -1    0    0  501  503 -0.00000000000E+00 -0.00000000000E+00 -0.25742944972E+03  0.25742944972E+03  0.00000000000E+00 0. -1.
          6    2    1    2  501    0  0.44911880185E+02  0.22456978240E+02 -0.11609297316E+03  0.21328669213E+03  0.17173305381E+03 0.  0.
         24    2    3    3    0    0  0.94231271479E+01  0.94970479025E+01 -0.14470082586E+03  0.16566410692E+03  0.79544189436E+02 0.  0.
         -6    2    1    2    0  502 -0.44911880185E+02 -0.22456978240E+02 -0.62706059171E+01  0.17920862823E+03  0.17191573249E+03 0.  0.
        -24    2    5    5    0    0  0.27971128825E+02  0.76730356086E+01  0.33232823369E+02  0.90877650295E+02  0.79454812635E+02 0.  0.
          5    1    3    3  501    0  0.35488753038E+02  0.12959930338E+02  0.28607852699E+02  0.47622585215E+02  0.47000000000E+01 0. -1.
        -11    1    4    4    0    0 -0.18155264893E+02  0.25876352450E+02 -0.21188071687E+02  0.38054351148E+02  0.00000000000E+00 0.  1.
         12    1    4    4    0    0  0.27578392041E+02 -0.16379304547E+02 -0.12351275417E+03  0.12760975577E+03  0.00000000000E+00 0. -1.
         -5    1    5    5    0  502 -0.72883009011E+02 -0.30130013849E+02 -0.39503429286E+02  0.88330977932E+02  0.47000000000E+01 0.  1.
         11    1    6    6    0    0  0.61333947977E+01  0.17788926879E+02 -0.22996862875E+02  0.29713972358E+02  0.00000000000E+00 0. -1.
        -12    1    6    6    0    0  0.21837734027E+02 -0.10115891270E+02  0.56229686244E+02  0.61163677936E+02  0.00000000000E+00 0.  1.
</event>
<event>
12    1  0.8258923E-002  0.2073394E+03  0.7818608E-02  0.1143922E+00
         21   -1    0    0  501  502  0.00000000000E+00  0.00000000000E+00  0.64699709413E+03  0.64699709413E+03  0.00000000000E+00 0. -1.
         21   -1    0    0  502  503 -0.00000000000E+00 -0.00000000000E+00 -0.13489490379E+03  0.13489490379E+03  0.00000000000E+00 0.  1.
         -6    2    1    2    0  503 -0.13799732665E+02 -0.11504499063E+03  0.53563134679E+03  0.57436102255E+03  0.17194144953E+03 0.  0.
        -24    2    3    3    0    0 -0.49017231302E+02 -0.51221204270E+02  0.45878120734E+03  0.46833375318E+03  0.61887053788E+02 0.  0.
          6    2    1    2  501    0  0.13799732665E+02  0.11504499063E+03 -0.23529156457E+02  0.20753097538E+03  0.17055703458E+03 0.  0.
         24    2    5    5    0    0  0.64562145808E+02  0.11503466380E+03 -0.89196116279E+01  0.15449936692E+03  0.79932786528E+02 0.  0.
          5    1    5    5  501    0 -0.50762413143E+02  0.10326836400E-01 -0.14609544830E+02  0.53031608451E+02  0.47000000000E+01 0. -1.
        -13    1    6    6    0    0 -0.68499542373E+01  0.62936153011E+02 -0.17514731445E+02  0.65685972981E+02  0.00000000000E+00 0.  1.
         14    1    6    6    0    0  0.71412100046E+02  0.52098510787E+02  0.85951198174E+01  0.88813393944E+02  0.00000000000E+00 0. -1.
         -5    1    3    3    0  503  0.35217498637E+02 -0.63823786364E+02  0.76850139450E+02  0.10602726937E+03  0.47000000000E+01 0.  1.
         11    1    4    4    0    0 -0.93095724808E+01 -0.44192905584E+02  0.14232697309E+03  0.14932062253E+03  0.00000000000E+00 0. -1.
        -12    1    4    4    0    0 -0.39707658821E+02 -0.70282986854E+01  0.31645423425E+03  0.31901313065E+03  0.00000000000E+00 0.  1.
</event>
<event>
12    1  0.8258923E-002  0.1715299E+03  0.7818608E-02  0.1176434E+00
         21   -1    0    0  503  502  0.00000000000E+00  0.00000000000E+00  0.17861628678E+03  0.17861628678E+03  0.00000000000E+00 0. -1.
         21   -1    0    0  501  503 -0.00000000000E+00 -0.00000000000E+00 -0.36610602099E+03  0.36610602099E+03  0.00000000000E+00 0. -1.
          6    2    1    2  501    0  0.20949456763E+01 -0.15419994034E+00 -0.29598369377E+03  0.34176062616E+03  0.17084954211E+03 0.  0.
         24    2    3    3    0    0 -0.41367389339E+01  0.62833689500E+02 -0.14601810032E+03  0.17891690559E+03  0.82004806809E+02 0.  0.
         -6    2    1    2    0  502 -0.20949456763E+01  0.15419994034E+00  0.10849395957E+03  0.20296168161E+03  0.17151703228E+03 0.  0.
        -24    2    5    5    0    0 -0.12822290920E+02 -0.40811054742E+02  0.12735398585E+03  0.15636749078E+03  0.80011256268E+02 0.  0.
          5    1    3    3  501    0  0.62316846102E+01 -0.62987889441E+02 -0.14996559346E+03  0.16284372057E+03  0.47000000000E+01 0. -1.
        -13    1    4    4    0    0 -0.90116079273E+01  0.12480065480E+02  0.76113551307E+01  0.17172473285E+02  0.00000000000E+00 0.  1.
         14    1    4    4    0    0  0.48748689934E+01  0.50353624021E+02 -0.15362945545E+03  0.16174443230E+03  0.00000000000E+00 0. -1.
         -5    1    5    5    0  502  0.10727345243E+02  0.40965254682E+02 -0.18860026278E+02  0.46594190822E+02  0.47000000000E+01 0.  1.
         11    1    6    6    0    0 -0.44536468747E+02 -0.15936038448E+02  0.48146985969E+02  0.67495085953E+02  0.00000000000E+00 0. -1.
        -12    1    6    6    0    0  0.31714177828E+02 -0.24875016294E+02  0.79206999878E+02  0.88872404832E+02  0.00000000000E+00 0.  1.
</event>
<event>
12    1  0.8258923E-002  0.1775732E+03  0.7818608E-02  0.1170869E+00
         21   -1    0    0  503  502  0.00000000000E+00  0.00000000000E+00  0.82417420048E+02  0.82417420048E+02  0.00000000000E+00 0.  1.
         21   -1    0    0  501  503 -0.00000000000E+00 -0.00000000000E+00 -0.44748685257E+03  0.44748685257E+03  0.00000000000E+00 0.  1.
          6    2    1    2  501    0 -0.31162675432E+02  0.30989492239E+02 -0.28677979572E+03  0.33583850433E+03  0.16915492540E+03 0.  0.
         24    2    3    3    0    0 -0.78080189291E+02 -0.66033835375E+01 -0.22246394909E+03  0.24767334373E+03  0.75576159712E+02 0.  0.
         -6    2    1    2    0  502  0.31162675432E+02 -0.30989492239E+02 -0.78289636798E+02  0.19406576828E+03  0.17204881348E+03 0.  0.
        -24    2    5    5    0    0 -0.93677541046E+01 -0.82394143121E+02 -0.50311237071E+02  0.12272128916E+03  0.75184736475E+02 0.  0.
          5    1    3    3  501    0  0.46917513859E+02  0.37592875777E+02 -0.64315846634E+02  0.88165160602E+02  0.47000000000E+01 0. -1.
        -11    1    4    4    0    0 -0.39338504838E+02  0.23000428175E+02 -0.17021102831E+03  0.17620536830E+03  0.00000000000E+00 0.  1.
         12    1    4    4    0    0 -0.38741684453E+02 -0.29603811713E+02 -0.52252920772E+02  0.71467975425E+02  0.00000000000E+00 0. -1.
         -5    1    5    5    0  502  0.40530429536E+02  0.51404650882E+02 -0.27978399727E+02  0.71344479128E+02  0.47000000000E+01 0.  1.
         11    1    6    6    0    0 -0.21253863824E+02 -0.14313590783E+02 -0.47000365195E+02  0.53531672279E+02  0.00000000000E+00 0. -1.
        -12    1    6    6    0    0  0.11886109720E+02 -0.68080552338E+02 -0.33108718762E+01  0.69189616877E+02  0.00000000000E+00 0.  1.
</event>
<event>
12    1  0.8258923E-002  0.2299672E+03  0.7818608E-02  0.1126826E+00
         21   -1    0    0  503  502  0.00000000000E+00  0.00000000000E+00  0.21122916449E+03  0.21122916449E+03  0.00000000000E+00 0. -1.
         21   -1    0    0  501  503 -0.00000000000E+00 -0.00000000000E+00 -0.42286144226E+03  0.42286144226E+03  0.00000000000E+00 0. -1.
          6    2    1    2  501    0  0.96486892017E+02 -0.11689625721E+03 -0.30877132623E+03  0.38444901004E+03  0.17171736701E+03 0.  0.
         24    2    3    3    0    0  0.45352059756E+02 -0.19976276294E+02 -0.24860993821E+03  0.25935010365E+03  0.54769644378E+02 0.  0.
         -6    2    1    2    0  502 -0.96486892017E+02  0.11689625721E+03  0.97139048452E+02  0.24964159671E+03  0.17294645644E+03 0.  0.
        -24    2    5    5    0    0 -0.83483616473E+02  0.79692548120E+02  0.13516024279E+03  0.19467886057E+03  0.79442753455E+02 0.  0.
          5    1    3    3  501    0  0.51134832260E+02 -0.96919980919E+02 -0.60161388021E+02  0.12509890639E+03  0.47000000000E+01 0. -1.
        -13    1    4    4    0    0  0.10244082190E+02  0.97510419743E+01 -0.12737118084E+02  0.19033082162E+02  0.00000000000E+00 0.  1.
         14    1    4    4    0    0  0.35107977566E+02 -0.29727318269E+02 -0.23587282013E+03  0.24031702148E+03  0.00000000000E+00 0. -1.
         -5    1    5    5    0  502 -0.13003275543E+02  0.37203709093E+02 -0.38021194340E+02  0.54962736142E+02  0.47000000000E+01 0.  1.
         13    1    6    6    0    0 -0.51932289680E+01  0.58526584117E+02  0.62618299427E+02  0.85868399884E+02  0.00000000000E+00 0. -1.
        -14    1    6    6    0    0 -0.78290387505E+02  0.21165964004E+02  0.72541943365E+02  0.10881046069E+03  0.00000000000E+00 0.  1.
</event>
<event>
12    1  0.8258923E-002  0.1776247E+03  0.7818608E-02  0.1170679E+00
         21   -1    0    0  501  502  0.00000000000E+00  0.00000000000E+00  0.47974531345E+03  0.47974531345E+03  0.00000000000E+00 0.  1.
         21   -1    0    0  502  503 -0.00000000000E+00 -0.00000000000E+00 -0.87536629318E+02  0.87536629318E+02  0.00000000000E+00 0.  1.
         -6    2    1    2    0  503  0.27564099096E+02  0.18933793002E+02  0.51056795310E+02  0.18265855475E+03  0.17216005111E+03 0.  0.
        -24    2    3    3    0    0  0.30333944492E+02  0.49188646578E+02  0.90411837865E+02  0.13271921572E+03  0.78105176873E+02 0.  0.
          6    2    1    2  501    0 -0.27564099096E+02 -0.18933793002E+02  0.34115188882E+03  0.38462338802E+03  0.17444847746E+03 0.  0.
         24    2    5    5    0    0 -0.15938621283E+02 -0.30894113102E+02  0.35375004066E+03  0.36319899956E+03  0.74605201825E+02 0.  0.
          5    1    5    5  501    0 -0.11625477813E+02  0.11960320100E+02 -0.12598151837E+02  0.21424388462E+02  0.47000000000E+01 0. -1.
        -13    1    6    6    0    0  0.20711441330E+02  0.44916224869E+01  0.39311493752E+02  0.44660183784E+02  0.00000000000E+00 0.  1.
         14    1    6    6    0    0 -0.36650062614E+02 -0.35385735589E+02  0.31443854691E+03  0.31853881577E+03  0.00000000000E+00 0. -1.
         -5    1    3    3    0  503 -0.27698453959E+01 -0.30254853575E+02 -0.39355042555E+02  0.49939339032E+02  0.47000000000E+01 0.  1.
         11    1    4    4    0    0  0.29700486292E+02  0.31008828153E+02  0.25712704448E+01  0.43014854888E+02  0.00000000000E+00 0. -1.
        -12    1    4    4    0    0  0.63345819998E+00  0.18179818425E+02  0.87840567420E+02  0.89704360830E+02  0.00000000000E+00 0.  1.
</event>
<event>
12    1  0.8258923E-002  0.1812502E+03  0.7818608E-02  0.1169371E+00
         21   -1    0    0  503  502  0.00000000000E+00  0.00000000000E+00  0.57584795758E+02  0.57584795758E+02  0.00000000000E+00 0. -1.
         21   -1    0    0  501  503 -0.00000000000E+00 -0.00000000000E+00 -0.54447365923E+03  0.54447365923E+03  0.00000000000E+00 0.  1.
          6    2    1    2  501    0  0.43451337901E+02 -0.34209786195E+02 -0.19796946462E+03  0.26099241248E+03  0.16083159582E+03 0.  0.
         24    2    3    3    0    0  0.58370102120E+02  0.21574108289E+01 -0.63338478248E+02  0.12066160675E+03  0.84473293256E+02 0.  0.
         -6    2    1    2    0  502 -0.43451337901E+02  0.34209786195E+02 -0.28891939885E+03  0.34106604251E+03  0.17260735235E+03 0.  0.
        -24    2    5    5    0    0 -0.86251592709E+01  0.62488887056E+02 -0.27605649455E+03  0.29416066360E+03  0.79649566533E+02 0.  0.
          5    1    3    3  501    0 -0.14918764220E+02 -0.36367197024E+02 -0.13463098637E+03  0.14033080573E+03  0.47000000000E+01 0. -1.
        -13    1    4    4    0    0  0.80658908005E+01 -0.38508592974E+01 -0.69097856789E+02  0.69673535324E+02  0.00000000000E+00 0.  1.
         14    1    4    4    0    0  0.50304211320E+02  0.60082701263E+01  0.57593785413E+01  0.50988071424E+02  0.00000000000E+00 0. -1.
         -5    1    5    5    0  502 -0.34826178630E+02 -0.28279100861E+02 -0.12862904300E+02  0.46905378908E+02  0.47000000000E+01 0.  1.
         13    1    6    6    0    0 -0.20356494769E+01 -0.12885918266E+02 -0.72842886765E+01  0.14941607004E+02  0.00000000000E+00 0. -1.
        -14    1    6    6    0    0 -0.65895097940E+01  0.75374805322E+02 -0.26877220588E+03  0.27921905660E+03  0.00000000000E+00 0.  1.
</event>
<event>
12    1  0.8258923E-002  0.2271010E+03  0.7818608E-02  0.1128791E+00
         21   -1    0    0  501  502  0.00000000000E+00  0.00000000000E+00  0.69710910749E+03  0.69710910749E+03  0.00000000000E+00 0. -1.
         21   -1    0    0  502  503 -0.00000000000E+00 -0.00000000000E+00 -0.80280051403E+02  0.80280051403E+02  0.00000000000E+00 0. -1.
         -6    2    1    2    0  503  0.14034632655E+03  0.43910943639E+02  0.41840928668E+03  0.47581782746E+03  0.17236882375E+03 0.  0.
        -24    2    3    3    0    0  0.14643763803E+03  0.45187793938E+02  0.42857338152E+03  0.46300637765E+03  0.84934350222E+02 0.  0.
          6    2    1    2  501    0 -0.14034632655E+03 -0.43910943639E+02  0.19841976941E+03  0.30157133144E+03  0.17305952936E+03 0.  0.
         24    2    5    5    0    0 -0.14322686712E+03 -0.72961257773E+02  0.20363810481E+03  0.27154568757E+03  0.80195399513E+02 0.  0.
          5    1    5    5  501    0  0.28805405711E+01  0.29050314134E+02 -0.52183354035E+01  0.30025643867E+02  0.47000000000E+01 0. -1.
        -11    1    6    6    0    0 -0.46081287829E+02  0.34577768994E+01  0.10031487968E+03  0.11044689400E+03  0.00000000000E+00 0.  1.
         12    1    6    6    0    0 -0.97145579295E+02 -0.76419034672E+02  0.10332322513E+03  0.16109879356E+03  0.00000000000E+00 0. -1.
         -5    1    3    3    0  503 -0.60913114792E+01 -0.12768502996E+01 -0.10164094839E+02  0.12811449806E+02  0.47000000000E+01 0.  1.
         11    1    4    4    0    0  0.97229539456E+00  0.14102346342E+02  0.66347791199E+01  0.15615435462E+02  0.00000000000E+00 0. -1.
        -12    1    4    4    0    0  0.14546534264E+03  0.31085447596E+02  0.42193860240E+03  0.44739094219E+03  0.00000000000E+00 0.  1.
</event>
<event>
12    1  0.8258923E-002  0.2304789E+03  0.7818608E-02  0.1126572E+00
         21   -1    0    0  503  502  0.00000000000E+00  0.00000000000E+00  0.37123654663E+03  0.37123654663E+03  0.00000000000E+00 0. -1.
         21   -1    0    0  501  503 -0.00000000000E+00 -0.00000000000E+00 -0.14503860288E+03  0.14503860288E+03  0.00000000000E+00 0. -1.
          6    2    1    2  501    0  0.14790921497E+03 -0.30148323575E+02  0.76261947250E+02  0.24131816120E+03  0.17214096852E+03 0.  0.
         24    2    3    3    0    0  0.56605780176E+02  0.40687794134E+02  0.28093330961E+01  0.10430922244E+03  0.77542314847E+02 0.  0.
         -6    2    1    2    0  502 -0.14790921497E+03  0.30148323575E+02  0.14993599650E+03  0.27495698830E+03  0.17416797951E+03 0.  0.
        -24    2    5    5    0    0 -0.12640952991E+03  0.69333755156E+02  0.15973822770E+03  0.22895798568E+03  0.78223519238E+02 0.  0.
          5    1    3    3  501    0  0.91303434790E+02 -0.70836117709E+02  0.73452614153E+02  0.13700893877E+03  0.47000000000E+01 0. -1.
        -13    1    4    4    0    0 -0.12606990108E+02  0.31445745442E+02 -0.41689048778E+01  0.34134306406E+02  0.00000000000E+00 0.  1.
         14    1    4    4    0    0  0.69212770285E+02  0.92420486927E+01  0.69782379739E+01  0.70174916029E+02  0.00000000000E+00 0. -1.
         -5    1    5    5    0  502 -0.21499685059E+02 -0.39185431581E+02 -0.98022312042E+01  0.45999002624E+02  0.47000000000E+01 0.  1.
         13    1    6    6    0    0 -0.52971383160E+02  0.21412754902E+01  0.18461872187E+02  0.56137271213E+02  0.00000000000E+00 0. -1.
        -14    1    6    6    0    0 -0.73438146748E+02  0.67192479666E+02  0.14127635552E+03  0.17282071447E+03  0.00000000000E+00 0.  1.
</event>
<event>
12    1  0.8258923E-002  0.1903552E+03  0.7818608E-02  0.1158567E+00
         21   -1    0    0  503  502  0.00000000000E+00  0.00000000000E+00  0.10538693780E+03  0.10538693780E+03  0.00000000000E+00 0. -1.
         21   -1    0    0  501  503 -0.00000000000E+00 -0.00000000000E+00 -0.34568668588E+03  0.34568668588E+03  0.00000000000E+00 0. -1.
          6    2    1    2  501    0  0.46683488770E+02 -0.61965107760E+02 -0.14852509891E+03  0.24144320262E+03  0.17382776643E+03 0.  0.
         24    2    3    3    0    0  0.47679546299E+02 -0.34919369142E+02 -0.84482251401E+01  0.98698378986E+02  0.78595776158E+02 0.  0.
         -6    2    1    2    0  502 -0.46683488770E+02  0.61965107760E+02 -0.91774649164E+02  0.20963042106E+03  0.17176525988E+03 0.  0.
        -24    2    5    5    0    0 -0.89210503261E+02  0.94517886849E+01 -0.54653182132E+02  0.13238866450E+03  0.80572563386E+02 0.  0.
          5    1    3    3  501    0 -0.99605752941E+00 -0.27045738619E+02 -0.14007687377E+03  0.14274482363E+03  0.47000000000E+01 0. -1.
        -11    1    4    4    0    0  0.22603428731E+01  0.23047914067E+02  0.53662420075E+01  0.23772085437E+02  0.00000000000E+00 0.  1.
         12    1    4    4    0    0  0.45419203426E+02 -0.57967283208E+02 -0.13814467148E+02  0.74926293549E+02  0.00000000000E+00 0. -1.
         -5    1    5    5    0  502  0.42527014491E+02  0.52513319075E+02 -0.37121467032E+02  0.77241756560E+02  0.47000000000E+01 0.  1.
         13    1    6    6    0    0 -0.15446138801E+02  0.31859818796E+01 -0.56171021211E+02  0.58343099920E+02  0.00000000000E+00 0. -1.
        -14    1    6    6    0    0 -0.73764364460E+02  0.62658068053E+01  0.15178390792E+01  0.74045564584E+02  0.00000000000E+00 0.  1.
</event>
<event>
12    1  0.8258923E-002  0.1751307E+03  0.7818608E-02  0.1173023E+00
         21   -1    0    0  503  502  0.00000000000E+00  0.00000000000E+00  0.97013542593E+03  0.97013542593E+03  0.00000000000E+00 0.  1.
         21   -1    0    0  501  503 -0.00000000000E+00 -0.00000000000E+00 -0.38660611077E+02  0.38660611077E+02  0.00000000000E+00 0.  1.
          6    2    1    2  501    0  0.26834989143E+02 -0.61385565013E+01  0.24402774587E+03  0.29939189771E+03  0.17125469085E+03 0.  0.
         24    2    3    3    0    0 -0.10830294051E+02 -0.57486511755E+02  0.94890978773E+02  0.13716011485E+03  0.79916237094E+02 0.  0.
         -6    2    1    2    0  502 -0.26834989143E+02  0.61385565013E+01  0.68744706898E+03  0.70940413930E+03  0.17295364029E+03 0.  0.
        -24    2    5    5    0    0  0.16802764309E+02 -0.55538348707E+02  0.32581084839E+03  0.33992999920E+03  0.77671451385E+02 0.  0.
          5    1    3    3  501    0  0.37665283194E+02  0.51347955253E+02  0.14913676710E+03  0.16223178285E+03  0.47000000000E+01 0. -1.
        -11    1    4    4    0    0 -0.11919065747E+02 -0.20524754291E+02 -0.10140047442E+02  0.25809886267E+02  0.00000000000E+00 0.  1.
         12    1    4    4    0    0  0.10887716962E+01 -0.36961757463E+02  0.10503102621E+03  0.11135022859E+03  0.00000000000E+00 0. -1.
         -5    1    5    5    0  502 -0.43637753453E+02  0.61676905209E+02  0.36163622059E+03  0.36947414010E+03  0.47000000000E+01 0.  1.
         11    1    6    6    0    0  0.29488607287E+02 -0.96010777404E+01  0.23807535699E+03  0.24008672238E+03  0.00000000000E+00 0. -1.
        -12    1    6    6    0    0 -0.12685842978E+02 -0.45937270967E+02  0.87735491397E+02  0.99843276822E+02  0.00000000000E+00 0.  1.
</event>
<event>
12    1  0.8258923E-002  0.1845909E+03  0.7818608E-02  0.1164079E+00
         21   -1    0    0  501  502  0.00000000000E+00  0.00000000000E+00  0.14060375079E+03  0.14060375079E+03  0.00000000000E+00 0. -1.
         21   -1    0    0  502  503 -0.00000000000E+00 -0.00000000000E+00 -0.31707039413E+03  0.31707039413E+03  0.00000000000E+00 0. -1.
         -6    2    1    2    0  503 -0.64987191872E+02 -0.27109845140E+02 -0.20146380663E+03  0.27139836771E+03  0.16766374028E+03 0.  0.
        -24    2    3    3    0    0 -0.14711794861E+01 -0.64207013517E+02 -0.15275309080E+03  0.18305071597E+03  0.77777586210E+02 0.  0.
          6    2    1    2  501    0  0.64987191872E+02  0.27109845140E+02  0.24997163287E+02  0.18627577721E+03  0.17063272896E+03 0.  0.
         24    2    5    5    0    0  0.38922531534E+02 -0.19857751007E+02  0.71478956807E+02  0.11508610988E+03  0.78906765768E+02 0.  0.
          5    1    5    5  501    0  0.26064660338E+02  0.46967596147E+02 -0.46481793520E+02  0.71189667335E+02  0.47000000000E+01 0. -1.
        -13    1    6    6    0    0 -0.68972832616E+01  0.17089615003E+02 -0.45043400997E+01  0.18971466393E+02  0.00000000000E+00 0.  1.
         14    1    6    6    0    0  0.45819814796E+02 -0.36947366010E+02  0.75983296907E+02  0.96114643483E+02  0.00000000000E+00 0. -1.
         -5    1    3    3    0  503 -0.63516012386E+02  0.37097168377E+02 -0.48710715829E+02  0.88347651738E+02  0.47000000000E+01 0.  1.
         13    1    4    4    0    0 -0.24698972379E+02 -0.25841406806E+02 -0.12567755133E+03  0.13066240641E+03  0.00000000000E+00 0. -1.
        -14    1    4    4    0    0  0.23227792893E+02 -0.38365606712E+02 -0.27075539471E+02  0.52388309561E+02  0.00000000000E+00 0.  1.
</event>
<event>
12    1  0.8258923E-002  0.4291666E+03  0.7818608E-02  0.1034168E+00
         21   -1    0    0  503  502  0.00000000000E+00  0.00000000000E+00  0.14697392579E+03  0.14697392579E+03  0.00000000000E+00 0. -1.
         21   -1    0    0  501  503 -0.00000000000E+00 -0.00000000000E+00 -0.12854889892E+04  0.12854889892E+04  0.00000000000E+00 0.  1.
          6    2    1    2  501    0  0.24386910746E+03  0.30834917210E+03 -0.45251611110E+03  0.62327905855E+03  0.17074718303E+03 0.  0.
         24    2    3    3    0    0  0.18396562631E+03  0.14808981853E+03 -0.32440474027E+03  0.40948920660E+03  0.81664121858E+02 0.  0.
         -6    2    1    2    0  502 -0.24386910746E+03 -0.30834917210E+03 -0.68599895228E+03  0.80918385642E+03  0.17214121369E+03 0.  0.
        -24    2    5    5    0    0 -0.23110804887E+03 -0.23434254885E+03 -0.63117367167E+03  0.71608323185E+03  0.77894997727E+02 0.  0.
          5    1    3    3  501    0  0.59903481148E+02  0.16025935356E+03 -0.12811137083E+03  0.21378985195E+03  0.47000000000E+01 0. -1.
        -11    1    4    4    0    0  0.36367167076E+02  0.78379002010E+02 -0.12106355653E+03  0.14873541447E+03  0.00000000000E+00 0.  1.
         12    1    4    4    0    0  0.14759845923E+03  0.69710816523E+02 -0.20334118374E+03  0.26075379213E+03  0.00000000000E+00 0. -1.
         -5    1    5    5    0  502 -0.12761058586E+02 -0.74006623249E+02 -0.54825280608E+02  0.93100624567E+02  0.47000000000E+01 0.  1.
         11    1    6    6    0    0 -0.21028320348E+03 -0.18989712647E+03 -0.48277411018E+03  0.55977744307E+03  0.00000000000E+00 0. -1.
        -12    1    6    6    0    0 -0.20824845394E+02 -0.44445422378E+02 -0.14839956149E+03  0.15630578878E+03  0.00000000000E+00 0.  1.
</event>
<event>
12    1  0.8258923E-002  0.2072547E+03  0.7818608E-02  0.1144280E+00
         21   -1    0    0  503  502  0.00000000000E+00  0.00000000000E+00  0.38643099474E+03  0.38643099474E+03  0.00000000000E+00 0.  1.
         21   -1    0    0  501  503 -0.00000000000E+00 -0.00000000000E+00 -0.12324913054E+03  0.12324913054E+03  0.00000000000E+00 0.  1.
          6    2    1    2  501    0 -0.10561063317E+03  0.43536958725E+02  0.48085571187E+02  0.21275984486E+03  0.17293194272E+03 0.  0.
         24    2    3    3    0    0 -0.11986085611E+03 -0.11450152961E+02  0.51952743950E+02  0.15563107513E+03  0.83810578754E+02 0.  0.
         -6    2    1    2    0  502  0.10561063317E+03 -0.43536958725E+02  0.21509629301E+03  0.29692028043E+03  0.16984158810E+03 0.  0.
        -24    2    5    5    0    0  0.63054925398E+02 -0.21022710140E+02  0.34050150982E+02  0.10952317480E+03  0.80112639935E+02 0.  0.
          5    1    3    3  501    0  0.14250222940E+02  0.54987111686E+02 -0.38671727628E+01  0.57128769728E+02  0.47000000000E+01 0. -1.
        -13    1    4    4    0    0 -0.22587411909E+02 -0.16152946222E+02  0.51194854054E+02  0.58241067383E+02  0.00000000000E+00 0.  1.
         14    1    4    4    0    0 -0.97273444201E+02  0.47027932610E+01  0.75788989616E+00  0.97390007744E+02  0.00000000000E+00 0. -1.
         -5    1    5    5    0  502  0.42555707772E+02 -0.22514248586E+02  0.18104614203E+03  0.18739710563E+03  0.47000000000E+01 0.  1.
         11    1    6    6    0    0  0.57888575613E+01  0.28049645103E+02  0.10724084567E+02  0.30582665876E+02  0.00000000000E+00 0. -1.
        -12    1    6    6    0    0  0.57266067837E+02 -0.49072355242E+02  0.23326066414E+02  0.78940508922E+02  0.00000000000E+00 0.  1.
</event>
<event>
12    1  0.8258923E-002  0.1836230E+03  0.7818608E-02  0.1165093E+00
         21   -1    0    0  503  502  0.00000000000E+00  0.00000000000E+00  0.44727641734E+02  0.44727641734E+02  0.00000000000E+00 0.  1.
         21   -1    0    0  501  503 -0.00000000000E+00 -0.00000000000E+00 -0.77171955211E+03  0.77171955211E+03  0.00000000000E+00 0.  1.
          6    2    1    2  501    0 -0.51867796796E+02  0.29878270442E+02 -0.44804257262E+03  0.48421024659E+03  0.17359273209E+03 0.  0.
         24    2    3    3    0    0 -0.11235096597E+02 -0.19471783797E+02 -0.10162243112E+03  0.13191002147E+03  0.81041702223E+02 0.  0.
         -6    2    1    2    0  502  0.51867796796E+02 -0.29878270442E+02 -0.27894933775E+03  0.33223694725E+03  0.17025180380E+03 0.  0.
        -24    2    5    5    0    0  0.68600494343E+01 -0.93452877833E+01 -0.41596067656E+02  0.89737533798E+02  0.78665096743E+02 0.  0.
          5    1    3    3  501    0 -0.40632700199E+02  0.49350054238E+02 -0.34642014150E+03  0.35230022512E+03  0.47000000000E+01 0. -1.
        -13    1    4    4    0    0 -0.31837578404E+02 -0.29357506675E+02 -0.21034865284E+02  0.48145198663E+02  0.00000000000E+00 0.  1.
         14    1    4    4    0    0  0.20602481807E+02  0.98857228783E+01 -0.80587565835E+02  0.83764822811E+02  0.00000000000E+00 0. -1.
         -5    1    5    5    0  502  0.45007747362E+02 -0.20532982658E+02 -0.23735327009E+03  0.24249941345E+03  0.47000000000E+01 0.  1.
         13    1    6    6    0    0 -0.16441775726E+02  0.19675122392E+01  0.18179735205E+02  0.24590767893E+02  0.00000000000E+00 0. -1.
        -14    1    6    6    0    0  0.23301825161E+02 -0.11312800022E+02 -0.59775802861E+02  0.65146765905E+02  0.00000000000E+00 0.  1.
</event>
<event>
12    1  0.8258923E-002  0.2605132E+03  0.7818608E-02  0.1107009E+00
         21   -1    0    0  501  502  0.00000000000E+00  0.00000000000E+00  0.41427960304E+03  0.41427960304E+03  0.00000000000E+00 0.  1.
         21   -1    0    0  502  503 -0.00000000000E+00 -0.00000000000E+00 -0.16317886175E+03  0.16317886175E+03  0.00000000000E+00 0.  1.
         -6    2    1    2    0  503 -0.37772580154E+02  0.19071086674E+03  0.11864219970E+03  0.28520444402E+03  0.17166304446E+03 0.  0.
        -24    2    3    3    0    0 -0.82098256051E+02  0.14107581353E+03  0.12214491033E+03  0.21840052922E+03  0.78338389278E+02 0.  0.
          6    2    1    2  501    0  0.37772580154E+02 -0.19071086674E+03  0.13245854159E+03  0.29225402076E+03  0.17340630008E+03 0.  0.
         24    2    5    5    0    0  0.52089057136E+02 -0.42989062813E+02  0.89869104377E+02  0.13777864075E+03  0.79656566145E+02 0.  0.
          5    1    5    5  501    0 -0.14316476982E+02 -0.14772180393E+03  0.42589437213E+02  0.15447538002E+03  0.47000000000E+01 0. -1.
        -11    1    6    6    0    0  0.18094975300E+02 -0.61452903535E+02  0.67642409161E+02  0.93163206263E+02  0.00000000000E+00 0.  1.
         12    1    6    6    0    0  0.33994081837E+02  0.18463840722E+02  0.22226695216E+02  0.44615434486E+02  0.00000000000E+00 0. -1.
         -5    1    3    3    0  503  0.44325675897E+02  0.49635053208E+02 -0.35027106276E+01  0.66803914799E+02  0.47000000000E+01 0.  1.
         11    1    4    4    0    0 -0.13852851251E+02 -0.65797859414E+01  0.61042481461E+00  0.15348214531E+02  0.00000000000E+00 0. -1.
        -12    1    4    4    0    0 -0.68245404800E+02  0.14765559947E+03  0.12153448551E+03  0.20305231469E+03  0.00000000000E+00 0.  1.
</event>
<event>
12    1  0.8258923E-002  0.3365274E+03  0.7818608E-02  0.1068337E+00
         21   -1    0    0  503  502  0.00000000000E+00  0.00000000000E+00  0.84542434262E+03  0.84542434262E+03  0.00000000000E+00 0.  1.
         21   -1    0    0  501  503 -0.00000000000E+00 -0.00000000000E+00 -0.48118110660E+03  0.48118110660E+03  0.00000000000E+00 0.  1.
          6    2    1    2  501    0  0.62072325750E+02  0.28280872374E+03 -0.38153203624E+03  0.50841755766E+03  0.17055195809E+03 0.  0.
         24    2    3    3    0    0  0.89240593871E+02  0.27817211066E+03 -0.36981652343E+03  0.47810326707E+03  0.80466553526E+02 0.  0.
         -6    2    1    2    0  502 -0.62072325750E+02 -0.28280872374E+03  0.74577527226E+03  0.81818789157E+03  0.17151361853E+03 0.  0.
        -24    2    5    5    0    0 -0.81814885696E+02 -0.98923985875E+02  0.35015697886E+03  0.38145079723E+03  0.80094758648E+02 0.  0.
          5    1    3    3  501    0 -0.27168268121E+02  0.46366130834E+01 -0.11715512809E+02  0.30314290590E+02  0.47000000000E+01 0. -1.
        -13    1    4    4    0    0  0.65080076662E+02  0.17040698294E+03 -0.16771611009E+03  0.24779558066E+03  0.00000000000E+00 0.  1.
         14    1    4    4    0    0  0.24160517209E+02  0.10776512772E+03 -0.20210041334E+03  0.23030768641E+03  0.00000000000E+00 0. -1.
         -5    1    5    5    0  502  0.19742559946E+02 -0.18388473787E+03  0.39561829340E+03  0.43673709433E+03  0.47000000000E+01 0.  1.
         13    1    6    6    0    0 -0.47834009133E+02 -0.10391992534E+03  0.23647155790E+03  0.26269039002E+03  0.00000000000E+00 0. -1.
        -14    1    6    6    0    0 -0.33980876563E+02  0.49959394643E+01  0.11368542096E+03  0.11876040721E+03  0.00000000000E+00 0.  1.
</event>
<event>
12    1  0.8258923E-002  0.2812404E+03  0.7818608E-02  0.1095150E+00
         21   -1    0    0  503  502  0.00000000000E+00  0.00000000000E+00  0.54153128799E+03  0.54153128799E+03  0.00000000000E+00 0. -1.
         21   -1    0    0  501  503 -0.00000000000E+00 -0.00000000000E+00 -0.29027024856E+03  0.29027024856E+03  0.00000000000E+00 0.  1.
          6    2    1    2  501    0 -0.22263936552E+03  0.16191101880E+02 -0.16815732776E+03  0.32681845449E+03  0.16941952795E+03 0.  0.
         24    2    3    3    0    0 -0.17057828631E+03  0.73111523715E+02 -0.10912716974E+03  0.22957165533E+03  0.79700433460E+02 0.  0.
         -6    2    1    2    0  502  0.22263936552E+03 -0.16191101880E+02  0.41941836719E+03  0.50498308206E+03  0.17107222910E+03 0.  0.
        -24    2    5    5    0    0  0.15518675236E+03 -0.19472582249E+02  0.39634726424E+03  0.43346393128E+03  0.79609775071E+02 0.  0.
          5    1    3    3  501    0 -0.52061079213E+02 -0.56920421835E+02 -0.59030158018E+02  0.97246799157E+02  0.47000000000E+01 0. -1.
        -11    1    4    4    0    0 -0.10830180324E+03  0.10925266837E+02 -0.85586835422E+02  0.13846930504E+03  0.00000000000E+00 0.  1.
         12    1    4    4    0    0 -0.62276483069E+02  0.62186256878E+02 -0.23540334318E+02  0.91102350287E+02  0.00000000000E+00 0. -1.
         -5    1    5    5    0  502  0.67452613168E+02  0.32814803691E+01  0.23071102953E+02  0.71519150778E+02  0.47000000000E+01 0.  1.
         13    1    6    6    0    0  0.11276028280E+03  0.16574057349E+02  0.20944720271E+03  0.23844855101E+03  0.00000000000E+00 0. -1.
        -14    1    6    6    0    0  0.42426469562E+02 -0.36046639598E+02  0.18690006152E+03  0.19501538027E+03  0.00000000000E+00 0.  1.
</event>
<event>
12    1  0.8258923E-002  0.1714041E+03  0.7818608E-02  0.1176393E+00
         21   -1    0    0  501  502  0.00000000000E+00  0.00000000000E+00  0.25196118188E+03  0.25196118188E+03  0.00000000000E+00 0. -1.
         21   -1    0    0  502  503 -0.00000000000E+00 -0.00000000000E+00 -0.40836036095E+03  0.40836036095E+03  0.00000000000E+00 0. -1.
         -6    2    1    2    0  503  0.11551469044E+02  0.35576505801E+01 -0.35727246511E+03  0.39625818208E+03  0.17097028754E+03 0.  0.
        -24    2    3    3    0    0 -0.27308404721E+02 -0.53446952734E+02 -0.24639613318E+03  0.26558582245E+03  0.78882500691E+02 0.  0.
          6    2    1    2  501    0 -0.11551469044E+02 -0.35576505801E+01  0.20087328604E+03  0.26406336075E+03  0.17097744919E+03 0.  0.
         24    2    5    5    0    0  0.46365449392E+02  0.15459313635E+02  0.17263876633E+03  0.19671878062E+03  0.80655996277E+02 0.  0.
          5    1    5    5  501    0 -0.57916918435E+02 -0.19016964215E+02  0.28234519712E+02  0.67344580126E+02  0.47000000000E+01 0. -1.
        -13    1    6    6    0    0  0.59421585051E+02  0.20472268375E+02  0.73974987584E+02  0.97068724780E+02  0.00000000000E+00 0.  1.
         14    1    6    6    0    0 -0.13056135659E+02 -0.50129547401E+01  0.98663778745E+02  0.99650055844E+02  0.00000000000E+00 0. -1.
         -5    1    3    3    0  503  0.38859873764E+02  0.57004603314E+02 -0.11087633193E+03  0.13067235963E+03  0.47000000000E+01 0.  1.
         13    1    4    4    0    0 -0.13876822124E+01 -0.46612715859E+01 -0.17615833164E+03  0.17622545480E+03  0.00000000000E+00 0. -1.
        -14    1    4    4    0    0 -0.25920722508E+02 -0.48785681149E+02 -0.70237801535E+02  0.89360367641E+02  0.00000000000E+00 0.  1.
</event>
<event>
12    1  0.8258923E-002  0.2189779E+03  0.7818608E-02  0.1134651E+00
         21   -1    0    0  503  502  0.00000000000E+00  0.00000000000E+00  0.32263899246E+03  0.32263899246E+03  0.00000000000E+00 0. -1.
         21   -1    0    0  501  503 -0.00000000000E+00 -0.00000000000E+00 -0.25595211207E+03  0.25595211207E+03  0.00000000000E+00 0. -1.
          6    2    1    2  501    0  0.68556993987E+01 -0.13484593772E+03 -0.15400681803E+03  0.26769393515E+03  0.17237028567E+03 0.  0.
         24    2    3    3    0    0 -0.39346182733E+02 -0.20450407185E+02 -0.57478226823E+02  0.11097504593E+03  0.83936720275E+02 0.  0.
         -6    2    1    2    0  502 -0.68556993987E+01  0.13484593772E+03  0.22069369842E+03  0.31089716938E+03  0.17239754601E+03 0.  0.
        -24    2    5    5    0    0  0.45743675188E+02  0.12676757968E+03  0.12213017303E+03  0.19878645351E+03  0.80235726807E+02 0.  0.
          5    1    3    3  501    0  0.46201882131E+02 -0.11439553053E+03 -0.96528591207E+02  0.15671888922E+03  0.47000000000E+01 0. -1.
        -11    1    4    4    0    0 -0.49804713602E+02 -0.97614275630E+01 -0.73331589398E+02  0.89181371198E+02  0.00000000000E+00 0.  1.
         12    1    4    4    0    0  0.10458530870E+02 -0.10688979622E+02  0.15853362576E+02  0.21793674731E+02  0.00000000000E+00 0. -1.
         -5    1    5    5    0  502 -0.52599374586E+02  0.80783580399E+01  0.98563525388E+02  0.11211071587E+03  0.47000000000E+01 0.  1.
         13    1    6    6    0    0  0.50019723318E+02  0.29367469739E+02  0.58402636517E+02  0.82312143404E+02  0.00000000000E+00 0. -1.
        -14    1    6    6    0    0 -0.42760481299E+01  0.97400109941E+02  0.63727536515E+02  0.11647431011E+03  0.00000000000E+00 0.  1.
</event>
<event>
12    1  0.8258923E-002  0.1774709E+03  0.7818608E-02  0.1170434E+00
         21   -1    0    0  501  502  0.00000000000E+00  0.00000000000E+00  0.31661806596E+03  0.31661806596E+03  0.00000000000E+00 0.  1.
         21   -1    0    0  502  503 -0.00000000000E+00 -0.00000000000E+00 -0.99122008086E+02  0.99122008086E+02  0.00000000000E+00 0.  1.
         -6    2    1    2    0  503 -0.12232098914E+02 -0.37835039243E+02  0.11109092430E+03  0.20937312434E+03  0.17295894685E+03 0.  0.
        -24    2    3    3    0    0  0.23718535881E+02 -0.52082202319E+02  0.69684142643E+01  0.98202008960E+02  0.79498119624E+02 0.  0.
          6    2    1    2  501    0  0.12232098914E+02  0.37835039243E+02  0.10640513358E+03  0.20636694971E+03  0.17229089077E+03 0.  0.
         24    2    5    5    0    0  0.33008813181E+02 -0.30046455446E+02  0.97862483485E+02  0.13471057493E+03  0.81101800784E+02 0.  0.
          5    1    5    5  501    0 -0.20776714266E+02  0.67881494689E+02  0.85426500911E+01  0.71656374786E+02  0.47000000000E+01 0. -1.
        -13    1    6    6    0    0 -0.34003368289E+01  0.12536796357E+02 -0.77724996606E+01  0.15137546183E+02  0.00000000000E+00 0.  1.
         14    1    6    6    0    0  0.36409150009E+02 -0.42583251803E+02  0.10563498315E+03  0.11957302874E+03  0.00000000000E+00 0. -1.
         -5    1    3    3    0  503 -0.35950634795E+02  0.14247163075E+02  0.10412251003E+03  0.11117111538E+03  0.47000000000E+01 0.  1.
         13    1    4    4    0    0 -0.16354317069E+02  0.12042932786E+02  0.97611378904E+01  0.22533879599E+02  0.00000000000E+00 0. -1.
        -14    1    4    4    0    0  0.40072852950E+02 -0.64125135105E+02 -0.27927236261E+01  0.75668129361E+02  0.00000000000E+00 0.  1.
</event>
<event>
12    1  0.8258923E-002  0.2203909E+03  0.7818608E-02  0.1133662E+00
         21   -1    0    0  501  502  0.00000000000E+00  0.00000000000E+00  0.15311735282E+03  0.15311735282E+03  0.00000000000E+00 0.  1.
         21   -1    0    0  502  503 -0.00000000000E+00 -0.00000000000E+00 -0.32148222302E+03  0.32148222302E+03  0.00000000000E+00 0.  1.
         -6    2    1    2    0  503 -0.53132047659E+02  0.12665340228E+03 -0.11325779755E+03  0.24778914492E+03  0.17236018345E+03 0.  0.
        -24    2    3    3    0    0 -0.50840460035E+02  0.80671646007E+02 -0.14553656451E+03  0.19136590433E+03  0.79670263487E+02 0.  0.
          6    2    1    2  501    0  0.53132047659E+02 -0.12665340228E+03 -0.55107072649E+02  0.22681043092E+03  0.17187810599E+03 0.  0.
         24    2    5    5    0    0  0.10394320336E+03 -0.85613424491E+02 -0.39992859393E+02  0.15960490463E+03  0.75765749529E+02 0.  0.
          5    1    5    5  501    0 -0.50811155705E+02 -0.41039977785E+02 -0.15114213256E+02  0.67205526283E+02  0.47000000000E+01 0. -1.
        -13    1    6    6    0    0  0.27584372125E+02 -0.14674444114E+02 -0.45544169555E+02  0.55231406609E+02  0.00000000000E+00 0.  1.
         14    1    6    6    0    0  0.76358831239E+02 -0.70938980376E+02  0.55513101626E+01  0.10437349802E+03  0.00000000000E+00 0. -1.
         -5    1    3    3    0  503 -0.22915876232E+01  0.45981756268E+02  0.32278766953E+02  0.56423240595E+02  0.47000000000E+01 0.  1.
         13    1    4    4    0    0 -0.36071557066E+02 -0.20548266287E+01 -0.23164463768E+02  0.42918200374E+02  0.00000000000E+00 0. -1.
        -14    1    4    4    0    0 -0.14768902969E+02  0.82726472636E+02 -0.12237210074E+03  0.14844770395E+03  0.00000000000E+00 0.  1.
</event>
<event>
12    1  0.8258923E-002  0.2460049E+03  0.7818608E-02  0.1115861E+00
         21   -1    0    0  503  502  0.00000000000E+00  0.00000000000E+00  0.98730029984E+03  0.98730029984E+03  0.00000000000E+00 0.  1.
         21   -1    0    0  501  503 -0.00000000000E+00 -0.00000000000E+00 -0.10313616762E+03  0.10313616762E+03  0.00000000000E+00 0.  1.
          6    2    1    2  501    0  0.27147292088E+02 -0.17356534476E+03  0.94773961361E+02  0.26360198651E+03  0.17216851968E+03 0.  0.
         24    2    3    3    0    0  0.68777319952E+01 -0.73766841367E+02 -0.21659386316E+02  0.10884601474E+03  0.76742920373E+02 0.  0.
         -6    2    1    2    0  502 -0.27147292088E+02  0.17356534476E+03  0.78939017085E+03  0.82683448095E+03  0.17221066368E+03 0.  0.
        -24    2    5    5    0    0  0.23090855430E+02  0.53270593299E+02  0.49362706580E+03  0.50358132474E+03  0.80966207871E+02 0.  0.
          5    1    3    3  501    0  0.20269560093E+02 -0.99798503390E+02  0.11643334768E+03  0.15475597176E+03  0.47000000000E+01 0. -1.
        -13    1    4    4    0    0 -0.24888358331E+02 -0.67435373440E+02 -0.40921608786E+01  0.71997956582E+02  0.00000000000E+00 0.  1.
         14    1    4    4    0    0  0.31766090326E+02 -0.63314679275E+01 -0.17567225437E+02  0.36848058162E+02  0.00000000000E+00 0. -1.
         -5    1    5    5    0  502 -0.50238147518E+02  0.12029475146E+03  0.29576310505E+03  0.32325315622E+03  0.47000000000E+01 0.  1.
         11    1    6    6    0    0  0.15429188570E+02  0.92271795774E+01  0.16617405672E+02  0.24481398533E+02  0.00000000000E+00 0. -1.
        -12    1    6    6    0    0  0.76616668604E+01  0.44043413721E+02  0.47700966013E+03  0.47909992620E+03  0.00000000000E+00 0.  1.
</event>
<event>
12    1  0.8258923E-002  0.2361290E+03  0.7818608E-02  0.1122483E+00
         21   -1    0    0  503  502  0.00000000000E+00  0.00000000000E+00  0.98646923647E+02  0.98646923647E+02  0.00000000000E+00 0.  1.
         21   -1    0    0  501  503 -0.00000000000E+00 -0.00000000000E+00 -0.12783132347E+04  0.12783132347E+04  0.00000000000E+00 0.  1.
          6    2    1    2  501    0  0.16079666861E+03  0.95210334120E+01 -0.11042044331E+04  0.11290662673E+04  0.17197961223E+03 0.  0.
         24    2    3    3    0    0  0.45189638203E+02  0.53085382951E+02 -0.63882872872E+03  0.64754838153E+03  0.79728291714E+02 0.  0.
         -6    2    1    2    0  502 -0.16079666861E+03 -0.95210334120E+01 -0.75461877979E+02  0.24789389114E+03  0.17265765990E+03 0.  0.
        -24    2    5    5    0    0 -0.12788138210E+03  0.29205540426E+02 -0.10876701632E+03  0.18694730922E+03  0.76892269481E+02 0.  0.
          5    1    3    3  501    0  0.11560703040E+03 -0.43564349539E+02 -0.46537570440E+03  0.48151788573E+03  0.47000000000E+01 0. -1.
        -11    1    4    4    0    0  0.40828179476E+02 -0.52792863969E+01 -0.37792383215E+03  0.38015948496E+03  0.00000000000E+00 0.  1.
         12    1    4    4    0    0  0.43614587273E+01  0.58364669347E+02 -0.26090489657E+03  0.26738889656E+03  0.00000000000E+00 0. -1.
         -5    1    5    5    0  502 -0.32915286505E+02 -0.38726573838E+02  0.33305138342E+02  0.60946581913E+02  0.47000000000E+01 0.  1.
         11    1    6    6    0    0  0.68440624463E+01  0.12530765274E+02 -0.20640935402E+02  0.25097997597E+02  0.00000000000E+00 0. -1.
        -12    1    6    6    0    0 -0.13472544455E+03  0.16674775151E+02 -0.88126080920E+02  0.16184931163E+03  0.00000000000E+00 0.  1.
</event>
<event>
12    1  0.8258923E-002  0.2979803E+03  0.7818608E-02  0.1086260E+00
         21   -1    0    0  503  502  0.00000000000E+00  0.00000000000E+00  0.12127116997E+04  0.12127116997E+04  0.00000000000E+00 0.  1.
         21   -1    0    0  501  503 -0.00000000000E+00 -0.00000000000E+00 -0.13769336016E+03  0.13769336016E+03  0.00000000000E+00 0. -1.
          6    2    1    2  501    0 -0.92051308694E+02 -0.22497476202E+03  0.99959753063E+03  0.10430663868E+04  0.17235189909E+03 0.  0.
         24    2    3    3    0    0 -0.90434858523E+02 -0.24718091373E+03  0.93051227884E+03  0.97032995786E+03  0.80064088721E+02 0.  0.
         -6    2    1    2    0  502  0.92051308694E+02  0.22497476202E+03  0.75420808937E+02  0.30733867306E+03  0.17228370369E+03 0.  0.
        -24    2    5    5    0    0 -0.17076801293E+02  0.90803560587E+02  0.49843297010E+02  0.13244683563E+03  0.80752128475E+02 0.  0.
          5    1    3    3  501    0 -0.16164501711E+01  0.22206151704E+02  0.69085251795E+02  0.72736428976E+02  0.47000000000E+01 0. -1.
        -13    1    4    4    0    0 -0.49290678911E+02 -0.39175781115E+02  0.20147825445E+03  0.21108718547E+03  0.00000000000E+00 0.  1.
         14    1    4    4    0    0 -0.41144179612E+02 -0.20800513261E+03  0.72903402438E+03  0.75924277238E+03  0.00000000000E+00 0. -1.
         -5    1    5    5    0  502  0.10912810999E+03  0.13417120144E+03  0.25577511927E+02  0.17489183743E+03  0.47000000000E+01 0.  1.
         11    1    6    6    0    0 -0.18811078198E+02 -0.32574828913E+01 -0.93901433561E+01  0.21275400114E+02  0.00000000000E+00 0. -1.
        -12    1    6    6    0    0  0.17342769053E+01  0.94061043478E+02  0.59233440366E+02  0.11117143551E+03  0.00000000000E+00 0.  1.
</event>
<event>
12    1  0.8258923E-002  0.1813385E+03  0.7818608E-02  0.1166770E+00
         21   -1    0    0  503  502  0.00000000000E+00  0.00000000000E+00  0.88433129591E+02  0.88433129591E+02  0.00000000000E+00 0.  1.
         21   -1    0    0  501  503 -0.00000000000E+00 -0.00000000000E+00 -0.37818165079E+03  0.37818165079E+03  0.00000000000E+00 0.  1.
          6    2    1    2  501    0 -0.55002067077E+02  0.63145512542E+00 -0.17946828556E+03  0.25437583943E+03  0.17167578760E+03 0.  0.
         24    2    3    3    0    0 -0.87523450653E+01  0.40803016505E+02 -0.36793487957E+02  0.99034347873E+02  0.81930162959E+02 0.  0.
         -6    2    1    2    0  502  0.55002067077E+02 -0.63145512542E+00 -0.11028023564E+03  0.21223894095E+03  0.17279470930E+03 0.  0.
        -24    2    5    5    0    0  0.19941191337E+02  0.27578899040E+02  0.43118051165E+01  0.89037825309E+02  0.82163835646E+02 0.  0.
          5    1    3    3  501    0 -0.46249722012E+02 -0.40171561380E+02 -0.14267479760E+03  0.15534149156E+03  0.47000000000E+01 0. -1.
        -11    1    4    4    0    0  0.84127892573E+01  0.50710382487E+02 -0.52702588868E+02  0.73619839639E+02  0.00000000000E+00 0.  1.
         12    1    4    4    0    0 -0.17165134323E+02 -0.99073659816E+01  0.15909100911E+02  0.25414508234E+02  0.00000000000E+00 0. -1.
         -5    1    5    5    0  502  0.35060875740E+02 -0.28210354165E+02 -0.11459204076E+03  0.12320111564E+03  0.47000000000E+01 0.  1.
         11    1    6    6    0    0  0.13139790805E+02  0.56801881722E+02 -0.21676054030E+01  0.58342149282E+02  0.00000000000E+00 0. -1.
        -12    1    6    6    0    0  0.68014005316E+01 -0.29222982683E+02  0.64794105195E+01  0.30695676027E+02  0.00000000000E+00 0.  1.
</event>
<event>
12    1  0.8258923E-002  0.1997607E+03  0.7818608E-02  0.1150216E+00
         21   -1    0    0  501  502  0.00000000000E+00  0.00000000000E+00  0.49443333491E+02  0.49443333491E+02  0.00000000000E+00 0. -1.
         21   -1    0    0  502  503 -0.00000000000E+00 -0.00000000000E+00 -0.89364206218E+03  0.89364206218E+03  0.00000000000E+00 0.  1.
         -6    2    1    2    0  503  0.96635786659E+01  0.94757400734E+02 -0.57446281079E+03  0.60820379102E+03  0.17559037754E+03 0.  0.
        -24    2    3    3    0    0  0.47096076611E+02  0.23315041324E+02 -0.16113588054E+03  0.18705483413E+03  0.79139796497E+02 0.  0.
          6    2    1    2  501    0 -0.96635786659E+01 -0.94757400734E+02 -0.26973591791E+03  0.33488160466E+03  0.17411454271E+03 0.  0.
         24    2    5    5    0    0  0.37394058031E+02 -0.91158102601E+01 -0.18421959103E+03  0.20494302166E+03  0.81137974049E+02 0.  0.
          5    1    5    5  501    0 -0.47057636697E+02 -0.85641590474E+02 -0.85516326874E+02  0.12993858300E+03  0.47000000000E+01 0. -1.
        -13    1    6    6    0    0  0.98018142173E+01 -0.23240633402E+02 -0.86605779987E+01  0.26668487287E+02  0.00000000000E+00 0.  1.
         14    1    6    6    0    0  0.27592243814E+02  0.14124823142E+02 -0.17555901303E+03  0.17827453437E+03  0.00000000000E+00 0. -1.
         -5    1    3    3    0  503 -0.37432497945E+02  0.71442359411E+02 -0.41332693024E+03  0.42114895688E+03  0.47000000000E+01 0.  1.
         11    1    4    4    0    0  0.62041804094E+02  0.31678515271E+02 -0.15296198718E+03  0.16807761096E+03  0.00000000000E+00 0. -1.
        -12    1    4    4    0    0 -0.14945727484E+02 -0.83634739475E+01 -0.81738933648E+01  0.18977223170E+02  0.00000000000E+00 0.  1.
</event>
<event>
12    1  0.8258923E-002  0.2400163E+03  0.7818608E-02  0.1119961E+00
         21   -1    0    0  503  502  0.00000000000E+00  0.00000000000E+00  0.60441132710E+02  0.60441132710E+02  0.00000000000E+00 0.  1.
         21   -1    0    0  501  503 -0.00000000000E+00 -0.00000000000E+00 -0.13200470148E+04  0.13200470148E+04  0.00000000000E+00 0. -1.
          6    2    1    2  501    0  0.16389193435E+03  0.35379539233E+02 -0.99683632422E+03  0.10253245657E+04  0.17174262640E+03 0.  0.
         24    2    3    3    0    0  0.22435255848E+02  0.48923598636E+02 -0.37923399733E+03  0.39156739006E+03  0.81300289205E+02 0.  0.
         -6    2    1    2    0  502 -0.16389193435E+03 -0.35379539233E+02 -0.26276955784E+03  0.35516358182E+03  0.17023821951E+03 0.  0.
        -24    2    5    5    0    0 -0.27142455254E+02  0.25782989052E+02 -0.11408262056E+03  0.14404472852E+03  0.79577409484E+02 0.  0.
          5    1    3    3  501    0  0.14145667850E+03 -0.13544059403E+02 -0.61760232690E+03  0.63375717560E+03  0.47000000000E+01 0. -1.
        -13    1    4    4    0    0  0.19392712187E+02  0.63516100596E+02 -0.36487719396E+03  0.37087159367E+03  0.00000000000E+00 0.  1.
         14    1    4    4    0    0  0.30425436609E+01 -0.14592501960E+02 -0.14356803366E+02  0.20695796391E+02  0.00000000000E+00 0. -1.
         -5    1    5    5    0  502 -0.13674947909E+03 -0.61162528285E+02 -0.14868693728E+03  0.21111885329E+03  0.47000000000E+01 0.  1.
         11    1    6    6    0    0 -0.45086227550E+02  0.33841889210E+02 -0.11050165417E+03  0.12405102561E+03  0.00000000000E+00 0. -1.
        -12    1    6    6    0    0  0.17943772296E+02 -0.80589001577E+01 -0.35809663863E+01  0.19993702914E+02  0.00000000000E+00 0.  1.
</event>
<event>
12    1  0.8258923E-002  0.1825178E+03  0.7818608E-02  0.1166550E+00
         21   -1    0    0  501  502  0.00000000000E+00  0.00000000000E+00  0.36178625503E+03  0.36178625503E+03  0.00000000000E+00 0. -1.
         21   -1    0    0  502  503 -0.00000000000E+00 -0.00000000000E+00 -0.17003506526E+03  0.17003506526E+03  0.00000000000E+00 0. -1.
         -6    2    1    2    0  503  0.11716331943E+02  0.60646430677E+02 -0.86256358126E+02  0.20187345169E+03  0.17174827275E+03 0.  0.
        -24    2    3    3    0    0  0.67536644136E+02  0.13592628458E+02 -0.73010537445E+02  0.12752623034E+03  0.78653944581E+02 0.  0.
          6    2    1    2  501    0 -0.11716331943E+02 -0.60646430677E+02  0.27800754790E+03  0.32994786860E+03  0.16661973867E+03 0.  0.
         24    2    5    5    0    0 -0.65667837190E+02 -0.64527109111E+02  0.16902312565E+03  0.20818778122E+03  0.79355671476E+02 0.  0.
          5    1    5    5  501    0  0.53951505247E+02  0.38806784343E+01  0.10898442225E+03  0.12176008737E+03  0.47000000000E+01 0. -1.
        -13    1    6    6    0    0 -0.71165724260E+02 -0.28731084331E+02  0.14692662099E+03  0.16576328747E+03  0.00000000000E+00 0.  1.
         14    1    6    6    0    0  0.54978870698E+01 -0.35796024780E+02  0.22096504655E+02  0.42424493754E+02  0.00000000000E+00 0. -1.
         -5    1    3    3    0  503 -0.55820312193E+02  0.47053802219E+02 -0.13245820681E+02  0.74347221347E+02  0.47000000000E+01 0.  1.
         11    1    4    4    0    0  0.17002924987E+02 -0.27859698860E+02 -0.46910124777E+02  0.57147371639E+02  0.00000000000E+00 0. -1.
        -12    1    4    4    0    0  0.50533719149E+02  0.41452327318E+02 -0.26100412668E+02  0.70378858704E+02  0.00000000000E+00 0.  1.
</event>
<event>
12    1  0.8258923E-002  0.2112819E+03  0.7818608E-02  0.1141757E+00
         21   -1    0    0  501  502  0.00000000000E+00  0.00000000000E+00  0.81402024727E+02  0.81402024727E+02  0.00000000000E+00 0. -1.
         21   -1    0    0  502  503 -0.00000000000E+00 -0.00000000000E+00 -0.10610194221E+04  0.10610194221E+04  0.00000000000E+00 0.  1.
         -6    2    1    2    0  503  0.91728214109E+02  0.71657334973E+02 -0.88923926736E+03  0.91262095155E+03  0.16906119506E+03 0.  0.
        -24    2    3    3    0    0  0.40220695156E+02  0.65352002760E+02 -0.26765647831E+03  0.28885814778E+03  0.76879454825E+02 0.  0.
          6    2    1    2  501    0 -0.91728214109E+02 -0.71657334973E+02 -0.90378130011E+02  0.22980049528E+03  0.17632703232E+03 0.  0.
         24    2    5    5    0    0 -0.95836299288E+02  0.98339539684E+01 -0.71411327178E+02  0.14589855163E+03  0.83099379104E+02 0.  0.
          5    1    5    5  501    0  0.41080851794E+01 -0.81491288942E+02 -0.18966802833E+02  0.83901943642E+02  0.47000000000E+01 0. -1.
        -13    1    6    6    0    0 -0.53947732586E+02  0.44042720107E+02 -0.23081384587E+02  0.73368040454E+02  0.00000000000E+00 0.  1.
         14    1    6    6    0    0 -0.41888566702E+02 -0.34208766139E+02 -0.48329942590E+02  0.72530511179E+02  0.00000000000E+00 0. -1.
         -5    1    3    3    0  503  0.51507518953E+02  0.63053322137E+01 -0.62158278905E+03  0.62376280377E+03  0.47000000000E+01 0.  1.
         11    1    4    4    0    0  0.41018076095E+02  0.18597062563E+02 -0.54831602062E+02  0.70956591569E+02  0.00000000000E+00 0. -1.
        -12    1    4    4    0    0 -0.79738093899E+00  0.46754940196E+02 -0.21282487624E+03  0.21790155621E+03  0.00000000000E+00 0.  1.
</event>
<event>
12    1  0.8258923E-002  0.2547432E+03  0.7818608E-02  0.1110638E+00
         21   -1    0    0  501  502  0.00000000000E+00  0.00000000000E+00  0.24395518106E+04  0.24395518106E+04  0.00000000000E+00 0.  1.
         21   -1    0    0  502  503 -0.00000000000E+00 -0.00000000000E+00 -0.52865703594E+02  0.52865703594E+02  0.00000000000E+00 0. -1.
         -6    2    1    2    0  503  0.16819861477E+03 -0.79875455702E+02  0.31387139922E+03  0.40423919622E+03  0.17384823862E+03 0.  0.
        -24    2    3    3    0    0  0.18423443969E+03 -0.96558209724E+02  0.30755649992E+03  0.37979681672E+03  0.79929998822E+02 0.  0.
          6    2    1    2  501    0 -0.16819861477E+03  0.79875455702E+02  0.20728147077E+04  0.20881783179E+04  0.17104681357E+03 0.  0.
         24    2    5    5    0    0 -0.96264505110E+02 -0.21505938633E+02  0.11520154546E+04  0.11590141463E+04  0.80279657228E+02 0.  0.
          5    1    5    5  501    0 -0.71934109664E+02  0.10138139433E+03  0.92079925319E+03  0.92916417168E+03  0.47000000000E+01 0. -1.
        -13    1    6    6    0    0 -0.89061985222E+02  0.25646067383E+01  0.10564676389E+04  0.10602181316E+04  0.00000000000E+00 0.  1.
         14    1    6    6    0    0 -0.72025198879E+01 -0.24070545371E+02  0.95547815640E+02  0.98796014701E+02  0.00000000000E+00 0. -1.
         -5    1    3    3    0  503 -0.16035824915E+02  0.16682754022E+02  0.63148993027E+01  0.24442379501E+02  0.47000000000E+01 0.  1.
         11    1    4    4    0    0  0.10247305435E+03 -0.91845041668E+01  0.15182086827E+03  0.18339754095E+03  0.00000000000E+00 0. -1.
        -12    1    4    4    0    0  0.81761385337E+02 -0.87373705557E+02  0.15573563165E+03  0.19639927576E+03  0.00000000000E+00 0.  1.
</event>
<event>
12    1  0.8258923E-002  0.2479236E+03  0.7818608E-02  0.1114652E+00
         21   -1    0    0  501  502  0.00000000000E+00  0.00000000000E+00  0.13395669236E+04  0.13395669236E+04  0.00000000000E+00 0. -1.
         21   -1    0    0  502  503 -0.00000000000E+00 -0.00000000000E+00 -0.87824914745E+02  0.87824914745E+02  0.00000000000E+00 0. -1.
         -6    2    1    2    0  503  0.17727485265E+03 -0.62235302365E+00  0.13260144057E+03  0.28115701031E+03  0.17331867094E+03 0.  0.
        -24    2    3    3    0    0  0.19704409809E+03 -0.15352249756E+02  0.88323438590E+02  0.23026079844E+03  0.78466154052E+02 0.  0.
          6    2    1    2  501    0 -0.17727485265E+03  0.62235302365E+00  0.11191405682E+04  0.11462348280E+04  0.17306619749E+03 0.  0.
         24    2    5    5    0    0 -0.22117077878E+02  0.32507117031E+02  0.37113500898E+03  0.38162709854E+03  0.79700499747E+02 0.  0.
          5    1    5    5  501    0 -0.15515777477E+03 -0.31884764008E+02  0.74800555926E+03  0.76460772945E+03  0.47000000000E+01 0. -1.
        -13    1    6    6    0    0 -0.40844347984E+02  0.48927388177E+02  0.25410937476E+03  0.26198038937E+03  0.00000000000E+00 0.  1.
         14    1    6    6    0    0  0.18727270105E+02 -0.16420271146E+02  0.11702563422E+03  0.11964670917E+03  0.00000000000E+00 0. -1.
         -5    1    3    3    0  503 -0.19769245435E+02  0.14729896732E+02  0.44278001977E+02  0.50896211862E+02  0.47000000000E+01 0.  1.
         13    1    4    4    0    0  0.66986823992E+02 -0.42192660004E+02  0.24141697834E+02  0.82766398502E+02  0.00000000000E+00 0. -1.
        -14    1    4    4    0    0  0.13005727410E+03  0.26840410248E+02  0.64181740757E+02  0.14749439994E+03  0.00000000000E+00 0.  1.
</event>
<event>
12    1  0.8258923E-002  0.2518044E+03  0.7818608E-02  0.1112349E+00
         21   -1    0    0  501  502  0.00000000000E+00  0.00000000000E+00  0.23877427334E+03  0.23877427334E+03  0.00000000000E+00 0. -1.
         21   -1    0    0  502  503 -0.00000000000E+00 -0.00000000000E+00 -0.33246001368E+03  0.33246001368E+03  0.00000000000E+00 0.  1.
         -6    2    1    2    0  503  0.17272319122E+03  0.59884198050E+02 -0.17604208606E+03  0.30630405045E+03  0.17149908831E+03 0.  0.
        -24    2    3    3    0    0  0.19644589786E+03  0.70700496810E+02 -0.15016774757E+03  0.26927257030E+03  0.79798581881E+02 0.  0.
          6    2    1    2  501    0 -0.17272319122E+03 -0.59884198050E+02  0.82356345727E+02  0.26493023657E+03  0.17316479032E+03 0.  0.
         24    2    5    5    0    0 -0.82275284038E+02  0.23013694237E+02  0.17870706098E+01  0.11807526542E+03  0.81484490523E+02 0.  0.
          5    1    5    5  501    0 -0.90447907187E+02 -0.82897892287E+02  0.80569275117E+02  0.14685497116E+03  0.47000000000E+01 0. -1.
        -13    1    6    6    0    0 -0.96949608378E+02  0.99401258533E+01  0.71009616919E+01  0.97716202973E+02  0.00000000000E+00 0.  1.
         14    1    6    6    0    0  0.14674324340E+02  0.13073568384E+02 -0.53138910820E+01  0.20359062443E+02  0.00000000000E+00 0. -1.
         -5    1    3    3    0  503 -0.23722706639E+02 -0.10816298760E+02 -0.25874338495E+02  0.37031480145E+02  0.47000000000E+01 0.  1.
         13    1    4    4    0    0  0.94182674486E+02  0.73432895052E+02 -0.63860266817E+02  0.13542857869E+03  0.00000000000E+00 0. -1.
        -14    1    4    4    0    0  0.10226322338E+03 -0.27323982421E+01 -0.86307480751E+02  0.13384399161E+03  0.00000000000E+00 0.  1.
</event>
<event>
12    1  0.8258923E-002  0.2435086E+03  0.7818608E-02  0.1117499E+00
         21   -1    0    0  501  502  0.00000000000E+00  0.00000000000E+00  0.16017419707E+04  0.16017419707E+04  0.00000000000E+00 0.  1.
         21   -1    0    0  502  503 -0.00000000000E+00 -0.00000000000E+00 -0.40362568614E+02  0.40362568614E+02  0.00000000000E+00 0. -1.
         -6    2    1    2    0  503 -0.13942324702E+03  0.10120706460E+03  0.54350312871E+03  0.59550597900E+03  0.17190115875E+03 0.  0.
        -24    2    3    3    0    0 -0.11400409974E+03  0.10479196580E+03  0.27283992559E+03  0.32358752783E+03  0.79303041042E+02 0.  0.
          6    2    1    2  501    0  0.13942324702E+03 -0.10120706460E+03  0.10178762734E+04  0.10465985603E+04  0.17208929893E+03 0.  0.
         24    2    5    5    0    0  0.58229624025E+02 -0.12330696109E+03  0.67359611823E+03  0.69215290148E+03  0.82149940700E+02 0.  0.
          5    1    5    5  501    0  0.81193622994E+02  0.22099896491E+02  0.34428015514E+03  0.35444565883E+03  0.47000000000E+01 0. -1.
        -11    1    6    6    0    0 -0.21115034311E+02 -0.29351714947E+02  0.14498082212E+03  0.14942157350E+03  0.00000000000E+00 0.  1.
         12    1    6    6    0    0  0.79344658336E+02 -0.93955246140E+02  0.52861529611E+03  0.54273132798E+03  0.00000000000E+00 0. -1.
         -5    1    3    3    0  503 -0.25419147280E+02 -0.35849012072E+01  0.27066320312E+03  0.27191845117E+03  0.47000000000E+01 0.  1.
         13    1    4    4    0    0 -0.55393026158E+02  0.27328521235E+02  0.17557738046E+03  0.18612536622E+03  0.00000000000E+00 0. -1.
        -14    1    4    4    0    0 -0.58611073581E+02  0.77463444569E+02  0.97262545123E+02  0.13746216161E+03  0.00000000000E+00 0.  1.
</event>
<event>
12    1  0.8258923E-002  0.2706989E+03  0.7818608E-02  0.1101000E+00
         21   -1    0    0  503  502  0.00000000000E+00  0.00000000000E+00  0.91177687061E+02  0.91177687061E+02  0.00000000000E+00 0. -1.
         21   -1    0    0  501  503 -0.00000000000E+00 -0.00000000000E+00 -0.10771120800E+04  0.10771120800E+04  0.00000000000E+00 0.  1.
          6    2    1    2  501    0 -0.20325215363E+03 -0.42761140793E+02 -0.78918143335E+03  0.83431723518E+03  0.17360288321E+03 0.  0.
         24    2    3    3    0    0 -0.22791817899E+03 -0.43816036265E+02 -0.71741566920E+03  0.75827816289E+03  0.80212147113E+02 0.  0.
         -6    2    1    2    0  502  0.20325215363E+03  0.42761140793E+02 -0.19675295963E+03  0.33397253192E+03  0.17229617476E+03 0.  0.
        -24    2    5    5    0    0  0.14698465863E+03  0.74480626263E+00 -0.58122106222E+02  0.17849903940E+03  0.82937827460E+02 0.  0.
          5    1    3    3  501    0  0.24666025363E+02  0.10548954714E+01 -0.71765764148E+02  0.76039072295E+02  0.47000000000E+01 0. -1.
        -13    1    4    4    0    0 -0.15698485122E+03 -0.64418882602E+02 -0.54209709422E+03  0.56803459006E+03  0.00000000000E+00 0.  1.
         14    1    4    4    0    0 -0.70933327775E+02  0.20602846338E+02 -0.17531857498E+03  0.19024357282E+03  0.00000000000E+00 0. -1.
         -5    1    5    5    0  502  0.56267494997E+02  0.42016334530E+02 -0.13863085341E+03  0.15547349252E+03  0.47000000000E+01 0.  1.
         11    1    6    6    0    0  0.17077754281E+02  0.47625549606E+01  0.20103592220E+02  0.26804589927E+02  0.00000000000E+00 0. -1.
        -12    1    6    6    0    0  0.12990690435E+03 -0.40177486980E+01 -0.78225698442E+02  0.15169444947E+03  0.00000000000E+00 0.  1.
</event>
<event>
12    1  0.8258923E-002  0.1941818E+03  0.7818608E-02  0.1155303E+00
         21   -1    0    0  503  502  0.00000000000E+00  0.00000000000E+00  0.77387800545E+03  0.77387800545E+03  0.00000000000E+00 0.  1.
         21   -1    0    0  501  503 -0.00000000000E+00 -0.00000000000E+00 -0.51678322895E+02  0.51678322895E+02  0.00000000000E+00 0.  1.
          6    2    1    2  501    0  0.83812262664E+02 -0.12472432385E+02  0.25010806348E+03  0.31508884435E+03  0.17189205762E+03 0.  0.
         24    2    3    3    0    0  0.10539441851E+02 -0.40042790073E+02  0.55939087002E+02  0.10567845225E+03  0.79525146614E+02 0.  0.
         -6    2    1    2    0  502 -0.83812262664E+02  0.12472432385E+02  0.47209161908E+03  0.51046748400E+03  0.17471834040E+03 0.  0.
        -24    2    5    5    0    0  0.14645835124E+02  0.32493487258E+02  0.28254160128E+03  0.29588384319E+03  0.80294240157E+02 0.  0.
          5    1    3    3  501    0  0.73272820814E+02  0.27570357688E+02  0.19416897648E+03  0.20941039210E+03  0.47000000000E+01 0. -1.
        -13    1    4    4    0    0  0.28733980112E+02 -0.56060160682E+02  0.28728768718E+02  0.69236734331E+02  0.00000000000E+00 0.  1.
         14    1    4    4    0    0 -0.18194538261E+02  0.16017370609E+02  0.27210318284E+02  0.36441717919E+02  0.00000000000E+00 0. -1.
         -5    1    5    5    0  502 -0.98458097788E+02 -0.20021054873E+02  0.18955001779E+03  0.21458364081E+03  0.47000000000E+01 0.  1.
         11    1    6    6    0    0  0.33340565125E+02  0.43372802799E+02  0.11966125222E+03  0.13157358621E+03  0.00000000000E+00 0. -1.
        -12    1    6    6    0    0 -0.18694730001E+02 -0.10879315541E+02  0.16288034906E+03  0.16431025698E+03  0.00000000000E+00 0.  1.
</event>
<event>
12    1  0.8258923E-002  0.1955015E+03  0.7818608E-02  0.1153615E+00
         21   -1    0    0  501  502  0.00000000000E+00  0.00000000000E+00  0.44716754782E+03  0.44716754782E+03  0.00000000000E+00 0. -1.
         21   -1    0    0  502  503 -0.00000000000E+00 -0.00000000000E+00 -0.22522248693E+03  0.22522248693E+03  0.00000000000E+00 0. -1.
         -6    2    1    2    0  503  0.73101521816E+02 -0.54914944501E+02 -0.15388725194E+03  0.24880133781E+03  0.17280432796E+03 0.  0.
        -24    2    3    3    0    0  0.14018253040E+01 -0.86058320720E+02 -0.93523723522E+02  0.14992463719E+03  0.79515472045E+02 0.  0.
          6    2    1    2  501    0 -0.73101521816E+02  0.54914944501E+02  0.37583231284E+03  0.42358869695E+03  0.17267881510E+03 0.  0.
         24    2    5    5    0    0  0.61512719525E+01  0.47975716105E+01  0.27346012940E+03  0.28468257639E+03  0.78758314415E+02 0.  0.
          5    1    5    5  501    0 -0.79252793768E+02  0.50117372891E+02  0.10237218344E+03  0.13890612055E+03  0.47000000000E+01 0. -1.
        -13    1    6    6    0    0  0.17227166867E+02 -0.20618171255E+02  0.32658509431E+02  0.42290217574E+02  0.00000000000E+00 0.  1.
         14    1    6    6    0    0 -0.11075894914E+02  0.25415742866E+02  0.24080161997E+03  0.24239235882E+03  0.00000000000E+00 0. -1.
         -5    1    3    3    0  503  0.71699696512E+02  0.31143376218E+02 -0.60363528421E+02  0.98876700621E+02  0.47000000000E+01 0.  1.
         11    1    4    4    0    0  0.34146094897E+02 -0.46172580668E+02 -0.76351796865E+02  0.95537740641E+02  0.00000000000E+00 0. -1.
        -12    1    4    4    0    0 -0.32744269593E+02 -0.39885740052E+02 -0.17171926657E+02  0.54386896545E+02  0.00000000000E+00 0.  1.
</event>
<event>
12    1  0.8258923E-002  0.1837115E+03  0.7818608E-02  0.1165282E+00
         21   -1    0    0  501  502  0.00000000000E+00  0.00000000000E+00  0.99695386095E+03  0.99695386095E+03  0.00000000000E+00 0. -1.
         21   -1    0    0  502  503 -0.00000000000E+00 -0.00000000000E+00 -0.80953976914E+02  0.80953976914E+02  0.00000000000E+00 0. -1.
         -6    2    1    2    0  503  0.27196278837E+01  0.64461190552E+02  0.41286896098E+02  0.18411103669E+03  0.16742050226E+03 0.  0.
        -24    2    3    3    0    0 -0.61525026726E+02  0.47439223933E+02  0.92911528251E+01  0.11019932868E+03  0.77599984786E+02 0.  0.
          6    2    1    2  501    0 -0.27196278837E+01 -0.64461190552E+02  0.87471298793E+03  0.89379680117E+03  0.17200950283E+03 0.  0.
         24    2    5    5    0    0 -0.51169361608E+02 -0.65825997541E+02  0.76825091874E+03  0.77672630287E+03  0.78376717869E+02 0.  0.
          5    1    5    5  501    0  0.48449733724E+02  0.13648069887E+01  0.10646206919E+03  0.11707049830E+03  0.47000000000E+01 0. -1.
        -11    1    6    6    0    0 -0.55917467686E+01  0.69919563605E+00  0.16168051520E+01  0.58626415003E+01  0.00000000000E+00 0.  1.
         12    1    6    6    0    0 -0.45577614839E+02 -0.66525193177E+02  0.76663411359E+03  0.77086366137E+03  0.00000000000E+00 0. -1.
         -5    1    3    3    0  503  0.64244654609E+02  0.17021966619E+02  0.31995743273E+02  0.73911708011E+02  0.47000000000E+01 0.  1.
         13    1    4    4    0    0 -0.11474948799E+02  0.53396208923E+02  0.20897793120E+02  0.58476895733E+02  0.00000000000E+00 0. -1.
        -14    1    4    4    0    0 -0.50050077927E+02 -0.59569849895E+01 -0.11606640295E+02  0.51722432943E+02  0.00000000000E+00 0.  1.
</event>
<event>
12    1  0.8258923E-002  0.1718139E+03  0.7818608E-02  0.1180457E+00
         21   -1    0    0  501  502  0.00000000000E+00  0.00000000000E+00  0.78482389547E+02  0.78482389547E+02  0.00000000000E+00 0.  1.
         21   -1    0    0  502  503 -0.00000000000E+00 -0.00000000000E+00 -0.34333473319E+03  0.34333473319E+03  0.00000000000E+00 0.  1.
         -6    2    1    2    0  503 -0.24522075673E+02  0.56990603643E+01 -0.14385364487E+03  0.21167264509E+03  0.15322410403E+03 0.  0.
        -24    2    3    3    0    0 -0.39802570135E+02  0.52520692106E+02 -0.80054462073E+02  0.13093737130E+03  0.79957555087E+02 0.  0.
          6    2    1    2  501    0  0.24522075673E+02 -0.56990603643E+01 -0.12099869878E+03  0.21014447765E+03  0.16995942132E+03 0.  0.
         24    2    5    5    0    0  0.12733736283E+02  0.33369738835E+02 -0.13945368553E+03  0.16511101728E+03  0.80861796355E+02 0.  0.
          5    1    5    5  501    0  0.11788339390E+02 -0.39068799199E+02  0.18454986753E+02  0.45033460366E+02  0.47000000000E+01 0. -1.
        -11    1    6    6    0    0  0.42251601368E+02  0.39484273412E+02 -0.83779981447E+02  0.10180025028E+03  0.00000000000E+00 0.  1.
         12    1    6    6    0    0 -0.29517865085E+02 -0.61145345771E+01 -0.55673704083E+02  0.63310767004E+02  0.00000000000E+00 0. -1.
         -5    1    3    3    0  503  0.15280494462E+02 -0.46821631741E+02 -0.63799182794E+02  0.80735273797E+02  0.47000000000E+01 0.  1.
         11    1    4    4    0    0  0.20579697793E+02  0.18158883921E+02 -0.45999057262E+02  0.53564748627E+02  0.00000000000E+00 0. -1.
        -12    1    4    4    0    0 -0.60382267928E+02  0.34361808185E+02 -0.34055404811E+02  0.77372622669E+02  0.00000000000E+00 0.  1.
</event>
<event>
12    1  0.8258923E-002  0.2033812E+03  0.7818608E-02  0.1147492E+00
         21   -1    0    0  503  502  0.00000000000E+00  0.00000000000E+00  0.87741220215E+02  0.87741220215E+02  0.00000000000E+00 0. -1.
         21   -1    0    0  501  503 -0.00000000000E+00 -0.00000000000E+00 -0.49497953396E+03  0.49497953396E+03  0.00000000000E+00 0.  1.
          6    2    1    2  501    0  0.74083435638E+02 -0.78369006758E+02 -0.27396374361E+03  0.33956231608E+03  0.16916375803E+03 0.  0.
         24    2    3    3    0    0  0.46647502917E+02 -0.58944191284E+02 -0.28377428874E+03  0.30422974391E+03  0.79859144211E+02 0.  0.
         -6    2    1    2    0  502 -0.74083435638E+02  0.78369006758E+02 -0.13327457014E+03  0.24315843810E+03  0.17243508436E+03 0.  0.
        -24    2    5    5    0    0  0.24754857364E+02  0.29153405182E+02 -0.38330506023E+02  0.97461324496E+02  0.81035535932E+02 0.  0.
          5    1    3    3  501    0  0.27435932722E+02 -0.19424815474E+02  0.98105451282E+01  0.35332572171E+02  0.47000000000E+01 0. -1.
        -11    1    4    4    0    0 -0.12392581930E+02 -0.41446495721E+02 -0.16326692776E+03  0.16890079276E+03  0.00000000000E+00 0.  1.
         12    1    4    4    0    0  0.59040084847E+02 -0.17497695563E+02 -0.12050736098E+03  0.13532895115E+03  0.00000000000E+00 0. -1.
         -5    1    5    5    0  502 -0.98838293002E+02  0.49215601576E+02 -0.94944064116E+02  0.14569711361E+03  0.47000000000E+01 0.  1.
         13    1    6    6    0    0  0.14766974803E+02  0.40466044256E+02  0.12163374705E+02  0.44760607310E+02  0.00000000000E+00 0. -1.
        -14    1    6    6    0    0  0.99878825601E+01 -0.11312639074E+02 -0.50493880729E+02  0.52700717186E+02  0.00000000000E+00 0.  1.
</event>
<event>
12    1  0.8258923E-002  0.2030734E+03  0.7818608E-02  0.1147791E+00
         21   -1    0    0  501  502  0.00000000000E+00  0.00000000000E+00  0.28348547111E+04  0.28348547111E+04  0.00000000000E+00 0. -1.
         21   -1    0    0  502  503 -0.00000000000E+00 -0.00000000000E+00 -0.23642599488E+02  0.23642599488E+02  0.00000000000E+00 0.  1.
         -6    2    1    2    0  503 -0.47866818640E+02 -0.98048625963E+02  0.50256417326E+03  0.54093520741E+03  0.16773605750E+03 0.  0.
        -24    2    3    3    0    0 -0.46797494178E+02 -0.22457683460E+02  0.19659401278E+03  0.22572898420E+03  0.98030686213E+02 0.  0.
          6    2    1    2  501    0  0.47866818640E+02  0.98048625963E+02  0.23086479384E+04  0.23175621032E+04  0.17127181167E+03 0.  0.
         24    2    5    5    0    0  0.15398959019E+02  0.13162959819E+02  0.51618463947E+03  0.52279011040E+03  0.80327617052E+02 0.  0.
          5    1    5    5  501    0  0.32467859621E+02  0.84885666144E+02  0.17924632989E+04  0.17947719928E+04  0.47000000000E+01 0. -1.
        -13    1    6    6    0    0 -0.17448151153E+02  0.33637208396E+02  0.15620065171E+03  0.16073127686E+03  0.00000000000E+00 0.  1.
         14    1    6    6    0    0  0.32847110172E+02 -0.20474248577E+02  0.35998398776E+03  0.36205883354E+03  0.00000000000E+00 0. -1.
         -5    1    3    3    0  503 -0.10693244620E+01 -0.75590942503E+02  0.30597016048E+03  0.31520622320E+03  0.47000000000E+01 0.  1.
         11    1    4    4    0    0 -0.17711553747E+02 -0.26467769624E+02  0.19361548100E+03  0.19621721751E+03  0.00000000000E+00 0. -1.
        -12    1    4    4    0    0 -0.29085940432E+02  0.40100861646E+01  0.29785317860E+01  0.29511766695E+02  0.00000000000E+00 0.  1.
</event>
<event>
12    1  0.8258923E-002  0.1943062E+03  0.7818608E-02  0.1154682E+00
         21   -1    0    0  503  502  0.00000000000E+00  0.00000000000E+00  0.23207716869E+03  0.23207716869E+03  0.00000000000E+00 0.  1.
         21   -1    0    0  501  503 -0.00000000000E+00 -0.00000000000E+00 -0.19100696546E+03  0.19100696546E+03  0.00000000000E+00 0.  1.
          6    2    1    2  501    0  0.61845794483E+02 -0.66163385344E+02  0.10225310576E+03  0.21937297287E+03  0.17165753037E+03 0.  0.
         24    2    3    3    0    0 -0.33218473123E+02 -0.10330662959E+02  0.49443621164E+02  0.97039659635E+02  0.75906747489E+02 0.  0.
         -6    2    1    2    0  502 -0.61845794483E+02  0.66163385344E+02 -0.61182902536E+02  0.20371116128E+03  0.17190809699E+03 0.  0.
        -24    2    5    5    0    0 -0.34757631564E+02  0.11140673805E+03 -0.46982141532E+02  0.14889801370E+03  0.79647615311E+02 0.  0.
          5    1    3    3  501    0  0.95064267606E+02 -0.55832722385E+02  0.52809484599E+02  0.12233331324E+03  0.47000000000E+01 0. -1.
        -13    1    4    4    0    0 -0.23689940594E+02 -0.37257515096E+02  0.53099693185E+01  0.44469444461E+02  0.00000000000E+00 0.  1.
         14    1    4    4    0    0 -0.95285325294E+01  0.26926852137E+02  0.44133651846E+02  0.52570215174E+02  0.00000000000E+00 0. -1.
         -5    1    5    5    0  502 -0.27088162919E+02 -0.45243352707E+02 -0.14200761003E+02  0.54813147579E+02  0.47000000000E+01 0.  1.
         13    1    6    6    0    0 -0.69343114464E+01  0.79100030264E+02  0.74535711641E+01  0.79752461944E+02  0.00000000000E+00 0. -1.
        -14    1    6    6    0    0 -0.27823320117E+02  0.32306707787E+02 -0.54435712696E+02  0.69145551752E+02  0.00000000000E+00 0.  1.
</event>
<event>
12    1  0.8258923E-002  0.3827246E+03  0.7818608E-02  0.1049940E+00
         21   -1    0    0  503  502  0.00000000000E+00  0.00000000000E+00  0.89391490861E+03  0.89391490861E+03  0.00000000000E+00 0. -1.
         21   -1    0    0  501  503 -0.00000000000E+00 -0.00000000000E+00 -0.19755816481E+03  0.19755816481E+03  0.00000000000E+00 0.  1.
          6    2    1    2  501    0  0.27469323975E+03 -0.20346001314E+03  0.12269304372E+03  0.40191002916E+03  0.17212128181E+03 0.  0.
         24    2    3    3    0    0  0.81121986830E+02 -0.12033430029E+03  0.27285132349E+02  0.17059968861E+03  0.85432164510E+02 0.  0.
         -6    2    1    2    0  502 -0.27469323975E+03  0.20346001314E+03  0.57366370008E+03  0.68956304426E+03  0.17191509041E+03 0.  0.
        -24    2    5    5    0    0 -0.26673302851E+03  0.16872236534E+03  0.56608877775E+03  0.65282697771E+03  0.78184483545E+02 0.  0.
          5    1    3    3  501    0  0.19357125292E+03 -0.83125712846E+02  0.95407911368E+02  0.23131034055E+03  0.47000000000E+01 0. -1.
        -11    1    4    4    0    0  0.97604579616E+02 -0.98535929744E+02  0.11814598433E+02  0.13919614991E+03  0.00000000000E+00 0.  1.
         12    1    4    4    0    0 -0.16482592787E+02 -0.21798370551E+02  0.15470533916E+02  0.31403538706E+02  0.00000000000E+00 0. -1.
         -5    1    5    5    0  502 -0.79602112412E+01  0.34737647796E+02  0.75749223301E+01  0.36736066552E+02  0.47000000000E+01 0.  1.
         13    1    6    6    0    0 -0.18585144485E+03  0.84116660360E+02  0.30793916319E+03  0.36938178126E+03  0.00000000000E+00 0. -1.
        -14    1    6    6    0    0 -0.80881583657E+02  0.84605704985E+02  0.25814961456E+03  0.28344519645E+03  0.00000000000E+00 0.  1.
</event>
<event>
12    1  0.8258923E-002  0.1863608E+03  0.7818608E-02  0.1161939E+00
         21   -1    0    0  503  502  0.00000000000E+00  0.00000000000E+00  0.23842867260E+03  0.23842867260E+03  0.00000000000E+00 0.  1.
         21   -1    0    0  501  503 -0.00000000000E+00 -0.00000000000E+00 -0.20669329859E+03  0.20669329859E+03  0.00000000000E+00 0.  1.
          6    2    1    2  501    0 -0.59548639696E+02  0.39342105253E+02 -0.10556002546E+03  0.21418042651E+03  0.17215253234E+03 0.  0.
         24    2    3    3    0    0 -0.97305888739E+02  0.51575379096E+02 -0.52075139871E+02  0.14741227669E+03  0.83006646815E+02 0.  0.
         -6    2    1    2    0  502  0.59548639696E+02 -0.39342105253E+02  0.13729539947E+03  0.23094154467E+03  0.17143549400E+03 0.  0.
        -24    2    5    5    0    0  0.53193247906E+02  0.14760431744E+02  0.50118502530E+02  0.12803684665E+03  0.10408735675E+03 0.  0.
          5    1    3    3  501    0  0.37757249042E+02 -0.12233273842E+02 -0.53484885587E+02  0.66768149820E+02  0.47000000000E+01 0. -1.
        -11    1    4    4    0    0 -0.66550841469E+01  0.44980722764E+02 -0.27953238481E+02  0.53375454162E+02  0.00000000000E+00 0.  1.
         12    1    4    4    0    0 -0.90650804592E+02  0.65946563312E+01 -0.24121901390E+02  0.94036822532E+02  0.00000000000E+00 0. -1.
         -5    1    5    5    0  502  0.63553917907E+01 -0.54102536997E+02  0.87176896944E+02  0.10290469802E+03  0.47000000000E+01 0.  1.
         13    1    6    6    0    0 -0.63448870698E+01  0.79355726262E+01 -0.27880541325E+02  0.29674155244E+02  0.00000000000E+00 0. -1.
        -14    1    6    6    0    0  0.59538134976E+02  0.68248591176E+01  0.77999043855E+02  0.98362691406E+02  0.00000000000E+00 0.  1.
</event>
<event>
12    1  0.8258923E-002  0.2062972E+03  0.7818608E-02  0.1144687E+00
         21   -1    0    0  501  502  0.00000000000E+00  0.00000000000E+00  0.14365507084E+03  0.14365507084E+03  0.00000000000E+00 0. -1.
         21   -1    0    0  502  503 -0.00000000000E+00 -0.00000000000E+00 -0.29526302456E+03  0.29526302456E+03  0.00000000000E+00 0.  1.
         -6    2    1    2    0  503  0.11294981831E+03  0.28034675447E+01 -0.71635327087E+02  0.21766224319E+03  0.17169656705E+03 0.  0.
        -24    2    3    3    0    0 -0.52683513353E+01  0.25405039218E+01 -0.11029913519E+01  0.79921526013E+02  0.79699586225E+02 0.  0.
          6    2    1    2  501    0 -0.11294981831E+03 -0.28034675447E+01 -0.79972626637E+02  0.22125585221E+03  0.17260651853E+03 0.  0.
         24    2    5    5    0    0 -0.98264016429E+02  0.11274884588E+02 -0.12086977571E+03  0.17533701535E+03  0.79690817066E+02 0.  0.
          5    1    5    5  501    0 -0.14685801878E+02 -0.14078352133E+02  0.40897149076E+02  0.45918836855E+02  0.47000000000E+01 0. -1.
        -11    1    6    6    0    0 -0.74947239535E+02  0.43265963815E+02 -0.72980141111E+02  0.11320394576E+03  0.00000000000E+00 0.  1.
         12    1    6    6    0    0 -0.23316776894E+02 -0.31991079227E+02 -0.47889634602E+02  0.62133069594E+02  0.00000000000E+00 0. -1.
         -5    1    3    3    0  503  0.11821816964E+03  0.26296362294E+00 -0.70532335735E+02  0.13774071717E+03  0.47000000000E+01 0.  1.
         11    1    4    4    0    0  0.61339458266E+01 -0.24635934313E+02 -0.29551462489E+02  0.38959510856E+02  0.00000000000E+00 0. -1.
        -12    1    4    4    0    0 -0.11402297162E+02  0.27176438235E+02  0.28448471137E+02  0.40962015157E+02  0.00000000000E+00 0.  1.
</event>
<event>
12    1  0.8258923E-002  0.2049608E+03  0.7818608E-02  0.1146187E+00
         21   -1    0    0  503  502  0.00000000000E+00  0.00000000000E+00  0.29797985288E+04  0.29797985288E+04  0.00000000000E+00 0. -1.
         21   -1    0    0  501  503 -0.00000000000E+00 -0.00000000000E+00 -0.14400658950E+02  0.14400658950E+02  0.00000000000E+00 0.  1.
          6    2    1    2  501    0 -0.10792216117E+03  0.13525138750E+02  0.17690719316E+04  0.17809055122E+04  0.17372052855E+03 0.  0.
         24    2    3    3    0    0 -0.89424593675E+02 -0.35732665950E+02  0.15716388931E+04  0.15765274654E+04  0.78207784288E+02 0.  0.
         -6    2    1    2    0  502  0.10792216117E+03 -0.13525138750E+02  0.11963259382E+04  0.12132936755E+04  0.17045723890E+03 0.  0.
        -24    2    5    5    0    0  0.13592109997E+03  0.38614514342E+01  0.77745564134E+03  0.79310246938E+03  0.78005105329E+02 0.  0.
          5    1    3    3  501    0 -0.18497567498E+02  0.49257804700E+02  0.19743303851E+03  0.20437804682E+03  0.47000000000E+01 0. -1.
        -11    1    4    4    0    0  0.12532287593E+01  0.26682097682E+01  0.15072222729E+01  0.33108374575E+01  0.00000000000E+00 0.  1.
         12    1    4    4    0    0 -0.90677822435E+02 -0.38400875719E+02  0.15701316708E+04  0.15732166279E+04  0.00000000000E+00 0. -1.
         -5    1    5    5    0  502 -0.27998938795E+02 -0.17386590184E+02  0.41887029688E+03  0.42019120612E+03  0.47000000000E+01 0.  1.
         13    1    6    6    0    0  0.18878792404E+02 -0.28608876509E+02  0.21151743352E+03  0.21427669332E+03  0.00000000000E+00 0. -1.
        -14    1    6    6    0    0  0.11704230756E+03  0.32470327943E+02  0.56593820783E+03  0.57882577606E+03  0.00000000000E+00 0.  1.
</event>
<event>
12    1  0.8258923E-002  0.1806244E+03  0.7818608E-02  0.1170324E+00
         21   -1    0    0  501  502  0.00000000000E+00  0.00000000000E+00  0.33724643984E+02  0.33724643984E+02  0.00000000000E+00 0.  1.
         21   -1    0    0  502  503 -0.00000000000E+00 -0.00000000000E+00 -0.94653904074E+03  0.94653904074E+03  0.00000000000E+00 0.  1.
         -6    2    1    2    0  503 -0.48233753844E+02  0.22281219856E+02 -0.54746351402E+03  0.57270209906E+03  0.15952569483E+03 0.  0.
        -24    2    3    3    0    0 -0.74046391002E+02  0.40166690789E+02 -0.19477985762E+03  0.21859189898E+03  0.52411776303E+02 0.  0.
          6    2    1    2  501    0  0.48233753844E+02 -0.22281219856E+02 -0.36535088274E+03  0.40756158567E+03  0.17263322632E+03 0.  0.
         24    2    5    5    0    0  0.24236493936E+02  0.23725531248E+02 -0.33792971006E+03  0.34868459236E+03  0.78956618072E+02 0.  0.
          5    1    5    5  501    0  0.23997259908E+02 -0.46006751105E+02 -0.27421172682E+02  0.58876993313E+02  0.47000000000E+01 0. -1.
        -13    1    6    6    0    0  0.35222794286E+01 -0.69265517077E+01  0.91674718469E+00  0.78245764315E+01  0.00000000000E+00 0.  1.
         14    1    6    6    0    0  0.20714214507E+02  0.30652082956E+02 -0.33884645724E+03  0.34086001593E+03  0.00000000000E+00 0. -1.
         -5    1    3    3    0  503  0.25812637158E+02 -0.17885470933E+02 -0.35268365640E+03  0.35411020007E+03  0.47000000000E+01 0.  1.
         13    1    4    4    0    0  0.47041898148E+01  0.31089262041E+01 -0.44321613670E+00  0.56560820804E+01  0.00000000000E+00 0. -1.
        -14    1    4    4    0    0 -0.78750580817E+02  0.37057764585E+02 -0.19433664149E+03  0.21293581690E+03  0.00000000000E+00 0.  1.
</event>
<event>
12    1  0.8258923E-002  0.1947148E+03  0.7818608E-02  0.1155427E+00
         21   -1    0    0  501  502  0.00000000000E+00  0.00000000000E+00  0.43010829162E+03  0.43010829162E+03  0.00000000000E+00 0. -1.
         21   -1    0    0  502  503 -0.00000000000E+00 -0.00000000000E+00 -0.22243427331E+03  0.22243427331E+03  0.00000000000E+00 0.  1.
         -6    2    1    2    0  503 -0.32321440688E+02  0.71200978559E+02 -0.15131444065E+03  0.24659664377E+03  0.17832439512E+03 0.  0.
        -24    2    3    3    0    0  0.32857374154E+02  0.16259814827E+02 -0.26120461938E+02  0.95063044589E+02  0.83730014333E+02 0.  0.
          6    2    1    2  501    0  0.32321440688E+02 -0.71200978559E+02  0.35898845896E+03  0.40594592116E+03  0.17264160091E+03 0.  0.
         24    2    5    5    0    0  0.60000661074E+02 -0.25090839534E+02  0.11104639311E+03  0.15219477893E+03  0.81254659891E+02 0.  0.
          5    1    5    5  501    0 -0.27679220387E+02 -0.46110139025E+02  0.24794206585E+03  0.25375114223E+03  0.47000000000E+01 0. -1.
        -13    1    6    6    0    0  0.43993058672E+02 -0.38284987218E+02  0.11690052674E+03  0.13064020289E+03  0.00000000000E+00 0.  1.
         14    1    6    6    0    0  0.16007602403E+02  0.13194147685E+02 -0.58541336365E+01  0.21554576044E+02  0.00000000000E+00 0. -1.
         -5    1    3    3    0  503 -0.65178814841E+02  0.54941163733E+02 -0.12519397871E+03  0.15153359918E+03  0.47000000000E+01 0.  1.
         11    1    4    4    0    0 -0.12898849808E+02  0.38297718883E+02 -0.84148969813E+01  0.41278397367E+02  0.00000000000E+00 0. -1.
        -12    1    4    4    0    0  0.45756223961E+02 -0.22037904056E+02 -0.17705564957E+02  0.53784647222E+02  0.00000000000E+00 0.  1.
</event>
<event>
12    1  0.8258923E-002  0.2013236E+03  0.7818608E-02  0.1148629E+00
         21   -1    0    0  501  502  0.00000000000E+00  0.00000000000E+00  0.21301392633E+03  0.21301392633E+03  0.00000000000E+00 0. -1.
         21   -1    0    0  502  503 -0.00000000000E+00 -0.00000000000E+00 -0.19277968415E+03  0.19277968415E+03  0.00000000000E+00 0. -1.
         -6    2    1    2    0  503 -0.73572586227E+02  0.77408810721E+02 -0.13049040995E+02  0.20173729397E+03  0.17065347604E+03 0.  0.
        -24    2    3    3    0    0  0.65121175571E+00  0.49832307826E+02 -0.56108629291E+02  0.11148290990E+03  0.82441360611E+02 0.  0.
          6    2    1    2  501    0  0.73572586227E+02 -0.77408810721E+02  0.33283283166E+02  0.20405631651E+03  0.17066386246E+03 0.  0.
         24    2    5    5    0    0  0.43296877425E+02 -0.33703299758E+02  0.86361031496E+02  0.12878263187E+03  0.78206179427E+02 0.  0.
          5    1    5    5  501    0  0.30275708802E+02 -0.43705510963E+02 -0.53077748330E+02  0.75273684643E+02  0.47000000000E+01 0. -1.
        -13    1    6    6    0    0  0.33102494329E+01 -0.50439699801E+02  0.58217792270E+02  0.77100145293E+02  0.00000000000E+00 0.  1.
         14    1    6    6    0    0  0.39986627992E+02  0.16736400042E+02  0.28143239226E+02  0.51682486576E+02  0.00000000000E+00 0. -1.
         -5    1    3    3    0  503 -0.74223797982E+02  0.27576502896E+02  0.43059588296E+02  0.90254384066E+02  0.47000000000E+01 0.  1.
         13    1    4    4    0    0 -0.38941905562E+02  0.12473487363E+02 -0.32110074687E+02  0.51991506924E+02  0.00000000000E+00 0. -1.
        -14    1    4    4    0    0  0.39593117317E+02  0.37358820463E+02 -0.23998554604E+02  0.59491402979E+02  0.00000000000E+00 0.  1.
</event>
<event>
12    1  0.8258923E-002  0.1720578E+03  0.7818608E-02  0.1175724E+00
         21   -1    0    0  503  502  0.00000000000E+00  0.00000000000E+00  0.48074793241E+03  0.48074793241E+03  0.00000000000E+00 0. -1.
         21   -1    0    0  501  503 -0.00000000000E+00 -0.00000000000E+00 -0.61583983022E+02  0.61583983022E+02  0.00000000000E+00 0. -1.
          6    2    1    2  501    0  0.17283696769E+02 -0.31759146052E+01  0.21353050384E+03  0.27422466230E+03  0.17115804607E+03 0.  0.
         24    2    3    3    0    0 -0.31763218756E+02 -0.45111109023E+02  0.17071516629E+03  0.19663984688E+03  0.80496255555E+02 0.  0.
         -6    2    1    2    0  502 -0.17283696769E+02  0.31759146052E+01  0.20563344555E+03  0.26810725313E+03  0.17113612315E+03 0.  0.
        -24    2    5    5    0    0 -0.72236727767E+02 -0.18087942963E+02  0.16155095633E+03  0.19436891093E+03  0.78327795371E+02 0.  0.
          5    1    3    3  501    0  0.49046915525E+02  0.41935194418E+02  0.42815337548E+02  0.77584815413E+02  0.47000000000E+01 0. -1.
        -11    1    4    4    0    0 -0.47586215431E+02 -0.12246201494E+02  0.14186600160E+03  0.15013453887E+03  0.00000000000E+00 0.  1.
         12    1    4    4    0    0  0.15822996676E+02 -0.32864907529E+02  0.28849164688E+02  0.46505308019E+02  0.00000000000E+00 0. -1.
         -5    1    5    5    0  502  0.54953030998E+02  0.21263857568E+02  0.44082489220E+02  0.73738342200E+02  0.47000000000E+01 0.  1.
         13    1    6    6    0    0 -0.83570763786E+02 -0.16456616626E+02  0.98206249465E+02  0.12999753930E+03  0.00000000000E+00 0. -1.
        -14    1    6    6    0    0  0.11334036019E+02 -0.16313263368E+01  0.63344706865E+02  0.64371371632E+02  0.00000000000E+00 0.  1.
</event>
<event>
12    1  0.8258923E-002  0.3284160E+03  0.7818608E-02  0.1071981E+00
         21   -1    0    0  503  502  0.00000000000E+00  0.00000000000E+00  0.15834453103E+03  0.15834453103E+03  0.00000000000E+00 0. -1.
         21   -1    0    0  501  503 -0.00000000000E+00 -0.00000000000E+00 -0.73636288713E+03  0.73636288713E+03  0.00000000000E+00 0. -1.
          6    2    1    2  501    0  0.19333909624E+03  0.20066720333E+03 -0.41487949491E+03  0.52913330538E+03  0.17380945584E+03 0.  0.
         24    2    3    3    0    0  0.76789880802E+02  0.16760115079E+03 -0.28176661038E+03  0.34908271949E+03  0.92084150568E+02 0.  0.
         -6    2    1    2    0  502 -0.19333909624E+03 -0.20066720333E+03 -0.16313886119E+03  0.36557411277E+03  0.17141415131E+03 0.  0.
        -24    2    5    5    0    0 -0.20757876901E+03 -0.15908721401E+03 -0.10854377890E+03  0.29532899335E+03  0.83903369229E+02 0.  0.
          5    1    3    3  501    0  0.11654921544E+03  0.33066052548E+02 -0.13311288453E+03  0.18005058589E+03  0.47000000000E+01 0. -1.
        -11    1    4    4    0    0 -0.92564650638E+01  0.67007180102E+01  0.21128379495E+01  0.11620923007E+02  0.00000000000E+00 0.  1.
         12    1    4    4    0    0  0.86046345865E+02  0.16090043278E+03 -0.28387944833E+03  0.33746179649E+03  0.00000000000E+00 0. -1.
         -5    1    5    5    0  502  0.14239672768E+02 -0.41579989321E+02 -0.54595082294E+02  0.70245119426E+02  0.47000000000E+01 0.  1.
         11    1    6    6    0    0 -0.14940604551E+02 -0.39787993127E+02 -0.40594773845E+02  0.58772797491E+02  0.00000000000E+00 0. -1.
        -12    1    6    6    0    0 -0.19263816446E+03 -0.11929922089E+03 -0.67949005051E+02  0.23655619586E+03  0.00000000000E+00 0.  1.
</event>
<event>
12    1  0.8258923E-002  0.1767577E+03  0.7818608E-02  0.1171144E+00
         21   -1    0    0  501  502  0.00000000000E+00  0.00000000000E+00  0.43451147962E+02  0.43451147962E+02  0.00000000000E+00 0. -1.
         21   -1    0    0  502  503 -0.00000000000E+00 -0.00000000000E+00 -0.10493475472E+04  0.10493475472E+04  0.00000000000E+00 0. -1.
         -6    2    1    2    0  503 -0.26461616881E+02 -0.25727785810E+02 -0.81010901728E+03  0.82902611364E+03  0.17217880557E+03 0.  0.
        -24    2    3    3    0    0 -0.19671103241E+02 -0.67223729082E+02 -0.31708066321E+03  0.33418566228E+03  0.78955226792E+02 0.  0.
          6    2    1    2  501    0  0.26461616881E+02  0.25727785810E+02 -0.19578738192E+03  0.26377258148E+03  0.17286162007E+03 0.  0.
         24    2    5    5    0    0 -0.16318351978E+02 -0.39511719192E+02 -0.60609998471E+02  0.10762734863E+03  0.77991087264E+02 0.  0.
          5    1    5    5  501    0  0.42779968859E+02  0.65239505002E+02 -0.13517738345E+03  0.15614523286E+03  0.47000000000E+01 0. -1.
        -11    1    6    6    0    0 -0.38445285275E+02 -0.18887571492E+02 -0.64188368244E+02  0.77168173068E+02  0.00000000000E+00 0.  1.
         12    1    6    6    0    0  0.22126933296E+02 -0.20624147699E+02  0.35783697733E+01  0.30459175558E+02  0.00000000000E+00 0. -1.
         -5    1    3    3    0  503 -0.67905136405E+01  0.41495943271E+02 -0.49302835407E+03  0.49484045136E+03  0.47000000000E+01 0.  1.
         11    1    4    4    0    0 -0.63843727855E+00 -0.52009877268E+02 -0.29988642225E+03  0.30436376457E+03  0.00000000000E+00 0. -1.
        -12    1    4    4    0    0 -0.19032665962E+02 -0.15213851813E+02 -0.17194240959E+02  0.29821897706E+02  0.00000000000E+00 0.  1.
</event>
<event>
12    1  0.8258923E-002  0.1851775E+03  0.7818608E-02  0.1163449E+00
         21   -1    0    0  501  502  0.00000000000E+00  0.00000000000E+00  0.42130375316E+02  0.42130375316E+02  0.00000000000E+00 0. -1.
         21   -1    0    0  502  503 -0.00000000000E+00 -0.00000000000E+00 -0.81287142076E+03  0.81287142076E+03  0.00000000000E+00 0. -1.
         -6    2    1    2    0  503  0.51584279171E+02  0.39076444134E+02 -0.43404117189E+03  0.47189242049E+03  0.17350161752E+03 0.  0.
        -24    2    3    3    0    0  0.87373645591E+02  0.17092217573E+02 -0.39923247288E+03  0.41713915125E+03  0.81805906021E+02 0.  0.
          6    2    1    2  501    0 -0.51584279171E+02 -0.39076444134E+02 -0.33669987356E+03  0.38310937558E+03  0.17093297652E+03 0.  0.
         24    2    5    5    0    0 -0.95943027722E+02 -0.30688765751E+02 -0.29273111797E+03  0.31991607539E+03  0.80671698578E+02 0.  0.
          5    1    5    5  501    0  0.44358748550E+02 -0.83876783831E+01 -0.43968755586E+02  0.63193300194E+02  0.47000000000E+01 0. -1.
        -11    1    6    6    0    0 -0.28888162674E+02 -0.15070205790E+02 -0.20894708930E+03  0.21147227519E+03  0.00000000000E+00 0.  1.
         12    1    6    6    0    0 -0.67054865048E+02 -0.15618559960E+02 -0.83784028667E+02  0.10844380020E+03  0.00000000000E+00 0. -1.
         -5    1    3    3    0  503 -0.35789366420E+02  0.21984226561E+02 -0.34808699010E+02  0.54753269245E+02  0.47000000000E+01 0.  1.
         13    1    4    4    0    0  0.98705705625E+02  0.12515246828E+02 -0.27755591921E+03  0.29485036207E+03  0.00000000000E+00 0. -1.
        -14    1    4    4    0    0 -0.11332060034E+02  0.45769707450E+01 -0.12167655367E+03  0.12228878918E+03  0.00000000000E+00 0.  1.
</event>
<event>
12    1  0.8258923E-002  0.2380676E+03  0.7818608E-02  0.1122669E+00
         21   -1    0    0  501  502  0.00000000000E+00  0.00000000000E+00  0.18130435801E+03  0.18130435801E+03  0.00000000000E+00 0.  1.
         21   -1    0    0  502  503 -0.00000000000E+00 -0.00000000000E+00 -0.85546835330E+03  0.85546835330E+03  0.00000000000E+00 0.  1.
         -6    2    1    2    0  503  0.30116939972E+02 -0.14777239525E+03 -0.75686551156E+03  0.79342396833E+03  0.18420770904E+03 0.  0.
        -24    2    3    3    0    0 -0.40167762592E+02 -0.31050697738E+02 -0.20789731932E+03  0.22778091819E+03  0.78008052983E+02 0.  0.
          6    2    1    2  501    0 -0.30116939972E+02  0.14777239525E+03  0.82701516265E+02  0.24334874299E+03  0.17214923482E+03 0.  0.
         24    2    5    5    0    0  0.31845906383E+02  0.11162380095E+03  0.94476321094E+02  0.17050060487E+03  0.81674024764E+02 0.  0.
          5    1    5    5  501    0 -0.61962846354E+02  0.36148594301E+02 -0.11774804830E+02  0.72848138117E+02  0.47000000000E+01 0. -1.
        -13    1    6    6    0    0  0.27154668103E+02  0.12046717833E+03  0.10014812015E+03  0.15899485219E+03  0.00000000000E+00 0.  1.
         14    1    6    6    0    0  0.46912382799E+01 -0.88433773825E+01 -0.56717990523E+01  0.11505752675E+02  0.00000000000E+00 0. -1.
         -5    1    3    3    0  503  0.70284702563E+02 -0.11672169751E+03 -0.54896819223E+03  0.56564305014E+03  0.47000000000E+01 0.  1.
         13    1    4    4    0    0 -0.36176570672E+02 -0.44348576234E+02 -0.75921893259E+02  0.95077202081E+02  0.00000000000E+00 0. -1.
        -14    1    4    4    0    0 -0.39911919198E+01  0.13297878497E+02 -0.13197542606E+03  0.13270371611E+03  0.00000000000E+00 0.  1.
</event>
<event>
12    1  0.8258923E-002  0.2314933E+03  0.7818608E-02  0.1125711E+00
         21   -1    0    0  501  502  0.00000000000E+00  0.00000000000E+00  0.13115320398E+03  0.13115320398E+03  0.00000000000E+00 0.  1.
         21   -1    0    0  502  503 -0.00000000000E+00 -0.00000000000E+00 -0.44209512518E+03  0.44209512518E+03  0.00000000000E+00 0.  1.
         -6    2    1    2    0  503  0.14430987890E+03 -0.55019834073E+02 -0.23595925076E+03  0.33055398534E+03  0.17244316721E+03 0.  0.
        -24    2    3    3    0    0  0.82540150148E+02 -0.79809631034E+01 -0.22450207482E+03  0.25193139538E+03  0.78687192230E+02 0.  0.
          6    2    1    2  501    0 -0.14430987890E+03  0.55019834073E+02 -0.74982670445E+02  0.24269434382E+03  0.17153897622E+03 0.  0.
         24    2    5    5    0    0 -0.16670135371E+03  0.69732113883E+02 -0.83411542484E+02  0.21421689301E+03  0.79243187693E+02 0.  0.
          5    1    5    5  501    0  0.22391474801E+02 -0.14712279811E+02  0.84288720398E+01  0.28477450814E+02  0.47000000000E+01 0. -1.
        -11    1    6    6    0    0 -0.38818288540E+02 -0.66914684756E+01 -0.46099945162E+02  0.60636954240E+02  0.00000000000E+00 0.  1.
         12    1    6    6    0    0 -0.12788306517E+03  0.76423582359E+02 -0.37311597322E+02  0.15357993877E+03  0.00000000000E+00 0. -1.
         -5    1    3    3    0  503  0.61769728757E+02 -0.47038870969E+02 -0.11457175940E+02  0.78622589968E+02  0.47000000000E+01 0.  1.
         11    1    4    4    0    0 -0.57226972434E+01  0.19834494962E+02 -0.56090622213E+02  0.59768840999E+02  0.00000000000E+00 0. -1.
        -12    1    4    4    0    0  0.88262847391E+02 -0.27815458065E+02 -0.16841145260E+03  0.19216255438E+03  0.00000000000E+00 0.  1.
</event>
<event>
12    1  0.8258923E-002  0.1820539E+03  0.7818608E-02  0.1166559E+00
         21   -1    0    0  503  502  0.00000000000E+00  0.00000000000E+00  0.57973394142E+03  0.57973394142E+03  0.00000000000E+00 0.  1.
         21   -1    0    0  501  503 -0.00000000000E+00 -0.00000000000E+00 -0.18372232153E+03  0.18372232153E+03  0.00000000000E+00 0.  1.
          6    2    1    2  501    0  0.51317878641E+02  0.31618358050E+00 -0.11948244317E+03  0.21776060470E+03  0.17467112552E+03 0.  0.
         24    2    3    3    0    0  0.43179919216E+02 -0.65200233260E+01 -0.15539662969E+03  0.18001303655E+03  0.79684155772E+02 0.  0.
         -6    2    1    2    0  502 -0.51317878641E+02 -0.31618358050E+00  0.51549406306E+03  0.54569565824E+03  0.17151092599E+03 0.  0.
        -24    2    5    5    0    0 -0.96721546460E+02  0.11963519965E+02  0.33856969190E+03  0.36256562990E+03  0.85593319552E+02 0.  0.
          5    1    3    3  501    0  0.81379594255E+01  0.68362069065E+01  0.35914186514E+02  0.37747568153E+02  0.47000000000E+01 0. -1.
        -11    1    4    4    0    0 -0.20695156336E+02 -0.15086733707E+02 -0.33956185470E+02  0.42531418521E+02  0.00000000000E+00 0.  1.
         12    1    4    4    0    0  0.63875075552E+02  0.85667103809E+01 -0.12144044422E+03  0.13748161803E+03  0.00000000000E+00 0. -1.
         -5    1    5    5    0  502  0.45403667819E+02 -0.12279703545E+02  0.17692437116E+03  0.18313002835E+03  0.47000000000E+01 0.  1.
         11    1    6    6    0    0 -0.10853111038E+02 -0.26020653153E+02  0.14136376569E+03  0.14414776676E+03  0.00000000000E+00 0. -1.
        -12    1    6    6    0    0 -0.85868435422E+02  0.37984173118E+02  0.19720592620E+03  0.21841786314E+03  0.00000000000E+00 0.  1.
</event>
<event>
12    1  0.8258923E-002  0.1948018E+03  0.7818608E-02  0.1154215E+00
         21   -1    0    0  501  502  0.00000000000E+00  0.00000000000E+00  0.69178646686E+03  0.69178646686E+03  0.00000000000E+00 0. -1.
         21   -1    0    0  502  503 -0.00000000000E+00 -0.00000000000E+00 -0.59367827384E+02  0.59367827384E+02  0.00000000000E+00 0.  1.
         -6    2    1    2    0  503  0.21330999710E+02 -0.85562582624E+02  0.21249127693E+03  0.28827118599E+03  0.17370022109E+03 0.  0.
        -24    2    3    3    0    0 -0.47686776120E+02 -0.58385082498E+02  0.17019559133E+03  0.20275460915E+03  0.80374409797E+02 0.  0.
          6    2    1    2  501    0 -0.21330999710E+02  0.85562582624E+02  0.41992736255E+03  0.46288310826E+03  0.17362550215E+03 0.  0.
         24    2    5    5    0    0 -0.73054032399E+02  0.50182980180E+02  0.34389825310E+03  0.36424486079E+03  0.80951139440E+02 0.  0.
          5    1    5    5  501    0  0.51723032689E+02  0.35379602444E+02  0.76029109449E+02  0.98638247467E+02  0.47000000000E+01 0. -1.
        -11    1    6    6    0    0  0.16374232307E+02  0.80100410501E+01  0.29611606424E+02  0.34772452837E+02  0.00000000000E+00 0.  1.
         12    1    6    6    0    0 -0.89428264706E+02  0.42172939129E+02  0.31428664667E+03  0.32947240795E+03  0.00000000000E+00 0. -1.
         -5    1    3    3    0  503  0.69017775830E+02 -0.27177500126E+02  0.42295685604E+02  0.85516576840E+02  0.47000000000E+01 0.  1.
         13    1    4    4    0    0  0.13008994523E+02 -0.45690768562E+01  0.81098144277E+02  0.82261895231E+02  0.00000000000E+00 0. -1.
        -14    1    4    4    0    0 -0.60695770643E+02 -0.53816005642E+02  0.89097447050E+02  0.12049271392E+03  0.00000000000E+00 0.  1.
</event>
<event>
12    1  0.8258923E-002  0.2309023E+03  0.7818608E-02  0.1126504E+00
         21   -1    0    0  501  502  0.00000000000E+00  0.00000000000E+00  0.23668492091E+03  0.23668492091E+03  0.00000000000E+00 0.  1.
         21   -1    0    0  502  503 -0.00000000000E+00 -0.00000000000E+00 -0.22332158861E+03  0.22332158861E+03  0.00000000000E+00 0.  1.
         -6    2    1    2    0  503  0.82252944840E+02  0.12678768749E+03  0.20451956362E+02  0.22899542620E+03  0.17082142157E+03 0.  0.
        -24    2    3    3    0    0 -0.21072476538E+02  0.49615721985E+02  0.92554391016E+01  0.99461233950E+02  0.83072888298E+02 0.  0.
          6    2    1    2  501    0 -0.82252944840E+02 -0.12678768749E+03 -0.70886240579E+01  0.23101108332E+03  0.17457149650E+03 0.  0.
         24    2    5    5    0    0 -0.88824122804E+02 -0.15552120832E+03  0.10204514539E+02  0.19651560185E+03  0.80235145802E+02 0.  0.
          5    1    5    5  501    0  0.65711779641E+01  0.28733520834E+02 -0.17293138597E+02  0.34495481471E+02  0.47000000000E+01 0. -1.
        -11    1    6    6    0    0 -0.18532180542E+02 -0.10321458530E+03 -0.13543688492E+02  0.10573610468E+03  0.00000000000E+00 0.  1.
         12    1    6    6    0    0 -0.70291942262E+02 -0.52306623023E+02  0.23748203031E+02  0.90779497169E+02  0.00000000000E+00 0. -1.
         -5    1    3    3    0  503  0.10332542138E+03  0.77171965503E+02  0.11196517260E+02  0.12953419225E+03  0.47000000000E+01 0.  1.
         13    1    4    4    0    0 -0.26312961098E+02 -0.24307797176E+01  0.32780451581E+02  0.42105090163E+02  0.00000000000E+00 0. -1.
        -14    1    4    4    0    0  0.52404845597E+01  0.52046501703E+02 -0.23525012479E+02  0.57356143787E+02  0.00000000000E+00 0.  1.
</event>
<event>
12    1  0.8258923E-002  0.1999997E+03  0.7818608E-02  0.1149826E+00
         21   -1    0    0  501  502  0.00000000000E+00  0.00000000000E+00  0.10474755538E+03  0.10474755538E+03  0.00000000000E+00 0.  1.
         21   -1    0    0  502  503 -0.00000000000E+00 -0.00000000000E+00 -0.40608012113E+03  0.40608012113E+03  0.00000000000E+00 0.  1.
         -6    2    1    2    0  503  0.10087306490E+03  0.34507633317E+01 -0.21417829819E+03  0.29303960923E+03  0.17266321605E+03 0.  0.
        -24    2    3    3    0    0  0.11400554142E+03 -0.28649698312E+02 -0.99922119210E+02  0.17354288957E+03  0.79464683492E+02 0.  0.
          6    2    1    2  501    0 -0.10087306490E+03 -0.34507633317E+01 -0.87154267561E+02  0.21778806728E+03  0.17218737731E+03 0.  0.
         24    2    5    5    0    0  0.81276090355E+01  0.28320540179E+02 -0.24363373495E+02  0.87959915389E+02  0.79216549549E+02 0.  0.
          5    1    5    5  501    0 -0.10900067394E+03 -0.31771303511E+02 -0.62790894066E+02  0.12982815189E+03  0.47000000000E+01 0. -1.
        -13    1    6    6    0    0 -0.77852656074E+01  0.30412829605E+02 -0.49215535843E+02  0.58375675872E+02  0.00000000000E+00 0.  1.
         14    1    6    6    0    0  0.15912874643E+02 -0.20922894257E+01  0.24852162348E+02  0.29584239517E+02  0.00000000000E+00 0. -1.
         -5    1    3    3    0  503 -0.13132476523E+02  0.32100461644E+02 -0.11425617898E+03  0.11949671967E+03  0.47000000000E+01 0.  1.
         11    1    4    4    0    0  0.87106014688E+02 -0.44650794290E+02 -0.10300120237E+03  0.14209292352E+03  0.00000000000E+00 0. -1.
        -12    1    4    4    0    0  0.26899526736E+02  0.16001095978E+02  0.30790831573E+01  0.31449966045E+02  0.00000000000E+00 0.  1.
</event>
<event>
12    1  0.8258923E-002  0.1776196E+03  0.7818608E-02  0.1170483E+00
         21   -1    0    0  501  502  0.00000000000E+00  0.00000000000E+00  0.34678564341E+02  0.34678564341E+02  0.00000000000E+00 0. -1.
         21   -1    0    0  502  503 -0.00000000000E+00 -0.00000000000E+00 -0.92038106338E+03  0.92038106338E+03  0.00000000000E+00 0. -1.
         -6    2    1    2    0  503  0.16930097743E+02 -0.32333442253E+02 -0.37785636026E+03  0.41752144164E+03  0.17382935753E+03 0.  0.
        -24    2    3    3    0    0 -0.18639204906E+02  0.10807329869E+02 -0.70918494600E+02  0.10549701168E+03  0.75073086118E+02 0.  0.
          6    2    1    2  501    0 -0.16930097743E+02  0.32333442253E+02 -0.50784613877E+03  0.53753818608E+03  0.17235869903E+03 0.  0.
         24    2    5    5    0    0 -0.27065814912E+02  0.68359415270E+02 -0.47607836206E+03  0.48822403870E+03  0.79413708855E+02 0.  0.
          5    1    5    5  501    0  0.10135717169E+02 -0.36025973016E+02 -0.31767776713E+02  0.49314147378E+02  0.47000000000E+01 0. -1.
        -11    1    6    6    0    0 -0.30232027398E+02  0.47413814679E+02 -0.13179775278E+03  0.14329233385E+03  0.00000000000E+00 0.  1.
         12    1    6    6    0    0  0.31662124868E+01  0.20945600591E+02 -0.34428060928E+03  0.34493170485E+03  0.00000000000E+00 0. -1.
         -5    1    3    3    0  503  0.35569302649E+02 -0.43140772122E+02 -0.30693786566E+03  0.31202442995E+03  0.47000000000E+01 0.  1.
         11    1    4    4    0    0 -0.41074924496E+02 -0.14154063840E+01 -0.68434386634E+02  0.79827426813E+02  0.00000000000E+00 0. -1.
        -12    1    4    4    0    0  0.22435719590E+02  0.12222736253E+02 -0.24841079662E+01  0.25669584870E+02  0.00000000000E+00 0.  1.
</event>
<event>
12    1  0.8258923E-002  0.2086967E+03  0.7818608E-02  0.1142661E+00
         21   -1    0    0  503  502  0.00000000000E+00  0.00000000000E+00  0.13658189673E+03  0.13658189673E+03  0.00000000000E+00 0.  1.
         21   -1    0    0  501  503 -0.00000000000E+00 -0.00000000000E+00 -0.31848071219E+03  0.31848071219E+03  0.00000000000E+00 0. -1.
          6    2    1    2  501    0 -0.19815080245E+02 -0.11644333698E+03 -0.88175184258E+02  0.22628667500E+03  0.17169481073E+03 0.  0.
         24    2    3    3    0    0 -0.51660937925E+02 -0.10141695434E+03 -0.82625059250E+01  0.13883339041E+03  0.79070792043E+02 0.  0.
         -6    2    1    2    0  502  0.19815080245E+02  0.11644333698E+03 -0.93723631198E+02  0.22877593392E+03  0.17205412161E+03 0.  0.
        -24    2    5    5    0    0 -0.41366178055E+02  0.54194147736E+02 -0.56492263268E+01  0.10469008169E+03  0.79246028993E+02 0.  0.
          5    1    3    3  501    0  0.31845857680E+02 -0.15026382637E+02 -0.79912678333E+02  0.87453284586E+02  0.47000000000E+01 0. -1.
        -13    1    4    4    0    0  0.12707415113E+02 -0.12838312637E+02  0.18769206842E+02  0.26049640990E+02  0.00000000000E+00 0.  1.
         14    1    4    4    0    0 -0.64368353038E+02 -0.88578641704E+02 -0.27031712767E+02  0.11278374942E+03  0.00000000000E+00 0. -1.
         -5    1    5    5    0  502  0.61181258300E+02  0.62249189242E+02 -0.88074404871E+02  0.12408585222E+03  0.47000000000E+01 0.  1.
         11    1    6    6    0    0  0.24524601107E+01  0.10636776503E+02 -0.34729124415E+02  0.36404225821E+02  0.00000000000E+00 0. -1.
        -12    1    6    6    0    0 -0.43818638165E+02  0.43557371233E+02  0.29079898089E+02  0.68285855873E+02  0.00000000000E+00 0.  1.
</event>
<event>
12    1  0.8258923E-002  0.1939197E+03  0.7818608E-02  0.1158438E+00
         21   -1    0    0  503  502  0.00000000000E+00  0.00000000000E+00  0.17544914298E+03  0.17544914298E+03  0.00000000000E+00 0.  1.
         21   -1    0    0  501  503 -0.00000000000E+00 -0.00000000000E+00 -0.41730551792E+03  0.41730551792E+03  0.00000000000E+00 0.  1.
          6    2    1    2  501    0  0.32917644254E+02  0.20107427640E+02 -0.33804591136E+03  0.38971769948E+03  0.19004464517E+03 0.  0.
         24    2    3    3    0    0  0.20204377403E+02 -0.22816848213E+02 -0.51636332927E+02  0.99792438033E+02  0.79770886805E+02 0.  0.
         -6    2    1    2    0  502 -0.32917644254E+02 -0.20107427640E+02  0.96189536419E+02  0.20303696142E+03  0.17459582136E+03 0.  0.
        -24    2    5    5    0    0 -0.63289313549E+02  0.27481817014E+02  0.16351572793E+02  0.10514229896E+03  0.77632091440E+02 0.  0.
          5    1    3    3  501    0  0.12713266851E+02  0.42924275853E+02 -0.28640957843E+03  0.28992526145E+03  0.47000000000E+01 0. -1.
        -11    1    4    4    0    0 -0.18944008863E+00 -0.15030444888E+02 -0.69796340045E+02  0.71396633287E+02  0.00000000000E+00 0.  1.
         12    1    4    4    0    0  0.20393817492E+02 -0.77864033252E+01  0.18160007118E+02  0.28395804745E+02  0.00000000000E+00 0. -1.
         -5    1    5    5    0  502  0.30371669296E+02 -0.47589244654E+02  0.79837963626E+02  0.97894662462E+02  0.47000000000E+01 0.  1.
         13    1    6    6    0    0  0.42269913417E+01  0.20129810187E+02 -0.19501639018E+02  0.28344146456E+02  0.00000000000E+00 0. -1.
        -14    1    6    6    0    0 -0.67516304891E+02  0.73520068278E+01  0.35853211811E+02  0.76798152502E+02  0.00000000000E+00 0.  1.
</event>
<event>
12    1  0.8258923E-002  0.1841408E+03  0.7818608E-02  0.1165045E+00
         21   -1    0    0  501  502  0.00000000000E+00  0.00000000000E+00  0.10911186001E+03  0.10911186001E+03  0.00000000000E+00 0. -1.
         21   -1    0    0  502  503 -0.00000000000E+00 -0.00000000000E+00 -0.34393399938E+03  0.34393399938E+03  0.00000000000E+00 0. -1.
         -6    2    1    2    0  503 -0.33268805009E+02 -0.46638085558E+02 -0.40109451922E+02  0.18845847543E+03  0.17500258402E+03 0.  0.
        -24    2    3    3    0    0 -0.81159895122E+02 -0.66628033188E+02 -0.31854323482E+02  0.13570061664E+03  0.79835681547E+02 0.  0.
          6    2    1    2  501    0  0.33268805009E+02  0.46638085558E+02 -0.19471268744E+03  0.26458738396E+03  0.16973959081E+03 0.  0.
         24    2    5    5    0    0 -0.20896169026E+02  0.10047233214E+02 -0.17959068653E+03  0.19733041555E+03  0.78414803703E+02 0.  0.
          5    1    5    5  501    0  0.54164974035E+02  0.36590852344E+02 -0.15122000917E+02  0.67256968407E+02  0.47000000000E+01 0. -1.
        -13    1    6    6    0    0  0.71295369585E+01 -0.28910894340E+02 -0.41048182073E+02  0.50711175891E+02  0.00000000000E+00 0.  1.
         14    1    6    6    0    0 -0.28025705985E+02  0.38958127554E+02 -0.13854250445E+03  0.14661923966E+03  0.00000000000E+00 0. -1.
         -5    1    3    3    0  503  0.47891090113E+02  0.19989947630E+02 -0.82551284397E+01  0.52757858789E+02  0.47000000000E+01 0.  1.
         13    1    4    4    0    0 -0.15483193220E+02  0.15276553298E+02  0.83253487441E+01  0.23289778544E+02  0.00000000000E+00 0. -1.
        -14    1    4    4    0    0 -0.65676701902E+02 -0.81904586486E+02 -0.40179672227E+02  0.11241083809E+03  0.00000000000E+00 0.  1.
</event>
<event>
12    1  0.8258923E-002  0.1873553E+03  0.7818608E-02  0.1162858E+00
         21   -1    0    0  501  502  0.00000000000E+00  0.00000000000E+00  0.21678861018E+03  0.21678861018E+03  0.00000000000E+00 0. -1.
         21   -1    0    0  502  503 -0.00000000000E+00 -0.00000000000E+00 -0.32072750299E+03  0.32072750299E+03  0.00000000000E+00 0. -1.
         -6    2    1    2    0  503 -0.27152778931E+02 -0.51355512205E+02 -0.24589252839E+03  0.30913614176E+03  0.17812174654E+03 0.  0.
        -24    2    3    3    0    0 -0.58718677091E+02  0.24205268004E+02 -0.16407165297E+03  0.19328026973E+03  0.80024854371E+02 0.  0.
          6    2    1    2  501    0  0.27152778931E+02  0.51355512205E+02  0.14195363559E+03  0.22837997141E+03  0.16920967657E+03 0.  0.
         24    2    5    5    0    0 -0.12502343238E+02  0.15862500786E+02  0.70022288843E+01  0.83237783381E+02  0.80446067991E+02 0.  0.
          5    1    5    5  501    0  0.39655122168E+02  0.35493011420E+02  0.13495140670E+03  0.14514218803E+03  0.47000000000E+01 0. -1.
        -11    1    6    6    0    0 -0.21410198679E+02  0.41407870998E+02  0.22817430432E+02  0.51900322924E+02  0.00000000000E+00 0.  1.
         12    1    6    6    0    0  0.89078554412E+01 -0.25545370213E+02 -0.15815201548E+02  0.31337460457E+02  0.00000000000E+00 0. -1.
         -5    1    3    3    0  503  0.31565898160E+02 -0.75560780209E+02 -0.81820875413E+02  0.11585587204E+03  0.47000000000E+01 0.  1.
         13    1    4    4    0    0 -0.18758326259E+01  0.31896055383E+02 -0.10965190302E+03  0.11421215756E+03  0.00000000000E+00 0. -1.
        -14    1    4    4    0    0 -0.56842844465E+02 -0.76907873784E+01 -0.54419749952E+02  0.79068112170E+02  0.00000000000E+00 0.  1.
</event>
<event>
12    1  0.8258923E-002  0.1815482E+03  0.7818608E-02  0.1166663E+00
         21   -1    0    0  503  502  0.00000000000E+00  0.00000000000E+00  0.64274161783E+02  0.64274161783E+02  0.00000000000E+00 0.  1.
         21   -1    0    0  501  503 -0.00000000000E+00 -0.00000000000E+00 -0.65237974641E+03  0.65237974641E+03  0.00000000000E+00 0.  1.
          6    2    1    2  501    0  0.40010096341E+02  0.35651534621E+02 -0.46129471720E+03  0.49520241737E+03  0.17193248186E+03 0.  0.
         24    2    3    3    0    0  0.49832357815E+02  0.50485677103E+02 -0.15183767700E+03  0.18519874266E+03  0.78815142247E+02 0.  0.
         -6    2    1    2    0  502 -0.40010096341E+02 -0.35651534621E+02 -0.12681086743E+03  0.22145149083E+03  0.17345871832E+03 0.  0.
        -24    2    5    5    0    0  0.30258904130E+02 -0.64605841273E+02 -0.79596137239E+02  0.13185570383E+03  0.77206641966E+02 0.  0.
          5    1    3    3  501    0 -0.98222614740E+01 -0.14834142482E+02 -0.30945704020E+03  0.31000367471E+03  0.47000000000E+01 0. -1.
        -13    1    4    4    0    0 -0.75754604231E+01  0.29853862874E+02 -0.10162037360E+03  0.10618540889E+03  0.00000000000E+00 0.  1.
         14    1    4    4    0    0  0.57407818238E+02  0.20631814230E+02 -0.50217303396E+02  0.79013333771E+02  0.00000000000E+00 0. -1.
         -5    1    5    5    0  502 -0.70269000471E+02  0.28954306652E+02 -0.47214730193E+02  0.89595787000E+02  0.47000000000E+01 0.  1.
         13    1    6    6    0    0 -0.12871688537E+02  0.10272788667E+02 -0.23988542041E+02  0.29097434630E+02  0.00000000000E+00 0. -1.
        -14    1    6    6    0    0  0.43130592667E+02 -0.74878629940E+02 -0.55607595198E+02  0.10275826920E+03  0.00000000000E+00 0.  1.
</event>
<event>
12    1  0.8258923E-002  0.2168615E+03  0.7818608E-02  0.1136600E+00
         21   -1    0    0  501  502  0.00000000000E+00  0.00000000000E+00  0.41294596618E+02  0.41294596618E+02  0.00000000000E+00 0.  1.
         21   -1    0    0  502  503 -0.00000000000E+00 -0.00000000000E+00 -0.11374793925E+04  0.11374793925E+04  0.00000000000E+00 0. -1.
         -6    2    1    2    0  503 -0.78901473408E+02  0.98097407320E+02 -0.60104772268E+03  0.63897361428E+03  0.17657964489E+03 0.  0.
        -24    2    3    3    0    0 -0.59707465667E+02  0.80550090671E+02 -0.59909347902E+03  0.61247404216E+03  0.78473926530E+02 0.  0.
          6    2    1    2  501    0  0.78901473408E+02 -0.98097407320E+02 -0.49513707316E+03  0.53980037479E+03  0.17428476576E+03 0.  0.
         24    2    5    5    0    0  0.54416982323E+02 -0.58504629024E+02 -0.13142957429E+03  0.17309570733E+03  0.79400197212E+02 0.  0.
          5    1    5    5  501    0  0.24484491085E+02 -0.39592778296E+02 -0.36370749888E+03  0.36670466746E+03  0.47000000000E+01 0. -1.
        -11    1    6    6    0    0  0.11055714243E+02  0.19983469936E+02 -0.23355295483E+02  0.32665543241E+02  0.00000000000E+00 0.  1.
         12    1    6    6    0    0  0.43361268080E+02 -0.78488098960E+02 -0.10807427880E+03  0.14043016409E+03  0.00000000000E+00 0. -1.
         -5    1    3    3    0  503 -0.19194007742E+02  0.17547316649E+02 -0.19542436560E+01  0.26499572130E+02  0.47000000000E+01 0.  1.
         13    1    4    4    0    0 -0.37791806865E+02  0.78786531219E+02 -0.29716222799E+03  0.30974332586E+03  0.00000000000E+00 0. -1.
        -14    1    4    4    0    0 -0.21915658802E+02  0.17635594516E+01 -0.30193125103E+03  0.30273071630E+03  0.00000000000E+00 0.  1.
</event>
<event>
12    1  0.8258923E-002  0.2066452E+03  0.7818608E-02  0.1144495E+00
         21   -1    0    0  503  502  0.00000000000E+00  0.00000000000E+00  0.29344959071E+03  0.29344959071E+03  0.00000000000E+00 0. -1.
         21   -1    0    0  501  503 -0.00000000000E+00 -0.00000000000E+00 -0.14570858075E+03  0.14570858075E+03  0.00000000000E+00 0. -1.
          6    2    1    2  501    0 -0.97263216391E+02 -0.56438205813E+02  0.92632641125E+02  0.22645763589E+03  0.17336911580E+03 0.  0.
         24    2    3    3    0    0 -0.56309145811E+02 -0.43562580569E+01 -0.18561652722E+02  0.96935336020E+02  0.76565184851E+02 0.  0.
         -6    2    1    2    0  502  0.97263216391E+02  0.56438205813E+02  0.55108368828E+02  0.21270053557E+03  0.17192783712E+03 0.  0.
        -24    2    5    5    0    0  0.28191587918E+02  0.37988798895E+02  0.94259418797E+02  0.13105394844E+03  0.77797075135E+02 0.  0.
          5    1    3    3  501    0 -0.40954070580E+02 -0.52081947756E+02  0.11119429385E+03  0.12952229987E+03  0.47000000000E+01 0. -1.
        -11    1    4    4    0    0 -0.65733943828E+02  0.18593342672E+02 -0.46013085390E+01  0.68467772004E+02  0.00000000000E+00 0.  1.
         12    1    4    4    0    0  0.94247980168E+01 -0.22949600729E+02 -0.13960344183E+02  0.28467564016E+02  0.00000000000E+00 0. -1.
         -5    1    5    5    0  502  0.69071628474E+02  0.18449406919E+02 -0.39151049969E+02  0.81646587126E+02  0.47000000000E+01 0.  1.
         13    1    6    6    0    0  0.47929764977E+02  0.48291857355E+02  0.77866232833E+02  0.10340462307E+03  0.00000000000E+00 0. -1.
        -14    1    6    6    0    0 -0.19738177059E+02 -0.10303058460E+02  0.16393185964E+02  0.27649325368E+02  0.00000000000E+00 0.  1.
</event>
<event>
12    1  0.8258923E-002  0.1725201E+03  0.7818608E-02  0.1175286E+00
         21   -1    0    0  501  502  0.00000000000E+00  0.00000000000E+00  0.80834530430E+03  0.80834530430E+03  0.00000000000E+00 0.  1.
         21   -1    0    0  502  503 -0.00000000000E+00 -0.00000000000E+00 -0.46893854246E+02  0.46893854246E+02  0.00000000000E+00 0.  1.
         -6    2    1    2    0  503 -0.11102706014E+02  0.19265545229E+02  0.18204791478E+03  0.25069664003E+03  0.17091790642E+03 0.  0.
        -24    2    3    3    0    0  0.22097534728E+02 -0.15641594392E+02  0.18408356741E+03  0.20225081190E+03  0.79282221256E+02 0.  0.
          6    2    1    2  501    0  0.11102706014E+02 -0.19265545229E+02  0.57940353527E+03  0.60454251851E+03  0.17108117573E+03 0.  0.
         24    2    5    5    0    0 -0.44177318718E+02 -0.50894495973E+02  0.35194316678E+03  0.36828718864E+03  0.85026910225E+02 0.  0.
          5    1    5    5  501    0  0.55280024732E+02  0.31628950744E+02  0.22746036849E+03  0.23625532988E+03  0.47000000000E+01 0. -1.
        -11    1    6    6    0    0  0.23859911247E+02 -0.28779591020E+01  0.58163700137E+02  0.62933250568E+02  0.00000000000E+00 0.  1.
         12    1    6    6    0    0 -0.68037229966E+02 -0.48016536871E+02  0.29377946664E+03  0.30535393807E+03  0.00000000000E+00 0. -1.
         -5    1    3    3    0  503 -0.33200240742E+02  0.34907139621E+02 -0.20356526304E+01  0.48445828132E+02  0.47000000000E+01 0.  1.
         11    1    4    4    0    0 -0.26364567282E+02 -0.21880493399E+01  0.10691274253E+03  0.11013724385E+03  0.00000000000E+00 0. -1.
        -12    1    4    4    0    0  0.48462102010E+02 -0.13453545052E+02  0.77170824875E+02  0.92113568043E+02  0.00000000000E+00 0.  1.
</event>
<event>
12    1  0.8258923E-002  0.1756156E+03  0.7818608E-02  0.1172311E+00
         21   -1    0    0  503  502  0.00000000000E+00  0.00000000000E+00  0.16250815725E+03  0.16250815725E+03  0.00000000000E+00 0.  1.
         21   -1    0    0  501  503 -0.00000000000E+00 -0.00000000000E+00 -0.23860268384E+03  0.23860268384E+03  0.00000000000E+00 0.  1.
          6    2    1    2  501    0 -0.18120581528E+02 -0.31717410417E+02 -0.12961498064E+03  0.21826793965E+03  0.17177456353E+03 0.  0.
         24    2    3    3    0    0  0.33149410959E+02 -0.21558256382E+02 -0.13667244737E+03  0.16531778973E+03  0.84184154474E+02 0.  0.
         -6    2    1    2    0  502  0.18120581528E+02  0.31717410417E+02  0.53520454051E+02  0.18284290144E+03  0.17097584042E+03 0.  0.
        -24    2    5    5    0    0 -0.50576060972E+02 -0.10541516676E+02  0.29578050398E+02  0.98579182660E+02  0.78574376684E+02 0.  0.
          5    1    3    3  501    0 -0.51269992487E+02 -0.10159154035E+02  0.70574667340E+01  0.52950149924E+02  0.47000000000E+01 0. -1.
        -13    1    4    4    0    0 -0.12712576022E+02  0.52757253501E+01 -0.99555081946E+02  0.10050202589E+03  0.00000000000E+00 0.  1.
         14    1    4    4    0    0  0.45861986981E+02 -0.26833981732E+02 -0.37117365427E+02  0.64815763837E+02  0.00000000000E+00 0. -1.
         -5    1    5    5    0  502  0.68696642500E+02  0.42258927093E+02  0.23942403653E+02  0.84263718780E+02  0.47000000000E+01 0.  1.
         11    1    6    6    0    0 -0.20082840985E+02  0.23818065404E+02 -0.14990070318E+02  0.34573442839E+02  0.00000000000E+00 0. -1.
        -12    1    6    6    0    0 -0.30493219988E+02 -0.34359582080E+02  0.44568120716E+02  0.64005739822E+02  0.00000000000E+00 0.  1.
</event>
<event>
12    1  0.8258923E-002  0.2072910E+03  0.7818608E-02  0.1143803E+00
         21   -1    0    0  503  502  0.00000000000E+00  0.00000000000E+00  0.43019494267E+03  0.43019494267E+03  0.00000000000E+00 0.  1.
         21   -1    0    0  501  503 -0.00000000000E+00 -0.00000000000E+00 -0.99709861843E+02  0.99709861843E+02  0.00000000000E+00 0.  1.
          6    2    1    2  501    0 -0.11322096000E+03 -0.20957974838E+02  0.16402289770E+03  0.26404913645E+03  0.17193083782E+03 0.  0.
         24    2    3    3    0    0 -0.13827051921E+03  0.16840115592E+02  0.12043910927E+03  0.20097923339E+03  0.80527928316E+02 0.  0.
         -6    2    1    2    0  502  0.11322096000E+03  0.20957974838E+02  0.16646218312E+03  0.26585566806E+03  0.17236982143E+03 0.  0.
        -24    2    5    5    0    0  0.12497924674E+03 -0.32724754954E+02  0.13575345100E+03  0.20272715617E+03  0.77321269328E+02 0.  0.
          5    1    3    3  501    0  0.25049559210E+02 -0.37798090431E+02  0.43583788435E+02  0.63069903053E+02  0.47000000000E+01 0. -1.
        -11    1    4    4    0    0 -0.80631917260E+02 -0.24173613488E+02  0.92099352185E+02  0.12477243423E+03  0.00000000000E+00 0.  1.
         12    1    4    4    0    0 -0.57638601948E+02  0.41013729080E+02  0.28339757082E+02  0.76206799165E+02  0.00000000000E+00 0. -1.
         -5    1    5    5    0  502 -0.11758286738E+02  0.53682729792E+02  0.30708732120E+02  0.63128511890E+02  0.47000000000E+01 0.  1.
         13    1    6    6    0    0  0.78707528332E+01 -0.16933333845E+02  0.58841777525E+02  0.61733632062E+02  0.00000000000E+00 0. -1.
        -14    1    6    6    0    0  0.11710849390E+03 -0.15791421109E+02  0.76911673475E+02  0.14099352411E+03  0.00000000000E+00 0.  1.
</event>
<event>
12    1  0.8258923E-002  0.1974751E+03  0.7818608E-02  0.1152543E+00
         21   -1    0    0  501  502  0.00000000000E+00  0.00000000000E+00  0.14843672850E+04  0.14843672850E+04  0.00000000000E+00 0. -1.
         21   -1    0    0  502  503 -0.00000000000E+00 -0.00000000000E+00 -0.71615977013E+02  0.71615977013E+02  0.00000000000E+00 0. -1.
         -6    2    1    2    0  503  0.51188620449E+02  0.76503887676E+02  0.82608754999E+02  0.21126187216E+03  0.17127245118E+03 0.  0.
        -24    2    3    3    0    0  0.69424416478E+02  0.16598440904E+02  0.10024027170E+03  0.14603789505E+03  0.78636485651E+02 0.  0.
          6    2    1    2  501    0 -0.51188620449E+02 -0.76503887676E+02  0.13301425529E+04  0.13447213898E+04  0.17470914502E+03 0.  0.
         24    2    5    5    0    0 -0.22146272334E+02 -0.11423440648E+03  0.79452397506E+03  0.80697014526E+03  0.79953182534E+02 0.  0.
          5    1    5    5  501    0 -0.29042348115E+02  0.37730518801E+02  0.53561857788E+03  0.53775124454E+03  0.47000000000E+01 0. -1.
        -11    1    6    6    0    0 -0.43332168224E+02 -0.26831591468E+02  0.26334400378E+03  0.26823063850E+03  0.00000000000E+00 0.  1.
         12    1    6    6    0    0  0.21185895889E+02 -0.87402815009E+02  0.53117997128E+03  0.53873950676E+03  0.00000000000E+00 0. -1.
         -5    1    3    3    0  503 -0.18235796029E+02  0.59905446773E+02 -0.17631516701E+02  0.65223977117E+02  0.47000000000E+01 0.  1.
         11    1    4    4    0    0  0.39794214639E+02  0.48104321769E+02  0.52018915892E+02  0.81262370764E+02  0.00000000000E+00 0. -1.
        -12    1    4    4    0    0  0.29630201839E+02 -0.31505880866E+02  0.48221355809E+02  0.64775524283E+02  0.00000000000E+00 0.  1.
</event>
<event>
12    1  0.8258923E-002  0.1756944E+03  0.7818608E-02  0.1172374E+00
         21   -1    0    0  501  502  0.00000000000E+00  0.00000000000E+00  0.17611354597E+03  0.17611354597E+03  0.00000000000E+00 0. -1.
         21   -1    0    0  502  503 -0.00000000000E+00 -0.00000000000E+00 -0.47789270681E+03  0.47789270681E+03  0.00000000000E+00 0. -1.
         -6    2    1    2    0  503  0.33983771399E+02  0.15759543631E+02 -0.41189075712E+03  0.44779741897E+03  0.17165451553E+03 0.  0.
        -24    2    3    3    0    0  0.49919990821E+02 -0.35933109825E+02 -0.15231508922E+03  0.18260369567E+03  0.79756061861E+02 0.  0.
          6    2    1    2  501    0 -0.33983771399E+02 -0.15759543631E+02  0.11011159628E+03  0.20620883381E+03  0.17027700835E+03 0.  0.
         24    2    5    5    0    0 -0.63812725497E+02 -0.15987904572E+02  0.13312736146E+03  0.16823997686E+03  0.79082984380E+02 0.  0.
          5    1    5    5  501    0  0.29828954098E+02  0.22836094052E+00 -0.23015765176E+02  0.37968856948E+02  0.47000000000E+01 0. -1.
        -13    1    6    6    0    0 -0.64111366532E+02 -0.18058964190E+02  0.45675055807E+02  0.80762641296E+02  0.00000000000E+00 0.  1.
         14    1    6    6    0    0  0.29864103460E+00  0.20710596181E+01  0.87452305649E+02  0.87477335566E+02  0.00000000000E+00 0. -1.
         -5    1    3    3    0  503 -0.15936219422E+02  0.51692653456E+02 -0.25957566790E+03  0.26519372329E+03  0.47000000000E+01 0.  1.
         11    1    4    4    0    0  0.62495472829E+01  0.14282711164E+02 -0.90309551680E+02  0.91645337056E+02  0.00000000000E+00 0. -1.
        -12    1    4    4    0    0  0.43670443538E+02 -0.50215820989E+02 -0.62005537540E+02  0.90958358616E+02  0.00000000000E+00 0.  1.
</event>
<event>
12    1  0.8258923E-002  0.2254544E+03  0.7818608E-02  0.1130132E+00
         21   -1    0    0  503  502  0.00000000000E+00  0.00000000000E+00  0.23234218003E+03  0.23234218003E+03  0.00000000000E+00 0. -1.
         21   -1    0    0  501  503 -0.00000000000E+00 -0.00000000000E+00 -0.37799240758E+03  0.37799240758E+03  0.00000000000E+00 0. -1.
          6    2    1    2  501    0 -0.12377304978E+03 -0.73716486178E+02 -0.27159006691E+03  0.35208946866E+03  0.17161567910E+03 0.  0.
         24    2    3    3    0    0 -0.22767435855E+02  0.13652594214E+02 -0.74584443364E+02  0.11403738201E+03  0.82078839165E+02 0.  0.
         -6    2    1    2    0  502  0.12377304978E+03  0.73716486178E+02  0.12593983936E+03  0.25824511895E+03  0.17342378770E+03 0.  0.
        -24    2    5    5    0    0 -0.42437243427E+01  0.33860508074E+02  0.33767143217E+02  0.95473225304E+02  0.82524987644E+02 0.  0.
          5    1    3    3  501    0 -0.10100561393E+03 -0.87369080392E+02 -0.19700562354E+03  0.23805208665E+03  0.47000000000E+01 0. -1.
        -13    1    4    4    0    0  0.14849128641E+02 -0.27040357816E+02 -0.26627462370E+02  0.40751678793E+02  0.00000000000E+00 0.  1.
         14    1    4    4    0    0 -0.37616564495E+02  0.40692952030E+02 -0.47956980994E+02  0.73285703213E+02  0.00000000000E+00 0. -1.
         -5    1    5    5    0  502  0.12801677413E+03  0.39855978104E+02  0.92172696139E+02  0.16277189365E+03  0.47000000000E+01 0.  1.
         13    1    6    6    0    0  0.12860522113E+02 -0.17749290458E+02  0.34760277348E+02  0.41093883025E+02  0.00000000000E+00 0. -1.
        -14    1    6    6    0    0 -0.17104246455E+02  0.51609798532E+02 -0.99313413137E+00  0.54379342279E+02  0.00000000000E+00 0.  1.
</event>
<event>
12    1  0.8258923E-002  0.1965466E+03  0.7818608E-02  0.1152708E+00
         21   -1    0    0  503  502  0.00000000000E+00  0.00000000000E+00  0.12357015987E+04  0.12357015987E+04  0.00000000000E+00 0.  1.
         21   -1    0    0  501  503 -0.00000000000E+00 -0.00000000000E+00 -0.33127086458E+02  0.33127086458E+02  0.00000000000E+00 0. -1.
          6    2    1    2  501    0 -0.16336386306E+02 -0.92892446788E+02  0.44994418611E+03  0.49095788581E+03  0.17231944418E+03 0.  0.
         24    2    3    3    0    0 -0.35869425939E+02 -0.64486813931E+01  0.33130052064E+03  0.34279421426E+03  0.80122638149E+02 0.  0.
         -6    2    1    2    0  502  0.16336386306E+02  0.92892446788E+02  0.75263032618E+03  0.77787079938E+03  0.17243749148E+03 0.  0.
        -24    2    5    5    0    0 -0.35378098771E+02  0.27121671541E+02  0.21624335955E+03  0.23497739289E+03  0.80411377818E+02 0.  0.
          5    1    3    3  501    0  0.19533039633E+02 -0.86443765395E+02  0.11864366546E+03  0.14816367155E+03  0.47000000000E+01 0. -1.
        -13    1    4    4    0    0 -0.51540162280E+02  0.10397657439E+01  0.11776753492E+03  0.12855606451E+03  0.00000000000E+00 0.  1.
         14    1    4    4    0    0  0.15670736341E+02 -0.74884471370E+01  0.21353298572E+03  0.21423814975E+03  0.00000000000E+00 0. -1.
         -5    1    5    5    0  502  0.51714485077E+02  0.65770775247E+02  0.53638696663E+03  0.54289340649E+03  0.47000000000E+01 0.  1.
         13    1    6    6    0    0  0.25501134196E+02  0.10773995284E+02  0.84721242824E+02  0.89129545075E+02  0.00000000000E+00 0. -1.
        -14    1    6    6    0    0 -0.60879232967E+02  0.16347676257E+02  0.13152211672E+03  0.14584784782E+03  0.00000000000E+00 0.  1.
</event>
<event>
12    1  0.8258923E-002  0.2879646E+03  0.7818608E-02  0.1091497E+00
         21   -1    0    0  503  502  0.00000000000E+00  0.00000000000E+00  0.44558523795E+03  0.44558523795E+03  0.00000000000E+00 0. -1.
         21   -1    0    0  501  503 -0.00000000000E+00 -0.00000000000E+00 -0.56772617589E+03  0.56772617589E+03  0.00000000000E+00 0. -1.
          6    2    1    2  501    0 -0.12489028931E+03  0.19384510449E+03 -0.47670253664E+03  0.55692812231E+03  0.17248221960E+03 0.  0.
         24    2    3    3    0    0 -0.14985468386E+02  0.38888478101E+02 -0.97871422421E+02  0.13310536593E+03  0.80008406560E+02 0.  0.
         -6    2    1    2    0  502  0.12489028931E+03 -0.19384510449E+03  0.35456159871E+03  0.45638329153E+03  0.17145924476E+03 0.  0.
        -24    2    5    5    0    0  0.15276651173E+03 -0.18738456586E+03  0.33788562973E+03  0.42293183002E+03  0.79082560887E+02 0.  0.
          5    1    3    3  501    0 -0.10990482092E+03  0.15495662639E+03 -0.37883111422E+03  0.42382275638E+03  0.47000000000E+01 0. -1.
        -11    1    4    4    0    0 -0.12923032853E+02  0.63285429388E+02 -0.79851601509E+02  0.10270505642E+03  0.00000000000E+00 0.  1.
         12    1    4    4    0    0 -0.20624355329E+01 -0.24396951287E+02 -0.18019820912E+02  0.30400309507E+02  0.00000000000E+00 0. -1.
         -5    1    5    5    0  502 -0.27876222424E+02 -0.64605386243E+01  0.16675968977E+02  0.33451461511E+02  0.47000000000E+01 0.  1.
         11    1    6    6    0    0  0.12355914256E+02 -0.22087110581E+02  0.90330364330E+02  0.93808761803E+02  0.00000000000E+00 0. -1.
        -12    1    6    6    0    0  0.14041059748E+03 -0.16529745528E+03  0.24755526540E+03  0.32912306822E+03  0.00000000000E+00 0.  1.
</event>
<event>
12    1  0.8258923E-002  0.1912536E+03  0.7818608E-02  0.1157431E+00
         21   -1    0    0  501  502  0.00000000000E+00  0.00000000000E+00  0.10682237757E+04  0.10682237757E+04  0.00000000000E+00 0. -1.
         21   -1    0    0  502  503 -0.00000000000E+00 -0.00000000000E+00 -0.36356647325E+02  0.36356647325E+02  0.00000000000E+00 0. -1.
         -6    2    1    2    0  503 -0.81421562069E+02 -0.20687184789E+02  0.37981702830E+03  0.42506054750E+03  0.17134194953E+03 0.  0.
        -24    2    3    3    0    0 -0.53732999269E+01  0.28950566807E+02  0.10522679633E+03  0.13580438066E+03  0.80642070103E+02 0.  0.
          6    2    1    2  501    0  0.81421562069E+02  0.20687184789E+02  0.65205010005E+03  0.67951987551E+03  0.17181530155E+03 0.  0.
         24    2    5    5    0    0  0.42750591656E+02 -0.32708967387E+02  0.20043948406E+03  0.22309810620E+03  0.81849181946E+02 0.  0.
          5    1    5    5  501    0  0.38670970413E+02  0.53396152177E+02  0.45161061599E+03  0.45642176931E+03  0.47000000000E+01 0. -1.
        -11    1    6    6    0    0  0.27943165262E+02  0.24630080902E+02  0.96999986050E+02  0.10390600880E+03  0.00000000000E+00 0.  1.
         12    1    6    6    0    0  0.14807426394E+02 -0.57339048289E+02  0.10343949801E+03  0.11919209741E+03  0.00000000000E+00 0. -1.
         -5    1    3    3    0  503 -0.76048262142E+02 -0.49637751597E+02  0.27459023198E+03  0.28925616684E+03  0.47000000000E+01 0.  1.
         13    1    4    4    0    0  0.28579102776E+02  0.40783529921E+02  0.64225041189E+02  0.81270642572E+02  0.00000000000E+00 0. -1.
        -14    1    4    4    0    0 -0.33952402703E+02 -0.11832963114E+02  0.41001755138E+02  0.54533738088E+02  0.00000000000E+00 0.  1.
</event>
<event>
12    1  0.8258923E-002  0.2489827E+03  0.7818608E-02  0.1114742E+00
         21   -1    0    0  503  502  0.00000000000E+00  0.00000000000E+00  0.24618577947E+03  0.24618577947E+03  0.00000000000E+00 0. -1.
         21   -1    0    0  501  503 -0.00000000000E+00 -0.00000000000E+00 -0.25204178365E+03  0.25204178365E+03  0.00000000000E+00 0. -1.
          6    2    1    2  501    0 -0.91236626129E+02 -0.14792753089E+03 -0.38740689893E+02  0.25197864831E+03  0.17828550644E+03 0.  0.
         24    2    3    3    0    0 -0.38627161040E+02 -0.66322212175E+02  0.48856028994E+02  0.12112583397E+03  0.79961632604E+02 0.  0.
         -6    2    1    2    0  502  0.91236626129E+02  0.14792753089E+03  0.32884685715E+02  0.24624891481E+03  0.17131972784E+03 0.  0.
        -24    2    5    5    0    0  0.94243826837E+02  0.16137809688E+03  0.63161367289E+02  0.21265236099E+03  0.79415862807E+02 0.  0.
          5    1    3    3  501    0 -0.52609465089E+02 -0.81605318717E+02 -0.87596718887E+02  0.13085281434E+03  0.47000000000E+01 0. -1.
        -13    1    4    4    0    0  0.18692517799E+02 -0.24848070440E+02 -0.59158542990E+01  0.31651763906E+02  0.00000000000E+00 0.  1.
         14    1    4    4    0    0 -0.57319678839E+02 -0.41474141735E+02  0.54771883293E+02  0.89474070067E+02  0.00000000000E+00 0. -1.
         -5    1    5    5    0  502 -0.30072007078E+01 -0.13450565989E+02 -0.30276681575E+02  0.33596553822E+02  0.47000000000E+01 0.  1.
         11    1    6    6    0    0  0.54949583586E+02  0.27601246303E+02  0.33788026430E+02  0.70163496661E+02  0.00000000000E+00 0. -1.
        -12    1    6    6    0    0  0.39294243251E+02  0.13377685058E+03  0.29373340860E+02  0.14248886432E+03  0.00000000000E+00 0.  1.
</event>
<event>
12    1  0.8258923E-002  0.2029286E+03  0.7818608E-02  0.1147510E+00
         21   -1    0    0  501  502  0.00000000000E+00  0.00000000000E+00  0.48260614084E+02  0.48260614084E+02  0.00000000000E+00 0. -1.
         21   -1    0    0  502  503 -0.00000000000E+00 -0.00000000000E+00 -0.94862307699E+03  0.94862307699E+03  0.00000000000E+00 0. -1.
         -6    2    1    2    0  503  0.10564557652E+03 -0.27790350148E+02 -0.61076992832E+03  0.64326829180E+03  0.16976718910E+03 0.  0.
        -24    2    3    3    0    0  0.83760682141E+02 -0.78106438919E+02 -0.35164601124E+03  0.37835707687E+03  0.79891756308E+02 0.  0.
          6    2    1    2  501    0 -0.10564557652E+03  0.27790350148E+02 -0.28959253458E+03  0.35361539927E+03  0.17101673344E+03 0.  0.
         24    2    5    5    0    0 -0.14131097189E+03  0.30442995747E+02 -0.22630568845E+03  0.28077055148E+03  0.81989457804E+02 0.  0.
          5    1    5    5  501    0  0.35665395365E+02 -0.26526455986E+01 -0.63286846136E+02  0.72844847787E+02  0.47000000000E+01 0. -1.
        -11    1    6    6    0    0 -0.74392385680E+02 -0.23613683899E+02 -0.85510894090E+02  0.11577541243E+03  0.00000000000E+00 0.  1.
         12    1    6    6    0    0 -0.66918586208E+02  0.54056679646E+02 -0.14079479436E+03  0.16499513906E+03  0.00000000000E+00 0. -1.
         -5    1    3    3    0  503  0.21884894382E+02  0.50316088771E+02 -0.25912391709E+03  0.26491121494E+03  0.47000000000E+01 0.  1.
         13    1    4    4    0    0  0.78134633119E+02 -0.23841272277E+02 -0.24981471324E+03  0.26283230035E+03  0.00000000000E+00 0. -1.
        -14    1    4    4    0    0  0.56260490214E+01 -0.54265166642E+02 -0.10183129800E+03  0.11552477652E+03  0.00000000000E+00 0.  1.
</event>
<event>
12    1  0.8258923E-002  0.1773549E+03  0.7818608E-02  0.1170684E+00
         21   -1    0    0  501  502  0.00000000000E+00  0.00000000000E+00  0.61352277496E+02  0.61352277496E+02  0.00000000000E+00 0.  1.
         21   -1    0    0  502  503 -0.00000000000E+00 -0.00000000000E+00 -0.74399440654E+03  0.74399440654E+03  0.00000000000E+00 0.  1.
         -6    2    1    2    0  503 -0.38861050891E+02 -0.21792451228E+02 -0.56830521048E+03  0.59533652116E+03  0.17166732059E+03 0.  0.
        -24    2    3    3    0    0  0.17322868903E+02 -0.38526720633E+02 -0.16281189906E+03  0.18560052784E+03  0.78456685298E+02 0.  0.
          6    2    1    2  501    0  0.38861050891E+02  0.21792451228E+02 -0.11433691856E+03  0.21001016288E+03  0.17042959062E+03 0.  0.
         24    2    5    5    0    0  0.82466294180E+02  0.59699928320E+01 -0.38059413253E+02  0.12061153174E+03  0.79134645779E+02 0.  0.
          5    1    5    5  501    0 -0.43605243290E+02  0.15822458396E+02 -0.76277505311E+02  0.89398631133E+02  0.47000000000E+01 0. -1.
        -11    1    6    6    0    0  0.10093270201E+02 -0.30933616130E+02 -0.50751730926E+01  0.32932052656E+02  0.00000000000E+00 0.  1.
         12    1    6    6    0    0  0.72373023980E+02  0.36903608962E+02 -0.32984240160E+02  0.87679479089E+02  0.00000000000E+00 0. -1.
         -5    1    3    3    0  503 -0.56183919794E+02  0.16734269405E+02 -0.40549331142E+03  0.40973599332E+03  0.47000000000E+01 0.  1.
         13    1    4    4    0    0 -0.31358659275E+02 -0.11939451472E+02 -0.57535711156E+02  0.66605360679E+02  0.00000000000E+00 0. -1.
        -14    1    4    4    0    0  0.48681528179E+02 -0.26587269161E+02 -0.10527618790E+03  0.11899516716E+03  0.00000000000E+00 0.  1.
</event>
<event>
12    1  0.8258923E-002  0.1950678E+03  0.7818608E-02  0.1154425E+00
         21   -1    0    0  501  502  0.00000000000E+00  0.00000000000E+00  0.10453461252E+03  0.10453461252E+03  0.00000000000E+00 0. -1.
         21   -1    0    0  502  503 -0.00000000000E+00 -0.00000000000E+00 -0.41592803517E+03  0.41592803517E+03  0.00000000000E+00 0. -1.
         -6    2    1    2    0  503  0.32302981340E+02 -0.85822639474E+02 -0.59658334081E+02  0.20199445817E+03  0.16980470034E+03 0.  0.
        -24    2    3    3    0    0  0.42302287624E+02 -0.54450156937E+02 -0.10088175611E+03  0.14902579469E+03  0.85306832313E+02 0.  0.
          6    2    1    2  501    0 -0.32302981340E+02  0.85822639474E+02 -0.25173508857E+03  0.31846818953E+03  0.17216975597E+03 0.  0.
         24    2    5    5    0    0  0.51461054690E+01  0.27945069605E+02 -0.22906476471E+03  0.24574762310E+03  0.84343455653E+02 0.  0.
          5    1    5    5  501    0 -0.37449086809E+02  0.57877569869E+02 -0.22670323860E+02  0.72720566422E+02  0.47000000000E+01 0. -1.
        -11    1    6    6    0    0  0.16612525631E+02 -0.26381955252E+02 -0.57311896683E+02  0.65242908214E+02  0.00000000000E+00 0.  1.
         12    1    6    6    0    0 -0.11466420161E+02  0.54327024857E+02 -0.17175286803E+03  0.18050471489E+03  0.00000000000E+00 0. -1.
         -5    1    3    3    0  503 -0.99993062835E+01 -0.31372482537E+02  0.41223422029E+02  0.52968663476E+02  0.47000000000E+01 0.  1.
         11    1    4    4    0    0  0.30126976563E+02 -0.71099536872E+02 -0.44805893661E+02  0.89276799713E+02  0.00000000000E+00 0. -1.
        -12    1    4    4    0    0  0.12175311060E+02  0.16649379935E+02 -0.56075862450E+02  0.59748994980E+02  0.00000000000E+00 0.  1.
</event>
<event>
12    1  0.8258923E-002  0.2084702E+03  0.7818608E-02  0.1143124E+00
         21   -1    0    0  501  502  0.00000000000E+00  0.00000000000E+00  0.54288238707E+03  0.54288238707E+03  0.00000000000E+00 0. -1.
         21   -1    0    0  502  503 -0.00000000000E+00 -0.00000000000E+00 -0.89616757799E+02  0.89616757799E+02  0.00000000000E+00 0.  1.
         -6    2    1    2    0  503 -0.16553765441E+02 -0.11113812314E+03  0.12068886224E+03  0.24088512425E+03  0.17559650354E+03 0.  0.
        -24    2    3    3    0    0  0.33015019926E+02 -0.80303137466E+02  0.13123639172E+02  0.11840970616E+03  0.79435780226E+02 0.  0.
          6    2    1    2  501    0  0.16553765441E+02  0.11113812314E+03  0.33257676703E+03  0.39161402061E+03  0.17357570570E+03 0.  0.
         24    2    5    5    0    0 -0.39456668078E+02  0.10252274507E+03  0.16661608363E+03  0.21618189175E+03  0.83102040200E+02 0.  0.
          5    1    5    5  501    0  0.56010433518E+02  0.86153780703E+01  0.16596068340E+03  0.17543212886E+03  0.47000000000E+01 0. -1.
        -11    1    6    6    0    0 -0.35535746296E+02  0.12458781222E+01  0.54194832670E+02  0.64818372127E+02  0.00000000000E+00 0.  1.
         12    1    6    6    0    0 -0.39209217818E+01  0.10127686694E+03  0.11242125096E+03  0.15136351962E+03  0.00000000000E+00 0. -1.
         -5    1    3    3    0  503 -0.49568785367E+02 -0.30834985670E+02  0.10756522307E+03  0.12247541809E+03  0.47000000000E+01 0.  1.
         13    1    4    4    0    0  0.44529857995E+00 -0.31990407784E+02  0.42468855878E+02  0.53171309939E+02  0.00000000000E+00 0. -1.
        -14    1    4    4    0    0  0.32569721346E+02 -0.48312729682E+02 -0.29345216706E+02  0.65238396221E+02  0.00000000000E+00 0.  1.
</event>
<event>
12    1  0.8258923E-002  0.1752490E+03  0.7818608E-02  0.1172618E+00
         21   -1    0    0  503  502  0.00000000000E+00  0.00000000000E+00  0.23481303248E+03  0.23481303248E+03  0.00000000000E+00 0.  1.
         21   -1    0    0  501  503 -0.00000000000E+00 -0.00000000000E+00 -0.13041578027E+03  0.13041578027E+03  0.00000000000E+00 0.  1.
          6    2    1    2  501    0  0.26940719230E+02  0.13996094465E+02  0.49744414048E+02  0.18217218323E+03  0.17259926014E+03 0.  0.
         24    2    3    3    0    0  0.43913969261E+02 -0.15840154552E+02 -0.28058831967E+02  0.97003362279E+02  0.80268344007E+02 0.  0.
         -6    2    1    2    0  502 -0.26940719230E+02 -0.13996094465E+02  0.54652838154E+02  0.18305662952E+03  0.17204971339E+03 0.  0.
        -24    2    5    5    0    0 -0.17789324306E+02  0.45233012045E+02  0.75716689008E+02  0.11935725040E+03  0.78426084889E+02 0.  0.
          5    1    3    3  501    0 -0.16973250031E+02  0.29836249017E+02  0.77803246015E+02  0.85168820953E+02  0.47000000000E+01 0. -1.
        -11    1    4    4    0    0 -0.17035202594E+02  0.12976154266E+02  0.48884695417E+01  0.21965332718E+02  0.00000000000E+00 0.  1.
         12    1    4    4    0    0  0.60949171855E+02 -0.28816308818E+02 -0.32947301509E+02  0.75038029561E+02  0.00000000000E+00 0. -1.
         -5    1    5    5    0  502 -0.91513949236E+01 -0.59229106510E+02 -0.21063850854E+02  0.63699379116E+02  0.47000000000E+01 0.  1.
         13    1    6    6    0    0  0.16497838353E+02  0.20176606879E+01  0.59617625913E+02  0.61891121693E+02  0.00000000000E+00 0. -1.
        -14    1    6    6    0    0 -0.34287162659E+02  0.43215351357E+02  0.16099063095E+02  0.57466128708E+02  0.00000000000E+00 0.  1.
</event>
<event>
12    1  0.8258923E-002  0.2556001E+03  0.7818608E-02  0.1110270E+00
         21   -1    0    0  501  502  0.00000000000E+00  0.00000000000E+00  0.30110723786E+03  0.30110723786E+03  0.00000000000E+00 0. -1.
         21   -1    0    0  502  503 -0.00000000000E+00 -0.00000000000E+00 -0.57402798609E+03  0.57402798609E+03  0.00000000000E+00 0.  1.
         -6    2    1    2    0  503  0.14891767236E+03  0.11146150846E+03 -0.48246480877E+03  0.54462026352E+03  0.17099356340E+03 0.  0.
        -24    2    3    3    0    0  0.12248838133E+03  0.98650121162E+02 -0.48377643182E+03  0.51484696299E+03  0.79325338674E+02 0.  0.
          6    2    1    2  501    0 -0.14891767236E+03 -0.11146150846E+03  0.20954406054E+03  0.33051496043E+03  0.17530340770E+03 0.  0.
         24    2    5    5    0    0 -0.14275906416E+02 -0.79981865498E+02  0.57956302120E+02  0.12528262487E+03  0.75735743381E+02 0.  0.
          5    1    5    5  501    0 -0.13464176595E+03 -0.31479642961E+02  0.15158775842E+03  0.20523233556E+03  0.47000000000E+01 0. -1.
        -11    1    6    6    0    0 -0.29266007863E+02 -0.18993489726E+02 -0.62759064333E+01  0.35449102525E+02  0.00000000000E+00 0.  1.
         12    1    6    6    0    0  0.14990101447E+02 -0.60988375771E+02  0.64232208553E+02  0.89833522341E+02  0.00000000000E+00 0. -1.
         -5    1    3    3    0  503  0.26429291036E+02  0.12811387297E+02  0.13116230484E+01  0.29773300525E+02  0.47000000000E+01 0.  1.
         11    1    4    4    0    0  0.57858520956E+02  0.71911486402E-01 -0.17622227954E+03  0.18547750652E+03  0.00000000000E+00 0. -1.
        -12    1    4    4    0    0  0.64629860371E+02  0.98578209676E+02 -0.30755415228E+03  0.32936945647E+03  0.00000000000E+00 0.  1.
</event>
<event>
12    1  0.8258923E-002  0.1891379E+03  0.7818608E-02  0.1159475E+00
         21   -1    0    0  501  502  0.00000000000E+00  0.00000000000E+00  0.71290455346E+03  0.71290455346E+03  0.00000000000E+00 0. -1.
         21   -1    0    0  502  503 -0.00000000000E+00 -0.00000000000E+00 -0.84579771279E+02  0.84579771279E+02  0.00000000000E+00 0. -1.
         -6    2    1    2    0  503  0.55191264243E+02 -0.52164716471E+02  0.58354951718E+02  0.19695226846E+03  0.17209782791E+03 0.  0.
        -24    2    3    3    0    0  0.32192898402E+02  0.38355612450E+02  0.21183205234E+02  0.96320844366E+02  0.79507491228E+02 0.  0.
          6    2    1    2  501    0 -0.55191264243E+02  0.52164716471E+02  0.56996983047E+03  0.60053205628E+03  0.17322213970E+03 0.  0.
         24    2    5    5    0    0  0.30294958628E+02  0.82727801687E+01  0.17548341242E+03  0.19448277306E+03  0.77736076405E+02 0.  0.
          5    1    5    5  501    0 -0.85486222872E+02  0.43891936303E+02  0.39448641805E+03  0.40604928321E+03  0.47000000000E+01 0. -1.
        -13    1    6    6    0    0  0.10186427146E+02  0.28371205732E+02  0.19437094293E+02  0.35867662975E+02  0.00000000000E+00 0.  1.
         14    1    6    6    0    0  0.20108531482E+02 -0.20098425563E+02  0.15604631812E+03  0.15861511009E+03  0.00000000000E+00 0. -1.
         -5    1    3    3    0  503  0.22998365841E+02 -0.90520328922E+02  0.37171746484E+02  0.10063142410E+03  0.47000000000E+01 0.  1.
         13    1    4    4    0    0  0.20321946209E+01 -0.27704208251E+01 -0.26368548538E+02  0.26591453487E+02  0.00000000000E+00 0. -1.
        -14    1    4    4    0    0  0.30160703781E+02  0.41126033275E+02  0.47551753772E+02  0.69729390879E+02  0.00000000000E+00 0.  1.
</event>
<event>
12    1  0.8258923E-002  0.2031149E+03  0.7818608E-02  0.1149151E+00
         21   -1    0    0  503  502  0.00000000000E+00  0.00000000000E+00  0.58116459559E+03  0.58116459559E+03  0.00000000000E+00 0. -1.
         21   -1    0    0  501  503 -0.00000000000E+00 -0.00000000000E+00 -0.14359990687E+03  0.14359990687E+03  0.00000000000E+00 0.  1.
          6    2    1    2  501    0  0.48086117051E+02 -0.83958471798E+02 -0.42155457779E+02  0.20744332615E+03  0.17858989698E+03 0.  0.
         24    2    3    3    0    0 -0.40027756085E+02 -0.71892016302E+02 -0.35837959976E+02  0.11815920234E+03  0.76854111511E+02 0.  0.
         -6    2    1    2    0  502 -0.48086117051E+02  0.83958471798E+02  0.47972014650E+03  0.51732117631E+03  0.16771547593E+03 0.  0.
        -24    2    5    5    0    0 -0.78749515046E+02  0.78078877403E+02  0.24412603435E+03  0.27962075712E+03  0.79324964213E+02 0.  0.
          5    1    3    3  501    0  0.88113873136E+02 -0.12066455496E+02 -0.63174978029E+01  0.89284123817E+02  0.47000000000E+01 0. -1.
        -11    1    4    4    0    0 -0.11018722582E+01 -0.71568045594E+02 -0.12176388553E+02  0.72604846332E+02  0.00000000000E+00 0.  1.
         12    1    4    4    0    0 -0.38925883826E+02 -0.32397070773E+00 -0.23661571423E+02  0.45554356003E+02  0.00000000000E+00 0. -1.
         -5    1    5    5    0  502  0.30663397994E+02  0.58795943952E+01  0.23559411214E+03  0.23770041919E+03  0.47000000000E+01 0.  1.
         13    1    6    6    0    0  0.12066899753E+02  0.20088294269E+02  0.79374125723E+02  0.82761110859E+02  0.00000000000E+00 0. -1.
        -14    1    6    6    0    0 -0.90816414799E+02  0.57990583134E+02  0.16475190863E+03  0.19685964626E+03  0.00000000000E+00 0.  1.
</event>
<event>
12    1  0.8258923E-002  0.2016151E+03  0.7818608E-02  0.1148781E+00
         21   -1    0    0  501  502  0.00000000000E+00  0.00000000000E+00  0.28656188008E+02  0.28656188008E+02  0.00000000000E+00 0. -1.
         21   -1    0    0  502  503 -0.00000000000E+00 -0.00000000000E+00 -0.14106255682E+04  0.14106255682E+04  0.00000000000E+00 0. -1.
         -6    2    1    2    0  503 -0.46208079666E+02  0.94442473239E+02 -0.73244414252E+03  0.75918493161E+03  0.16980215280E+03 0.  0.
        -24    2    3    3    0    0 -0.24746261218E+02  0.73112863955E+02 -0.71409522836E+03  0.72348710907E+03  0.86854668848E+02 0.  0.
          6    2    1    2  501    0  0.46208079666E+02 -0.94442473239E+02 -0.64952523768E+03  0.68009682461E+03  0.17202932621E+03 0.  0.
         24    2    5    5    0    0 -0.20102264961E+02 -0.90553776868E+00 -0.20193100344E+03  0.21802658251E+03  0.79715365377E+02 0.  0.
          5    1    5    5  501    0  0.66310344626E+02 -0.93536935470E+02 -0.44759423424E+03  0.46207024209E+03  0.47000000000E+01 0. -1.
        -11    1    6    6    0    0 -0.36062974028E+01  0.14978610685E+02 -0.19273350987E+03  0.19334831260E+03  0.00000000000E+00 0.  1.
         12    1    6    6    0    0 -0.16495967558E+02 -0.15884148454E+02 -0.91974935663E+01  0.24678269909E+02  0.00000000000E+00 0. -1.
         -5    1    3    3    0  503 -0.21461818448E+02  0.21329609284E+02 -0.18348914156E+02  0.35697822538E+02  0.47000000000E+01 0.  1.
         13    1    4    4    0    0 -0.16482201369E+02  0.82629897405E+02 -0.38328922857E+03  0.39244107283E+03  0.00000000000E+00 0. -1.
        -14    1    4    4    0    0 -0.82640598491E+01 -0.95170334499E+01 -0.33080599979E+03  0.33104603623E+03  0.00000000000E+00 0.  1.
</event>
<event>
12    1  0.8258923E-002  0.1890180E+03  0.7818608E-02  0.1161660E+00
         21   -1    0    0  503  502  0.00000000000E+00  0.00000000000E+00  0.13717326612E+03  0.13717326612E+03  0.00000000000E+00 0. -1.
         21   -1    0    0  501  503 -0.00000000000E+00 -0.00000000000E+00 -0.39872794228E+03  0.39872794228E+03  0.00000000000E+00 0. -1.
          6    2    1    2  501    0  0.49533548984E+02 -0.17069136828E+02 -0.29820252958E+03  0.35306168063E+03  0.18161187674E+03 0.  0.
         24    2    3    3    0    0  0.55850003777E+02  0.35272675813E+02 -0.92199798645E+02  0.14036758549E+03  0.82697470372E+02 0.  0.
         -6    2    1    2    0  502 -0.49533548984E+02  0.17069136828E+02  0.36647853417E+02  0.18283952778E+03  0.17129594231E+03 0.  0.
        -24    2    5    5    0    0 -0.21974804627E+02 -0.50373977316E+02  0.48291917420E+02  0.10890893693E+03  0.80676004033E+02 0.  0.
          5    1    3    3  501    0 -0.63164547929E+01 -0.52341812641E+02 -0.20600273094E+03  0.21269409513E+03  0.47000000000E+01 0. -1.
        -13    1    4    4    0    0 -0.12878815231E+02  0.28279321658E+02 -0.92581053123E+01  0.32423701658E+02  0.00000000000E+00 0.  1.
         14    1    4    4    0    0  0.68728819008E+02  0.69933541546E+01 -0.82941693332E+02  0.10794388383E+03  0.00000000000E+00 0. -1.
         -5    1    5    5    0  502 -0.27558744357E+02  0.67443114144E+02 -0.11644064003E+02  0.73930590844E+02  0.47000000000E+01 0.  1.
         13    1    6    6    0    0  0.29482581390E+02 -0.20155700105E+02  0.29570693386E+02  0.46367022327E+02  0.00000000000E+00 0. -1.
        -14    1    6    6    0    0 -0.51457386017E+02 -0.30218277211E+02  0.18721224034E+02  0.62541914606E+02  0.00000000000E+00 0.  1.
</event>
<event>
12    1  0.8258923E-002  0.2250383E+03  0.7818608E-02  0.1130458E+00
         21   -1    0    0  501  502  0.00000000000E+00  0.00000000000E+00  0.24332204169E+03  0.24332204169E+03  0.00000000000E+00 0. -1.
         21   -1    0    0  502  503 -0.00000000000E+00 -0.00000000000E+00 -0.33607902007E+03  0.33607902007E+03  0.00000000000E+00 0. -1.
         -6    2    1    2    0  503  0.14212543895E+03 -0.13251408174E+02 -0.22620653851E+03  0.31907933405E+03  0.17397408754E+03 0.  0.
        -24    2    3    3    0    0  0.15503016027E+03 -0.24136017142E+02 -0.12403443148E+03  0.21541528049E+03  0.80014404699E+02 0.  0.
          6    2    1    2  501    0 -0.14212543895E+03  0.13251408174E+02  0.13344956014E+03  0.26032172771E+03  0.17199818779E+03 0.  0.
         24    2    5    5    0    0 -0.66076284657E+02 -0.56995812165E+02  0.86114435667E+02  0.14638819515E+03  0.79995060156E+02 0.  0.
          5    1    5    5  501    0 -0.76049154293E+02  0.70247220339E+02  0.47335124476E+02  0.11393353257E+03  0.47000000000E+01 0. -1.
        -11    1    6    6    0    0 -0.12088006029E+02 -0.16116809710E+02 -0.14701426530E+02  0.24939995730E+02  0.00000000000E+00 0.  1.
         12    1    6    6    0    0 -0.53988278629E+02 -0.40879002455E+02  0.10081586220E+03  0.12144819942E+03  0.00000000000E+00 0. -1.
         -5    1    3    3    0  503 -0.12904721318E+02  0.10884608968E+02 -0.10217210703E+03  0.10366405356E+03  0.47000000000E+01 0.  1.
         13    1    4    4    0    0  0.15797982539E+02 -0.89859274691E+01 -0.57607839340E+02  0.60406839830E+02  0.00000000000E+00 0. -1.
        -14    1    4    4    0    0  0.13923217773E+03 -0.15150089673E+02 -0.66426592140E+02  0.15500844066E+03  0.00000000000E+00 0.  1.
</event>
<event>
12    1  0.8258923E-002  0.2047504E+03  0.7818608E-02  0.1147628E+00
         21   -1    0    0  503  502  0.00000000000E+00  0.00000000000E+00  0.11281943254E+03  0.11281943254E+03  0.00000000000E+00 0.  1.
         21   -1    0    0  501  503 -0.00000000000E+00 -0.00000000000E+00 -0.36270801558E+03  0.36270801558E+03  0.00000000000E+00 0.  1.
          6    2    1    2  501    0  0.86170778216E+02 -0.59960142803E+02 -0.94949782681E+02  0.22569490935E+03  0.17578995743E+03 0.  0.
         24    2    3    3    0    0  0.41630462998E+02 -0.12392314618E+01  0.16733593373E+02  0.91802222487E+02  0.80081232272E+02 0.  0.
         -6    2    1    2    0  502 -0.86170778216E+02  0.59960142803E+02 -0.15493880035E+03  0.24983253877E+03  0.16549816866E+03 0.  0.
        -24    2    5    5    0    0 -0.77845371648E+01  0.41253567007E+02 -0.14162476164E+03  0.16801754998E+03  0.80061652378E+02 0.  0.
          5    1    3    3  501    0  0.44540315218E+02 -0.58720911341E+02 -0.11168337605E+03  0.13389268686E+03  0.47000000000E+01 0. -1.
        -11    1    4    4    0    0  0.62728860875E+02  0.11902529841E+01 -0.29995983978E+01  0.62811816399E+02  0.00000000000E+00 0.  1.
         12    1    4    4    0    0 -0.21098397877E+02 -0.24294844459E+01  0.19733191771E+02  0.28990406087E+02  0.00000000000E+00 0. -1.
         -5    1    5    5    0  502 -0.78386241051E+02  0.18706575795E+02 -0.13314038712E+02  0.81814988792E+02  0.47000000000E+01 0.  1.
         13    1    6    6    0    0 -0.21387915667E+02  0.57557729114E+02 -0.13008939249E+03  0.14385265085E+03  0.00000000000E+00 0. -1.
        -14    1    6    6    0    0  0.13603378502E+02 -0.16304162106E+02 -0.11535369153E+02  0.24164899134E+02  0.00000000000E+00 0.  1.
</event>
<event>
12    1  0.8258923E-002  0.2414085E+03  0.7818608E-02  0.1119799E+00
         21   -1    0    0  503  502  0.00000000000E+00  0.00000000000E+00  0.10000403891E+04  0.10000403891E+04  0.00000000000E+00 0. -1.
         21   -1    0    0  501  503 -0.00000000000E+00 -0.00000000000E+00 -0.62359786273E+02  0.62359786273E+02  0.00000000000E+00 0.  1.
          6    2    1    2  501    0 -0.91021374690E+02  0.13767189827E+03  0.31709925043E+03  0.39853481973E+03  0.17618066206E+03 0.  0.
         24    2    3    3    0    0 -0.11728942647E+02  0.12403572903E+02  0.48135517699E+02  0.91381726551E+02  0.75777141454E+02 0.  0.
         -6    2    1    2    0  502  0.91021374690E+02 -0.13767189827E+03  0.62058135237E+03  0.66386535562E+03  0.16839701086E+03 0.  0.
        -24    2    5    5    0    0  0.89539031453E+02 -0.96239298548E+02  0.26948982648E+03  0.31030318682E+03  0.79900315603E+02 0.  0.
          5    1    3    3  501    0 -0.79292432043E+02  0.12526832537E+03  0.26896373274E+03  0.30715309318E+03  0.47000000000E+01 0. -1.
        -11    1    4    4    0    0  0.22656102821E+02  0.15364072350E+02  0.49801730357E+02  0.56829271162E+02  0.00000000000E+00 0.  1.
         12    1    4    4    0    0 -0.34385045468E+02 -0.29604994477E+01 -0.16662126575E+01  0.34552455390E+02  0.00000000000E+00 0. -1.
         -5    1    5    5    0  502  0.14823432368E+01 -0.41432599724E+02  0.35109152589E+03  0.35356216881E+03  0.47000000000E+01 0.  1.
         13    1    6    6    0    0  0.50395016756E+02 -0.97226709789E+02  0.22974378635E+03  0.25450913181E+03  0.00000000000E+00 0. -1.
        -14    1    6    6    0    0  0.39144014697E+02  0.98741124106E+00  0.39746040131E+02  0.55794055003E+02  0.00000000000E+00 0.  1.
</event>
<event>
12    1  0.8258923E-002  0.2154359E+03  0.7818608E-02  0.1138023E+00
         21   -1    0    0  503  502  0.00000000000E+00  0.00000000000E+00  0.25116920119E+03  0.25116920119E+03  0.00000000000E+00 0. -1.
         21   -1    0    0  501  503 -0.00000000000E+00 -0.00000000000E+00 -0.21575015319E+03  0.21575015319E+03  0.00000000000E+00 0. -1.
          6    2    1    2  501    0  0.84946224204E+02  0.87357610662E+02  0.11028154114E+03  0.23884695146E+03  0.17331657381E+03 0.  0.
         24    2    3    3    0    0  0.65931687586E+02  0.26553126746E+02 -0.62002058058E+01  0.10599807025E+03  0.78390639598E+02 0.  0.
         -6    2    1    2    0  502 -0.84946224204E+02 -0.87357610662E+02 -0.74862493148E+02  0.22807240292E+03  0.17766658365E+03 0.  0.
        -24    2    5    5    0    0 -0.21100825037E+01 -0.12481077870E+02  0.24608807003E+02  0.78456390777E+02  0.73413773358E+02 0.  0.
          5    1    3    3  501    0  0.19014536618E+02  0.60804483915E+02  0.11648174695E+03  0.13284888121E+03  0.47000000000E+01 0. -1.
        -11    1    4    4    0    0  0.94667704460E+01 -0.24779664117E+02 -0.12702022598E+02  0.29410761202E+02  0.00000000000E+00 0.  1.
         12    1    4    4    0    0  0.56464917140E+02  0.51332790863E+02  0.65018167919E+01  0.76587309047E+02  0.00000000000E+00 0. -1.
         -5    1    5    5    0  502 -0.82836141700E+02 -0.74876532792E+02 -0.99471300150E+02  0.14961601214E+03  0.47000000000E+01 0.  1.
         13    1    6    6    0    0  0.45472168181E+01 -0.43010053195E+02  0.14476264524E+02  0.45608158165E+02  0.00000000000E+00 0. -1.
        -14    1    6    6    0    0 -0.66572993219E+01  0.30528975325E+02  0.10132542479E+02  0.32848232612E+02  0.00000000000E+00 0.  1.
</event>
<event>
12    1  0.8258923E-002  0.2982254E+03  0.7818608E-02  0.1086167E+00
         21   -1    0    0  503  502  0.00000000000E+00  0.00000000000E+00  0.25374574340E+03  0.25374574340E+03  0.00000000000E+00 0. -1.
         21   -1    0    0  501  503 -0.00000000000E+00 -0.00000000000E+00 -0.50524382044E+03  0.50524382044E+03  0.00000000000E+00 0.  1.
          6    2    1    2  501    0  0.60553369497E+02  0.23533754725E+03 -0.33603559230E+03  0.44928641123E+03  0.17288113928E+03 0.  0.
         24    2    3    3    0    0 -0.22132207232E+02  0.17862795232E+03 -0.20264651486E+03  0.28235043926E+03  0.79109927437E+02 0.  0.
         -6    2    1    2    0  502 -0.60553369497E+02 -0.23533754725E+03  0.84537515265E+02  0.30970315262E+03  0.17239193587E+03 0.  0.
        -24    2    5    5    0    0 -0.90961749519E+02 -0.13032460533E+03  0.10566150286E+03  0.19825495659E+03  0.53685491496E+02 0.  0.
          5    1    3    3  501    0  0.82685576729E+02  0.56709594923E+02 -0.13338907745E+03  0.16693597197E+03  0.47000000000E+01 0. -1.
        -11    1    4    4    0    0 -0.21571567714E+02  0.18687640164E+03 -0.19116179361E+03  0.26819946563E+03  0.00000000000E+00 0.  1.
         12    1    4    4    0    0 -0.56063951835E+00 -0.82484493176E+01 -0.11484721244E+02  0.14150973636E+02  0.00000000000E+00 0. -1.
         -5    1    5    5    0  502  0.30408380022E+02 -0.10501294191E+03 -0.21123987591E+02  0.11144819602E+03  0.47000000000E+01 0.  1.
         11    1    6    6    0    0 -0.57634600571E+02 -0.10260054298E+03  0.50400353852E+02  0.12801880437E+03  0.00000000000E+00 0. -1.
        -12    1    6    6    0    0 -0.33327148949E+02 -0.27724062352E+02  0.55261149005E+02  0.70236152227E+02  0.00000000000E+00 0.  1.
</event>
<event>
12    1  0.8258923E-002  0.2680468E+03  0.7818608E-02  0.1102492E+00
         21   -1    0    0  501  502  0.00000000000E+00  0.00000000000E+00  0.79200241893E+02  0.79200241893E+02  0.00000000000E+00 0. -1.
         21   -1    0    0  502  503 -0.00000000000E+00 -0.00000000000E+00 -0.10560245085E+04  0.10560245085E+04  0.00000000000E+00 0. -1.
         -6    2    1    2    0  503  0.12265847889E+03  0.16444742487E+03 -0.70252186676E+03  0.75170044071E+03  0.17154743165E+03 0.  0.
        -24    2    3    3    0    0  0.86807383092E+01  0.46790847470E+02 -0.36883645010E+03  0.37994508723E+03  0.77802337774E+02 0.  0.
          6    2    1    2  501    0 -0.12265847889E+03 -0.16444742487E+03 -0.27430239983E+03  0.38352430966E+03  0.17251385903E+03 0.  0.
         24    2    5    5    0    0 -0.35040850893E+02 -0.32349501776E+02 -0.16908510314E+03  0.19321014954E+03  0.80411680016E+02 0.  0.
          5    1    5    5  501    0 -0.87617627997E+02 -0.13209792309E+03 -0.10521729668E+03  0.19031416012E+03  0.47000000000E+01 0. -1.
        -11    1    6    6    0    0 -0.16632635664E+02  0.47831976348E+01  0.17728847466E+01  0.17397317870E+02  0.00000000000E+00 0.  1.
         12    1    6    6    0    0 -0.18408215230E+02 -0.37132699410E+02 -0.17085798789E+03  0.17581283167E+03  0.00000000000E+00 0. -1.
         -5    1    3    3    0  503  0.11397774058E+03  0.11765657740E+03 -0.33368541666E+03  0.37175535348E+03  0.47000000000E+01 0.  1.
         11    1    4    4    0    0 -0.67931822290E+01  0.12458121309E+02 -0.64153307363E+01  0.15572686981E+02  0.00000000000E+00 0. -1.
        -12    1    4    4    0    0  0.15473920538E+02  0.34332726161E+02 -0.36242111936E+03  0.36437240025E+03  0.00000000000E+00 0.  1.
</event>
<event>
12    1  0.8258923E-002  0.1880781E+03  0.7818608E-02  0.1160303E+00
         21   -1    0    0  503  502  0.00000000000E+00  0.00000000000E+00  0.19345382839E+03  0.19345382839E+03  0.00000000000E+00 0.  1.
         21   -1    0    0  501  503 -0.00000000000E+00 -0.00000000000E+00 -0.22529047867E+03  0.22529047867E+03  0.00000000000E+00 0. -1.
          6    2    1    2  501    0  0.64947189362E+02 -0.34813565493E+02 -0.10721564484E+03  0.21612307630E+03  0.17258003321E+03 0.  0.
         24    2    3    3    0    0  0.54315013230E+02  0.25961350602E+02 -0.81657574638E+01  0.99334362014E+02  0.78590861393E+02 0.  0.
         -6    2    1    2    0  502 -0.64947189362E+02  0.34813565493E+02  0.75378994553E+02  0.20262123076E+03  0.17304117599E+03 0.  0.
        -24    2    5    5    0    0  0.16388949427E+02  0.17220225709E+02 -0.77018380721E+01  0.84936873999E+02  0.81177708875E+02 0.  0.
          5    1    3    3  501    0  0.10632176132E+02 -0.60774916095E+02 -0.99049887373E+02  0.11678871428E+03  0.47000000000E+01 0. -1.
        -13    1    4    4    0    0  0.26788765015E+02 -0.20627978181E+02  0.19001599639E+02  0.38784174655E+02  0.00000000000E+00 0.  1.
         14    1    4    4    0    0  0.27526248215E+02  0.46589328782E+02 -0.27167357103E+02  0.60550187358E+02  0.00000000000E+00 0. -1.
         -5    1    5    5    0  502 -0.81336138789E+02  0.17593339784E+02  0.83080832625E+02  0.11768435677E+03  0.47000000000E+01 0.  1.
         13    1    6    6    0    0  0.48433312674E+02  0.17486909853E+01 -0.91611584147E+01  0.49323123586E+02  0.00000000000E+00 0. -1.
        -14    1    6    6    0    0 -0.32044363247E+02  0.15471534724E+02  0.14593203426E+01  0.35613750413E+02  0.00000000000E+00 0.  1.
</event>
<event>
12    1  0.8258923E-002  0.2178804E+03  0.7818608E-02  0.1135716E+00
         21   -1    0    0  503  502  0.00000000000E+00  0.00000000000E+00  0.70092343067E+02  0.70092343067E+02  0.00000000000E+00 0. -1.
         21   -1    0    0  501  503 -0.00000000000E+00 -0.00000000000E+00 -0.11176840431E+04  0.11176840431E+04  0.00000000000E+00 0. -1.
          6    2    1    2  501    0 -0.17534307829E+02  0.13139129781E+03 -0.89734054305E+03  0.92311191336E+03  0.17130215789E+03 0.  0.
         24    2    3    3    0    0 -0.66460717984E+02  0.12882265049E+03 -0.63990922999E+03  0.66101772704E+03  0.80301373091E+02 0.  0.
         -6    2    1    2    0  502  0.17534307829E+02 -0.13139129781E+03 -0.15025115702E+03  0.26466447284E+03  0.17291832727E+03 0.  0.
        -24    2    5    5    0    0  0.78342172153E+02 -0.92492903055E+02 -0.97057602033E+02  0.17487401806E+03  0.80425810696E+02 0.  0.
          5    1    3    3  501    0  0.48926410155E+02  0.25686473164E+01 -0.25743131306E+03  0.26209418632E+03  0.47000000000E+01 0. -1.
        -13    1    4    4    0    0 -0.69721027860E+01 -0.47500321285E+01 -0.57262104465E+01  0.10196200692E+02  0.00000000000E+00 0.  1.
         14    1    4    4    0    0 -0.59488615198E+02  0.13357268262E+03 -0.63418301954E+03  0.65082152635E+03  0.00000000000E+00 0. -1.
         -5    1    5    5    0  502 -0.60807864324E+02 -0.38898394756E+02 -0.53193554987E+02  0.89790454784E+02  0.47000000000E+01 0.  1.
         13    1    6    6    0    0  0.82161178985E+02 -0.60876949387E+02 -0.99830651211E+02  0.14290773674E+03  0.00000000000E+00 0. -1.
        -14    1    6    6    0    0 -0.38190068325E+01 -0.31615953668E+02  0.27730491786E+01  0.31966281318E+02  0.00000000000E+00 0.  1.
</event>
<event>
12    1  0.8258923E-002  0.1851570E+03  0.7818608E-02  0.1162959E+00
         21   -1    0    0  503  502  0.00000000000E+00  0.00000000000E+00  0.25476621535E+03  0.25476621535E+03  0.00000000000E+00 0.  1.
         21   -1    0    0  501  503 -0.00000000000E+00 -0.00000000000E+00 -0.14563336101E+03  0.14563336101E+03  0.00000000000E+00 0.  1.
          6    2    1    2  501    0 -0.64434459531E+02 -0.18266420936E+02 -0.10828209346E+01  0.18492192726E+03  0.17236439589E+03 0.  0.
         24    2    3    3    0    0 -0.37883496142E+02  0.49188539285E+02 -0.33669823497E+02  0.10530328590E+03  0.78105398858E+02 0.  0.
         -6    2    1    2    0  502  0.64434459531E+02  0.18266420936E+02  0.11021567528E+03  0.21547764910E+03  0.17261998863E+03 0.  0.
        -24    2    5    5    0    0  0.37372778456E+02  0.79013036075E+02  0.80246138383E+02  0.14238353870E+03  0.78700984283E+02 0.  0.
          5    1    3    3  501    0 -0.26550963389E+02 -0.67454960220E+02  0.32587002562E+02  0.79618641355E+02  0.47000000000E+01 0. -1.
        -13    1    4    4    0    0 -0.58314554683E+02  0.45453335152E+02 -0.11329020940E+02  0.74799329408E+02  0.00000000000E+00 0.  1.
         14    1    4    4    0    0  0.20431058541E+02  0.37352041326E+01 -0.22340802557E+02  0.30503956496E+02  0.00000000000E+00 0. -1.
         -5    1    5    5    0  502  0.27061681076E+02 -0.60746615139E+02  0.29969536896E+02  0.73094110401E+02  0.47000000000E+01 0.  1.
         11    1    6    6    0    0 -0.22164471459E+02  0.36867005573E+02  0.41565247584E+02  0.59817302695E+02  0.00000000000E+00 0. -1.
        -12    1    6    6    0    0  0.59537249915E+02  0.42146030502E+02  0.38680890799E+02  0.82566236002E+02  0.00000000000E+00 0.  1.
</event>
<event>
12    1  0.8258923E-002  0.2181322E+03  0.7818608E-02  0.1136024E+00
         21   -1    0    0  501  502  0.00000000000E+00  0.00000000000E+00  0.26077132227E+02  0.26077132227E+02  0.00000000000E+00 0.  1.
         21   -1    0    0  502  503 -0.00000000000E+00 -0.00000000000E+00 -0.18039706416E+04  0.18039706416E+04  0.00000000000E+00 0.  1.
         -6    2    1    2    0  503 -0.21760202259E+02 -0.12505808256E+03 -0.95480622013E+03  0.97854653257E+03  0.17258437933E+03 0.  0.
        -24    2    3    3    0    0 -0.29155603096E+02 -0.13189944065E+03 -0.95451550890E+03  0.96742580207E+03  0.81026626127E+02 0.  0.
          6    2    1    2  501    0  0.21760202259E+02  0.12505808256E+03 -0.82308728927E+03  0.85150124129E+03  0.17739404650E+03 0.  0.
         24    2    5    5    0    0  0.75859632004E+01  0.15888420536E+03 -0.72813525341E+03  0.74960376953E+03  0.80144410172E+02 0.  0.
          5    1    5    5  501    0  0.14174239059E+02 -0.33826122797E+02 -0.94952035859E+02  0.10189747176E+03  0.47000000000E+01 0. -1.
        -11    1    6    6    0    0 -0.13698494785E+02 -0.34761481896E+01 -0.69037212716E+02  0.70468922975E+02  0.00000000000E+00 0.  1.
         12    1    6    6    0    0  0.21284457986E+02  0.16236035355E+03 -0.65909804070E+03  0.67913484656E+03  0.00000000000E+00 0. -1.
         -5    1    3    3    0  503  0.73954008372E+01  0.68413580829E+01 -0.29071123360E+00  0.11120730506E+02  0.47000000000E+01 0.  1.
         13    1    4    4    0    0 -0.18310770042E+02 -0.40648091008E+02 -0.12267124941E+03  0.13052121297E+03  0.00000000000E+00 0. -1.
        -14    1    4    4    0    0 -0.10844833054E+02 -0.91251349637E+02 -0.83184425949E+03  0.83690458910E+03  0.00000000000E+00 0.  1.
</event>
<event>
12    1  0.8258923E-002  0.2618137E+03  0.7818608E-02  0.1106230E+00
         21   -1    0    0  503  502  0.00000000000E+00  0.00000000000E+00  0.28191902616E+03  0.28191902616E+03  0.00000000000E+00 0. -1.
         21   -1    0    0  501  503 -0.00000000000E+00 -0.00000000000E+00 -0.29333854315E+03  0.29333854315E+03  0.00000000000E+00 0. -1.
          6    2    1    2  501    0  0.17410894292E+03 -0.94739632107E+02 -0.12594036254E+03  0.28949293300E+03  0.16927983178E+03 0.  0.
         24    2    3    3    0    0  0.87140514994E+02 -0.50690472944E+02  0.16877169393E+01  0.12882292164E+03  0.80184183925E+02 0.  0.
         -6    2    1    2    0  502 -0.17410894292E+03  0.94739632107E+02  0.11452084555E+03  0.28576463630E+03  0.17104643054E+03 0.  0.
        -24    2    5    5    0    0 -0.16858361407E+03  0.98908066168E+02  0.44727519078E+02  0.21547165286E+03  0.78893863756E+02 0.  0.
          5    1    3    3  501    0  0.86968427923E+02 -0.44049159164E+02 -0.12762807948E+03  0.16067001136E+03  0.47000000000E+01 0. -1.
        -11    1    4    4    0    0 -0.80460005787E+01  0.11551913195E+02  0.52812446958E+01  0.15035836169E+02  0.00000000000E+00 0.  1.
         12    1    4    4    0    0  0.95186515573E+02 -0.62242386139E+02 -0.35935277565E+01  0.11378708547E+03  0.00000000000E+00 0. -1.
         -5    1    5    5    0  502 -0.55253288501E+01 -0.41684340604E+01  0.69793326472E+02  0.70292983444E+02  0.47000000000E+01 0.  1.
         11    1    6    6    0    0 -0.53861997992E+01  0.34829524351E+02  0.39398400325E+01  0.35463068879E+02  0.00000000000E+00 0. -1.
        -12    1    6    6    0    0 -0.16319741427E+03  0.64078541816E+02  0.40787679045E+02  0.18000858398E+03  0.00000000000E+00 0.  1.
</event>
<event>
12    1  0.8258923E-002  0.1834227E+03  0.7818608E-02  0.1165815E+00
         21   -1    0    0  501  502  0.00000000000E+00  0.00000000000E+00  0.16943402142E+03  0.16943402142E+03  0.00000000000E+00 0.  1.
         21   -1    0    0  502  503 -0.00000000000E+00 -0.00000000000E+00 -0.20189128285E+03  0.20189128285E+03  0.00000000000E+00 0. -1.
         -6    2    1    2    0  503 -0.62273914570E+02  0.13923667743E+02  0.22905764545E+02  0.18484744641E+03  0.17196509947E+03 0.  0.
        -24    2    3    3    0    0 -0.27350285209E+02 -0.52471951402E+02  0.69388362359E+01  0.10800298708E+03  0.90084149471E+02 0.  0.
          6    2    1    2  501    0  0.62273914570E+02 -0.13923667743E+02 -0.55363025975E+02  0.18647785785E+03  0.16624385061E+03 0.  0.
         24    2    5    5    0    0  0.68436922922E+01 -0.29124821768E+02 -0.86638758999E+02  0.12087415292E+03  0.78798444875E+02 0.  0.
          5    1    5    5  501    0  0.55430222278E+02  0.15201154026E+02  0.31275733024E+02  0.65603704939E+02  0.47000000000E+01 0. -1.
        -13    1    6    6    0    0  0.16276552730E+02 -0.54646484479E+02 -0.56517153469E+02  0.80282956292E+02  0.00000000000E+00 0.  1.
         14    1    6    6    0    0 -0.94328604381E+01  0.25521662711E+02 -0.30121605530E+02  0.40591196623E+02  0.00000000000E+00 0. -1.
         -5    1    3    3    0  503 -0.34923629361E+02  0.66395619145E+02  0.15966928309E+02  0.76844459326E+02  0.47000000000E+01 0.  1.
         13    1    4    4    0    0 -0.45488331757E+02 -0.23929408956E+02  0.36537155257E+02  0.63061625837E+02  0.00000000000E+00 0. -1.
        -14    1    4    4    0    0  0.18138046548E+02 -0.28542542447E+02 -0.29598319021E+02  0.44941361247E+02  0.00000000000E+00 0.  1.
</event>
<event>
12    1  0.8258923E-002  0.2528272E+03  0.7818608E-02  0.1111946E+00
         21   -1    0    0  503  502  0.00000000000E+00  0.00000000000E+00  0.12607148168E+04  0.12607148168E+04  0.00000000000E+00 0.  1.
         21   -1    0    0  501  503 -0.00000000000E+00 -0.00000000000E+00 -0.51166529693E+02  0.51166529693E+02  0.00000000000E+00 0.  1.
          6    2    1    2  501    0 -0.31521224637E+02  0.18356469763E+03  0.69932839295E+03  0.74362745464E+03  0.17097369474E+03 0.  0.
         24    2    3    3    0    0 -0.53266989496E+02  0.16771993128E+03  0.47265892171E+03  0.51531829122E+03  0.10573144034E+03 0.  0.
         -6    2    1    2    0  502  0.31521224637E+02 -0.18356469763E+03  0.51021989413E+03  0.56825389183E+03  0.16702861847E+03 0.  0.
        -24    2    5    5    0    0 -0.28135263233E+02 -0.14799402160E+03  0.28217297185E+03  0.32981803399E+03  0.80402276323E+02 0.  0.
          5    1    3    3  501    0  0.21745764859E+02  0.15844766355E+02  0.22666947124E+03  0.22830916343E+03  0.47000000000E+01 0. -1.
        -13    1    4    4    0    0 -0.47019912670E+02  0.12503521672E+02  0.13902605010E+03  0.14729376378E+03  0.00000000000E+00 0.  1.
         14    1    4    4    0    0 -0.62470768262E+01  0.15521640961E+03  0.33363287161E+03  0.36802452744E+03  0.00000000000E+00 0. -1.
         -5    1    5    5    0  502  0.59656487869E+02 -0.35570676033E+02  0.22804692228E+03  0.23843585783E+03  0.47000000000E+01 0.  1.
         11    1    6    6    0    0 -0.96375507827E+01 -0.11453003596E+02  0.10150802244E+03  0.10260571279E+03  0.00000000000E+00 0. -1.
        -12    1    6    6    0    0 -0.18497712450E+02 -0.13654101800E+03  0.18066494941E+03  0.22721232121E+03  0.00000000000E+00 0.  1.
</event>
<event>
12    1  0.8258923E-002  0.1957774E+03  0.7818608E-02  0.1153820E+00
         21   -1    0    0  501  502  0.00000000000E+00  0.00000000000E+00  0.99591517179E+02  0.99591517179E+02  0.00000000000E+00 0.  1.
         21   -1    0    0  502  503 -0.00000000000E+00 -0.00000000000E+00 -0.38237540078E+03  0.38237540078E+03  0.00000000000E+00 0.  1.
         -6    2    1    2    0  503  0.85523910143E+02 -0.22803395532E+02 -0.12440560877E+03  0.23014859975E+03  0.17221291594E+03 0.  0.
        -24    2    3    3    0    0 -0.10621833196E+02 -0.29211284052E+02 -0.18733424079E+02  0.87062032891E+02  0.79137437012E+02 0.  0.
          6    2    1    2  501    0 -0.85523910143E+02  0.22803395532E+02 -0.15837827483E+03  0.25181831821E+03  0.17462661136E+03 0.  0.
         24    2    5    5    0    0 -0.56007895522E+02 -0.23677107833E+02 -0.16801394880E+03  0.19572403575E+03  0.79885676958E+02 0.  0.
          5    1    5    5  501    0 -0.29516014621E+02  0.46480503366E+02  0.96356739675E+01  0.56094282463E+02  0.47000000000E+01 0. -1.
        -13    1    6    6    0    0 -0.66105771129E+02  0.65863110101E+01 -0.93794287026E+02  0.11493789953E+03  0.00000000000E+00 0.  1.
         14    1    6    6    0    0  0.10097875608E+02 -0.30263418843E+02 -0.74219661774E+02  0.80786136222E+02  0.00000000000E+00 0. -1.
         -5    1    3    3    0  503  0.96145743339E+02  0.64078885197E+01 -0.10567218469E+03  0.14308656686E+03  0.47000000000E+01 0.  1.
         11    1    4    4    0    0 -0.26947162510E+02  0.54109612020E+01 -0.35814751615E+02  0.45145592273E+02  0.00000000000E+00 0. -1.
        -12    1    4    4    0    0  0.16325329314E+02 -0.34622245254E+02  0.17081327536E+02  0.41916440617E+02  0.00000000000E+00 0.  1.
</event>
<event>
12    1  0.8258923E-002  0.1784491E+03  0.7818608E-02  0.1169423E+00
         21   -1    0    0  501  502  0.00000000000E+00  0.00000000000E+00  0.17453926472E+04  0.17453926472E+04  0.00000000000E+00 0.  1.
         21   -1    0    0  502  503 -0.00000000000E+00 -0.00000000000E+00 -0.40288281940E+02  0.40288281940E+02  0.00000000000E+00 0.  1.
         -6    2    1    2    0  503  0.44991845915E+02  0.22232629502E+02  0.19094878939E+03  0.26104615971E+03  0.17077792983E+03 0.  0.
        -24    2    3    3    0    0 -0.23118099422E+01 -0.32361637570E+02  0.16133094905E+03  0.18283186229E+03  0.79669283260E+02 0.  0.
          6    2    1    2  501    0 -0.44991845915E+02 -0.22232629502E+02  0.15141555758E+04  0.15246347694E+04  0.17124694510E+03 0.  0.
         24    2    5    5    0    0 -0.11752948251E+02  0.50041029549E+02  0.65377596241E+03  0.66057257528E+03  0.79315078958E+02 0.  0.
          5    1    5    5  501    0 -0.33238897664E+02 -0.72273659052E+02  0.86037961342E+03  0.86406219411E+03  0.47000000000E+01 0. -1.
        -11    1    6    6    0    0 -0.19213888441E+02 -0.17724165447E+02  0.20105687583E+03  0.20274907366E+03  0.00000000000E+00 0.  1.
         12    1    6    6    0    0  0.74609401898E+01  0.67765194996E+02  0.45271908658E+03  0.45782350162E+03  0.00000000000E+00 0. -1.
         -5    1    3    3    0  503  0.47303655857E+02  0.54594267072E+02  0.29617840339E+02  0.78214297420E+02  0.47000000000E+01 0.  1.
         13    1    4    4    0    0 -0.22947750984E+02  0.62250715401E+01  0.12102795514E+03  0.12334146390E+03  0.00000000000E+00 0. -1.
        -14    1    4    4    0    0  0.20635941042E+02 -0.38586709110E+02  0.40302993908E+02  0.59490398389E+02  0.00000000000E+00 0.  1.
</event>
<event>
12    1  0.8258923E-002  0.1891620E+03  0.7818608E-02  0.1159565E+00
         21   -1    0    0  503  502  0.00000000000E+00  0.00000000000E+00  0.79148671986E+03  0.79148671986E+03  0.00000000000E+00 0.  1.
         21   -1    0    0  501  503 -0.00000000000E+00 -0.00000000000E+00 -0.46121494693E+02  0.46121494693E+02  0.00000000000E+00 0.  1.
          6    2    1    2  501    0 -0.78754950612E+02  0.10502871974E+02  0.30160960471E+03  0.35521698297E+03  0.16999440806E+03 0.  0.
         24    2    3    3    0    0 -0.91185472136E+01 -0.19305904696E+02  0.25648764296E+03  0.26692274036E+03  0.70752897284E+02 0.  0.
         -6    2    1    2    0  502  0.78754950612E+02 -0.10502871974E+02  0.44375562046E+03  0.48239123158E+03  0.17166711117E+03 0.  0.
        -24    2    5    5    0    0  0.51822443125E+02 -0.64555757937E+02  0.36492538267E+03  0.38297608772E+03  0.81529978241E+02 0.  0.
          5    1    3    3  501    0 -0.69636403398E+02  0.29808776670E+02  0.45121961752E+02  0.88294242605E+02  0.47000000000E+01 0. -1.
        -11    1    4    4    0    0 -0.27512185538E+02 -0.36672822007E+02  0.19728709131E+03  0.20254385358E+03  0.00000000000E+00 0.  1.
         12    1    4    4    0    0  0.18393638324E+02  0.17366917311E+02  0.59200551650E+02  0.64378886783E+02  0.00000000000E+00 0. -1.
         -5    1    5    5    0  502  0.26932507487E+02  0.54052885963E+02  0.78830237785E+02  0.99415143865E+02  0.47000000000E+01 0.  1.
         13    1    6    6    0    0 -0.13871360810E+02  0.93189489051E+01  0.40176992611E+02  0.43513770173E+02  0.00000000000E+00 0. -1.
        -14    1    6    6    0    0  0.65693803935E+02 -0.73874706843E+02  0.32474839006E+03  0.33946231755E+03  0.00000000000E+00 0.  1.
</event>
<event>
12    1  0.8258923E-002  0.1972210E+03  0.7818608E-02  0.1154691E+00
         21   -1    0    0  501  502  0.00000000000E+00  0.00000000000E+00  0.46762364736E+03  0.46762364736E+03  0.00000000000E+00 0.  1.
         21   -1    0    0  502  503 -0.00000000000E+00 -0.00000000000E+00 -0.16878848045E+03  0.16878848045E+03  0.00000000000E+00 0.  1.
         -6    2    1    2    0  503 -0.19178420214E+02 -0.67688740300E+02 -0.81363415965E+02  0.21334505626E+03  0.18424584176E+03 0.  0.
        -24    2    3    3    0    0 -0.69387459900E+01 -0.11827172014E+03 -0.72903960089E+02  0.16041019186E+03  0.79875504859E+02 0.  0.
          6    2    1    2  501    0  0.19178420214E+02  0.67688740300E+02  0.38019858287E+03  0.42306707155E+03  0.17171257162E+03 0.  0.
         24    2    5    5    0    0 -0.40471089937E+02  0.70365271198E+02  0.31538344753E+03  0.33481561464E+03  0.77753432832E+02 0.  0.
          5    1    5    5  501    0  0.59649510151E+02 -0.26765308978E+01  0.64815135336E+02  0.88251456914E+02  0.47000000000E+01 0. -1.
        -11    1    6    6    0    0  0.39648023624E+01  0.42877567747E+02  0.58312202358E+02  0.72488057068E+02  0.00000000000E+00 0.  1.
         12    1    6    6    0    0 -0.44435892299E+02  0.27487703451E+02  0.25707124517E+03  0.26232755757E+03  0.00000000000E+00 0. -1.
         -5    1    3    3    0  503 -0.12239674224E+02  0.50582979840E+02 -0.84594558759E+01  0.52934864393E+02  0.47000000000E+01 0.  1.
         13    1    4    4    0    0 -0.16831086845E+02 -0.27947895065E+02  0.13233714088E+02  0.35206554951E+02  0.00000000000E+00 0. -1.
        -14    1    4    4    0    0  0.98923408547E+01 -0.90323825076E+02 -0.86137674176E+02  0.12520363691E+03  0.00000000000E+00 0.  1.
</event>
<event>
12    1  0.8258923E-002  0.1803726E+03  0.7818608E-02  0.1168769E+00
         21   -1    0    0  501  502  0.00000000000E+00  0.00000000000E+00  0.29628648201E+03  0.29628648201E+03  0.00000000000E+00 0.  1.
         21   -1    0    0  502  503 -0.00000000000E+00 -0.00000000000E+00 -0.20819490513E+03  0.20819490513E+03  0.00000000000E+00 0.  1.
         -6    2    1    2    0  503 -0.38937507744E+02 -0.75760843874E+01 -0.13185762568E+03  0.22342945578E+03  0.17595670404E+03 0.  0.
        -24    2    3    3    0    0  0.33760415432E+02  0.82771248176E+01 -0.22660647195E+02  0.91208495318E+02  0.81223200144E+02 0.  0.
          6    2    1    2  501    0  0.38937507744E+02  0.75760843874E+01  0.21994920256E+03  0.28105193136E+03  0.17040836204E+03 0.  0.
         24    2    5    5    0    0  0.29581039045E+02  0.69616872700E+02  0.16596018414E+03  0.19814531504E+03  0.77441825361E+02 0.  0.
          5    1    5    5  501    0  0.93564686988E+01 -0.62040788313E+02  0.53989018418E+02  0.82906616327E+02  0.47000000000E+01 0. -1.
        -11    1    6    6    0    0  0.81484795280E+01 -0.14468632361E+02  0.92328109348E+01  0.18999574699E+02  0.00000000000E+00 0.  1.
         12    1    6    6    0    0  0.21432559517E+02  0.84085505061E+02  0.15672737321E+03  0.17914574034E+03  0.00000000000E+00 0. -1.
         -5    1    3    3    0  503 -0.72697923176E+02 -0.15853209205E+02 -0.10919697848E+03  0.13222096046E+03  0.47000000000E+01 0.  1.
         13    1    4    4    0    0  0.31480735928E+02  0.42797886877E+02 -0.18979067531E+02  0.56417203583E+02  0.00000000000E+00 0. -1.
        -14    1    4    4    0    0  0.22796795040E+01 -0.34520762060E+02 -0.36815796637E+01  0.34791291736E+02  0.00000000000E+00 0.  1.
</event>
<event>
12    1  0.8258923E-002  0.2157256E+03  0.7818608E-02  0.1137230E+00
         21   -1    0    0  503  502  0.00000000000E+00  0.00000000000E+00  0.11444835837E+04  0.11444835837E+04  0.00000000000E+00 0. -1.
         21   -1    0    0  501  503 -0.00000000000E+00 -0.00000000000E+00 -0.44775054872E+02  0.44775054872E+02  0.00000000000E+00 0. -1.
          6    2    1    2  501    0 -0.57053959869E+02 -0.11533165064E+03  0.36637147035E+03  0.42484985754E+03  0.17237402121E+03 0.  0.
         24    2    3    3    0    0 -0.18890831470E+02  0.88398401220E+01  0.10854888449E+03  0.13611198460E+03  0.79426731908E+02 0.  0.
         -6    2    1    2    0  502  0.57053959869E+02  0.11533165064E+03  0.73333705847E+03  0.76440878103E+03  0.17315022152E+03 0.  0.
        -24    2    5    5    0    0  0.67039485799E+02  0.64796171793E+02  0.25424084080E+03  0.28252827599E+03  0.80566649847E+02 0.  0.
          5    1    3    3  501    0 -0.38163128400E+02 -0.12417149076E+03  0.25782258586E+03  0.28873787293E+03  0.47000000000E+01 0. -1.
        -13    1    4    4    0    0  0.15872950806E+02 -0.25700438604E+02  0.59760333090E+02  0.66960888008E+02  0.00000000000E+00 0.  1.
         14    1    4    4    0    0 -0.34763782276E+02  0.34540278726E+02  0.48788551401E+02  0.69151096596E+02  0.00000000000E+00 0. -1.
         -5    1    5    5    0  502 -0.99855259293E+01  0.50535478845E+02  0.47909621768E+03  0.48188050504E+03  0.47000000000E+01 0.  1.
         13    1    6    6    0    0  0.11269989386E+01 -0.17486858886E+02  0.30061309386E+02  0.34795727932E+02  0.00000000000E+00 0. -1.
        -14    1    6    6    0    0  0.65912486860E+02  0.82283030680E+02  0.22417953141E+03  0.24773254805E+03  0.00000000000E+00 0.  1.
</event>
<event>
12    1  0.8258923E-002  0.1836266E+03  0.7818608E-02  0.1164847E+00
         21   -1    0    0  501  502  0.00000000000E+00  0.00000000000E+00  0.25684272178E+04  0.25684272178E+04  0.00000000000E+00 0.  1.
         21   -1    0    0  502  503 -0.00000000000E+00 -0.00000000000E+00 -0.19471866257E+02  0.19471866257E+02  0.00000000000E+00 0.  1.
         -6    2    1    2    0  503 -0.45972901769E+02  0.39073763969E+02  0.20168805566E+04  0.20250293674E+04  0.17116218197E+03 0.  0.
        -24    2    3    3    0    0 -0.33366118742E+02  0.56295555369E+02  0.65809134186E+03  0.66606441526E+03  0.79215551538E+02 0.  0.
          6    2    1    2  501    0  0.45972901769E+02 -0.39073763969E+02  0.53207479499E+03  0.56286971670E+03  0.17343143828E+03 0.  0.
         24    2    5    5    0    0  0.18939784664E+02 -0.79373169697E+02  0.23183866017E+03  0.25870091788E+03  0.80735277615E+02 0.  0.
          5    1    5    5  501    0  0.27033117104E+02  0.40299405727E+02  0.30023613482E+03  0.30416879882E+03  0.47000000000E+01 0. -1.
        -11    1    6    6    0    0  0.48074527312E+02 -0.37858026352E+02  0.97550139831E+02  0.11515389753E+03  0.00000000000E+00 0.  1.
         12    1    6    6    0    0 -0.29134742648E+02 -0.41515143345E+02  0.13428852034E+03  0.14354702035E+03  0.00000000000E+00 0. -1.
         -5    1    3    3    0  503 -0.12606783027E+02 -0.17221791400E+02  0.13587892147E+04  0.13589649521E+04  0.47000000000E+01 0.  1.
         13    1    4    4    0    0 -0.31170265669E+02  0.74817023683E+02  0.58691580879E+03  0.59248572903E+03  0.00000000000E+00 0. -1.
        -14    1    4    4    0    0 -0.21958530727E+01 -0.18521468314E+02  0.71175533070E+02  0.73578686228E+02  0.00000000000E+00 0.  1.
</event>
<event>
12    1  0.8258923E-002  0.2065969E+03  0.7818608E-02  0.1144707E+00
         21   -1    0    0  503  502  0.00000000000E+00  0.00000000000E+00  0.99982508280E+03  0.99982508280E+03  0.00000000000E+00 0. -1.
         21   -1    0    0  501  503 -0.00000000000E+00 -0.00000000000E+00 -0.42488978531E+02  0.42488978531E+02  0.00000000000E+00 0. -1.
          6    2    1    2  501    0  0.59352138244E+00  0.11263559984E+03  0.51872629839E+03  0.55835403952E+03  0.17319102226E+03 0.  0.
         24    2    3    3    0    0 -0.15573778600E+02  0.12877304859E+03  0.51179565535E+03  0.53402457891E+03  0.80139986404E+02 0.  0.
         -6    2    1    2    0  502 -0.59352138244E+00 -0.11263559984E+03  0.43860980588E+03  0.48396002181E+03  0.17073842648E+03 0.  0.
        -24    2    5    5    0    0 -0.90053566994E+01 -0.13801130374E+03  0.27503898564E+03  0.31815233635E+03  0.80288536531E+02 0.  0.
          5    1    3    3  501    0  0.16167299982E+02 -0.16137448748E+02  0.69306430411E+01  0.24329460615E+02  0.47000000000E+01 0. -1.
        -11    1    4    4    0    0  0.10360280394E+02 -0.76996122028E+01  0.59161893633E+02  0.60553687717E+02  0.00000000000E+00 0.  1.
         12    1    4    4    0    0 -0.25934058994E+02  0.13647266080E+03  0.45263376172E+03  0.47347089119E+03  0.00000000000E+00 0. -1.
         -5    1    5    5    0  502  0.84118353170E+01  0.25375703892E+02  0.16357082025E+03  0.16580768546E+03  0.47000000000E+01 0.  1.
         11    1    6    6    0    0  0.16944867238E+02 -0.38639672001E+02  0.28061571088E+02  0.50671535895E+02  0.00000000000E+00 0. -1.
        -12    1    6    6    0    0 -0.25950223937E+02 -0.99371631735E+02  0.24697741455E+03  0.26748080046E+03  0.00000000000E+00 0.  1.
</event>
<event>
12    1  0.8258923E-002  0.1738559E+03  0.7818608E-02  0.1173918E+00
         21   -1    0    0  501  502  0.00000000000E+00  0.00000000000E+00  0.16783425850E+03  0.16783425850E+03  0.00000000000E+00 0.  1.
         21   -1    0    0  502  503 -0.00000000000E+00 -0.00000000000E+00 -0.13486856381E+04  0.13486856381E+04  0.00000000000E+00 0.  1.
         -6    2    1    2    0  503  0.18245424685E+02  0.74382287190E+01 -0.12962571664E+04  0.13078470438E+04  0.17260656322E+03 0.  0.
        -24    2    3    3    0    0  0.78135983323E+01  0.44057682611E+02 -0.12088670605E+04  0.12124063395E+04  0.81039685339E+02 0.  0.
          6    2    1    2  501    0 -0.18245424685E+02 -0.74382287190E+01  0.11540578676E+03  0.20867285288E+03  0.17273575525E+03 0.  0.
         24    2    5    5    0    0 -0.63705767428E+02 -0.81256077193E+01  0.12660824887E+03  0.16161224930E+03  0.77229658391E+02 0.  0.
          5    1    5    5  501    0  0.45460342742E+02  0.68737900031E+00 -0.11202462112E+02  0.47060603582E+02  0.47000000000E+01 0. -1.
        -13    1    6    6    0    0 -0.10161774394E+02 -0.30577284406E+02  0.82890586348E+02  0.88933015723E+02  0.00000000000E+00 0.  1.
         14    1    6    6    0    0 -0.53543993033E+02  0.22451676687E+02  0.43717662525E+02  0.72679233572E+02  0.00000000000E+00 0. -1.
         -5    1    3    3    0  503  0.10431826353E+02 -0.36619453892E+02 -0.87390105949E+02  0.95440704221E+02  0.47000000000E+01 0.  1.
         11    1    4    4    0    0 -0.30929920243E+02  0.74367854361E+01 -0.24361941748E+03  0.24568757868E+03  0.00000000000E+00 0. -1.
        -12    1    4    4    0    0  0.38743518575E+02  0.36620897175E+02 -0.96524764297E+03  0.96671876086E+03  0.00000000000E+00 0.  1.
</event>
<event>
12    1  0.8258923E-002  0.2014094E+03  0.7818608E-02  0.1148696E+00
         21   -1    0    0  501  502  0.00000000000E+00  0.00000000000E+00  0.56052532074E+03  0.56052532074E+03  0.00000000000E+00 0. -1.
         21   -1    0    0  502  503 -0.00000000000E+00 -0.00000000000E+00 -0.14300744767E+03  0.14300744767E+03  0.00000000000E+00 0. -1.
         -6    2    1    2    0  503 -0.70840813017E+02  0.75200845779E+02 -0.38710641197E+02  0.20509569221E+03  0.17289343893E+03 0.  0.
        -24    2    3    3    0    0  0.13741251245E+02  0.63702620816E+02 -0.40490290770E+02  0.11958784506E+03  0.91732999264E+02 0.  0.
          6    2    1    2  501    0  0.70840813017E+02 -0.75200845779E+02  0.45622851426E+03  0.49843707619E+03  0.17210890070E+03 0.  0.
         24    2    5    5    0    0  0.35165758315E+02 -0.34237409393E+02  0.41988543076E+03  0.43291133799E+03  0.93271757977E+02 0.  0.
          5    1    5    5  501    0  0.35675054702E+02 -0.40963436386E+02  0.36343083508E+02  0.65525738206E+02  0.47000000000E+01 0. -1.
        -11    1    6    6    0    0  0.27241919754E+01 -0.59299499195E+02  0.30990213770E+03  0.31553634779E+03  0.00000000000E+00 0.  1.
         12    1    6    6    0    0  0.32441566339E+02  0.25062089802E+02  0.10998329306E+03  0.11737499020E+03  0.00000000000E+00 0. -1.
         -5    1    3    3    0  503 -0.84582064263E+02  0.11498224963E+02  0.17796495724E+01  0.85507847154E+02  0.47000000000E+01 0.  1.
         11    1    4    4    0    0 -0.21959244918E+02  0.58349988272E+01 -0.46066916850E+02  0.51365518363E+02  0.00000000000E+00 0. -1.
        -12    1    4    4    0    0  0.35700496163E+02  0.57867621989E+02  0.55766260803E+01  0.68222326693E+02  0.00000000000E+00 0.  1.
</event>
<event>
12    1  0.8258923E-002  0.1749365E+03  0.7818608E-02  0.1173975E+00
         21   -1    0    0  501  502  0.00000000000E+00  0.00000000000E+00  0.36939460521E+03  0.36939460521E+03  0.00000000000E+00 0. -1.
         21   -1    0    0  502  503 -0.00000000000E+00 -0.00000000000E+00 -0.11979699737E+03  0.11979699737E+03  0.00000000000E+00 0.  1.
         -6    2    1    2    0  503 -0.38203662822E+02 -0.10241157905E+02 -0.16111667123E+02  0.17106552227E+03  0.16564850112E+03 0.  0.
        -24    2    3    3    0    0 -0.41258066756E+02  0.27654902626E+02  0.40783553087E+02  0.10247545834E+03  0.79817915585E+02 0.  0.
          6    2    1    2  501    0  0.38203662822E+02  0.10241157905E+02  0.26570927497E+03  0.31812608030E+03  0.17040652275E+03 0.  0.
         24    2    5    5    0    0 -0.26145788929E+02 -0.94725679338E+01  0.51472421357E+02  0.93517526655E+02  0.72957424635E+02 0.  0.
          5    1    5    5  501    0  0.64349451750E+02  0.19713725839E+02  0.21423685361E+03  0.22460855365E+03  0.47000000000E+01 0. -1.
        -11    1    6    6    0    0 -0.68202008733E+00 -0.34422810465E+02  0.45988045999E+02  0.57448197592E+02  0.00000000000E+00 0.  1.
         12    1    6    6    0    0 -0.25463768841E+02  0.24950242531E+02  0.54843753575E+01  0.36069329063E+02  0.00000000000E+00 0. -1.
         -5    1    3    3    0  503  0.30544039348E+01 -0.37896060530E+02 -0.56895220210E+02  0.68590063930E+02  0.47000000000E+01 0.  1.
         11    1    4    4    0    0 -0.38179585886E+02  0.10058581235E+00 -0.14330396705E+02  0.40780524343E+02  0.00000000000E+00 0. -1.
        -12    1    4    4    0    0 -0.30784808701E+01  0.27554316813E+02  0.55113949792E+02  0.61694934000E+02  0.00000000000E+00 0.  1.
</event>
<event>
12    1  0.8258923E-002  0.2677946E+03  0.7818608E-02  0.1102654E+00
         21   -1    0    0  503  502  0.00000000000E+00  0.00000000000E+00  0.26702637834E+03  0.26702637834E+03  0.00000000000E+00 0. -1.
         21   -1    0    0  501  503 -0.00000000000E+00 -0.00000000000E+00 -0.42518236687E+03  0.42518236687E+03  0.00000000000E+00 0. -1.
          6    2    1    2  501    0  0.64345697053E+02  0.19104569016E+03 -0.28969132123E+03  0.39450606533E+03  0.17628144975E+03 0.  0.
         24    2    3    3    0    0  0.21025957217E+02  0.19550710346E+02 -0.13433711853E+03  0.15904025835E+03  0.80143753391E+02 0.  0.
         -6    2    1    2    0  502 -0.64345697053E+02 -0.19104569016E+03  0.13153533271E+03  0.29770267988E+03  0.17517567582E+03 0.  0.
        -24    2    5    5    0    0 -0.93135085094E+01 -0.12995870383E+03  0.14003231482E+03  0.21491107173E+03  0.97988333058E+02 0.  0.
          5    1    3    3  501    0  0.43319739836E+02  0.17149497981E+03 -0.15535420270E+03  0.23546580698E+03  0.47000000000E+01 0. -1.
        -11    1    4    4    0    0 -0.94259908224E+01 -0.21558392533E+02 -0.11947711618E+02  0.26388660529E+02  0.00000000000E+00 0.  1.
         12    1    4    4    0    0  0.30451948039E+02  0.41109102879E+02 -0.12238940692E+03  0.13265159782E+03  0.00000000000E+00 0. -1.
         -5    1    5    5    0  502 -0.55032188544E+02 -0.61086986332E+02 -0.84969821144E+01  0.82791608150E+02  0.47000000000E+01 0.  1.
         13    1    6    6    0    0 -0.32186174798E+02 -0.50525164549E+02  0.11307810716E+03  0.12796640348E+03  0.00000000000E+00 0. -1.
        -14    1    6    6    0    0  0.22872666288E+02 -0.79433539278E+02  0.26954207657E+02  0.86944668243E+02  0.00000000000E+00 0.  1.
</event>
<event>
12    1  0.8258923E-002  0.1810803E+03  0.7818608E-02  0.1166948E+00
         21   -1    0    0  501  502  0.00000000000E+00  0.00000000000E+00  0.29385943747E+03  0.29385943747E+03  0.00000000000E+00 0. -1.
         21   -1    0    0  502  503 -0.00000000000E+00 -0.00000000000E+00 -0.11661167667E+03  0.11661167667E+03  0.00000000000E+00 0. -1.
         -6    2    1    2    0  503 -0.60613223653E+01 -0.52981601298E+02  0.43848218155E+02  0.18555887681E+03  0.17223716447E+03 0.  0.
        -24    2    3    3    0    0  0.29750203485E+01 -0.13998548291E+02  0.92348962222E+02  0.12250535918E+03  0.79211249852E+02 0.  0.
          6    2    1    2  501    0  0.60613223653E+01  0.52981601298E+02  0.13339954264E+03  0.22491223732E+03  0.17304995468E+03 0.  0.
         24    2    5    5    0    0 -0.25030913484E+02 -0.32785461989E+02  0.69360868892E+02  0.11335167973E+03  0.79600502608E+02 0.  0.
          5    1    5    5  501    0  0.31092235850E+02  0.85767063287E+02  0.64038673753E+02  0.11156055760E+03  0.47000000000E+01 0. -1.
        -13    1    6    6    0    0  0.19445141942E+02 -0.14234860963E+02  0.59456585067E+02  0.64154737312E+02  0.00000000000E+00 0.  1.
         14    1    6    6    0    0 -0.44476055426E+02 -0.18550601026E+02  0.99042838248E+01  0.49196942413E+02  0.00000000000E+00 0. -1.
         -5    1    3    3    0  503 -0.90363427138E+01 -0.38983053007E+02 -0.48500744066E+02  0.63053517637E+02  0.47000000000E+01 0.  1.
         11    1    4    4    0    0  0.17799449765E+02 -0.26563349951E+02  0.97326987973E+02  0.10244498309E+03  0.00000000000E+00 0. -1.
        -12    1    4    4    0    0 -0.14824429417E+02  0.12564801660E+02 -0.49780257518E+01  0.20060376085E+02  0.00000000000E+00 0.  1.
</event>
<event>
12    1  0.8258923E-002  0.3377162E+03  0.7818608E-02  0.1067966E+00
         21   -1    0    0  503  502  0.00000000000E+00  0.00000000000E+00  0.62481239601E+02  0.62481239601E+02  0.00000000000E+00 0.  1.
         21   -1    0    0  501  503 -0.00000000000E+00 -0.00000000000E+00 -0.19364367537E+04  0.19364367537E+04  0.00000000000E+00 0. -1.
          6    2    1    2  501    0 -0.17728602248E+02  0.28619126767E+03 -0.11842052119E+04  0.12309285773E+04  0.17499552395E+03 0.  0.
         24    2    3    3    0    0  0.40886946437E+02  0.24810105019E+03 -0.87060375028E+03  0.90959601753E+03  0.78664805383E+02 0.  0.
         -6    2    1    2    0  502  0.17728602248E+02 -0.28619126767E+03 -0.68975030223E+03  0.76798941607E+03  0.17841669973E+03 0.  0.
        -24    2    5    5    0    0  0.74214693483E+02 -0.24145635143E+03 -0.55050591979E+03  0.61113604737E+03  0.81372663028E+02 0.  0.
          5    1    3    3  501    0 -0.58615548685E+02  0.38090217473E+02 -0.31360146162E+03  0.32133255973E+03  0.47000000000E+01 0. -1.
        -13    1    4    4    0    0  0.92770882613E+01  0.22228753034E+03 -0.72330778147E+03  0.75675092153E+03  0.00000000000E+00 0.  1.
         14    1    4    4    0    0  0.31609858176E+02  0.25813519854E+02 -0.14729596882E+03  0.15284509600E+03  0.00000000000E+00 0. -1.
         -5    1    5    5    0  502 -0.56486091235E+02 -0.44734916240E+02 -0.13924438244E+03  0.15685336871E+03  0.47000000000E+01 0.  1.
         13    1    6    6    0    0  0.26631398349E+02 -0.13603591876E+03 -0.38521637917E+03  0.40939792544E+03  0.00000000000E+00 0. -1.
        -14    1    6    6    0    0  0.47583295134E+02 -0.10542043267E+03 -0.16528954062E+03  0.20173812193E+03  0.00000000000E+00 0.  1.
</event>
<event>
12    1  0.8258923E-002  0.2040019E+03  0.7818608E-02  0.1146799E+00
         21   -1    0    0  503  502  0.00000000000E+00  0.00000000000E+00  0.32714403588E+03  0.32714403588E+03  0.00000000000E+00 0. -1.
         21   -1    0    0  501  503 -0.00000000000E+00 -0.00000000000E+00 -0.15591035585E+03  0.15591035585E+03  0.00000000000E+00 0.  1.
          6    2    1    2  501    0  0.98174367031E+02 -0.44816215549E+02  0.19103049338E+03  0.27809413740E+03  0.17087129758E+03 0.  0.
         24    2    3    3    0    0  0.66559639494E+02 -0.90662510122E+02  0.97338706166E+02  0.16899961547E+03  0.80225743754E+02 0.  0.
         -6    2    1    2    0  502 -0.98174367031E+02  0.44816215549E+02 -0.19796813354E+02  0.20496025432E+03  0.17311872376E+03 0.  0.
        -24    2    5    5    0    0 -0.61427080968E+02  0.40448389964E+02 -0.79377895524E+02  0.13466490394E+03  0.80152526647E+02 0.  0.
          5    1    3    3  501    0  0.31614727537E+02  0.45846294574E+02  0.93691787216E+02  0.10909452193E+03  0.47000000000E+01 0. -1.
        -13    1    4    4    0    0  0.38749196912E+02  0.39270529610E+00  0.10526669692E+02  0.40155513365E+02  0.00000000000E+00 0.  1.
         14    1    4    4    0    0  0.27810442581E+02 -0.91055215418E+02  0.86812036474E+02  0.12884410211E+03  0.00000000000E+00 0. -1.
         -5    1    5    5    0  502 -0.36747286063E+02  0.43678255845E+01  0.59581082171E+02  0.70295350386E+02  0.47000000000E+01 0.  1.
         13    1    6    6    0    0 -0.51122960730E+02  0.34094800411E+02 -0.76511154825E+01  0.61923760359E+02  0.00000000000E+00 0. -1.
        -14    1    6    6    0    0 -0.10304120238E+02  0.63535895535E+01 -0.71726780042E+02  0.72741143579E+02  0.00000000000E+00 0.  1.
</event>
<event>
12    1  0.8258923E-002  0.2002856E+03  0.7818608E-02  0.1149560E+00
         21   -1    0    0  501  502  0.00000000000E+00  0.00000000000E+00  0.13465607670E+03  0.13465607670E+03  0.00000000000E+00 0.  1.
         21   -1    0    0  502  503 -0.00000000000E+00 -0.00000000000E+00 -0.40826952404E+03  0.40826952404E+03  0.00000000000E+00 0. -1.
         -6    2    1    2    0  503 -0.20324272853E+02 -0.99886594536E+02 -0.27830095804E+03  0.34287859031E+03  0.17240619657E+03 0.  0.
        -24    2    3    3    0    0 -0.54777280584E+01  0.17242763687E+02 -0.10819078435E+03  0.13575720647E+03  0.79984091468E+02 0.  0.
          6    2    1    2  501    0  0.20324272853E+02  0.99886594536E+02  0.46875106992E+01  0.20004701043E+03  0.17206517890E+03 0.  0.
         24    2    5    5    0    0 -0.76488870469E+01 -0.99994013150E+01 -0.22264345371E+02  0.83402583622E+02  0.79383854658E+02 0.  0.
          5    1    5    5  501    0  0.27973159900E+02  0.10988599585E+03  0.26951856070E+02  0.11664442680E+03  0.47000000000E+01 0. -1.
        -13    1    6    6    0    0 -0.40274847401E+02  0.10216609559E+02 -0.15942101073E+02  0.44503854111E+02  0.00000000000E+00 0.  1.
         14    1    6    6    0    0  0.32625960354E+02 -0.20216010874E+02 -0.63222442974E+01  0.38898729512E+02  0.00000000000E+00 0. -1.
         -5    1    3    3    0  503 -0.14846544795E+02 -0.11712935822E+03 -0.17011017369E+03  0.20712138384E+03  0.47000000000E+01 0.  1.
         13    1    4    4    0    0 -0.30997489801E+02 -0.11283390418E+02 -0.17547457197E+02  0.37364053947E+02  0.00000000000E+00 0. -1.
        -14    1    4    4    0    0  0.25519761743E+02  0.28526154105E+02 -0.90643327149E+02  0.98393152526E+02  0.00000000000E+00 0.  1.
</event>
<event>
12    1  0.8258923E-002  0.2245022E+03  0.7818608E-02  0.1130737E+00
         21   -1    0    0  503  502  0.00000000000E+00  0.00000000000E+00  0.10847429016E+04  0.10847429016E+04  0.00000000000E+00 0.  1.
         21   -1    0    0  501  503 -0.00000000000E+00 -0.00000000000E+00 -0.11109601734E+03  0.11109601734E+03  0.00000000000E+00 0.  1.
          6    2    1    2  501    0 -0.76678394927E+02 -0.11848841442E+03  0.29684719592E+02  0.22554730841E+03  0.17341085650E+03 0.  0.
         24    2    3    3    0    0 -0.90869793201E+02 -0.15140181105E+03  0.37672041039E+02  0.18852603390E+03  0.54249931603E+02 0.  0.
         -6    2    1    2    0  502  0.76678394927E+02  0.11848841442E+03  0.94396216467E+03  0.97029161054E+03  0.17459141026E+03 0.  0.
        -24    2    5    5    0    0 -0.16680056318E+01  0.73552985773E+02  0.27515277417E+03  0.29539499471E+03  0.78334729248E+02 0.  0.
          5    1    3    3  501    0  0.14191398274E+02  0.32913396620E+02 -0.79873214467E+01  0.37021274505E+02  0.47000000000E+01 0. -1.
        -13    1    4    4    0    0 -0.49914372930E+02 -0.63182879379E+02  0.42685192501E+02  0.91134771248E+02  0.00000000000E+00 0.  1.
         14    1    4    4    0    0 -0.40955420272E+02 -0.88218931666E+02 -0.50131514622E+01  0.97391262655E+02  0.00000000000E+00 0. -1.
         -5    1    5    5    0  502  0.78346400558E+02  0.44935428652E+02  0.66880939050E+03  0.67489661582E+03  0.47000000000E+01 0.  1.
         11    1    6    6    0    0 -0.43720683869E+00  0.26705361597E+01 -0.53912411223E+01  0.60322793402E+01  0.00000000000E+00 0. -1.
        -12    1    6    6    0    0 -0.12307987931E+01  0.70882449613E+02  0.28054401530E+03  0.28936271537E+03  0.00000000000E+00 0.  1.
</event>
<event>
12    1  0.8258923E-002  0.1845308E+03  0.7818608E-02  0.1163647E+00
         21   -1    0    0  503  502  0.00000000000E+00  0.00000000000E+00  0.12091518554E+03  0.12091518554E+03  0.00000000000E+00 0.  1.
         21   -1    0    0  501  503 -0.00000000000E+00 -0.00000000000E+00 -0.30208084396E+03  0.30208084396E+03  0.00000000000E+00 0.  1.
          6    2    1    2  501    0 -0.44310957915E+02 -0.48825564271E+02 -0.14684625968E+03  0.23530094675E+03  0.17162550755E+03 0.  0.
         24    2    3    3    0    0 -0.81944763398E+02 -0.68159550348E+02 -0.77921053476E+02  0.15428934028E+03  0.79830078274E+02 0.  0.
         -6    2    1    2    0  502  0.44310957915E+02  0.48825564271E+02 -0.34319398751E+02  0.18769508275E+03  0.17234914053E+03 0.  0.
        -24    2    5    5    0    0 -0.35379867953E+02  0.68702686520E+01  0.11866168071E+02  0.86373460476E+02  0.77592738592E+02 0.  0.
          5    1    3    3  501    0  0.37633805483E+02  0.19333986077E+02 -0.68925206200E+02  0.81011606468E+02  0.47000000000E+01 0. -1.
        -11    1    4    4    0    0 -0.28691360974E+02  0.16165791678E+02 -0.25279495102E+02  0.41516019652E+02  0.00000000000E+00 0.  1.
         12    1    4    4    0    0 -0.53253402424E+02 -0.84325342026E+02 -0.52641558373E+02  0.11277332063E+03  0.00000000000E+00 0. -1.
         -5    1    5    5    0  502  0.79690825868E+02  0.41955295619E+02 -0.46185566821E+02  0.10132162228E+03  0.47000000000E+01 0.  1.
         11    1    6    6    0    0 -0.16722146273E+02 -0.47183641926E+01 -0.32508591482E+02  0.36860570489E+02  0.00000000000E+00 0. -1.
        -12    1    6    6    0    0 -0.18657721680E+02  0.11588632845E+02  0.44374759553E+02  0.49512889987E+02  0.00000000000E+00 0.  1.
</event>
<event>
12    1  0.8258923E-002  0.2115528E+03  0.7818608E-02  0.1141613E+00
         21   -1    0    0  501  502  0.00000000000E+00  0.00000000000E+00  0.19809997998E+03  0.19809997998E+03  0.00000000000E+00 0.  1.
         21   -1    0    0  502  503 -0.00000000000E+00 -0.00000000000E+00 -0.23216928761E+03  0.23216928761E+03  0.00000000000E+00 0. -1.
         -6    2    1    2    0  503 -0.68859732748E+02  0.10231094063E+03 -0.68193563769E+02  0.22227221442E+03  0.17188770694E+03 0.  0.
        -24    2    3    3    0    0 -0.79210536402E+02  0.62635818136E+02 -0.10542086193E+03  0.16669149646E+03  0.80467024734E+02 0.  0.
          6    2    1    2  501    0  0.68859732748E+02 -0.10231094063E+03  0.34124256142E+02  0.20799705317E+03  0.16397901665E+03 0.  0.
         24    2    5    5    0    0  0.37255139981E+02 -0.10052608917E+03 -0.28863295083E+02  0.13734609714E+03  0.80854316744E+02 0.  0.
          5    1    5    5  501    0  0.31604592767E+02 -0.17848514537E+01  0.62987551225E+02  0.70650956030E+02  0.47000000000E+01 0. -1.
        -11    1    6    6    0    0  0.40015241248E+02 -0.23145058083E+02  0.14693235213E+02  0.48505715198E+02  0.00000000000E+00 0.  1.
         12    1    6    6    0    0 -0.27601012673E+01 -0.77381031089E+02 -0.43556530296E+02  0.88840381938E+02  0.00000000000E+00 0. -1.
         -5    1    3    3    0  503  0.10350803655E+02  0.39675122489E+02  0.37227298165E+02  0.55580717965E+02  0.47000000000E+01 0.  1.
         13    1    4    4    0    0 -0.35901991318E+02 -0.15056272906E+02 -0.43125586929E+02  0.58098714120E+02  0.00000000000E+00 0. -1.
        -14    1    4    4    0    0 -0.43308545084E+02  0.77692091042E+02 -0.62295275005E+02  0.10859278234E+03  0.00000000000E+00 0.  1.
</event>
<event>
12    1  0.8258923E-002  0.2210915E+03  0.7818608E-02  0.1133143E+00
         21   -1    0    0  501  502  0.00000000000E+00  0.00000000000E+00  0.88063959420E+02  0.88063959420E+02  0.00000000000E+00 0.  1.
         21   -1    0    0  502  503 -0.00000000000E+00 -0.00000000000E+00 -0.99236087784E+03  0.99236087784E+03  0.00000000000E+00 0. -1.
         -6    2    1    2    0  503  0.39197367247E+02  0.13319637106E+03 -0.81092929989E+03  0.84042703760E+03  0.17156214394E+03 0.  0.
        -24    2    3    3    0    0  0.11041338938E+02  0.15700359729E+03 -0.73660900838E+03  0.75732985544E+03  0.78636111266E+02 0.  0.
          6    2    1    2  501    0 -0.39197367247E+02 -0.13319637106E+03 -0.93367618525E+02  0.23999779966E+03  0.17205732995E+03 0.  0.
         24    2    5    5    0    0 -0.16639656617E+02 -0.16374771596E+03 -0.79032577047E+02  0.19913438818E+03  0.79486877332E+02 0.  0.
          5    1    5    5  501    0 -0.22557710630E+02  0.30551344896E+02 -0.14335041478E+02  0.40863411482E+02  0.47000000000E+01 0. -1.
        -13    1    6    6    0    0  0.30648919139E+02 -0.40936772375E+02 -0.23996369594E+02  0.56488948747E+02  0.00000000000E+00 0.  1.
         14    1    6    6    0    0 -0.47288575756E+02 -0.12281094358E+03 -0.55036207452E+02  0.14264543943E+03  0.00000000000E+00 0. -1.
         -5    1    3    3    0  503  0.28156028309E+02 -0.23807226227E+02 -0.74320291517E+02  0.83097182154E+02  0.47000000000E+01 0.  1.
         13    1    4    4    0    0  0.19648790028E+02  0.54526402898E+02 -0.43106030177E+03  0.43493929154E+03  0.00000000000E+00 0. -1.
        -14    1    4    4    0    0 -0.86074510902E+01  0.10247719439E+03 -0.30554870660E+03  0.32239056390E+03  0.00000000000E+00 0.  1.
</event>
<event>
12    1  0.8258923E-002  0.2351549E+03  0.7818608E-02  0.1123214E+00
         21   -1    0    0  503  502  0.00000000000E+00  0.00000000000E+00  0.67874860234E+03  0.67874860234E+03  0.00000000000E+00 0.  1.
         21   -1    0    0  501  503 -0.00000000000E+00 -0.00000000000E+00 -0.90726465851E+02  0.90726465851E+02  0.00000000000E+00 0. -1.
          6    2    1    2  501    0  0.70735652277E+01  0.15996771982E+03  0.16861901613E+03  0.28864577226E+03  0.17100965625E+03 0.  0.
         24    2    3    3    0    0 -0.20906493347E+02  0.12809056227E+02  0.47737593447E+02  0.96102363389E+02  0.79722224225E+02 0.  0.
         -6    2    1    2    0  502 -0.70735652277E+01 -0.15996771982E+03  0.41940312036E+03  0.48082929593E+03  0.17221535283E+03 0.  0.
        -24    2    5    5    0    0 -0.26534735037E+01 -0.18619038307E+02  0.23845348891E+03  0.25112547338E+03  0.76486779864E+02 0.  0.
          5    1    3    3  501    0  0.27980058574E+02  0.14715866360E+03  0.12088142268E+03  0.19254340887E+03  0.47000000000E+01 0. -1.
        -13    1    4    4    0    0 -0.21857109259E+02  0.21484608385E+02 -0.14040117594E+02  0.33711222533E+02  0.00000000000E+00 0.  1.
         14    1    4    4    0    0  0.95061591231E+00 -0.86755521583E+01  0.61777711041E+02  0.62391140856E+02  0.00000000000E+00 0. -1.
         -5    1    5    5    0  502 -0.44200917240E+01 -0.14134868152E+03  0.18094963144E+03  0.22970382255E+03  0.47000000000E+01 0.  1.
         11    1    6    6    0    0 -0.35071307157E+02 -0.14417735075E+02  0.18184613387E+03  0.18575759493E+03  0.00000000000E+00 0. -1.
        -12    1    6    6    0    0  0.32417833653E+02 -0.42013032311E+01  0.56607355048E+02  0.65367878450E+02  0.00000000000E+00 0.  1.
</event>
<event>
12    1  0.8258923E-002  0.1827730E+03  0.7818608E-02  0.1165801E+00
         21   -1    0    0  503  502  0.00000000000E+00  0.00000000000E+00  0.15791004991E+03  0.15791004991E+03  0.00000000000E+00 0.  1.
         21   -1    0    0  501  503 -0.00000000000E+00 -0.00000000000E+00 -0.23107617036E+03  0.23107617036E+03  0.00000000000E+00 0.  1.
          6    2    1    2  501    0 -0.10308883505E+02 -0.60423029927E+02 -0.97770160151E+02  0.20727995209E+03  0.17218814912E+03 0.  0.
         24    2    3    3    0    0  0.22040934688E+02 -0.86078177786E+02 -0.23090743622E+02  0.12181766449E+03  0.80069378963E+02 0.  0.
         -6    2    1    2    0  502  0.10308883505E+02  0.60423029927E+02  0.24604039704E+02  0.18170626819E+03  0.16927667738E+03 0.  0.
        -24    2    5    5    0    0  0.22951606748E+02 -0.12794486317E+02 -0.30741291020E+02  0.88938608041E+02  0.79212207988E+02 0.  0.
          5    1    3    3  501    0 -0.32349818193E+02  0.25655147859E+02 -0.74679416529E+02  0.85462287600E+02  0.47000000000E+01 0. -1.
        -11    1    4    4    0    0  0.38673952858E+02 -0.73525552589E+02 -0.42521341237E+02  0.93326019811E+02  0.00000000000E+00 0.  1.
         12    1    4    4    0    0 -0.16633018170E+02 -0.12552625198E+02  0.19430597614E+02  0.28491644678E+02  0.00000000000E+00 0. -1.
         -5    1    5    5    0  502 -0.12642723243E+02  0.73217516244E+02  0.55345330724E+02  0.92767660145E+02  0.47000000000E+01 0.  1.
         11    1    6    6    0    0  0.32562862370E+02 -0.20246998871E+02  0.15325439753E+02  0.41293462832E+02  0.00000000000E+00 0. -1.
        -12    1    6    6    0    0 -0.96112556220E+01  0.74525125539E+01 -0.46066730773E+02  0.47645145210E+02  0.00000000000E+00 0.  1.
</event>
<event>
12    1  0.8258923E-002  0.2425789E+03  0.7818608E-02  0.1118226E+00
         21   -1    0    0  503  502  0.00000000000E+00  0.00000000000E+00  0.31639907907E+03  0.31639907907E+03  0.00000000000E+00 0.  1.
         21   -1    0    0  501  503 -0.00000000000E+00 -0.00000000000E+00 -0.24178518321E+03  0.24178518321E+03  0.00000000000E+00 0.  1.
          6    2    1    2  501    0  0.91589903250E+02 -0.14331051435E+03 -0.97499532567E+02  0.26143966737E+03  0.17296799393E+03 0.  0.
         24    2    3    3    0    0  0.93199925016E+02 -0.13030404081E+03 -0.17256905627E+02  0.17999809505E+03  0.80225584168E+02 0.  0.
         -6    2    1    2    0  502 -0.91589903250E+02  0.14331051435E+03  0.17211342842E+03  0.29674459490E+03  0.17177807910E+03 0.  0.
        -24    2    5    5    0    0  0.90732507410E+01  0.88689664752E+02  0.10581589546E+03  0.16432873234E+03  0.88649579958E+02 0.  0.
          5    1    3    3  501    0 -0.16100217652E+01 -0.13006473542E+02 -0.80242626941E+02  0.81441572323E+02  0.47000000000E+01 0. -1.
        -11    1    4    4    0    0  0.21512473534E+02 -0.93248390904E+01  0.23894626781E+02  0.33476743130E+02  0.00000000000E+00 0.  1.
         12    1    4    4    0    0  0.71687451482E+02 -0.12097920172E+03 -0.41151532407E+02  0.14652135192E+03  0.00000000000E+00 0. -1.
         -5    1    5    5    0  502 -0.10066315399E+03  0.54620849598E+02  0.66297532967E+02  0.13241586257E+03  0.47000000000E+01 0.  1.
         13    1    6    6    0    0 -0.32407621481E+02  0.65108894261E+02  0.86086793409E+02  0.11269586524E+03  0.00000000000E+00 0. -1.
        -14    1    6    6    0    0  0.41480872222E+02  0.23580770491E+02  0.19729102048E+02  0.51632867099E+02  0.00000000000E+00 0.  1.
</event>
<event>
12    1  0.8258923E-002  0.1842271E+03  0.7818608E-02  0.1164430E+00
         21   -1    0    0  503  502  0.00000000000E+00  0.00000000000E+00  0.44871181999E+03  0.44871181999E+03  0.00000000000E+00 0.  1.
         21   -1    0    0  501  503 -0.00000000000E+00 -0.00000000000E+00 -0.13817582933E+03  0.13817582933E+03  0.00000000000E+00 0.  1.
          6    2    1    2  501    0  0.43724730582E+02  0.42949293112E+02 -0.43291507249E+02  0.18924528694E+03  0.17373292776E+03 0.  0.
         24    2    3    3    0    0  0.30659589864E+02 -0.30506345987E+02  0.32494448166E+02  0.82793279656E+02  0.62675277409E+02 0.  0.
         -6    2    1    2    0  502 -0.43724730582E+02 -0.42949293112E+02  0.35382749790E+03  0.39764236237E+03  0.17078950857E+03 0.  0.
        -24    2    5    5    0    0 -0.73733605053E+02 -0.46358704027E+02  0.14731447776E+03  0.18887964032E+03  0.79926148517E+02 0.  0.
          5    1    3    3  501    0  0.13065140717E+02  0.73455639100E+02 -0.75785955415E+02  0.10645200729E+03  0.47000000000E+01 0. -1.
        -11    1    4    4    0    0  0.44635649480E+02 -0.23144658370E+02  0.42842748541E+01  0.50461583671E+02  0.00000000000E+00 0.  1.
         12    1    4    4    0    0 -0.13976059615E+02 -0.73616876174E+01  0.28210173312E+02  0.32331695985E+02  0.00000000000E+00 0. -1.
         -5    1    5    5    0  502  0.30008874471E+02  0.34094109146E+01  0.20651302014E+03  0.20876272205E+03  0.47000000000E+01 0.  1.
         11    1    6    6    0    0  0.21741200741E+01  0.18325893320E+02  0.24493918906E+02  0.30667853323E+02  0.00000000000E+00 0. -1.
        -12    1    6    6    0    0 -0.75907725127E+02 -0.64684597347E+02  0.12282055886E+03  0.15821178700E+03  0.00000000000E+00 0.  1.
</event>
<event>
12    1  0.8258923E-002  0.1753481E+03  0.7818608E-02  0.1172683E+00
         21   -1    0    0  501  502  0.00000000000E+00  0.00000000000E+00  0.20585547389E+03  0.20585547389E+03  0.00000000000E+00 0.  1.
         21   -1    0    0  502  503 -0.00000000000E+00 -0.00000000000E+00 -0.18506445559E+03  0.18506445559E+03  0.00000000000E+00 0.  1.
         -6    2    1    2    0  503 -0.22506572836E+02 -0.16701016844E+02 -0.76696354407E+02  0.19029404989E+03  0.17188375391E+03 0.  0.
        -24    2    3    3    0    0 -0.58971850478E+02 -0.23915328728E+02 -0.10443352622E+03  0.14367641943E+03  0.75411736510E+02 0.  0.
          6    2    1    2  501    0  0.22506572836E+02  0.16701016844E+02  0.97487372705E+02  0.20062587959E+03  0.17309386453E+03 0.  0.
         24    2    5    5    0    0 -0.39600889458E+02  0.31803484887E+02  0.16138576744E+02  0.97063637347E+02  0.81124619808E+02 0.  0.
          5    1    5    5  501    0  0.62107462294E+02 -0.15102468043E+02  0.81348795961E+02  0.10356224224E+03  0.47000000000E+01 0. -1.
        -11    1    6    6    0    0 -0.30024058512E+02 -0.22478738385E+02  0.18646797359E+02  0.41886045655E+02  0.00000000000E+00 0.  1.
         12    1    6    6    0    0 -0.95768309462E+01  0.54282223271E+02 -0.25082206152E+01  0.55177591692E+02  0.00000000000E+00 0. -1.
         -5    1    3    3    0  503  0.36465277642E+02  0.72143118838E+01  0.27737171816E+02  0.46617630461E+02  0.47000000000E+01 0.  1.
         13    1    4    4    0    0 -0.32504176669E+02  0.11731286383E+02 -0.51764640751E+01  0.34941957035E+02  0.00000000000E+00 0. -1.
        -14    1    4    4    0    0 -0.26467673808E+02 -0.35646615110E+02 -0.99257062149E+02  0.10873446239E+03  0.00000000000E+00 0.  1.
</event>
<event>
12    1  0.8258923E-002  0.1796113E+03  0.7818608E-02  0.1168436E+00
         21   -1    0    0  503  502  0.00000000000E+00  0.00000000000E+00  0.17654561416E+04  0.17654561416E+04  0.00000000000E+00 0. -1.
         21   -1    0    0  501  503 -0.00000000000E+00 -0.00000000000E+00 -0.35848823820E+02  0.35848823820E+02  0.00000000000E+00 0. -1.
          6    2    1    2  501    0 -0.16205152234E+02  0.44812907972E+02  0.23354267689E+03  0.29462246107E+03  0.17317450437E+03 0.  0.
         24    2    3    3    0    0 -0.16295372805E+02 -0.42557583456E+02  0.14235534775E+03  0.16824671218E+03  0.77234862880E+02 0.  0.
         -6    2    1    2    0  502  0.16205152234E+02 -0.44812907972E+02  0.14960646409E+04  0.15066825044E+04  0.17208124675E+03 0.  0.
        -24    2    5    5    0    0  0.16495445207E+02 -0.94997245815E+02  0.11483542351E+04  0.11553377046E+04  0.82408651807E+02 0.  0.
          5    1    3    3  501    0  0.90220570364E-01  0.87370491429E+02  0.91187329139E+02  0.12637574889E+03  0.47000000000E+01 0. -1.
        -11    1    4    4    0    0 -0.47424190607E+02 -0.28377318743E+02  0.82338799506E+02  0.99166546666E+02  0.00000000000E+00 0.  1.
         12    1    4    4    0    0  0.31128817802E+02 -0.14180264714E+02  0.60016548240E+02  0.69080165517E+02  0.00000000000E+00 0. -1.
         -5    1    5    5    0  502 -0.29029297264E+00  0.50184337842E+02  0.34771040583E+03  0.35134479982E+03  0.47000000000E+01 0.  1.
         13    1    6    6    0    0 -0.12570535382E+02 -0.95088912467E+02  0.95603009447E+03  0.96082956926E+03  0.00000000000E+00 0. -1.
        -14    1    6    6    0    0  0.29065980589E+02  0.91666652443E-01  0.19232414063E+03  0.19450813530E+03  0.00000000000E+00 0.  1.
</event>
<event>
12    1  0.8258923E-002  0.1793772E+03  0.7818608E-02  0.1168578E+00
         21   -1    0    0  501  502  0.00000000000E+00  0.00000000000E+00  0.88680677111E+03  0.88680677111E+03  0.00000000000E+00 0. -1.
         21   -1    0    0  502  503 -0.00000000000E+00 -0.00000000000E+00 -0.42588727619E+02  0.42588727619E+02  0.00000000000E+00 0. -1.
         -6    2    1    2    0  503 -0.10279421069E+01  0.55526853747E+02  0.24059695314E+03  0.29968556801E+03  0.16982419633E+03 0.  0.
        -24    2    3    3    0    0 -0.66308663166E+02  0.48098652607E+02  0.16044797646E+03  0.19594213845E+03  0.77067822572E+02 0.  0.
          6    2    1    2  501    0  0.10279421069E+01 -0.55526853747E+02  0.60362109035E+03  0.62970993072E+03  0.17056344268E+03 0.  0.
         24    2    5    5    0    0 -0.29642696696E+02 -0.35587687951E+02  0.57713812360E+03  0.58430402862E+03  0.78597780847E+02 0.  0.
          5    1    5    5  501    0  0.30670638803E+02 -0.19939165797E+02  0.26482966756E+02  0.45405902100E+02  0.47000000000E+01 0. -1.
        -11    1    6    6    0    0 -0.62013809058E+00 -0.19412040655E+02  0.49921811839E+03  0.49959577823E+03  0.00000000000E+00 0.  1.
         12    1    6    6    0    0 -0.29022558606E+02 -0.16175647296E+02  0.77920005202E+02  0.84708250390E+02  0.00000000000E+00 0. -1.
         -5    1    3    3    0  503  0.65280721059E+02  0.74282011400E+01  0.80148976685E+02  0.10374342956E+03  0.47000000000E+01 0.  1.
         13    1    4    4    0    0 -0.10042337253E+02  0.36419327035E+02  0.11963474475E+03  0.12545791355E+03  0.00000000000E+00 0. -1.
        -14    1    4    4    0    0 -0.56266325913E+02  0.11679325572E+02  0.40813231704E+02  0.70484224900E+02  0.00000000000E+00 0.  1.
</event>
<event>
12    1  0.8258923E-002  0.1878844E+03  0.7818608E-02  0.1160447E+00
         21   -1    0    0  503  502  0.00000000000E+00  0.00000000000E+00  0.15895966616E+03  0.15895966616E+03  0.00000000000E+00 0. -1.
         21   -1    0    0  501  503 -0.00000000000E+00 -0.00000000000E+00 -0.29234753589E+03  0.29234753589E+03  0.00000000000E+00 0.  1.
          6    2    1    2  501    0  0.20051157358E+02  0.72731671431E+02 -0.17762291667E+03  0.25855456267E+03  0.17207154445E+03 0.  0.
         24    2    3    3    0    0  0.14862398945E+02 -0.22249438251E+01 -0.16556299019E+03  0.18231186327E+03  0.74837627512E+02 0.  0.
         -6    2    1    2    0  502 -0.20051157358E+02 -0.72731671431E+02  0.44235046932E+02  0.19275263938E+03  0.17176989163E+03 0.  0.
        -24    2    5    5    0    0 -0.74539208190E+02 -0.73440566986E+02  0.23009814942E+02  0.13408364681E+03  0.80618622663E+02 0.  0.
          5    1    3    3  501    0  0.51887584130E+01  0.74956615256E+02 -0.12059926476E+02  0.76242699396E+02  0.47000000000E+01 0. -1.
        -13    1    4    4    0    0 -0.23040554401E+02 -0.95866319381E+01 -0.20796799061E+02  0.32485035173E+02  0.00000000000E+00 0.  1.
         14    1    4    4    0    0  0.37902953346E+02  0.73616881131E+01 -0.14476619113E+03  0.14982682810E+03  0.00000000000E+00 0. -1.
         -5    1    5    5    0  502  0.54488050832E+02  0.70889555480E+00  0.21225231990E+02  0.58668992572E+02  0.47000000000E+01 0.  1.
         13    1    6    6    0    0  0.28407100513E+01 -0.51614820090E+02  0.85998154876E+01  0.52403397914E+02  0.00000000000E+00 0. -1.
        -14    1    6    6    0    0 -0.77379918242E+02 -0.21825746896E+02  0.14409999455E+02  0.81680248891E+02  0.00000000000E+00 0.  1.
</event>
<event>
12    1  0.8258923E-002  0.1989649E+03  0.7818608E-02  0.1150754E+00
         21   -1    0    0  503  502  0.00000000000E+00  0.00000000000E+00  0.66915814561E+03  0.66915814561E+03  0.00000000000E+00 0. -1.
         21   -1    0    0  501  503 -0.00000000000E+00 -0.00000000000E+00 -0.65973570377E+02  0.65973570377E+02  0.00000000000E+00 0. -1.
          6    2    1    2  501    0  0.25289911308E+01  0.99706535947E+02  0.18135521438E+03  0.26873378318E+03  0.17140695240E+03 0.  0.
         24    2    3    3    0    0 -0.12227268492E+02 -0.11280818312E+02  0.99285778199E+02  0.12983301875E+03  0.81988926373E+02 0.  0.
         -6    2    1    2    0  502 -0.25289911308E+01 -0.99706535947E+02  0.42182936085E+03  0.46639793281E+03  0.17216048602E+03 0.  0.
        -24    2    5    5    0    0  0.32882737403E+02 -0.53521554920E+02  0.37953340264E+03  0.39430021391E+03  0.86494067461E+02 0.  0.
          5    1    3    3  501    0  0.14756259623E+02  0.11098735426E+03  0.82069436183E+02  0.13890076443E+03  0.47000000000E+01 0. -1.
        -13    1    4    4    0    0  0.25451758425E+02 -0.28335715253E+02  0.68123676086E+02  0.78048318427E+02  0.00000000000E+00 0.  1.
         14    1    4    4    0    0 -0.37679026917E+02  0.17054896941E+02  0.31162102114E+02  0.51784700320E+02  0.00000000000E+00 0. -1.
         -5    1    5    5    0  502 -0.35411728534E+02 -0.46184981027E+02  0.42295958205E+02  0.72097718901E+02  0.47000000000E+01 0.  1.
         11    1    6    6    0    0 -0.47036166075E+01 -0.64522438400E+02  0.18846388461E+03  0.19925838720E+03  0.00000000000E+00 0. -1.
        -12    1    6    6    0    0  0.37586354011E+02  0.11000883480E+02  0.19106951803E+03  0.19504182671E+03  0.00000000000E+00 0.  1.
</event>
<event>
12    1  0.8258923E-002  0.1940428E+03  0.7818608E-02  0.1155594E+00
         21   -1    0    0  501  502  0.00000000000E+00  0.00000000000E+00  0.10308316811E+03  0.10308316811E+03  0.00000000000E+00 0.  1.
         21   -1    0    0  502  503 -0.00000000000E+00 -0.00000000000E+00 -0.36258877479E+03  0.36258877479E+03  0.00000000000E+00 0.  1.
         -6    2    1    2    0  503  0.25158349456E+02  0.85729777389E+02 -0.15373205147E+03  0.24756036298E+03  0.17224997065E+03 0.  0.
        -24    2    3    3    0    0  0.48907674214E+02  0.47332084700E+01 -0.12962714687E+03  0.15965353145E+03  0.79193996241E+02 0.  0.
          6    2    1    2  501    0 -0.25158349456E+02 -0.85729777389E+02 -0.10577355521E+03  0.21811157993E+03  0.16852916376E+03 0.  0.
         24    2    5    5    0    0 -0.36372917695E+02 -0.77532285085E+01 -0.10956119608E+03  0.13910180244E+03  0.77217576106E+02 0.  0.
          5    1    5    5  501    0  0.11214568239E+02 -0.77976548881E+02  0.37876408719E+01  0.79009777493E+02  0.47000000000E+01 0. -1.
        -11    1    6    6    0    0  0.21016414213E+02  0.69282196938E+01 -0.12565177632E+02  0.25447467132E+02  0.00000000000E+00 0.  1.
         12    1    6    6    0    0 -0.57389331908E+02 -0.14681448202E+02 -0.96996018451E+02  0.11365433530E+03  0.00000000000E+00 0. -1.
         -5    1    3    3    0  503 -0.23749324757E+02  0.80996568919E+02 -0.24104904602E+02  0.87906831527E+02  0.47000000000E+01 0.  1.
         11    1    4    4    0    0  0.58457172349E+01 -0.30572274648E+02 -0.76923360356E+02  0.82982165286E+02  0.00000000000E+00 0. -1.
        -12    1    4    4    0    0  0.43061956979E+02  0.35305483118E+02 -0.52703786510E+02  0.76671366164E+02  0.00000000000E+00 0.  1.
</event>
<event>
12    1  0.8258923E-002  0.1834379E+03  0.7818608E-02  0.1165095E+00
         21   -1    0    0  503  502  0.00000000000E+00  0.00000000000E+00  0.26467560452E+03  0.26467560452E+03  0.00000000000E+00 0.  1.
         21   -1    0    0  501  503 -0.00000000000E+00 -0.00000000000E+00 -0.15732696728E+03  0.15732696728E+03  0.00000000000E+00 0. -1.
          6    2    1    2  501    0 -0.58643825623E+02  0.36913106843E+01 -0.41582824416E+02  0.18571871970E+03  0.17120043079E+03 0.  0.
         24    2    3    3    0    0 -0.69374588651E+02 -0.30137629809E+02 -0.79169909365E+02  0.13381086437E+03  0.76917895141E+02 0.  0.
         -6    2    1    2    0  502  0.58643825623E+02 -0.36913106843E+01  0.14893146166E+03  0.23628385210E+03  0.17377213365E+03 0.  0.
        -24    2    5    5    0    0  0.95475990005E+02  0.17500219858E+02  0.14644888861E+03  0.19345929759E+03  0.80977160279E+02 0.  0.
          5    1    3    3  501    0  0.10730763027E+02  0.33828940493E+02  0.37587084950E+02  0.51907855331E+02  0.47000000000E+01 0. -1.
        -13    1    4    4    0    0 -0.17426593448E+02 -0.16229938975E+02  0.12976473030E+02  0.27119843853E+02  0.00000000000E+00 0.  1.
         14    1    4    4    0    0 -0.51947995203E+02 -0.13907690834E+02 -0.92146382395E+02  0.10669102051E+03  0.00000000000E+00 0. -1.
         -5    1    5    5    0  502 -0.36832164381E+02 -0.21191530542E+02  0.24825730430E+01  0.42824554506E+02  0.47000000000E+01 0.  1.
         13    1    6    6    0    0  0.20196842648E+01  0.60139365135E+01 -0.94201570243E+01  0.11357196629E+02  0.00000000000E+00 0. -1.
        -14    1    6    6    0    0  0.93456305740E+02  0.11486283344E+02  0.15586904564E+03  0.18210210096E+03  0.00000000000E+00 0.  1.
</event>
<event>
12    1  0.8258923E-002  0.1727942E+03  0.7818608E-02  0.1175686E+00
         21   -1    0    0  503  502  0.00000000000E+00  0.00000000000E+00  0.12262462858E+03  0.12262462858E+03  0.00000000000E+00 0.  1.
         21   -1    0    0  501  503 -0.00000000000E+00 -0.00000000000E+00 -0.30645706531E+03  0.30645706531E+03  0.00000000000E+00 0.  1.
          6    2    1    2  501    0 -0.14540600074E+02 -0.11134671855E+02  0.77311553617E+01  0.17296708829E+03  0.17182093266E+03 0.  0.
         24    2    3    3    0    0  0.49795159826E+01 -0.54505745733E+02  0.52668543316E+02  0.10736568726E+03  0.75879796053E+02 0.  0.
         -6    2    1    2    0  502  0.14540600074E+02  0.11134671855E+02 -0.19156359210E+03  0.25611460561E+03  0.16900494496E+03 0.  0.
        -24    2    5    5    0    0  0.34159828887E+00  0.53935472150E+02 -0.48112804165E+02  0.10566947038E+03  0.77084649570E+02 0.  0.
          5    1    3    3  501    0 -0.19520116056E+02  0.43371073878E+02 -0.44937387955E+02  0.65601401024E+02  0.47000000000E+01 0. -1.
        -11    1    4    4    0    0 -0.17790336728E+02 -0.65750119507E+02  0.36785484868E+02  0.77412829641E+02  0.00000000000E+00 0.  1.
         12    1    4    4    0    0  0.22769852710E+02  0.11244373774E+02  0.15883058448E+02  0.29952857621E+02  0.00000000000E+00 0. -1.
         -5    1    5    5    0  502  0.14199001785E+02 -0.42800800295E+02 -0.14345078793E+03  0.15044513523E+03  0.47000000000E+01 0.  1.
         11    1    6    6    0    0 -0.37982037003E+02  0.26113665434E+02 -0.17630916089E+02  0.49349851666E+02  0.00000000000E+00 0. -1.
        -12    1    6    6    0    0  0.38323635292E+02  0.27821806716E+02 -0.30481888076E+02  0.56319618710E+02  0.00000000000E+00 0.  1.
</event>
<event>
12    1  0.8258923E-002  0.1746209E+03  0.7818608E-02  0.1173691E+00
         21   -1    0    0  501  502  0.00000000000E+00  0.00000000000E+00  0.67963184611E+03  0.67963184611E+03  0.00000000000E+00 0.  1.
         21   -1    0    0  502  503 -0.00000000000E+00 -0.00000000000E+00 -0.46805842567E+02  0.46805842567E+02  0.00000000000E+00 0.  1.
         -6    2    1    2    0  503  0.90454614018E+01  0.25745363467E+02  0.23404472043E+03  0.29200923387E+03  0.17247555593E+03 0.  0.
        -24    2    3    3    0    0  0.34536387516E+02 -0.25635662919E+02  0.53429999728E+02  0.10244772796E+03  0.76097456056E+02 0.  0.
          6    2    1    2  501    0 -0.90454614018E+01 -0.25745363467E+02  0.39878128311E+03  0.43442845480E+03  0.17016734843E+03 0.  0.
         24    2    5    5    0    0  0.49059793702E+02 -0.47550747265E+02  0.29442189741E+03  0.31291850946E+03  0.81029642517E+02 0.  0.
          5    1    5    5  501    0 -0.58105255104E+02  0.21805383798E+02  0.10435938570E+03  0.12150994535E+03  0.47000000000E+01 0. -1.
        -13    1    6    6    0    0  0.57088051799E+02 -0.38082093736E+01  0.12039053601E+03  0.13329452081E+03  0.00000000000E+00 0.  1.
         14    1    6    6    0    0 -0.80282580971E+01 -0.43742537892E+02  0.17403136140E+03  0.17962398865E+03  0.00000000000E+00 0. -1.
         -5    1    3    3    0  503 -0.25490926114E+02  0.51381026386E+02  0.18061472071E+03  0.18956150591E+03  0.47000000000E+01 0.  1.
         11    1    4    4    0    0  0.39285780500E+02 -0.20818991455E+02  0.70914756840E+02  0.83700093741E+02  0.00000000000E+00 0. -1.
        -12    1    4    4    0    0 -0.47493929842E+01 -0.48166714638E+01 -0.17484757112E+02  0.18747634223E+02  0.00000000000E+00 0.  1.
</event>
<event>
12    1  0.8258923E-002  0.2638438E+03  0.7818608E-02  0.1105054E+00
         21   -1    0    0  501  502  0.00000000000E+00  0.00000000000E+00  0.11806922654E+04  0.11806922654E+04  0.00000000000E+00 0.  1.
         21   -1    0    0  502  503 -0.00000000000E+00 -0.00000000000E+00 -0.58770441087E+02  0.58770441087E+02  0.00000000000E+00 0. -1.
         -6    2    1    2    0  503 -0.30156264507E+02  0.19827250638E+03  0.53560004513E+03  0.59706027255E+03  0.17144145836E+03 0.  0.
        -24    2    3    3    0    0 -0.78078827295E+02  0.15433290290E+03  0.33080432571E+03  0.38214020027E+03  0.81759908056E+02 0.  0.
          6    2    1    2  501    0  0.30156264507E+02 -0.19827250638E+03  0.58632177915E+03  0.64240243390E+03  0.16937021962E+03 0.  0.
         24    2    5    5    0    0 -0.89053818770E+00 -0.17188496359E+03  0.56553554676E+03  0.59642022180E+03  0.79632861056E+02 0.  0.
          5    1    5    5  501    0  0.31046802694E+02 -0.26387542794E+02  0.20786232393E+02  0.45982212097E+02  0.47000000000E+01 0. -1.
        -11    1    6    6    0    0 -0.32675566983E+02 -0.31863388564E+02  0.12459835066E+03  0.13269407370E+03  0.00000000000E+00 0.  1.
         12    1    6    6    0    0  0.31785028795E+02 -0.14002157503E+03  0.44093719610E+03  0.46372614810E+03  0.00000000000E+00 0. -1.
         -5    1    3    3    0  503  0.47922562789E+02  0.43939603487E+02  0.20479571942E+03  0.21492007229E+03  0.47000000000E+01 0.  1.
         11    1    4    4    0    0 -0.30914550275E+02  0.13790921726E+03  0.24112041872E+03  0.27948831451E+03  0.00000000000E+00 0. -1.
        -12    1    4    4    0    0 -0.47164277020E+02  0.16423685633E+02  0.89683906986E+02  0.10265188575E+03  0.00000000000E+00 0.  1.
</event>
<event>
12    1  0.8258923E-002  0.3531343E+03  0.7818608E-02  0.1061368E+00
         21   -1    0    0  503  502  0.00000000000E+00  0.00000000000E+00  0.88897345975E+02  0.88897345975E+02  0.00000000000E+00 0. -1.
         21   -1    0    0  501  503 -0.00000000000E+00 -0.00000000000E+00 -0.14622734690E+04  0.14622734690E+04  0.00000000000E+00 0.  1.
          6    2    1    2  501    0 -0.72979946478E+02 -0.29945929892E+03 -0.52888628611E+03  0.63594380622E+03  0.17234232425E+03 0.  0.
         24    2    3    3    0    0 -0.29442580839E+02 -0.29432376752E+03 -0.48754608706E+03  0.57550393571E+03  0.77525784799E+02 0.  0.
         -6    2    1    2    0  502  0.72979946478E+02  0.29945929892E+03 -0.84448983689E+03  0.91522700874E+03  0.17168415365E+03 0.  0.
        -24    2    5    5    0    0  0.25807008223E+02  0.86522116620E+02 -0.18204139158E+03  0.21778341790E+03  0.78348391977E+02 0.  0.
          5    1    3    3  501    0 -0.43537365639E+02 -0.51355313948E+01 -0.41340199050E+02  0.60439870508E+02  0.47000000000E+01 0. -1.
        -11    1    4    4    0    0 -0.16970721888E+02 -0.96806264316E+01 -0.46448223619E+02  0.50390052658E+02  0.00000000000E+00 0.  1.
         12    1    4    4    0    0 -0.12471858950E+02 -0.28464314109E+03 -0.44109786345E+03  0.52511388305E+03  0.00000000000E+00 0. -1.
         -5    1    5    5    0  502  0.47172938255E+02  0.21293718230E+03 -0.66244844531E+03  0.69744359084E+03  0.47000000000E+01 0.  1.
         13    1    6    6    0    0  0.37871002377E+02  0.55857127793E+02 -0.56576411122E+02  0.88063169610E+02  0.00000000000E+00 0. -1.
        -14    1    6    6    0    0 -0.12063994154E+02  0.30664988827E+02 -0.12546498046E+03  0.12972024829E+03  0.00000000000E+00 0.  1.
</event>
<event>
12    1  0.8258923E-002  0.1884144E+03  0.7818608E-02  0.1160191E+00
         21   -1    0    0  503  502  0.00000000000E+00  0.00000000000E+00  0.75427949728E+02  0.75427949728E+02  0.00000000000E+00 0.  1.
         21   -1    0    0  501  503 -0.00000000000E+00 -0.00000000000E+00 -0.77366747583E+03  0.77366747583E+03  0.00000000000E+00 0.  1.
          6    2    1    2  501    0 -0.73791089427E+02  0.15185725117E+02 -0.61548843048E+03  0.64330980441E+03  0.17130605729E+03 0.  0.
         24    2    3    3    0    0 -0.51363754281E+02  0.62373264314E+02 -0.53672382308E+03  0.54867575875E+03  0.80274321122E+02 0.  0.
         -6    2    1    2    0  502  0.73791089427E+02 -0.15185725117E+02 -0.82751095622E+02  0.20578562115E+03  0.17269698005E+03 0.  0.
        -24    2    5    5    0    0  0.28019129057E+02 -0.45615942034E+01 -0.12001685087E+03  0.14562939929E+03  0.77446741119E+02 0.  0.
          5    1    3    3  501    0 -0.22427335146E+02 -0.47187539198E+02 -0.78764607406E+02  0.94634045655E+02  0.47000000000E+01 0. -1.
        -13    1    4    4    0    0  0.37422565143E+01  0.48725945189E+02 -0.14878997314E+03  0.15660995603E+03  0.00000000000E+00 0.  1.
         14    1    4    4    0    0 -0.55106010795E+02  0.13647319125E+02 -0.38793384993E+03  0.39206580273E+03  0.00000000000E+00 0. -1.
         -5    1    5    5    0  502  0.45771960369E+02 -0.10624130913E+02  0.37265755252E+02  0.60156221858E+02  0.47000000000E+01 0.  1.
         11    1    6    6    0    0  0.82236850755E+01 -0.27661525871E+02 -0.10981407873E+03  0.11354259507E+03  0.00000000000E+00 0. -1.
        -12    1    6    6    0    0  0.19795443982E+02  0.23099931668E+02 -0.10202772148E+02  0.32086804219E+02  0.00000000000E+00 0.  1.
</event>
<event>
12    1  0.8258923E-002  0.1829136E+03  0.7818608E-02  0.1165151E+00
         21   -1    0    0  503  502  0.00000000000E+00  0.00000000000E+00  0.66985697316E+03  0.66985697316E+03  0.00000000000E+00 0.  1.
         21   -1    0    0  501  503 -0.00000000000E+00 -0.00000000000E+00 -0.51987631846E+02  0.51987631846E+02  0.00000000000E+00 0.  1.
          6    2    1    2  501    0  0.73461479718E+01 -0.62296698704E+02  0.23421438802E+03  0.29681694905E+03  0.17119894021E+03 0.  0.
         24    2    3    3    0    0  0.57861800095E+02 -0.20630627193E+02  0.80396776215E+02  0.12957508729E+03  0.80947210773E+02 0.  0.
         -6    2    1    2    0  502 -0.73461479718E+01  0.62296698704E+02  0.38365495330E+03  0.42502765596E+03  0.17182124600E+03 0.  0.
        -24    2    5    5    0    0  0.19723888160E+02  0.65831784741E+02  0.11930936491E+03  0.15923457142E+03  0.79987927416E+02 0.  0.
          5    1    3    3  501    0 -0.50515652123E+02 -0.41666071510E+02  0.15381761180E+03  0.16724186176E+03  0.47000000000E+01 0. -1.
        -11    1    4    4    0    0 -0.21025726390E+01 -0.25315180001E+02  0.61483528031E+02  0.66524456926E+02  0.00000000000E+00 0.  1.
         12    1    4    4    0    0  0.59964372734E+02  0.46845528079E+01  0.18913248184E+02  0.63050630364E+02  0.00000000000E+00 0. -1.
         -5    1    5    5    0  502 -0.27070036132E+02 -0.35350860377E+01  0.26434558839E+03  0.26579308454E+03  0.47000000000E+01 0.  1.
         11    1    6    6    0    0  0.13462498980E+02 -0.17071752776E+02  0.18362283021E+02  0.28457987620E+02  0.00000000000E+00 0. -1.
        -12    1    6    6    0    0  0.62613891797E+01  0.82903537518E+02  0.10094708189E+03  0.13077658380E+03  0.00000000000E+00 0.  1.
</event>
<event>
12    1  0.8258923E-002  0.1812257E+03  0.7818608E-02  0.1166797E+00
         21   -1    0    0  501  502  0.00000000000E+00  0.00000000000E+00  0.31421562399E+03  0.31421562399E+03  0.00000000000E+00 0.  1.
         21   -1    0    0  502  503 -0.00000000000E+00 -0.00000000000E+00 -0.10826619981E+03  0.10826619981E+03  0.00000000000E+00 0.  1.
         -6    2    1    2    0  503 -0.21454472267E+02  0.51309750863E+02  0.14458922930E+03  0.23183788968E+03  0.17248123651E+03 0.  0.
        -24    2    3    3    0    0  0.21289540760E+02 -0.24654904489E+02  0.10519965841E+03  0.13607094440E+03  0.79920115870E+02 0.  0.
          6    2    1    2  501    0  0.21454472267E+02 -0.51309750863E+02  0.61360194878E+02  0.19064393411E+03  0.17171794078E+03 0.  0.
         24    2    5    5    0    0 -0.15758384519E+01 -0.98134298559E+02  0.59115630691E+02  0.13820290488E+03  0.77282347947E+02 0.  0.
          5    1    5    5  501    0  0.23030310719E+02  0.46824547697E+02  0.22445641869E+01  0.52441029235E+02  0.47000000000E+01 0. -1.
        -13    1    6    6    0    0 -0.22469600711E+01 -0.84208559068E+02  0.73112076825E+01  0.84555212776E+02  0.00000000000E+00 0.  1.
         14    1    6    6    0    0  0.67112161921E+00 -0.13925739491E+02  0.51804423008E+02  0.53647692102E+02  0.00000000000E+00 0. -1.
         -5    1    3    3    0  503 -0.42744013027E+02  0.75964655351E+02  0.39389570897E+02  0.95766945277E+02  0.47000000000E+01 0.  1.
         13    1    4    4    0    0 -0.16769161003E+02 -0.31876357593E+02  0.85144872792E+02  0.92449750118E+02  0.00000000000E+00 0. -1.
        -14    1    4    4    0    0  0.38058701763E+02  0.72214531044E+01  0.20054785616E+02  0.43621194286E+02  0.00000000000E+00 0.  1.
</event>
<event>
12    1  0.8258923E-002  0.1991040E+03  0.7818608E-02  0.1151573E+00
         21   -1    0    0  503  502  0.00000000000E+00  0.00000000000E+00  0.12596479514E+03  0.12596479514E+03  0.00000000000E+00 0. -1.
         21   -1    0    0  501  503 -0.00000000000E+00 -0.00000000000E+00 -0.31895636882E+03  0.31895636882E+03  0.00000000000E+00 0. -1.
          6    2    1    2  501    0  0.24978695858E+01  0.89111920251E+02 -0.51981189300E+02  0.20094098286E+03  0.17241827301E+03 0.  0.
         24    2    3    3    0    0  0.49256277952E+02  0.18073618840E+02  0.10478213284E+02  0.95318750395E+02  0.78886213039E+02 0.  0.
         -6    2    1    2    0  502 -0.24978695858E+01 -0.89111920251E+02 -0.14101038438E+03  0.24398018110E+03  0.17803153255E+03 0.  0.
        -24    2    5    5    0    0  0.30717556344E+01  0.19316193400E+02 -0.92726761441E+02  0.12506392990E+03  0.81609945862E+02 0.  0.
          5    1    3    3  501    0 -0.46758408366E+02  0.71038301411E+02 -0.62459402584E+02  0.10562223247E+03  0.47000000000E+01 0. -1.
        -13    1    4    4    0    0  0.15175284501E+02  0.45969511130E+01 -0.34101955952E+02  0.37608039286E+02  0.00000000000E+00 0.  1.
         14    1    4    4    0    0  0.34080993451E+02  0.13476667727E+02  0.44580169236E+02  0.57710711109E+02  0.00000000000E+00 0. -1.
         -5    1    5    5    0  502 -0.55696252202E+01 -0.10842811365E+03 -0.48283622942E+02  0.11891625120E+03  0.47000000000E+01 0.  1.
         11    1    6    6    0    0 -0.30330008399E+01 -0.31925655686E+02 -0.30936866900E+02  0.44559357251E+02  0.00000000000E+00 0. -1.
        -12    1    6    6    0    0  0.61047564742E+01  0.51241849086E+02 -0.61789894541E+02  0.80504572645E+02  0.00000000000E+00 0.  1.
</event>
<event>
12    1  0.8258923E-002  0.1705418E+03  0.7818608E-02  0.1177912E+00
         21   -1    0    0  501  502  0.00000000000E+00  0.00000000000E+00  0.14746068204E+03  0.14746068204E+03  0.00000000000E+00 0. -1.
         21   -1    0    0  502  503 -0.00000000000E+00 -0.00000000000E+00 -0.24165428874E+03  0.24165428874E+03  0.00000000000E+00 0. -1.
         -6    2    1    2    0  503  0.14924866708E+01 -0.52946947494E+01 -0.13333618649E+03  0.21647875461E+03  0.17045307642E+03 0.  0.
        -24    2    3    3    0    0  0.20756007715E+02  0.24242676544E+02 -0.15183743194E+03  0.17637980663E+03  0.83885107288E+02 0.  0.
          6    2    1    2  501    0 -0.14924866708E+01  0.52946947494E+01  0.39142579783E+02  0.17263621617E+03  0.16805017189E+03 0.  0.
         24    2    5    5    0    0  0.18860004992E+02  0.41807951685E+01 -0.39091845178E+02  0.91653625829E+02  0.80616598363E+02 0.  0.
          5    1    5    5  501    0 -0.20352491663E+02  0.11138995809E+01  0.78234424961E+02  0.80982590340E+02  0.47000000000E+01 0. -1.
        -11    1    6    6    0    0 -0.17411572559E+02  0.21791830671E+02 -0.42881142138E+02  0.51155049546E+02  0.00000000000E+00 0.  1.
         12    1    6    6    0    0  0.36271577551E+02 -0.17611035502E+02  0.37892969598E+01  0.40498576283E+02  0.00000000000E+00 0. -1.
         -5    1    3    3    0  503 -0.19263521044E+02 -0.29537371293E+02  0.18501245455E+02  0.40098947983E+02  0.47000000000E+01 0.  1.
         11    1    4    4    0    0 -0.26407842656E+02  0.18491292108E+01 -0.97476878629E+02  0.10100760021E+03  0.00000000000E+00 0. -1.
        -12    1    4    4    0    0  0.47163850371E+02  0.22393547333E+02 -0.54360553314E+02  0.75372206419E+02  0.00000000000E+00 0.  1.
</event>
<event>
12    1  0.8258923E-002  0.1925230E+03  0.7818608E-02  0.1157051E+00
         21   -1    0    0  501  502  0.00000000000E+00  0.00000000000E+00  0.41297220458E+03  0.41297220458E+03  0.00000000000E+00 0.  1.
         21   -1    0    0  502  503 -0.00000000000E+00 -0.00000000000E+00 -0.10396376526E+03  0.10396376526E+03  0.00000000000E+00 0.  1.
         -6    2    1    2    0  503  0.78944040931E+02  0.12865550113E+02  0.54523833318E+02  0.20009490847E+03  0.17512121521E+03 0.  0.
        -24    2    3    3    0    0  0.10764644119E+03  0.26265529112E+02  0.88104619576E+00  0.13762070717E+03  0.81615246609E+02 0.  0.
          6    2    1    2  501    0 -0.78944040931E+02 -0.12865550113E+02  0.25448460600E+03  0.31684106136E+03  0.17096245054E+03 0.  0.
         24    2    5    5    0    0 -0.25507952267E+02 -0.67033227461E+02  0.18042844886E+03  0.21055862042E+03  0.81464091872E+02 0.  0.
          5    1    5    5  501    0 -0.53436088664E+02  0.54167677348E+02  0.74056157145E+02  0.10628244094E+03  0.47000000000E+01 0. -1.
        -11    1    6    6    0    0 -0.24801670236E+02 -0.40322688547E+02  0.26347026273E+02  0.54177558560E+02  0.00000000000E+00 0.  1.
         12    1    6    6    0    0 -0.70628203137E+00 -0.26710538914E+02  0.15408142259E+03  0.15638106186E+03  0.00000000000E+00 0. -1.
         -5    1    3    3    0  503 -0.28702400260E+02 -0.13399979000E+02  0.53642787122E+02  0.62474201300E+02  0.47000000000E+01 0.  1.
         11    1    4    4    0    0 -0.84920483918E+01  0.81262961088E+01 -0.14945361555E+02  0.19013558487E+02  0.00000000000E+00 0. -1.
        -12    1    4    4    0    0  0.11613848958E+03  0.18139233003E+02  0.15826407751E+02  0.11860714868E+03  0.00000000000E+00 0.  1.
</event>
<event>
12    1  0.8258923E-002  0.2470025E+03  0.7818608E-02  0.1115729E+00
         21   -1    0    0  503  502  0.00000000000E+00  0.00000000000E+00  0.13172729922E+04  0.13172729922E+04  0.00000000000E+00 0.  1.
         21   -1    0    0  501  503 -0.00000000000E+00 -0.00000000000E+00 -0.23942312702E+03  0.23942312702E+03  0.00000000000E+00 0.  1.
          6    2    1    2  501    0 -0.17357948900E+03 -0.29740669660E+02 -0.16050283790E+03  0.29456983714E+03  0.17319319139E+03 0.  0.
         24    2    3    3    0    0 -0.73758106447E+02 -0.61887152085E+02 -0.13762982051E+03  0.18713162386E+03  0.82498480571E+02 0.  0.
         -6    2    1    2    0  502  0.17357948900E+03  0.29740669660E+02  0.12383527030E+04  0.12621262820E+04  0.16861491106E+03 0.  0.
        -24    2    5    5    0    0  0.50562292687E+02  0.59402313463E+02  0.44050203591E+03  0.45428915689E+03  0.79065884856E+02 0.  0.
          5    1    3    3  501    0 -0.99821382557E+02  0.32146482425E+02 -0.22873017390E+02  0.10743821328E+03  0.47000000000E+01 0. -1.
        -11    1    4    4    0    0 -0.47419192923E+02 -0.63218626040E+02 -0.45257209909E+02  0.91068049197E+02  0.00000000000E+00 0.  1.
         12    1    4    4    0    0 -0.26338913524E+02  0.13314739552E+01 -0.92372610600E+02  0.96063574666E+02  0.00000000000E+00 0. -1.
         -5    1    5    5    0  502  0.12301719632E+03 -0.29661643804E+02  0.79785066714E+03  0.80783712514E+03  0.47000000000E+01 0.  1.
         11    1    6    6    0    0 -0.67978930261E+01 -0.14416133031E+02  0.40855943949E+02  0.43854810422E+02  0.00000000000E+00 0. -1.
        -12    1    6    6    0    0  0.57360185713E+02  0.73818446495E+02  0.39964609196E+03  0.41043434647E+03  0.00000000000E+00 0.  1.
</event>
<event>
12    1  0.8258923E-002  0.1909412E+03  0.7818608E-02  0.1157677E+00
         21   -1    0    0  501  502  0.00000000000E+00  0.00000000000E+00  0.15397813684E+03  0.15397813684E+03  0.00000000000E+00 0.  1.
         21   -1    0    0  502  503 -0.00000000000E+00 -0.00000000000E+00 -0.45498201616E+03  0.45498201616E+03  0.00000000000E+00 0.  1.
         -6    2    1    2    0  503  0.15850754547E+02 -0.82839524738E+02 -0.36158282848E+03  0.40890181607E+03  0.17130359031E+03 0.  0.
        -24    2    3    3    0    0 -0.39103454996E+02 -0.96849258312E+02 -0.21752775611E+03  0.25401414175E+03  0.79347340851E+02 0.  0.
          6    2    1    2  501    0 -0.15850754547E+02  0.82839524738E+02  0.60578949152E+02  0.20005833693E+03  0.17099677137E+03 0.  0.
         24    2    5    5    0    0 -0.73198005993E+02  0.47217414658E+02  0.58487537236E+02  0.13235231077E+03  0.80677814954E+02 0.  0.
          5    1    5    5  501    0  0.57347251446E+02  0.35622110080E+02  0.20914119166E+01  0.67706026163E+02  0.47000000000E+01 0. -1.
        -11    1    6    6    0    0  0.13122283007E+01  0.43599123082E+02  0.15724829288E+02  0.46366752451E+02  0.00000000000E+00 0.  1.
         12    1    6    6    0    0 -0.74510234293E+02  0.36182915755E+01  0.42762707947E+02  0.85985558319E+02  0.00000000000E+00 0. -1.
         -5    1    3    3    0  503  0.54954209542E+02  0.14009733574E+02 -0.14405507237E+03  0.15488767432E+03  0.47000000000E+01 0.  1.
         11    1    4    4    0    0 -0.42299793367E+02 -0.21745972321E+02 -0.13114575372E+03  0.13950400908E+03  0.00000000000E+00 0. -1.
        -12    1    4    4    0    0  0.31963383714E+01 -0.75103285992E+02 -0.86382002393E+02  0.11451013267E+03  0.00000000000E+00 0.  1.
</event>
<event>
12    1  0.8258923E-002  0.1780227E+03  0.7818608E-02  0.1170267E+00
         21   -1    0    0  501  502  0.00000000000E+00  0.00000000000E+00  0.30129973262E+03  0.30129973262E+03  0.00000000000E+00 0.  1.
         21   -1    0    0  502  503 -0.00000000000E+00 -0.00000000000E+00 -0.15937507950E+03  0.15937507950E+03  0.00000000000E+00 0.  1.
         -6    2    1    2    0  503 -0.39885288744E+02 -0.21083249029E+02 -0.65206570948E+02  0.18755319095E+03  0.16996753482E+03 0.  0.
        -24    2    3    3    0    0  0.29648900665E+02 -0.51062145480E+02 -0.14179397544E+02  0.96122341919E+02  0.74512074791E+02 0.  0.
          6    2    1    2  501    0  0.39885288744E+02  0.21083249029E+02  0.20713122407E+03  0.27312162117E+03  0.17221131298E+03 0.  0.
         24    2    5    5    0    0  0.70715258005E+02 -0.24205460613E+02  0.78782109847E+02  0.13348946389E+03  0.77629015834E+02 0.  0.
          5    1    5    5  501    0 -0.30829969261E+02  0.45288709642E+02  0.12834911422E+03  0.13963215728E+03  0.47000000000E+01 0. -1.
        -11    1    6    6    0    0  0.61363459240E+01  0.67573346621E-03  0.62272939798E+02  0.62574545726E+02  0.00000000000E+00 0.  1.
         12    1    6    6    0    0  0.64578912081E+02 -0.24206136346E+02  0.16509170049E+02  0.70914918163E+02  0.00000000000E+00 0. -1.
         -5    1    3    3    0  503 -0.69534189408E+02  0.29978896451E+02 -0.51027173404E+02  0.91430849032E+02  0.47000000000E+01 0.  1.
         11    1    4    4    0    0  0.31567901110E+01  0.17605261028E+02  0.75006405121E+01  0.19395106284E+02  0.00000000000E+00 0. -1.
        -12    1    4    4    0    0  0.26492110554E+02 -0.68667406508E+02 -0.21680038056E+02  0.76727235635E+02  0.00000000000E+00 0.  1.
</event>
<event>
12    1  0.8258923E-002  0.1866763E+03  0.7818608E-02  0.1162520E+00
         21   -1    0    0  501  502  0.00000000000E+00  0.00000000000E+00  0.11465133190E+03  0.11465133190E+03  0.00000000000E+00 0.  1.
         21   -1    0    0  502  503 -0.00000000000E+00 -0.00000000000E+00 -0.30847384909E+03  0.30847384909E+03  0.00000000000E+00 0.  1.
         -6    2    1    2    0  503 -0.51825718339E+02  0.23925343209E+02 -0.13911087702E+03  0.23280864011E+03  0.17773491407E+03 0.  0.
        -24    2    3    3    0    0 -0.73477086891E+02  0.28715978409E+01 -0.16262141917E+03  0.19424858894E+03  0.76678940793E+02 0.  0.
          6    2    1    2  501    0  0.51825718339E+02 -0.23925343209E+02 -0.54711640172E+02  0.19031654087E+03  0.17311468751E+03 0.  0.
         24    2    5    5    0    0  0.37752586211E+02 -0.56121011653E+02  0.20968961925E+02  0.10674466972E+03  0.79874285192E+02 0.  0.
          5    1    5    5  501    0  0.14073132127E+02  0.32195668444E+02 -0.75680602097E+02  0.83571871154E+02  0.47000000000E+01 0. -1.
        -11    1    6    6    0    0  0.59361603626E+02 -0.43061085462E+02 -0.90131033821E+00  0.73340776016E+02  0.00000000000E+00 0.  1.
         12    1    6    6    0    0 -0.21609017415E+02 -0.13059926191E+02  0.21870272263E+02  0.33403893704E+02  0.00000000000E+00 0. -1.
         -5    1    3    3    0  503  0.21651368552E+02  0.21053745369E+02  0.23510542151E+02  0.38560051173E+02  0.47000000000E+01 0.  1.
         11    1    4    4    0    0  0.96040539704E+01  0.47565982449E+01 -0.65741891766E+02  0.66609754635E+02  0.00000000000E+00 0. -1.
        -12    1    4    4    0    0 -0.83081140861E+02 -0.18850004040E+01 -0.96879527402E+02  0.12763883431E+03  0.00000000000E+00 0.  1.
</event>
<event>
12    1  0.8258923E-002  0.1962863E+03  0.7818608E-02  0.1153229E+00
         21   -1    0    0  501  502  0.00000000000E+00  0.00000000000E+00  0.28318575210E+03  0.28318575210E+03  0.00000000000E+00 0.  1.
         21   -1    0    0  502  503 -0.00000000000E+00 -0.00000000000E+00 -0.15706317497E+03  0.15706317497E+03  0.00000000000E+00 0.  1.
         -6    2    1    2    0  503  0.93200625493E+02  0.10307426723E+02 -0.19166065605E+02  0.19721980481E+03  0.17244046422E+03 0.  0.
        -24    2    3    3    0    0 -0.12524382973E+02  0.18361894812E+02 -0.35416017726E+02  0.89847542024E+02  0.79525261057E+02 0.  0.
          6    2    1    2  501    0 -0.93200625493E+02 -0.10307426723E+02  0.14528864273E+03  0.24302912227E+03  0.17076816133E+03 0.  0.
         24    2    5    5    0    0 -0.99638765440E+02 -0.45897041044E+02  0.49761879437E+02  0.14077687144E+03  0.72852322765E+02 0.  0.
          5    1    5    5  501    0  0.64381399468E+01  0.35589614320E+02  0.95526763295E+02  0.10225225083E+03  0.47000000000E+01 0. -1.
        -11    1    6    6    0    0 -0.84700612067E+02 -0.52254986006E+02  0.64708341852E+02  0.11870950574E+03  0.00000000000E+00 0.  1.
         12    1    6    6    0    0 -0.14938153373E+02  0.63579449622E+01 -0.14946462415E+02  0.22067365703E+02  0.00000000000E+00 0. -1.
         -5    1    3    3    0  503  0.10572500847E+03 -0.80544680891E+01  0.16249952121E+02  0.10737226278E+03  0.47000000000E+01 0.  1.
         13    1    4    4    0    0  0.11790594107E+02 -0.53036085888E+01  0.20620944783E+02  0.24338646988E+02  0.00000000000E+00 0. -1.
        -14    1    4    4    0    0 -0.24314977080E+02  0.23665503401E+02 -0.56036962509E+02  0.65508895036E+02  0.00000000000E+00 0.  1.
</event>
<event>
12    1  0.8258923E-002  0.2250975E+03  0.7818608E-02  0.1130224E+00
         21   -1    0    0  501  502  0.00000000000E+00  0.00000000000E+00  0.16320030625E+03  0.16320030625E+03  0.00000000000E+00 0.  1.
         21   -1    0    0  502  503 -0.00000000000E+00 -0.00000000000E+00 -0.33616325709E+03  0.33616325709E+03  0.00000000000E+00 0.  1.
         -6    2    1    2    0  503  0.12378806021E+03 -0.73509735091E+02 -0.15629066356E+03  0.27364943922E+03  0.17242412553E+03 0.  0.
        -24    2    3    3    0    0  0.13666819040E+03 -0.42467842794E+02 -0.65110144002E+02  0.17635877175E+03  0.79883500066E+02 0.  0.
          6    2    1    2  501    0 -0.12378806021E+03  0.73509735091E+02 -0.16672287281E+02  0.22571412412E+03  0.17303680434E+03 0.  0.
         24    2    5    5    0    0 -0.93439839669E+02  0.11477712943E+03 -0.34032734829E+02  0.17142335635E+03  0.79516960366E+02 0.  0.
          5    1    5    5  501    0 -0.30348220546E+02 -0.41267394335E+02  0.17360447548E+02  0.54290767765E+02  0.47000000000E+01 0. -1.
        -13    1    6    6    0    0 -0.38064602862E+02  0.10270590626E+03 -0.10425885219E+02  0.11002779765E+03  0.00000000000E+00 0.  1.
         14    1    6    6    0    0 -0.55375236807E+02  0.12071223163E+02 -0.23606849610E+02  0.61395558704E+02  0.00000000000E+00 0. -1.
         -5    1    3    3    0  503 -0.12880130181E+02 -0.31041892297E+02 -0.91180519559E+02  0.97290667476E+02  0.47000000000E+01 0.  1.
         11    1    4    4    0    0  0.30160132046E+02  0.18549603936E+02 -0.35394775470E+02  0.50065072673E+02  0.00000000000E+00 0. -1.
        -12    1    4    4    0    0  0.10650805835E+03 -0.61017446730E+02 -0.29715368532E+02  0.12629369907E+03  0.00000000000E+00 0.  1.
</event>
<event>
12    1  0.8258923E-002  0.1732799E+03  0.7818608E-02  0.1174649E+00
         21   -1    0    0  501  502  0.00000000000E+00  0.00000000000E+00  0.92218156211E+02  0.92218156211E+02  0.00000000000E+00 0. -1.
         21   -1    0    0  502  503 -0.00000000000E+00 -0.00000000000E+00 -0.11186519349E+04  0.11186519349E+04  0.00000000000E+00 0. -1.
         -6    2    1    2    0  503  0.16535823226E+02 -0.37735839990E+01 -0.10231051131E+04  0.10375582243E+04  0.17174202468E+03 0.  0.
        -24    2    3    3    0    0  0.73477310070E+02 -0.26608434919E+01 -0.51918401377E+03  0.53040722565E+03  0.79836017454E+02 0.  0.
          6    2    1    2  501    0 -0.16535823226E+02  0.37735839990E+01 -0.33286655712E+01  0.17331186676E+03  0.17244781750E+03 0.  0.
         24    2    5    5    0    0 -0.12458852568E+02  0.49638584022E+02  0.42711549661E+02  0.10802778497E+03  0.85008904355E+02 0.  0.
          5    1    5    5  501    0 -0.40769706574E+01 -0.45865000023E+02 -0.46040215232E+02  0.65284081792E+02  0.47000000000E+01 0. -1.
        -11    1    6    6    0    0  0.11103486761E+02  0.59858285768E+02  0.32775808416E+01  0.60967567849E+02  0.00000000000E+00 0.  1.
         12    1    6    6    0    0 -0.23562339329E+02 -0.10219701746E+02  0.39433968819E+02  0.47060217119E+02  0.00000000000E+00 0. -1.
         -5    1    3    3    0  503 -0.56941486844E+02 -0.11127405071E+01 -0.50392109933E+03  0.50715099868E+03  0.47000000000E+01 0.  1.
         11    1    4    4    0    0  0.99070083534E+01  0.13819709168E+02 -0.32449937029E+03  0.32494457142E+03  0.00000000000E+00 0. -1.
        -12    1    4    4    0    0  0.63570301716E+02 -0.16480552660E+02 -0.19468464348E+03  0.20546265423E+03  0.00000000000E+00 0.  1.
</event>
<event>
12    1  0.8258923E-002  0.2408399E+03  0.7818608E-02  0.1119258E+00
         21   -1    0    0  501  502  0.00000000000E+00  0.00000000000E+00  0.11079080396E+04  0.11079080396E+04  0.00000000000E+00 0. -1.
         21   -1    0    0  502  503 -0.00000000000E+00 -0.00000000000E+00 -0.55621743035E+02  0.55621743035E+02  0.00000000000E+00 0.  1.
         -6    2    1    2    0  503 -0.63728823163E+02  0.15529190146E+03  0.38461583167E+03  0.45379860958E+03  0.17270466851E+03 0.  0.
        -24    2    3    3    0    0 -0.61366204847E+02  0.18501422160E+03  0.32913241832E+03  0.39063614101E+03  0.79198311733E+02 0.  0.
          6    2    1    2  501    0  0.63728823163E+02 -0.15529190146E+03  0.66767046488E+03  0.70973117304E+03  0.17250377023E+03 0.  0.
         24    2    5    5    0    0  0.42664460006E+02 -0.15037311708E+03  0.34793060066E+03  0.38922598961E+03  0.77516692530E+02 0.  0.
          5    1    5    5  501    0  0.21064363157E+02 -0.49187843868E+01  0.31973986422E+03  0.32050518343E+03  0.47000000000E+01 0. -1.
        -13    1    6    6    0    0  0.56458016012E+02 -0.10464995456E+03  0.29429455975E+03  0.31740889789E+03  0.00000000000E+00 0.  1.
         14    1    6    6    0    0 -0.13793556006E+02 -0.45723162519E+02  0.53636040916E+02  0.71817091721E+02  0.00000000000E+00 0. -1.
         -5    1    3    3    0  503 -0.23626183155E+01 -0.29722320135E+02  0.55483413349E+02  0.63162468574E+02  0.47000000000E+01 0.  1.
         11    1    4    4    0    0 -0.15960854698E+02  0.40077695385E+02  0.14848192392E+03  0.15462164234E+03  0.00000000000E+00 0. -1.
        -12    1    4    4    0    0 -0.45405350149E+02  0.14493652621E+03  0.18065049440E+03  0.23601449867E+03  0.00000000000E+00 0.  1.
</event>
<event>
12    1  0.8258923E-002  0.2793521E+03  0.7818608E-02  0.1096054E+00
         21   -1    0    0  503  502  0.00000000000E+00  0.00000000000E+00  0.13468261854E+04  0.13468261854E+04  0.00000000000E+00 0.  1.
         21   -1    0    0  501  503 -0.00000000000E+00 -0.00000000000E+00 -0.64985314454E+02  0.64985314454E+02  0.00000000000E+00 0. -1.
          6    2    1    2  501    0  0.21004849019E+03  0.65697177704E+02  0.87367011532E+03  0.91724428518E+03  0.17204976288E+03 0.  0.
         24    2    3    3    0    0  0.25246442069E+02  0.33371902926E+02  0.32321937828E+03  0.33568188587E+03  0.80377206143E+02 0.  0.
         -6    2    1    2    0  502 -0.21004849019E+03 -0.65697177704E+02  0.40817075566E+03  0.49456721470E+03  0.17192113512E+03 0.  0.
        -24    2    5    5    0    0 -0.12466430724E+03 -0.32506429351E+02  0.12378181663E+03  0.19575081102E+03  0.79991152234E+02 0.  0.
          5    1    3    3  501    0  0.18480204812E+03  0.32325274778E+02  0.55045073704E+03  0.58156239931E+03  0.47000000000E+01 0. -1.
        -13    1    4    4    0    0  0.46354158318E+01  0.57547560757E+02  0.18220297653E+03  0.19113119444E+03  0.00000000000E+00 0.  1.
         14    1    4    4    0    0  0.20611026237E+02 -0.24175657831E+02  0.14101640174E+03  0.14455069144E+03  0.00000000000E+00 0. -1.
         -5    1    5    5    0  502 -0.85384182944E+02 -0.33190748353E+02  0.28438893902E+03  0.29881640369E+03  0.47000000000E+01 0.  1.
         11    1    6    6    0    0 -0.95277849729E+01 -0.22139851512E+02 -0.28700037123E+01  0.24273208127E+02  0.00000000000E+00 0. -1.
        -12    1    6    6    0    0 -0.11513652227E+03 -0.10366577839E+02  0.12665182034E+03  0.17147760289E+03  0.00000000000E+00 0.  1.
</event>
<event>
12    1  0.8258923E-002  0.1807747E+03  0.7818608E-02  0.1167252E+00
         21   -1    0    0  503  502  0.00000000000E+00  0.00000000000E+00  0.19558986900E+03  0.19558986900E+03  0.00000000000E+00 0.  1.
         21   -1    0    0  501  503 -0.00000000000E+00 -0.00000000000E+00 -0.19042895841E+03  0.19042895841E+03  0.00000000000E+00 0. -1.
          6    2    1    2  501    0  0.49850762387E+02 -0.14017278131E+02 -0.66074885527E+02  0.19247181018E+03  0.17319908955E+03 0.  0.
         24    2    3    3    0    0  0.65865549063E+02  0.49937084397E+02 -0.55210166459E+02  0.12548848391E+03  0.76597742535E+02 0.  0.
         -6    2    1    2    0  502 -0.49850762387E+02  0.14017278131E+02  0.71235796116E+02  0.19354701722E+03  0.17234943176E+03 0.  0.
        -24    2    5    5    0    0 -0.30530824702E+02  0.56094401707E+02  0.96571043990E+02  0.14055919687E+03  0.79700741071E+02 0.  0.
          5    1    3    3  501    0 -0.16014786677E+02 -0.63954362527E+02 -0.10864719067E+02  0.66983326276E+02  0.47000000000E+01 0. -1.
        -13    1    4    4    0    0 -0.92874378743E+01  0.13043010895E+02 -0.36277347395E+02  0.39653783798E+02  0.00000000000E+00 0.  1.
         14    1    4    4    0    0  0.75152986938E+02  0.36894073502E+02 -0.18932819065E+02  0.85834700110E+02  0.00000000000E+00 0. -1.
         -5    1    5    5    0  502 -0.19319937685E+02 -0.42077123577E+02 -0.25335247874E+02  0.52987820350E+02  0.47000000000E+01 0.  1.
         11    1    6    6    0    0 -0.43437071670E+02  0.37480456653E+01  0.64419757667E+02  0.77786452673E+02  0.00000000000E+00 0. -1.
        -12    1    6    6    0    0  0.12906246968E+02  0.52346356042E+02  0.32151286323E+02  0.62772744196E+02  0.00000000000E+00 0.  1.
</event>
<event>
12    1  0.8258923E-002  0.2141348E+03  0.7818608E-02  0.1138616E+00
         21   -1    0    0  503  502  0.00000000000E+00  0.00000000000E+00  0.76121771811E+02  0.76121771811E+02  0.00000000000E+00 0. -1.
         21   -1    0    0  501  503 -0.00000000000E+00 -0.00000000000E+00 -0.62386278816E+03  0.62386278816E+03  0.00000000000E+00 0. -1.
          6    2    1    2  501    0  0.41802910271E+02  0.12015130460E+03 -0.34385200567E+03  0.40430834335E+03  0.17043243646E+03 0.  0.
         24    2    3    3    0    0  0.13323940760E+02  0.11985766355E+03 -0.34617710406E+03  0.37534916498E+03  0.80653712701E+02 0.  0.
         -6    2    1    2    0  502 -0.41802910271E+02 -0.12015130460E+03 -0.20388901068E+03  0.29567621662E+03  0.17224946181E+03 0.  0.
        -24    2    5    5    0    0 -0.73348762994E+02 -0.61357241704E+02 -0.60790055629E+02  0.13771646354E+03  0.78266476377E+02 0.  0.
          5    1    3    3  501    0  0.28478969510E+02  0.29364105128E+00  0.23250983863E+01  0.28959178371E+02  0.47000000000E+01 0. -1.
        -13    1    4    4    0    0 -0.20635027042E+02  0.26797405674E+02 -0.34522087902E+02  0.48328871754E+02  0.00000000000E+00 0.  1.
         14    1    4    4    0    0  0.33958967802E+02  0.93060257871E+02 -0.31165501615E+03  0.32702029323E+03  0.00000000000E+00 0. -1.
         -5    1    5    5    0  502  0.31545852723E+02 -0.58794062892E+02 -0.14309895505E+03  0.15795975308E+03  0.47000000000E+01 0.  1.
         11    1    6    6    0    0 -0.41666403880E+02 -0.77003605372E+02 -0.36608236905E+02  0.94898932880E+02  0.00000000000E+00 0. -1.
        -12    1    6    6    0    0 -0.31682359114E+02  0.15646363668E+02 -0.24181818724E+02  0.42817530660E+02  0.00000000000E+00 0.  1.
</event>
<event>
12    1  0.8258923E-002  0.2004579E+03  0.7818608E-02  0.1149404E+00
         21   -1    0    0  503  502  0.00000000000E+00  0.00000000000E+00  0.13899485014E+03  0.13899485014E+03  0.00000000000E+00 0.  1.
         21   -1    0    0  501  503 -0.00000000000E+00 -0.00000000000E+00 -0.33414831487E+03  0.33414831487E+03  0.00000000000E+00 0. -1.
          6    2    1    2  501    0  0.10232494448E+03  0.68278808643E+01 -0.18472607307E+03  0.27241420299E+03  0.17195569691E+03 0.  0.
         24    2    3    3    0    0  0.50547427872E+02  0.69312779693E+02 -0.88828020515E+02  0.14670103625E+03  0.79192631701E+02 0.  0.
         -6    2    1    2    0  502 -0.10232494448E+03 -0.68278808643E+01 -0.10427391665E+02  0.20072896202E+03  0.17223928552E+03 0.  0.
        -24    2    5    5    0    0 -0.68511250832E+02  0.30750045125E+02  0.49364113717E+02  0.12229057527E+03  0.82938605673E+02 0.  0.
          5    1    3    3  501    0  0.51777516609E+02 -0.62484898829E+02 -0.95898052553E+02  0.12571316674E+03  0.47000000000E+01 0. -1.
        -13    1    4    4    0    0 -0.20574328743E+02  0.19707330639E+02 -0.32880444394E+02  0.43506384677E+02  0.00000000000E+00 0.  1.
         14    1    4    4    0    0  0.71121756615E+02  0.49605449053E+02 -0.55947576122E+02  0.10319465157E+03  0.00000000000E+00 0. -1.
         -5    1    5    5    0  502 -0.33813693649E+02 -0.37577925989E+02 -0.59791505382E+02  0.78438386748E+02  0.47000000000E+01 0.  1.
         11    1    6    6    0    0 -0.37795162465E+02  0.10585513839E+02 -0.19808449211E+02  0.43964782146E+02  0.00000000000E+00 0. -1.
        -12    1    6    6    0    0 -0.30716088367E+02  0.20164531285E+02  0.69172562927E+02  0.78325793124E+02  0.00000000000E+00 0.  1.
</event>
<event>
12    1  0.8258923E-002  0.1858655E+03  0.7818608E-02  0.1162726E+00
         21   -1    0    0  503  502  0.00000000000E+00  0.00000000000E+00  0.89376412582E+02  0.89376412582E+02  0.00000000000E+00 0.  1.
         21   -1    0    0  501  503 -0.00000000000E+00 -0.00000000000E+00 -0.41321000428E+03  0.41321000428E+03  0.00000000000E+00 0.  1.
          6    2    1    2  501    0  0.53597822115E+02 -0.38975994055E+02 -0.23154955593E+03  0.29691947549E+03  0.17364942679E+03 0.  0.
         24    2    3    3    0    0  0.89917671186E+02 -0.43719737465E+02 -0.22591220661E+03  0.25956302698E+03  0.79624348309E+02 0.  0.
         -6    2    1    2    0  502 -0.53597822115E+02  0.38975994055E+02 -0.92284035767E+02  0.20566694137E+03  0.17143713970E+03 0.  0.
        -24    2    5    5    0    0 -0.99446206716E+02  0.12526149504E+02 -0.50956515192E+02  0.13834887096E+03  0.80606396792E+02 0.  0.
          5    1    3    3  501    0 -0.36319849071E+02  0.47437434102E+01 -0.56373493245E+01  0.37356448513E+02  0.47000000000E+01 0. -1.
        -13    1    4    4    0    0  0.95327662306E+02 -0.13361456162E+02 -0.18225590375E+03  0.20611430364E+03  0.00000000000E+00 0.  1.
         14    1    4    4    0    0 -0.54099911202E+01 -0.30358281303E+02 -0.43656302852E+02  0.53448723336E+02  0.00000000000E+00 0. -1.
         -5    1    5    5    0  502  0.45848384601E+02  0.26449844551E+02 -0.41327520575E+02  0.67318070413E+02  0.47000000000E+01 0.  1.
         13    1    6    6    0    0 -0.31057807626E+02  0.11842945340E+02 -0.60760357240E+02  0.69257951029E+02  0.00000000000E+00 0. -1.
        -14    1    6    6    0    0 -0.68388399090E+02  0.68320416418E+00  0.98038420475E+01  0.69090919931E+02  0.00000000000E+00 0.  1.
</event>
<event>
12    1  0.8258923E-002  0.2010289E+03  0.7818608E-02  0.1149464E+00
         21   -1    0    0  503  502  0.00000000000E+00  0.00000000000E+00  0.46124784198E+03  0.46124784198E+03  0.00000000000E+00 0.  1.
         21   -1    0    0  501  503 -0.00000000000E+00 -0.00000000000E+00 -0.28526610543E+03  0.28526610543E+03  0.00000000000E+00 0. -1.
          6    2    1    2  501    0  0.10405262793E+02  0.99437408790E+02 -0.22346567931E+03  0.30058199156E+03  0.17440342904E+03 0.  0.
         24    2    3    3    0    0 -0.16283699068E+02  0.12916165564E+03 -0.20681429365E+03  0.25704820951E+03  0.79710336908E+02 0.  0.
         -6    2    1    2    0  502 -0.10405262793E+02 -0.99437408790E+02  0.39944741586E+03  0.44593195584E+03  0.17117535875E+03 0.  0.
        -24    2    5    5    0    0  0.42863276809E+02 -0.10758649478E+03  0.24856618312E+03  0.28564726753E+03  0.79981871066E+02 0.  0.
          5    1    3    3  501    0  0.26688961861E+02 -0.29724246846E+02 -0.16651385660E+02  0.43533782057E+02  0.47000000000E+01 0. -1.
        -13    1    4    4    0    0 -0.70503690882E+01 -0.10507258864E+02 -0.15981099491E+02  0.20383957762E+02  0.00000000000E+00 0.  1.
         14    1    4    4    0    0 -0.92333299796E+01  0.13966891450E+03 -0.19083319416E+03  0.23666425174E+03  0.00000000000E+00 0. -1.
         -5    1    5    5    0  502 -0.53268539602E+02  0.81490859905E+01  0.15088123274E+03  0.16028468831E+03  0.47000000000E+01 0.  1.
         13    1    6    6    0    0 -0.89454380330E+01 -0.23202502308E+01 -0.15594656066E+01  0.93721051911E+01  0.00000000000E+00 0. -1.
        -14    1    6    6    0    0  0.51808714842E+02 -0.10526624455E+03  0.25012564873E+03  0.27627516234E+03  0.00000000000E+00 0.  1.
</event>
<event>
12    1  0.8258923E-002  0.1939396E+03  0.7818608E-02  0.1154991E+00
         21   -1    0    0  503  502  0.00000000000E+00  0.00000000000E+00  0.52955779851E+03  0.52955779851E+03  0.00000000000E+00 0.  1.
         21   -1    0    0  501  503 -0.00000000000E+00 -0.00000000000E+00 -0.12544976140E+03  0.12544976140E+03  0.00000000000E+00 0.  1.
          6    2    1    2  501    0 -0.39746432376E+02 -0.82106345658E+02 -0.13728021950E+02  0.19442490447E+03  0.17114717061E+03 0.  0.
         24    2    3    3    0    0 -0.61089780077E+02 -0.11100799799E+03 -0.33427992843E+02  0.15318144617E+03  0.79324573102E+02 0.  0.
         -6    2    1    2    0  502  0.39746432376E+02  0.82106345658E+02  0.41783605905E+03  0.46058265544E+03  0.17096250865E+03 0.  0.
        -24    2    5    5    0    0  0.53802276449E+02  0.11934414329E+03  0.34041011858E+03  0.37339844481E+03  0.80060229001E+02 0.  0.
          5    1    3    3  501    0  0.21343347701E+02  0.28901652337E+02  0.19699970893E+02  0.41243458295E+02  0.47000000000E+01 0. -1.
        -13    1    4    4    0    0 -0.43993839940E+02 -0.32943976881E+02 -0.46761900141E+02  0.72162586360E+02  0.00000000000E+00 0.  1.
         14    1    4    4    0    0 -0.17095940137E+02 -0.78064021114E+02  0.13333907298E+02  0.81018859814E+02  0.00000000000E+00 0. -1.
         -5    1    5    5    0  502 -0.14055844072E+02 -0.37237797631E+02  0.77425940476E+02  0.87184210632E+02  0.47000000000E+01 0.  1.
         11    1    6    6    0    0 -0.19300505324E+02  0.13275411631E+02  0.71202517230E+02  0.74956951109E+02  0.00000000000E+00 0. -1.
        -12    1    6    6    0    0  0.73102781773E+02  0.10606873166E+03  0.26920760135E+03  0.29844149370E+03  0.00000000000E+00 0.  1.
</event>
<event>
12    1  0.8258923E-002  0.1906239E+03  0.7818608E-02  0.1157936E+00
         21   -1    0    0  503  502  0.00000000000E+00  0.00000000000E+00  0.42314477208E+03  0.42314477208E+03  0.00000000000E+00 0. -1.
         21   -1    0    0  501  503 -0.00000000000E+00 -0.00000000000E+00 -0.11678529416E+03  0.11678529416E+03  0.00000000000E+00 0. -1.
          6    2    1    2  501    0 -0.53345465351E+02 -0.62092054271E+02  0.14080157574E+02  0.19098212327E+03  0.17197313365E+03 0.  0.
         24    2    3    3    0    0 -0.31833196053E+02  0.24432732706E+02 -0.24719492306E+02  0.93633166821E+02  0.80906154467E+02 0.  0.
         -6    2    1    2    0  502  0.53345465351E+02  0.62092054271E+02  0.29227932034E+03  0.34894794297E+03  0.17215197915E+03 0.  0.
        -24    2    5    5    0    0 -0.30586287757E+00  0.75961261117E+02  0.10006658570E+03  0.14885135310E+03  0.79832305508E+02 0.  0.
          5    1    3    3  501    0 -0.21512269299E+02 -0.86524786976E+02  0.38799649880E+02  0.97348956453E+02  0.47000000000E+01 0. -1.
        -11    1    4    4    0    0  0.13007466790E+02 -0.78631726545E+01  0.18164592511E+02  0.23684933979E+02  0.00000000000E+00 0.  1.
         12    1    4    4    0    0 -0.44840662842E+02  0.32295905360E+02 -0.42884084817E+02  0.69948232842E+02  0.00000000000E+00 0. -1.
         -5    1    5    5    0  502  0.53651328229E+02 -0.13869206846E+02  0.19221273464E+03  0.20009658987E+03  0.47000000000E+01 0.  1.
         13    1    6    6    0    0 -0.31204841222E+02  0.24968085380E+02  0.73316822541E+02  0.83501520170E+02  0.00000000000E+00 0. -1.
        -14    1    6    6    0    0  0.30898978344E+02  0.50993175737E+02  0.26749763156E+02  0.65349832925E+02  0.00000000000E+00 0.  1.
</event>
<event>
12    1  0.8258923E-002  0.2020164E+03  0.7818608E-02  0.1149876E+00
         21   -1    0    0  501  502  0.00000000000E+00  0.00000000000E+00  0.29138880371E+03  0.29138880371E+03  0.00000000000E+00 0. -1.
         21   -1    0    0  502  503 -0.00000000000E+00 -0.00000000000E+00 -0.15906286002E+03  0.15906286002E+03  0.00000000000E+00 0. -1.
         -6    2    1    2    0  503  0.82600363120E+02 -0.40409733859E+02 -0.21703081365E+02  0.20317884109E+03  0.17987454280E+03 0.  0.
        -24    2    3    3    0    0  0.75059814086E+02  0.35296526835E+02 -0.46126702783E+02  0.12313572102E+03  0.78453250940E+02 0.  0.
          6    2    1    2  501    0 -0.82600363120E+02  0.40409733859E+02  0.15402902505E+03  0.24727282264E+03  0.17018560950E+03 0.  0.
         24    2    5    5    0    0 -0.71714960475E+02  0.84564791000E+02  0.74618754497E+02  0.15564181189E+03  0.79763247503E+02 0.  0.
          5    1    5    5  501    0 -0.10885402645E+02 -0.44155057140E+02  0.79410270556E+02  0.91631010753E+02  0.47000000000E+01 0. -1.
        -13    1    6    6    0    0 -0.60589135969E+02  0.15135499880E+02  0.53472634736E+02  0.82215870850E+02  0.00000000000E+00 0.  1.
         14    1    6    6    0    0 -0.11125824506E+02  0.69429291119E+02  0.21146119761E+02  0.73425941038E+02  0.00000000000E+00 0. -1.
         -5    1    3    3    0  503  0.75405490335E+01 -0.75706260695E+02  0.24423621418E+02  0.80043120075E+02  0.47000000000E+01 0.  1.
         11    1    4    4    0    0  0.82446486138E+02  0.29808139504E+02 -0.12845422241E+02  0.88605604392E+02  0.00000000000E+00 0. -1.
        -12    1    4    4    0    0 -0.73866720515E+01  0.54883873314E+01 -0.33281280542E+02  0.34530116623E+02  0.00000000000E+00 0.  1.
</event>
<event>
12    1  0.8258923E-002  0.1862655E+03  0.7818608E-02  0.1162477E+00
         21   -1    0    0  501  502  0.00000000000E+00  0.00000000000E+00  0.52494931742E+02  0.52494931742E+02  0.00000000000E+00 0.  1.
         21   -1    0    0  502  503 -0.00000000000E+00 -0.00000000000E+00 -0.18480638347E+04  0.18480638347E+04  0.00000000000E+00 0.  1.
         -6    2    1    2    0  503 -0.67900731485E+02  0.25819155519E+02 -0.16645584767E+04  0.16749476871E+04  0.17151587108E+03 0.  0.
        -24    2    3    3    0    0 -0.83932416518E+02 -0.27893021703E+02 -0.80307192794E+03  0.81162667113E+03  0.77399358205E+02 0.  0.
          6    2    1    2  501    0  0.67900731485E+02 -0.25819155519E+02 -0.13101042619E+03  0.22561107928E+03  0.16869940485E+03 0.  0.
         24    2    5    5    0    0  0.39363210362E+02  0.37113610646E+01 -0.96615443181E+00  0.89155796717E+02  0.79903605069E+02 0.  0.
          5    1    5    5  501    0  0.28537521123E+02 -0.29530516584E+02 -0.13004427176E+03  0.13645528256E+03  0.47000000000E+01 0. -1.
        -11    1    6    6    0    0  0.34375076442E+02  0.29753714793E+02 -0.26266838208E+02  0.52505963603E+02  0.00000000000E+00 0.  1.
         12    1    6    6    0    0  0.49881339192E+01 -0.26042353729E+02  0.25300683776E+02  0.36649833114E+02  0.00000000000E+00 0. -1.
         -5    1    3    3    0  503  0.16031685034E+02  0.53712177222E+02 -0.86148654879E+03  0.86332101599E+03  0.47000000000E+01 0.  1.
         13    1    4    4    0    0 -0.38108002459E+02 -0.37001922781E+01 -0.10727328602E+03  0.11390113770E+03  0.00000000000E+00 0. -1.
        -14    1    4    4    0    0 -0.45824414060E+02 -0.24192829425E+02 -0.69579864191E+03  0.69772553344E+03  0.00000000000E+00 0.  1.
</event>
<event>
12    1  0.8258923E-002  0.1745099E+03  0.7818608E-02  0.1173627E+00
         21   -1    0    0  501  502  0.00000000000E+00  0.00000000000E+00  0.15629111081E+04  0.15629111081E+04  0.00000000000E+00 0.  1.
         21   -1    0    0  502  503 -0.00000000000E+00 -0.00000000000E+00 -0.21119131260E+02  0.21119131260E+02  0.00000000000E+00 0.  1.
         -6    2    1    2    0  503  0.19663138666E+02  0.15582460898E+02  0.53575313631E+03  0.56296811158E+03  0.17109126066E+03 0.  0.
        -24    2    3    3    0    0  0.73932445071E+02  0.34747973627E+02  0.36987968675E+03  0.38733051376E+03  0.80873457433E+02 0.  0.
          6    2    1    2  501    0 -0.19663138666E+02 -0.15582460898E+02  0.10060388405E+04  0.10210621278E+04  0.17269704118E+03 0.  0.
         24    2    5    5    0    0 -0.55299758098E+01 -0.66395000132E+02  0.61146533610E+03  0.62295158932E+03  0.98691178502E+02 0.  0.
          5    1    5    5  501    0 -0.14133162856E+02  0.50812539235E+02  0.39457350445E+03  0.39811053848E+03  0.47000000000E+01 0. -1.
        -11    1    6    6    0    0 -0.32492337581E+02  0.11992147442E+02  0.22915979303E+03  0.23176232296E+03  0.00000000000E+00 0.  1.
         12    1    6    6    0    0  0.26962361771E+02 -0.78387147574E+02  0.38230554307E+03  0.39118926637E+03  0.00000000000E+00 0. -1.
         -5    1    3    3    0  503 -0.54269306405E+02 -0.19165512730E+02  0.16587344956E+03  0.17563759781E+03  0.47000000000E+01 0.  1.
         11    1    4    4    0    0 -0.12447003937E+02 -0.30519840738E+01  0.11242816402E+03  0.11315623968E+03  0.00000000000E+00 0. -1.
        -12    1    4    4    0    0  0.86379449008E+02  0.37799957701E+02  0.25745152273E+03  0.27417427409E+03  0.00000000000E+00 0.  1.
</event>
<event>
12    1  0.8258923E-002  0.4501153E+03  0.7818608E-02  0.1027709E+00
         21   -1    0    0  503  502  0.00000000000E+00  0.00000000000E+00  0.44682196050E+03  0.44682196050E+03  0.00000000000E+00 0.  1.
         21   -1    0    0  501  503 -0.00000000000E+00 -0.00000000000E+00 -0.74148936020E+03  0.74148936020E+03  0.00000000000E+00 0. -1.
          6    2    1    2  501    0 -0.17967659642E+02 -0.41504983132E+03 -0.51787956516E+03  0.68615087758E+03  0.17324717464E+03 0.  0.
         24    2    3    3    0    0  0.24433831451E+02 -0.30392359538E+03 -0.27717165235E+03  0.41761909911E+03  0.67933961481E+02 0.  0.
         -6    2    1    2    0  502  0.17967659642E+02  0.41504983132E+03  0.22321216545E+03  0.50216044312E+03  0.17248837805E+03 0.  0.
        -24    2    5    5    0    0  0.65888762362E+02  0.27297437568E+03  0.19039814141E+03  0.34860030066E+03  0.80089815722E+02 0.  0.
          5    1    3    3  501    0 -0.42401491092E+02 -0.11112623593E+03 -0.24070791281E+03  0.26853177847E+03  0.47000000000E+01 0. -1.
        -13    1    4    4    0    0 -0.15356723215E+02 -0.25306344036E+02 -0.15925791859E+02  0.33613551474E+02  0.00000000000E+00 0.  1.
         14    1    4    4    0    0  0.39790554666E+02 -0.27861725135E+03 -0.26124586049E+03  0.38400554764E+03  0.00000000000E+00 0. -1.
         -5    1    5    5    0  502 -0.47921102720E+02  0.14207545563E+03  0.32814024043E+02  0.15356014246E+03  0.47000000000E+01 0.  1.
         13    1    6    6    0    0 -0.98439801514E+01  0.49637335161E+01  0.17835749712E+02  0.20967989018E+02  0.00000000000E+00 0. -1.
        -14    1    6    6    0    0  0.75732742513E+02  0.26801064217E+03  0.17256239170E+03  0.32763231164E+03  0.00000000000E+00 0.  1.
</event>
<event>
12    1  0.8258923E-002  0.2721819E+03  0.7818608E-02  0.1100039E+00
         21   -1    0    0  501  502  0.00000000000E+00  0.00000000000E+00  0.21278346801E+03  0.21278346801E+03  0.00000000000E+00 0. -1.
         21   -1    0    0  502  503 -0.00000000000E+00 -0.00000000000E+00 -0.74302479298E+03  0.74302479298E+03  0.00000000000E+00 0. -1.
         -6    2    1    2    0  503  0.20085220484E+03 -0.64282400112E+02 -0.61351827321E+03  0.67118377181E+03  0.17207309152E+03 0.  0.
        -24    2    3    3    0    0  0.16951508669E+03  0.10438844412E+01 -0.49992098491E+03  0.53636547803E+03  0.95028840694E+02 0.  0.
          6    2    1    2  501    0 -0.20085220484E+03  0.64282400112E+02  0.83276948237E+02  0.28462448917E+03  0.17205294120E+03 0.  0.
         24    2    5    5    0    0 -0.10304683787E+03  0.26077171664E+02 -0.24476017545E+02  0.13409767785E+03  0.78002833891E+02 0.  0.
          5    1    5    5  501    0 -0.97805366979E+02  0.38205228448E+02  0.10775296578E+03  0.15052681132E+03  0.47000000000E+01 0. -1.
        -11    1    6    6    0    0  0.12717266994E+02 -0.15990200956E+01 -0.22127492722E+01  0.13006998286E+02  0.00000000000E+00 0.  1.
         12    1    6    6    0    0 -0.11576410486E+03  0.27676191760E+02 -0.22263268273E+02  0.12109067957E+03  0.00000000000E+00 0. -1.
         -5    1    3    3    0  503  0.31337118153E+02 -0.65326284554E+02 -0.11359728830E+03  0.13481829378E+03  0.47000000000E+01 0.  1.
         13    1    4    4    0    0  0.39937006395E+02 -0.40256976205E+02 -0.18047174049E+03  0.18917092199E+03  0.00000000000E+00 0. -1.
        -14    1    4    4    0    0  0.12957808030E+03  0.41300860646E+02 -0.31944924442E+03  0.34719455604E+03  0.00000000000E+00 0.  1.
</event>
<event>
12    1  0.8258923E-002  0.1817394E+03  0.7818608E-02  0.1166297E+00
         21   -1    0    0  503  502  0.00000000000E+00  0.00000000000E+00  0.52223748578E+02  0.52223748578E+02  0.00000000000E+00 0.  1.
         21   -1    0    0  501  503 -0.00000000000E+00 -0.00000000000E+00 -0.83301125567E+03  0.83301125567E+03  0.00000000000E+00 0.  1.
          6    2    1    2  501    0 -0.41618471557E+02  0.35329725995E+02 -0.60944619112E+03  0.63596687169E+03  0.17334622956E+03 0.  0.
         24    2    3    3    0    0  0.19562942239E+02  0.13162063505E+02 -0.14845535865E+03  0.17038206924E+03  0.80219121040E+02 0.  0.
         -6    2    1    2    0  502  0.41618471557E+02 -0.35329725995E+02 -0.17134131597E+03  0.24926813256E+03  0.17261653640E+03 0.  0.
        -24    2    5    5    0    0  0.47075398453E+02  0.16055005163E+02 -0.17290766023E+03  0.19735751629E+03  0.81111490808E+02 0.  0.
          5    1    3    3  501    0 -0.61181413796E+02  0.22167662490E+02 -0.46099083246E+03  0.46558480245E+03  0.47000000000E+01 0. -1.
        -13    1    4    4    0    0  0.26558939247E+02  0.19870621585E+02 -0.15511510714E+03  0.15862192572E+03  0.00000000000E+00 0.  1.
         14    1    4    4    0    0 -0.69959970080E+01 -0.67085580798E+01  0.66597484876E+01  0.11760143518E+02  0.00000000000E+00 0. -1.
         -5    1    5    5    0  502 -0.54569268966E+01 -0.51384731158E+02  0.15663442516E+01  0.51910616271E+02  0.47000000000E+01 0.  1.
         11    1    6    6    0    0  0.10712159275E+02  0.44382721122E+02 -0.59946602621E+02  0.75353642621E+02  0.00000000000E+00 0. -1.
        -12    1    6    6    0    0  0.36363239178E+02 -0.28327715959E+02 -0.11296105761E+03  0.12200387367E+03  0.00000000000E+00 0.  1.
</event>
<event>
12    1  0.8258923E-002  0.1922658E+03  0.7818608E-02  0.1156674E+00
         21   -1    0    0  501  502  0.00000000000E+00  0.00000000000E+00  0.62065697609E+03  0.62065697609E+03  0.00000000000E+00 0. -1.
         21   -1    0    0  502  503 -0.00000000000E+00 -0.00000000000E+00 -0.16824842843E+03  0.16824842843E+03  0.00000000000E+00 0.  1.
         -6    2    1    2    0  503 -0.60691329435E+02  0.57669824710E+02 -0.91544035028E+02  0.21197340353E+03  0.17188125931E+03 0.  0.
        -24    2    3    3    0    0 -0.56312296034E+02 -0.29026319835E+02 -0.63453607736E+02  0.12061389653E+03  0.80670625229E+02 0.  0.
          6    2    1    2  501    0  0.60691329435E+02 -0.57669824710E+02  0.54395258268E+03  0.57693200099E+03  0.17308054601E+03 0.  0.
         24    2    5    5    0    0 -0.17300637433E+02  0.10167219081E+02  0.16898138035E+03  0.18794600641E+03  0.79789159780E+02 0.  0.
          5    1    5    5  501    0  0.77991966868E+02 -0.67837043790E+02  0.37497120233E+03  0.38898599459E+03  0.47000000000E+01 0. -1.
        -13    1    6    6    0    0  0.19596723320E+02  0.32883183536E+02  0.91247241993E+02  0.98951475460E+02  0.00000000000E+00 0.  1.
         14    1    6    6    0    0 -0.36897360753E+02 -0.22715964456E+02  0.77734138361E+02  0.88994530946E+02  0.00000000000E+00 0. -1.
         -5    1    3    3    0  503 -0.43790334010E+01  0.86696144544E+02 -0.28090427292E+02  0.91359506992E+02  0.47000000000E+01 0.  1.
         11    1    4    4    0    0  0.11670825429E+02  0.14123798250E+02 -0.37228306338E+00  0.18325622441E+02  0.00000000000E+00 0. -1.
        -12    1    4    4    0    0 -0.67983121463E+02 -0.43150118085E+02 -0.63081324673E+02  0.10228827409E+03  0.00000000000E+00 0.  1.
</event>
<event>
12    1  0.8258923E-002  0.1758097E+03  0.7818608E-02  0.1173044E+00
         21   -1    0    0  503  502  0.00000000000E+00  0.00000000000E+00  0.55098776625E+03  0.55098776625E+03  0.00000000000E+00 0.  1.
         21   -1    0    0  501  503 -0.00000000000E+00 -0.00000000000E+00 -0.61565770329E+02  0.61565770329E+02  0.00000000000E+00 0. -1.
          6    2    1    2  501    0 -0.18777870515E+02 -0.26148513307E+02  0.34983680305E+03  0.39152883091E+03  0.17283715890E+03 0.  0.
         24    2    3    3    0    0 -0.21843156931E+02  0.73889706521E+01  0.34791102933E+03  0.35747068334E+03  0.78812973072E+02 0.  0.
         -6    2    1    2    0  502  0.18777870515E+02  0.26148513307E+02  0.13958519287E+03  0.22102470567E+03  0.16831975902E+03 0.  0.
        -24    2    5    5    0    0  0.30529879584E+02  0.66849228541E+01  0.57231944483E+01  0.85164241617E+02  0.79015386821E+02 0.  0.
          5    1    3    3  501    0  0.30652864159E+01 -0.33537483959E+02  0.19257737112E+01  0.34058147564E+02  0.47000000000E+01 0. -1.
        -13    1    4    4    0    0  0.44995564229E+01 -0.28312349209E+02  0.22456875319E+03  0.22639116598E+03  0.00000000000E+00 0.  1.
         14    1    4    4    0    0 -0.26342713354E+02  0.35701319862E+02  0.12334227615E+03  0.13107951736E+03  0.00000000000E+00 0. -1.
         -5    1    5    5    0  502 -0.11752009069E+02  0.19463590453E+02  0.13386199843E+03  0.13586046405E+03  0.47000000000E+01 0.  1.
         11    1    6    6    0    0 -0.19409820195E+02 -0.38393304799E+01 -0.19895102026E+02  0.28058807230E+02  0.00000000000E+00 0. -1.
        -12    1    6    6    0    0  0.49939699780E+02  0.10524253334E+02  0.25618296474E+02  0.57105434387E+02  0.00000000000E+00 0.  1.
</event>
<event>
12    1  0.8258923E-002  0.2015217E+03  0.7818608E-02  0.1148527E+00
         21   -1    0    0  501  502  0.00000000000E+00  0.00000000000E+00  0.14267169871E+03  0.14267169871E+03  0.00000000000E+00 0.  1.
         21   -1    0    0  502  503 -0.00000000000E+00 -0.00000000000E+00 -0.16748834295E+04  0.16748834295E+04  0.00000000000E+00 0.  1.
         -6    2    1    2    0  503  0.66989974934E+02 -0.79723857338E+02 -0.15940973318E+04  0.16067452177E+04  0.17216370480E+03 0.  0.
        -24    2    3    3    0    0  0.83122868928E+02 -0.99681555956E+02 -0.15286665629E+04  0.15363047782E+04  0.81025224613E+02 0.  0.
          6    2    1    2  501    0 -0.66989974934E+02  0.79723857338E+02  0.61885600991E+02  0.21080991051E+03  0.17253243344E+03 0.  0.
         24    2    5    5    0    0 -0.10028689245E+03  0.94169011887E+02  0.28621054239E+02  0.16135318927E+03  0.79312189132E+02 0.  0.
          5    1    5    5  501    0  0.33296917511E+02 -0.14445154548E+02  0.33264546751E+02  0.49456721244E+02  0.47000000000E+01 0. -1.
        -11    1    6    6    0    0 -0.22867344560E+02  0.75656373118E+02  0.10688982222E+02  0.79756232242E+02  0.00000000000E+00 0.  1.
         12    1    6    6    0    0 -0.77419547885E+02  0.18512638769E+02  0.17932072017E+02  0.81596957025E+02  0.00000000000E+00 0. -1.
         -5    1    3    3    0  503 -0.16132893994E+02  0.19957698618E+02 -0.65430768903E+02  0.70440439536E+02  0.47000000000E+01 0.  1.
         13    1    4    4    0    0 -0.10349464946E+02 -0.97398795512E+01 -0.50626795002E+02  0.52583733707E+02  0.00000000000E+00 0. -1.
        -14    1    4    4    0    0  0.93472333875E+02 -0.89941676405E+02 -0.14780397679E+04  0.14837210445E+04  0.00000000000E+00 0.  1.
</event>
<event>
12    1  0.8258923E-002  0.2614107E+03  0.7818608E-02  0.1106359E+00
         21   -1    0    0  501  502  0.00000000000E+00  0.00000000000E+00  0.85710422313E+02  0.85710422313E+02  0.00000000000E+00 0.  1.
         21   -1    0    0  502  503 -0.00000000000E+00 -0.00000000000E+00 -0.18179926035E+04  0.18179926035E+04  0.00000000000E+00 0.  1.
         -6    2    1    2    0  503  0.19685573483E+03  0.10314493413E+02 -0.15219808115E+03  0.30214087427E+03  0.17107391060E+03 0.  0.
        -24    2    3    3    0    0  0.58818127215E+02  0.48895687904E+02 -0.36249027213E+02  0.11772514068E+03  0.81822102086E+02 0.  0.
          6    2    1    2  501    0 -0.19685573483E+03 -0.10314493413E+02 -0.15800841000E+04  0.16015621515E+04  0.17168865125E+03 0.  0.
         24    2    5    5    0    0 -0.17569131822E+03  0.46783874117E+02 -0.11154408409E+04  0.11329219864E+04  0.79042947823E+02 0.  0.
          5    1    5    5  501    0 -0.21164416613E+02 -0.57098367530E+02 -0.46464325915E+03  0.46864016513E+03  0.47000000000E+01 0. -1.
        -11    1    6    6    0    0 -0.14859893265E+03  0.33459448449E+02 -0.10482601502E+04  0.10592688611E+04  0.00000000000E+00 0.  1.
         12    1    6    6    0    0 -0.27092385567E+02  0.13324425668E+02 -0.67180690651E+02  0.73653125333E+02  0.00000000000E+00 0. -1.
         -5    1    3    3    0  503  0.13803760762E+03 -0.38581194491E+02 -0.11594905394E+03  0.18441573359E+03  0.47000000000E+01 0.  1.
         11    1    4    4    0    0  0.56786114432E+02  0.44057366078E+02  0.87657854730E+01  0.72405478335E+02  0.00000000000E+00 0. -1.
        -12    1    4    4    0    0  0.20320127831E+01  0.48383218268E+01 -0.45014812686E+02  0.45319662346E+02  0.00000000000E+00 0.  1.
</event>
<event>
12    1  0.8258923E-002  0.1784298E+03  0.7818608E-02  0.1169428E+00
         21   -1    0    0  501  502  0.00000000000E+00  0.00000000000E+00  0.25243357823E+03  0.25243357823E+03  0.00000000000E+00 0. -1.
         21   -1    0    0  502  503 -0.00000000000E+00 -0.00000000000E+00 -0.18054014901E+03  0.18054014901E+03  0.00000000000E+00 0. -1.
         -6    2    1    2    0  503  0.41333939872E+01  0.45263594743E+02 -0.83185901589E+02  0.19686815804E+03  0.17254361614E+03 0.  0.
        -24    2    3    3    0    0 -0.38122275061E+01  0.97806782033E+02 -0.54187821263E+02  0.13614832525E+03  0.77584449503E+02 0.  0.
          6    2    1    2  501    0 -0.41333939872E+01 -0.45263594743E+02  0.15507933081E+03  0.23610556920E+03  0.17213472342E+03 0.  0.
         24    2    5    5    0    0 -0.47504516332E+02 -0.56959582973E+02  0.45071447416E+02  0.11718679523E+03  0.78741580115E+02 0.  0.
          5    1    5    5  501    0  0.43371122344E+02  0.11695988230E+02  0.11000788340E+03  0.11891877398E+03  0.47000000000E+01 0. -1.
        -11    1    6    6    0    0 -0.40153532863E+02  0.93841040165E+01  0.13879472884E+02  0.43508704613E+02  0.00000000000E+00 0.  1.
         12    1    6    6    0    0 -0.73509834682E+01 -0.66343686989E+02  0.31191974531E+02  0.73678090613E+02  0.00000000000E+00 0. -1.
         -5    1    3    3    0  503  0.79456214933E+01 -0.52543187291E+02 -0.28998080326E+02  0.60719832791E+02  0.47000000000E+01 0.  1.
         13    1    4    4    0    0 -0.40002365556E+02  0.39954153921E+02 -0.21554948745E+02  0.60507350636E+02  0.00000000000E+00 0. -1.
        -14    1    4    4    0    0  0.36190138050E+02  0.57852628113E+02 -0.32632872517E+02  0.75640974613E+02  0.00000000000E+00 0.  1.
</event>
<event>
12    1  0.8258923E-002  0.1763591E+03  0.7818608E-02  0.1172360E+00
         21   -1    0    0  503  502  0.00000000000E+00  0.00000000000E+00  0.23976207449E+03  0.23976207449E+03  0.00000000000E+00 0.  1.
         21   -1    0    0  501  503 -0.00000000000E+00 -0.00000000000E+00 -0.14738912379E+03  0.14738912379E+03  0.00000000000E+00 0.  1.
          6    2    1    2  501    0 -0.24321756744E+01 -0.11419886045E+02 -0.26509461584E+02  0.17446469458E+03  0.17204315978E+03 0.  0.
         24    2    3    3    0    0  0.12256194914E+02 -0.41889423182E+02 -0.72999295628E+02  0.11677989941E+03  0.80023181994E+02 0.  0.
         -6    2    1    2    0  502  0.24321756744E+01  0.11419886045E+02  0.11888241229E+03  0.21268650370E+03  0.17597213310E+03 0.  0.
        -24    2    5    5    0    0  0.19051785423E+02 -0.16334961654E+02 -0.56213749736E+01  0.83962667365E+02  0.79927017675E+02 0.  0.
          5    1    3    3  501    0 -0.14688370588E+02  0.30469537138E+02  0.46489834044E+02  0.57684795167E+02  0.47000000000E+01 0. -1.
        -13    1    4    4    0    0 -0.17337265354E+02  0.13362958055E+02 -0.40831284364E+02  0.46328643415E+02  0.00000000000E+00 0.  1.
         14    1    4    4    0    0  0.29593460268E+02 -0.55252381237E+02 -0.32168011265E+02  0.70451255998E+02  0.00000000000E+00 0. -1.
         -5    1    5    5    0  502 -0.16619609748E+02  0.27754847698E+02  0.12450378726E+03  0.12872383633E+03  0.47000000000E+01 0.  1.
         11    1    6    6    0    0  0.66540911929E+01 -0.48379392678E+02  0.15656316514E+01  0.48859940319E+02  0.00000000000E+00 0. -1.
        -12    1    6    6    0    0  0.12397694230E+02  0.32044431024E+02 -0.71870066249E+01  0.35102727047E+02  0.00000000000E+00 0.  1.
</event>
<event>
12    1  0.8258923E-002  0.1753964E+03  0.7818608E-02  0.1172768E+00
         21   -1    0    0  503  502  0.00000000000E+00  0.00000000000E+00  0.61156475690E+02  0.61156475690E+02  0.00000000000E+00 0. -1.
         21   -1    0    0  501  503 -0.00000000000E+00 -0.00000000000E+00 -0.49835708434E+03  0.49835708434E+03  0.00000000000E+00 0. -1.
          6    2    1    2  501    0  0.34670401561E+02  0.31469148822E+01 -0.22385260826E+03  0.28332291516E+03  0.17014683133E+03 0.  0.
         24    2    3    3    0    0  0.73835622878E+02 -0.39107068238E+02 -0.14199135218E+03  0.18310979776E+03  0.79916155762E+02 0.  0.
         -6    2    1    2    0  502 -0.34670401561E+02 -0.31469148822E+01 -0.21334800038E+03  0.27619064487E+03  0.17190684462E+03 0.  0.
        -24    2    5    5    0    0 -0.86992129394E+02 -0.22049952600E+02 -0.13648678464E+03  0.18119262107E+03  0.78411048743E+02 0.  0.
          5    1    3    3  501    0 -0.39165221317E+02  0.42253983120E+02 -0.81861256083E+02  0.10021311739E+03  0.47000000000E+01 0. -1.
        -11    1    4    4    0    0  0.29311298566E+02 -0.44658883748E+02 -0.12354069586E+03  0.13459521409E+03  0.00000000000E+00 0.  1.
         12    1    4    4    0    0  0.44524324312E+02  0.55518155105E+01 -0.18450656319E+02  0.48514583678E+02  0.00000000000E+00 0. -1.
         -5    1    5    5    0  502  0.52321727833E+02  0.18903037718E+02 -0.76861215748E+02  0.94998023794E+02  0.47000000000E+01 0.  1.
         13    1    6    6    0    0 -0.21687548012E+02 -0.41629805484E+02 -0.79555151951E+02  0.92371059566E+02  0.00000000000E+00 0. -1.
        -14    1    6    6    0    0 -0.65304581382E+02  0.19579852884E+02 -0.56931632684E+02  0.88821561507E+02  0.00000000000E+00 0.  1.
</event>
<event>
12    1  0.8258923E-002  0.1825413E+03  0.7818608E-02  0.1165425E+00
         21   -1    0    0  501  502  0.00000000000E+00  0.00000000000E+00  0.14196443160E+03  0.14196443160E+03  0.00000000000E+00 0.  1.
         21   -1    0    0  502  503 -0.00000000000E+00 -0.00000000000E+00 -0.87142022677E+03  0.87142022677E+03  0.00000000000E+00 0.  1.
         -6    2    1    2    0  503  0.14904702746E+02 -0.59054033047E+02 -0.79801545546E+03  0.81862688798E+03  0.17208075308E+03 0.  0.
        -24    2    3    3    0    0 -0.53694850657E+02 -0.33350933852E+02 -0.35585796990E+03  0.37041724945E+03  0.81108705875E+02 0.  0.
          6    2    1    2  501    0 -0.14904702746E+02  0.59054033047E+02  0.68559660303E+02  0.19475777039E+03  0.17181569522E+03 0.  0.
         24    2    5    5    0    0  0.39924464931E+02  0.83397740293E+02  0.39130682137E+02  0.12777263423E+03  0.79028411269E+02 0.  0.
          5    1    5    5  501    0 -0.54829167676E+02 -0.24343707246E+02  0.29428978166E+02  0.66985136161E+02  0.47000000000E+01 0. -1.
        -13    1    6    6    0    0  0.24746033010E+02  0.30487917413E+02  0.57601432840E+02  0.69712296786E+02  0.00000000000E+00 0.  1.
         14    1    6    6    0    0  0.15178431921E+02  0.52909822879E+02 -0.18470750703E+02  0.58060337445E+02  0.00000000000E+00 0. -1.
         -5    1    3    3    0  503  0.68599553403E+02 -0.25703099194E+02 -0.44215748556E+03  0.44820963853E+03  0.47000000000E+01 0.  1.
         13    1    4    4    0    0 -0.26918313120E+02  0.25882235365E+02 -0.14756188967E+03  0.15221365567E+03  0.00000000000E+00 0. -1.
        -14    1    4    4    0    0 -0.26776537537E+02 -0.59233169217E+02 -0.20829608023E+03  0.21820359378E+03  0.00000000000E+00 0.  1.
</event>
<event>
12    1  0.8258923E-002  0.2478931E+03  0.7818608E-02  0.1114737E+00
         21   -1    0    0  501  502  0.00000000000E+00  0.00000000000E+00  0.75992572885E+02  0.75992572885E+02  0.00000000000E+00 0.  1.
         21   -1    0    0  502  503 -0.00000000000E+00 -0.00000000000E+00 -0.88579677093E+03  0.88579677093E+03  0.00000000000E+00 0.  1.
         -6    2    1    2    0  503 -0.16867008962E+03  0.29257715967E+02 -0.54899572519E+03  0.60236807740E+03  0.17929133086E+03 0.  0.
        -24    2    3    3    0    0 -0.11815352438E+03  0.43605456418E+02 -0.52145069044E+03  0.54288194491E+03  0.83356417819E+02 0.  0.
          6    2    1    2  501    0  0.16867008962E+03 -0.29257715967E+02 -0.26080847286E+03  0.35942126641E+03  0.17848522112E+03 0.  0.
         24    2    5    5    0    0  0.14176290195E+03  0.27663707976E+02 -0.11454114500E+03  0.20010941358E+03  0.77859504225E+02 0.  0.
          5    1    5    5  501    0  0.26907187671E+02 -0.56921423944E+02 -0.14626732786E+03  0.15931185283E+03  0.47000000000E+01 0. -1.
        -13    1    6    6    0    0  0.91271164424E+02  0.34901749776E+02 -0.11256695787E+03  0.14906333418E+03  0.00000000000E+00 0.  1.
         14    1    6    6    0    0  0.50491737530E+02 -0.72380417995E+01 -0.19741871298E+01  0.51046079405E+02  0.00000000000E+00 0. -1.
         -5    1    3    3    0  503 -0.50516565246E+02 -0.14347740451E+02 -0.27545034748E+02  0.59486132498E+02  0.47000000000E+01 0.  1.
         13    1    4    4    0    0 -0.17344361574E+01 -0.54546604190E+01 -0.15794398404E+03  0.15804766270E+03  0.00000000000E+00 0. -1.
        -14    1    4    4    0    0 -0.11641908822E+03  0.49060116837E+02 -0.36350670640E+03  0.38483428221E+03  0.00000000000E+00 0.  1.
</event>
<event>
12    1  0.8258923E-002  0.4778274E+03  0.7818608E-02  0.1019788E+00
         21   -1    0    0  503  502  0.00000000000E+00  0.00000000000E+00  0.24684008616E+03  0.24684008616E+03  0.00000000000E+00 0. -1.
         21   -1    0    0  501  503 -0.00000000000E+00 -0.00000000000E+00 -0.10352761551E+04  0.10352761551E+04  0.00000000000E+00 0.  1.
          6    2    1    2  501    0 -0.30253302075E+03  0.32635143643E+03 -0.60518817476E+03  0.77108479079E+03  0.17403315493E+03 0.  0.
         24    2    3    3    0    0 -0.22194160588E+03  0.30096478599E+03 -0.55149567720E+03  0.67086287470E+03  0.77920702298E+02 0.  0.
         -6    2    1    2    0  502  0.30253302075E+03 -0.32635143643E+03 -0.18324789416E+03  0.51103145044E+03  0.17187746775E+03 0.  0.
        -24    2    5    5    0    0  0.27096617704E+03 -0.22991759272E+03 -0.18640087024E+03  0.40940476550E+03  0.81130814381E+02 0.  0.
          5    1    3    3  501    0 -0.80591414873E+02  0.25386650440E+02 -0.53692497554E+02  0.10022191609E+03  0.47000000000E+01 0. -1.
        -13    1    4    4    0    0 -0.18066558435E+03  0.18502365749E+03 -0.36083258466E+03  0.44393013115E+03  0.00000000000E+00 0.  1.
         14    1    4    4    0    0 -0.41276021532E+02  0.11594112850E+03 -0.19066309255E+03  0.22693274354E+03  0.00000000000E+00 0. -1.
         -5    1    5    5    0  502  0.31566843707E+02 -0.96433843710E+02  0.31529760807E+01  0.10162668494E+03  0.47000000000E+01 0.  1.
         11    1    6    6    0    0  0.12411330198E+03 -0.15575847336E+03 -0.88265929034E+02  0.21784326471E+03  0.00000000000E+00 0. -1.
        -12    1    6    6    0    0  0.14685287506E+03 -0.74159119363E+02 -0.98134941204E+02  0.19156150079E+03  0.00000000000E+00 0.  1.
</event>
<event>
12    1  0.8258923E-002  0.2778966E+03  0.7818608E-02  0.1097957E+00
         21   -1    0    0  503  502  0.00000000000E+00  0.00000000000E+00  0.12774404168E+03  0.12774404168E+03  0.00000000000E+00 0. -1.
         21   -1    0    0  501  503 -0.00000000000E+00 -0.00000000000E+00 -0.86866258639E+03  0.86866258639E+03  0.00000000000E+00 0.  1.
          6    2    1    2  501    0 -0.12056930200E+03 -0.17184942058E+03 -0.65030989481E+03  0.70411152550E+03  0.16970828241E+03 0.  0.
         24    2    3    3    0    0 -0.89230118347E+02 -0.13047510303E+03 -0.29435036898E+03  0.34435709174E+03  0.83390049649E+02 0.  0.
         -6    2    1    2    0  502  0.12056930200E+03  0.17184942058E+03 -0.90608649894E+02  0.29229510257E+03  0.18209151439E+03 0.  0.
        -24    2    5    5    0    0  0.60677803856E+02  0.18211777554E+03 -0.29473568694E+02  0.20597002616E+03  0.68602335060E+02 0.  0.
          5    1    3    3  501    0 -0.31339183652E+02 -0.41374317548E+02 -0.35595952582E+03  0.35975443376E+03  0.47000000000E+01 0. -1.
        -13    1    4    4    0    0 -0.32448165288E+02 -0.11430259598E+03 -0.18029139046E+03  0.21592348726E+03  0.00000000000E+00 0.  1.
         14    1    4    4    0    0 -0.56781953059E+02 -0.16172507055E+02 -0.11405897853E+03  0.12843360448E+03  0.00000000000E+00 0. -1.
         -5    1    5    5    0  502  0.59891498143E+02 -0.10268354965E+02 -0.61135081201E+02  0.86325076408E+02  0.47000000000E+01 0.  1.
         11    1    6    6    0    0  0.71235131216E+02  0.15144655691E+03 -0.89861047958E+01  0.16760445578E+03  0.00000000000E+00 0. -1.
        -12    1    6    6    0    0 -0.10557327359E+02  0.30671218636E+02 -0.20487463898E+02  0.38365570379E+02  0.00000000000E+00 0.  1.
</event>
<event>
12    1  0.8258923E-002  0.1842788E+03  0.7818608E-02  0.1164045E+00
         21   -1    0    0  503  502  0.00000000000E+00  0.00000000000E+00  0.12733340485E+04  0.12733340485E+04  0.00000000000E+00 0. -1.
         21   -1    0    0  501  503 -0.00000000000E+00 -0.00000000000E+00 -0.26642044879E+02  0.26642044879E+02  0.00000000000E+00 0. -1.
          6    2    1    2  501    0  0.32904661846E+02  0.52866779139E+02  0.57386209138E+03  0.60272413207E+03  0.17343894125E+03 0.  0.
         24    2    3    3    0    0  0.56848361469E+02  0.77948170305E+02  0.53915772647E+03  0.55344066751E+03  0.79359088897E+02 0.  0.
         -6    2    1    2    0  502 -0.32904661846E+02 -0.52866779139E+02  0.67282991225E+03  0.69725196133E+03  0.17199591170E+03 0.  0.
        -24    2    5    5    0    0 -0.71011287755E+02 -0.31799660962E+02  0.61415085544E+03  0.62403133503E+03  0.78613055142E+02 0.  0.
          5    1    3    3  501    0 -0.23943699623E+02 -0.25081391166E+02  0.34704364917E+02  0.49283464557E+02  0.47000000000E+01 0. -1.
        -13    1    4    4    0    0  0.70007910601E+01 -0.32082232669E+01  0.22573528410E+03  0.22586660279E+03  0.00000000000E+00 0.  1.
         14    1    4    4    0    0  0.49847570409E+02  0.81156393572E+02  0.31342244237E+03  0.32757406472E+03  0.00000000000E+00 0. -1.
         -5    1    5    5    0  502  0.38106625909E+02 -0.21067118177E+02  0.58679056814E+02  0.73220626295E+02  0.47000000000E+01 0.  1.
         13    1    6    6    0    0 -0.79014990946E+02 -0.14214547803E+02  0.34629077301E+03  0.35547534603E+03  0.00000000000E+00 0. -1.
        -14    1    6    6    0    0  0.80037031916E+01 -0.17585113159E+02  0.26786008242E+03  0.26855598900E+03  0.00000000000E+00 0.  1.
</event>
<event>
12    1  0.8258923E-002  0.1806688E+03  0.7818608E-02  0.1168409E+00
         21   -1    0    0  503  502  0.00000000000E+00  0.00000000000E+00  0.83356853724E+02  0.83356853724E+02  0.00000000000E+00 0. -1.
         21   -1    0    0  501  503 -0.00000000000E+00 -0.00000000000E+00 -0.61362916036E+03  0.61362916036E+03  0.00000000000E+00 0. -1.
          6    2    1    2  501    0  0.17741585320E+02 -0.36727974676E+02 -0.52741665442E+02  0.18820972579E+03  0.17600428868E+03 0.  0.
         24    2    3    3    0    0 -0.57535926794E+02 -0.13960345022E+02 -0.42001383779E+02  0.10869549787E+03  0.80903157623E+02 0.  0.
         -6    2    1    2    0  502 -0.17741585320E+02  0.36727974676E+02 -0.47753064119E+03  0.50877628830E+03  0.17074568891E+03 0.  0.
        -24    2    5    5    0    0 -0.14260530106E+02  0.84746716532E+02 -0.40499236534E+03  0.42158793599E+03  0.79575141242E+02 0.  0.
          5    1    3    3  501    0  0.75277512114E+02 -0.22767629654E+02 -0.10740281663E+02  0.79514227912E+02  0.47000000000E+01 0. -1.
        -11    1    4    4    0    0 -0.48373771366E+02  0.22704158871E+02 -0.46241207247E+02  0.70666468950E+02  0.00000000000E+00 0.  1.
         12    1    4    4    0    0 -0.91621554287E+01 -0.36664503893E+02  0.42398234681E+01  0.38029028924E+02  0.00000000000E+00 0. -1.
         -5    1    5    5    0  502 -0.34810552138E+01 -0.48018741855E+02 -0.72538275848E+02  0.87188352305E+02  0.47000000000E+01 0.  1.
         11    1    6    6    0    0 -0.27814043725E+02  0.82106486345E+02 -0.22587749858E+03  0.24194160554E+03  0.00000000000E+00 0. -1.
        -12    1    6    6    0    0  0.13553513619E+02  0.26402301864E+01 -0.17911486677E+03  0.17964633045E+03  0.00000000000E+00 0.  1.
</event>
<event>
12    1  0.8258923E-002  0.2023860E+03  0.7818608E-02  0.1151217E+00
         21   -1    0    0  503  502  0.00000000000E+00  0.00000000000E+00  0.70684369338E+02  0.70684369338E+02  0.00000000000E+00 0. -1.
         21   -1    0    0  501  503 -0.00000000000E+00 -0.00000000000E+00 -0.83548711560E+03  0.83548711560E+03  0.00000000000E+00 0.  1.
          6    2    1    2  501    0  0.10497719602E+03 -0.24963593647E+00 -0.66426311936E+03  0.69441024129E+03  0.17303126152E+03 0.  0.
         24    2    3    3    0    0  0.12366715291E+03  0.15117804379E+02 -0.64801385200E+03  0.66488734510E+03  0.81431668058E+02 0.  0.
         -6    2    1    2    0  502 -0.10497719602E+03  0.24963593647E+00 -0.10053962690E+03  0.21176124364E+03  0.15399458994E+03 0.  0.
        -24    2    5    5    0    0 -0.12045386055E+03 -0.34778821118E+02 -0.82877479371E+02  0.16932822108E+03  0.78004300831E+02 0.  0.
          5    1    3    3  501    0 -0.18689956884E+02 -0.15367440316E+02 -0.16249267359E+02  0.29522896197E+02  0.47000000000E+01 0. -1.
        -11    1    4    4    0    0 -0.39587095004E+01 -0.13983461891E+02 -0.32399602784E+02  0.35509757080E+02  0.00000000000E+00 0.  1.
         12    1    4    4    0    0  0.12762586241E+03  0.29101266270E+02 -0.61561424922E+03  0.62937758802E+03  0.00000000000E+00 0. -1.
         -5    1    5    5    0  502  0.15476664525E+02  0.35028457055E+02 -0.17662147529E+02  0.42433022562E+02  0.47000000000E+01 0.  1.
         13    1    6    6    0    0 -0.83332075316E+02 -0.23596797205E+02 -0.95148286449E+02  0.12866328159E+03  0.00000000000E+00 0. -1.
        -14    1    6    6    0    0 -0.37121785233E+02 -0.11182023913E+02  0.12270807078E+02  0.40664939493E+02  0.00000000000E+00 0.  1.
</event>
<event>
12    1  0.8258923E-002  0.2016308E+03  0.7818608E-02  0.1148401E+00
         21   -1    0    0  503  502  0.00000000000E+00  0.00000000000E+00  0.63181576355E+03  0.63181576355E+03  0.00000000000E+00 0.  1.
         21   -1    0    0  501  503 -0.00000000000E+00 -0.00000000000E+00 -0.33562208291E+03  0.33562208291E+03  0.00000000000E+00 0.  1.
          6    2    1    2  501    0 -0.97712546529E+02 -0.37192073918E+02 -0.28683511331E+03  0.35052815407E+03  0.17223417913E+03 0.  0.
         24    2    3    3    0    0 -0.87091509138E+02  0.99758469867E+01 -0.28070362185E+03  0.30156587895E+03  0.66805744802E+02 0.  0.
         -6    2    1    2    0  502  0.97712546529E+02  0.37192073918E+02  0.58302879394E+03  0.61690969239E+03  0.17240650188E+03 0.  0.
        -24    2    5    5    0    0 -0.55233905989E+01 -0.17430590686E+02  0.20971853347E+03  0.22572695405E+03  0.81464477957E+02 0.  0.
          5    1    3    3  501    0 -0.10621037391E+02 -0.47167920904E+02 -0.61314914512E+01  0.48962275122E+02  0.47000000000E+01 0. -1.
        -13    1    4    4    0    0 -0.22269108284E+02 -0.27382472347E+02 -0.83962527808E+02  0.91079191101E+02  0.00000000000E+00 0.  1.
         14    1    4    4    0    0 -0.64822400854E+02  0.37358319334E+02 -0.19674109405E+03  0.21048668785E+03  0.00000000000E+00 0. -1.
         -5    1    5    5    0  502  0.10323593713E+03  0.54622664603E+02  0.37331026047E+03  0.39118273834E+03  0.47000000000E+01 0.  1.
         11    1    6    6    0    0 -0.18810496868E+02  0.29177898500E+02  0.97240182582E+02  0.10325133249E+03  0.00000000000E+00 0. -1.
        -12    1    6    6    0    0  0.13287106269E+02 -0.46608489185E+02  0.11247835089E+03  0.12247562156E+03  0.00000000000E+00 0.  1.
</event>
<event>
12    1  0.8258923E-002  0.2626016E+03  0.7818608E-02  0.1105619E+00
         21   -1    0    0  503  502  0.00000000000E+00  0.00000000000E+00  0.52307076637E+03  0.52307076637E+03  0.00000000000E+00 0.  1.
         21   -1    0    0  501  503 -0.00000000000E+00 -0.00000000000E+00 -0.13954282495E+03  0.13954282495E+03  0.00000000000E+00 0.  1.
          6    2    1    2  501    0  0.17597917171E+03  0.92016012062E+02  0.11335236314E+03  0.28584514589E+03  0.17153155351E+03 0.  0.
         24    2    3    3    0    0  0.12507529313E+03  0.38191586001E+02  0.32101665148E+01  0.15302320805E+03  0.79393770787E+02 0.  0.
         -6    2    1    2    0  502 -0.17597917171E+03 -0.92016012062E+02  0.27017557829E+03  0.37676844543E+03  0.17182550164E+03 0.  0.
        -24    2    5    5    0    0 -0.18260726599E+03 -0.93258933899E+02  0.28489385329E+03  0.35991038778E+03  0.79550846932E+02 0.  0.
          5    1    3    3  501    0  0.50903878587E+02  0.53824426062E+02  0.11014219663E+03  0.13282193785E+03  0.47000000000E+01 0. -1.
        -13    1    4    4    0    0  0.13557044181E+03  0.35224408845E+02  0.95691690997E+01  0.14039826448E+03  0.00000000000E+00 0.  1.
         14    1    4    4    0    0 -0.10495148685E+02  0.29671771555E+01 -0.63590025848E+01  0.12624943567E+02  0.00000000000E+00 0. -1.
         -5    1    5    5    0  502  0.66280942736E+01  0.12429218362E+01 -0.14718275006E+02  0.16858057644E+02  0.47000000000E+01 0.  1.
         13    1    6    6    0    0  0.10206184624E+00  0.33689802349E+00 -0.48223854972E+01  0.48352165187E+01  0.00000000000E+00 0. -1.
        -14    1    6    6    0    0 -0.18270932783E+03 -0.93595831922E+02  0.28971623879E+03  0.35507517127E+03  0.00000000000E+00 0.  1.
</event>
<event>
12    1  0.8258923E-002  0.2189379E+03  0.7818608E-02  0.1134852E+00
         21   -1    0    0  501  502  0.00000000000E+00  0.00000000000E+00  0.87707214823E+03  0.87707214823E+03  0.00000000000E+00 0.  1.
         21   -1    0    0  502  503 -0.00000000000E+00 -0.00000000000E+00 -0.10546829168E+03  0.10546829168E+03  0.00000000000E+00 0.  1.
         -6    2    1    2    0  503 -0.44606238395E+02  0.12673980542E+03  0.44444722020E+02  0.22340349448E+03  0.17286148573E+03 0.  0.
        -24    2    3    3    0    0 -0.35571813712E+02  0.29713178695E+02  0.77879485298E+02  0.12027367087E+03  0.79071579942E+02 0.  0.
          6    2    1    2  501    0  0.44606238395E+02 -0.12673980542E+03  0.72715913454E+03  0.75913694543E+03  0.17168517757E+03 0.  0.
         24    2    5    5    0    0  0.54137359099E+01 -0.70728043377E+02  0.19446089450E+03  0.22204954596E+03  0.80369127860E+02 0.  0.
          5    1    5    5  501    0  0.39192502485E+02 -0.56011762039E+02  0.53269824003E+03  0.53708739947E+03  0.47000000000E+01 0. -1.
        -11    1    6    6    0    0  0.30796396211E+02 -0.10706259254E+01  0.38091627516E+02  0.48995268611E+02  0.00000000000E+00 0.  1.
         12    1    6    6    0    0 -0.25382660302E+02 -0.69657417452E+02  0.15636926699E+03  0.17305427735E+03  0.00000000000E+00 0. -1.
         -5    1    3    3    0  503 -0.90344246828E+01  0.97026626722E+02 -0.33434763278E+02  0.10312982361E+03  0.47000000000E+01 0.  1.
         13    1    4    4    0    0  0.13122492593E+02 -0.13886177722E+02  0.40983364057E+02  0.45217937514E+02  0.00000000000E+00 0. -1.
        -14    1    4    4    0    0 -0.48694306305E+02  0.43599356417E+02  0.36896121241E+02  0.75055733353E+02  0.00000000000E+00 0.  1.
</event>
<event>
12    1  0.8258923E-002  0.1881690E+03  0.7818608E-02  0.1160673E+00
         21   -1    0    0  503  502  0.00000000000E+00  0.00000000000E+00  0.46049143027E+03  0.46049143027E+03  0.00000000000E+00 0.  1.
         21   -1    0    0  501  503 -0.00000000000E+00 -0.00000000000E+00 -0.75975878935E+02  0.75975878935E+02  0.00000000000E+00 0.  1.
          6    2    1    2  501    0 -0.63008712013E+02  0.24215430480E+02  0.19850801475E+03  0.27188015385E+03  0.17308062074E+03 0.  0.
         24    2    3    3    0    0 -0.57141131937E+02 -0.37542659592E+02  0.18024497508E+03  0.20704097739E+03  0.75519236162E+02 0.  0.
         -6    2    1    2    0  502  0.63008712013E+02 -0.24215430480E+02  0.18600753659E+03  0.26458715536E+03  0.17564473874E+03 0.  0.
        -24    2    5    5    0    0  0.63330899570E+02 -0.45035125767E+02  0.20650440135E+03  0.23499365976E+03  0.80864002827E+02 0.  0.
          5    1    3    3  501    0 -0.58675800759E+01  0.61758090072E+02  0.18263039666E+02  0.64839176453E+02  0.47000000000E+01 0. -1.
        -11    1    4    4    0    0 -0.43143780855E+02 -0.42856812263E+02  0.58511031216E+02  0.84389768087E+02  0.00000000000E+00 0.  1.
         12    1    4    4    0    0 -0.13997351083E+02  0.53141526705E+01  0.12173394386E+03  0.12265120931E+03  0.00000000000E+00 0. -1.
         -5    1    5    5    0  502 -0.32218755718E+00  0.20819695287E+02 -0.20496864765E+02  0.29593495601E+02  0.47000000000E+01 0.  1.
         13    1    6    6    0    0  0.18261225917E+02  0.97363738178E+01  0.48881332975E+01  0.21264129285E+02  0.00000000000E+00 0. -1.
        -14    1    6    6    0    0  0.45069673654E+02 -0.54771499585E+02  0.20161626806E+03  0.21372953047E+03  0.00000000000E+00 0.  1.
</event>
<event>
12    1  0.8258923E-002  0.2016935E+03  0.7818608E-02  0.1148595E+00
         21   -1    0    0  503  502  0.00000000000E+00  0.00000000000E+00  0.10196135219E+04  0.10196135219E+04  0.00000000000E+00 0. -1.
         21   -1    0    0  501  503 -0.00000000000E+00 -0.00000000000E+00 -0.46814488885E+02  0.46814488885E+02  0.00000000000E+00 0.  1.
          6    2    1    2  501    0  0.10913182372E+03 -0.84190441173E-01  0.27896452110E+03  0.34424044630E+03  0.16961874543E+03 0.  0.
         24    2    3    3    0    0  0.15289496125E+02  0.39459069543E+02  0.18239679498E+03  0.20382154592E+03  0.80522325463E+02 0.  0.
         -6    2    1    2    0  502 -0.10913182372E+03  0.84190441173E-01  0.69383451190E+03  0.72218756447E+03  0.16804400119E+03 0.  0.
        -24    2    5    5    0    0 -0.21758115932E+02 -0.51019616297E+02  0.38063829675E+03  0.39300718374E+03  0.80577395463E+02 0.  0.
          5    1    3    3  501    0  0.93842327592E+02 -0.39543259984E+02  0.96567726112E+02  0.14041890038E+03  0.47000000000E+01 0. -1.
        -11    1    4    4    0    0  0.68892044027E+01 -0.24515781163E+02  0.39015722608E+02  0.46590892608E+02  0.00000000000E+00 0.  1.
         12    1    4    4    0    0  0.84002917219E+01  0.63974850706E+02  0.14338107238E+03  0.15723065331E+03  0.00000000000E+00 0. -1.
         -5    1    5    5    0  502 -0.87373707785E+02  0.51103806738E+02  0.31319621514E+03  0.32918038072E+03  0.47000000000E+01 0.  1.
         11    1    6    6    0    0 -0.46518040592E+02 -0.55679550584E+02  0.28903022926E+03  0.29799767429E+03  0.00000000000E+00 0. -1.
        -12    1    6    6    0    0  0.24759924660E+02  0.46599342873E+01  0.91608067492E+02  0.95009509452E+02  0.00000000000E+00 0.  1.
</event>
<event>
12    1  0.8258923E-002  0.2075327E+03  0.7818608E-02  0.1143943E+00
         21   -1    0    0  503  502  0.00000000000E+00  0.00000000000E+00  0.45481694477E+03  0.45481694477E+03  0.00000000000E+00 0.  1.
         21   -1    0    0  501  503 -0.00000000000E+00 -0.00000000000E+00 -0.36542250359E+03  0.36542250359E+03  0.00000000000E+00 0.  1.
          6    2    1    2  501    0  0.26009386174E+02 -0.11076165781E+03 -0.30884619483E+03  0.37209649287E+03  0.17356611114E+03 0.  0.
         24    2    3    3    0    0  0.50444391501E+02 -0.13334571898E+03 -0.19998336440E+03  0.25816530683E+03  0.79562944951E+02 0.  0.
         -6    2    1    2    0  502 -0.26009386174E+02  0.11076165781E+03  0.39824063600E+03  0.44814295549E+03  0.17114868208E+03 0.  0.
        -24    2    5    5    0    0  0.13175932225E+01 -0.16810470879E+01  0.98367801610E+02  0.12668388734E+03  0.79799880614E+02 0.  0.
          5    1    3    3  501    0 -0.24435005328E+02  0.22584061166E+02 -0.10886283043E+03  0.11393118604E+03  0.47000000000E+01 0. -1.
        -11    1    4    4    0    0  0.70101690849E+02 -0.84791111851E+02 -0.12267518756E+03  0.16478161715E+03  0.00000000000E+00 0.  1.
         12    1    4    4    0    0 -0.19657299348E+02 -0.48554607130E+02 -0.77308176840E+02  0.93383689676E+02  0.00000000000E+00 0. -1.
         -5    1    5    5    0  502 -0.27326979396E+02  0.11244270490E+03  0.29987283439E+03  0.32145906815E+03  0.47000000000E+01 0.  1.
         11    1    6    6    0    0  0.40516168356E+02 -0.27663876000E+01  0.49382575797E+02  0.63936308862E+02  0.00000000000E+00 0. -1.
        -12    1    6    6    0    0 -0.39198575133E+02  0.10853405121E+01  0.48985225813E+02  0.62747578475E+02  0.00000000000E+00 0.  1.
</event>
<event>
12    1  0.8258923E-002  0.3795796E+03  0.7818608E-02  0.1051173E+00
         21   -1    0    0  501  502  0.00000000000E+00  0.00000000000E+00  0.11755497917E+03  0.11755497917E+03  0.00000000000E+00 0. -1.
         21   -1    0    0  502  503 -0.00000000000E+00 -0.00000000000E+00 -0.12310753358E+04  0.12310753358E+04  0.00000000000E+00 0.  1.
         -6    2    1    2    0  503 -0.13765585396E+03 -0.30881139097E+03 -0.50185643244E+03  0.62923807207E+03  0.17253133985E+03 0.  0.
        -24    2    3    3    0    0 -0.11614211246E+03 -0.20817136926E+03 -0.44486059786E+03  0.51150162825E+03  0.83118318696E+02 0.  0.
          6    2    1    2  501    0  0.13765585396E+03  0.30881139097E+03 -0.61166392414E+03  0.71939224286E+03  0.17052517019E+03 0.  0.
         24    2    5    5    0    0  0.10118173557E+03  0.10524883597E+03 -0.20958141303E+03  0.26721914454E+03  0.78527965918E+02 0.  0.
          5    1    5    5  501    0  0.36474118390E+02  0.20356255500E+03 -0.40208251111E+03  0.45217309833E+03  0.47000000000E+01 0. -1.
        -11    1    6    6    0    0 -0.12840488607E+02  0.18355159421E+02 -0.29653775915E+02  0.37163644211E+02  0.00000000000E+00 0.  1.
         12    1    6    6    0    0  0.11402222417E+03  0.86893676552E+02 -0.17992763712E+03  0.23005550032E+03  0.00000000000E+00 0. -1.
         -5    1    3    3    0  503 -0.21513741501E+02 -0.10064002172E+03 -0.56995834581E+02  0.11773644382E+03  0.47000000000E+01 0.  1.
         11    1    4    4    0    0 -0.86043613033E+02 -0.94438647088E+02 -0.29104963529E+03  0.31785539418E+03  0.00000000000E+00 0. -1.
        -12    1    4    4    0    0 -0.30098499422E+02 -0.11373272217E+03 -0.15381096257E+03  0.19364623406E+03  0.00000000000E+00 0.  1.
</event>
<event>
12    1  0.8258923E-002  0.1890135E+03  0.7818608E-02  0.1159551E+00
         21   -1    0    0  501  502  0.00000000000E+00  0.00000000000E+00  0.40683591565E+03  0.40683591565E+03  0.00000000000E+00 0.  1.
         21   -1    0    0  502  503 -0.00000000000E+00 -0.00000000000E+00 -0.87777780760E+02  0.87777780760E+02  0.00000000000E+00 0.  1.
         -6    2    1    2    0  503 -0.79604112893E+02 -0.76381122481E+01  0.17511608970E+03  0.25703127651E+03  0.17030641996E+03 0.  0.
        -24    2    3    3    0    0  0.23865662930E+02 -0.10701806681E+02  0.86593790985E+02  0.12074603115E+03  0.79981378251E+02 0.  0.
          6    2    1    2  501    0  0.79604112893E+02  0.76381122481E+01  0.14394204519E+03  0.23758241990E+03  0.17126277566E+03 0.  0.
         24    2    5    5    0    0  0.75450128505E+02  0.21638584313E+02  0.20965169031E+02  0.11365231511E+03  0.79475532055E+02 0.  0.
          5    1    5    5  501    0  0.41539843882E+01 -0.14000472065E+02  0.12297687616E+03  0.12393010479E+03  0.47000000000E+01 0. -1.
        -11    1    6    6    0    0  0.64282224785E+02  0.48543497986E+02  0.56731991503E+01  0.80751847091E+02  0.00000000000E+00 0.  1.
         12    1    6    6    0    0  0.11167903720E+02 -0.26904913672E+02  0.15291969880E+02  0.32900468021E+02  0.00000000000E+00 0. -1.
         -5    1    3    3    0  503 -0.10346977582E+03  0.30636944328E+01  0.88522298719E+02  0.13628524536E+03  0.47000000000E+01 0.  1.
         11    1    4    4    0    0  0.21243791606E+02 -0.37688993054E+02  0.17765087027E+02  0.46769190674E+02  0.00000000000E+00 0. -1.
        -12    1    4    4    0    0  0.26218713244E+01  0.26987186374E+02  0.68828703958E+02  0.73976840471E+02  0.00000000000E+00 0.  1.
</event>
<event>
12    1  0.8258923E-002  0.1770847E+03  0.7818608E-02  0.1171597E+00
         21   -1    0    0  503  502  0.00000000000E+00  0.00000000000E+00  0.11567400906E+03  0.11567400906E+03  0.00000000000E+00 0. -1.
         21   -1    0    0  501  503 -0.00000000000E+00 -0.00000000000E+00 -0.32137063683E+03  0.32137063683E+03  0.00000000000E+00 0. -1.
          6    2    1    2  501    0 -0.72634838590E+01  0.34217642706E+02 -0.19498513570E+03  0.26339738995E+03  0.17359543951E+03 0.  0.
         24    2    3    3    0    0 -0.15314754002E+02  0.79070185226E+02 -0.80771743306E+02  0.14033901956E+03  0.81757752005E+02 0.  0.
         -6    2    1    2    0  502  0.72634838590E+01 -0.34217642706E+02 -0.10711492083E+02  0.17364725594E+03  0.16974989886E+03 0.  0.
        -24    2    5    5    0    0 -0.31741446616E+02 -0.66557479424E+02  0.25376863317E+02  0.11126369211E+03  0.79361240478E+02 0.  0.
          5    1    3    3  501    0  0.80512701427E+01 -0.44852542520E+02 -0.11421339239E+03  0.12305837039E+03  0.47000000000E+01 0. -1.
        -11    1    4    4    0    0 -0.65111353761E+01  0.28896067091E+02  0.13986110313E+02  0.32756508649E+02  0.00000000000E+00 0.  1.
         12    1    4    4    0    0 -0.88036186256E+01  0.50174118136E+02 -0.94757853619E+02  0.10758251091E+03  0.00000000000E+00 0. -1.
         -5    1    5    5    0  502  0.39004930475E+02  0.32339836718E+02 -0.36088355401E+02  0.62383563828E+02  0.47000000000E+01 0.  1.
         11    1    6    6    0    0 -0.35980143261E+02  0.47945267472E+01  0.13908853259E+02  0.38871768609E+02  0.00000000000E+00 0. -1.
        -12    1    6    6    0    0  0.42386966450E+01 -0.71352006171E+02  0.11468010058E+02  0.72391923504E+02  0.00000000000E+00 0.  1.
</event>
<event>
12    1  0.8258923E-002  0.2516930E+03  0.7818608E-02  0.1112328E+00
         21   -1    0    0  501  502  0.00000000000E+00  0.00000000000E+00  0.15139400613E+03  0.15139400613E+03  0.00000000000E+00 0.  1.
         21   -1    0    0  502  503 -0.00000000000E+00 -0.00000000000E+00 -0.41814137877E+03  0.41814137877E+03  0.00000000000E+00 0. -1.
         -6    2    1    2    0  503 -0.12235515259E+03  0.13655849483E+03 -0.12212968054E+03  0.27925338136E+03  0.17160357298E+03 0.  0.
        -24    2    3    3    0    0 -0.40947838346E+02  0.25343034388E+02  0.11122161960E+01  0.94302889163E+02  0.81072825425E+02 0.  0.
          6    2    1    2  501    0  0.12235515259E+03 -0.13655849483E+03 -0.14461769210E+03  0.29028200354E+03  0.17242493681E+03 0.  0.
         24    2    5    5    0    0  0.13265284539E+02 -0.17188275031E+02 -0.16865434828E+02  0.84144724222E+02  0.79526644277E+02 0.  0.
          5    1    5    5  501    0  0.10908986805E+03 -0.11937021979E+03 -0.12775225727E+03  0.20613727931E+03  0.47000000000E+01 0. -1.
        -11    1    6    6    0    0 -0.26997019410E+02 -0.20371106293E+02 -0.26092984765E+02  0.42716096294E+02  0.00000000000E+00 0.  1.
         12    1    6    6    0    0  0.40262303949E+02  0.31828312620E+01  0.92275499370E+01  0.41428627928E+02  0.00000000000E+00 0. -1.
         -5    1    3    3    0  503 -0.81407314241E+02  0.11121546044E+03 -0.12324189674E+03  0.18495049220E+03  0.47000000000E+01 0.  1.
         11    1    4    4    0    0 -0.57341103076E+02  0.87260120637E+01 -0.21448348893E+02  0.61839930941E+02  0.00000000000E+00 0. -1.
        -12    1    4    4    0    0  0.16393264730E+02  0.16617022325E+02  0.22560565088E+02  0.32462958222E+02  0.00000000000E+00 0.  1.
</event>
<event>
12    1  0.8258923E-002  0.1858116E+03  0.7818608E-02  0.1162712E+00
         21   -1    0    0  503  502  0.00000000000E+00  0.00000000000E+00  0.74423088122E+02  0.74423088122E+02  0.00000000000E+00 0.  1.
         21   -1    0    0  501  503 -0.00000000000E+00 -0.00000000000E+00 -0.78834090960E+03  0.78834090960E+03  0.00000000000E+00 0. -1.
          6    2    1    2  501    0 -0.57122850198E+02  0.36816054644E+02 -0.63659389388E+03  0.66315739503E+03  0.17293785869E+03 0.  0.
         24    2    3    3    0    0 -0.68831149375E+01  0.51171168175E+02 -0.57226136524E+03  0.58014616372E+03  0.80128867478E+02 0.  0.
         -6    2    1    2    0  502  0.57122850198E+02 -0.36816054644E+02 -0.77323927605E+02  0.19960660270E+03  0.17101276024E+03 0.  0.
        -24    2    5    5    0    0 -0.17842344992E+02  0.29032421696E+02 -0.46048858957E+02  0.94935583570E+02  0.75703611751E+02 0.  0.
          5    1    3    3  501    0 -0.50239735260E+02 -0.14355113532E+02 -0.64332528635E+02  0.83011231313E+02  0.47000000000E+01 0. -1.
        -13    1    4    4    0    0  0.33211589182E+01  0.47880808889E+02 -0.14473703333E+03  0.15248741185E+03  0.00000000000E+00 0.  1.
         14    1    4    4    0    0 -0.10204273856E+02  0.32903592866E+01 -0.42752433191E+03  0.42765875187E+03  0.00000000000E+00 0. -1.
         -5    1    5    5    0  502  0.74965195189E+02 -0.65848476340E+02 -0.31275068648E+02  0.10467101913E+03  0.47000000000E+01 0.  1.
         13    1    6    6    0    0 -0.44051818066E+01 -0.24107415878E+02 -0.28041299864E+02  0.37240940176E+02  0.00000000000E+00 0. -1.
        -14    1    6    6    0    0 -0.13437163185E+02  0.53139837574E+02 -0.18007559092E+02  0.57694643394E+02  0.00000000000E+00 0.  1.
</event>
<event>
12    1  0.8258923E-002  0.1812202E+03  0.7818608E-02  0.1166714E+00
         21   -1    0    0  501  502  0.00000000000E+00  0.00000000000E+00  0.14816699182E+03  0.14816699182E+03  0.00000000000E+00 0. -1.
         21   -1    0    0  502  503 -0.00000000000E+00 -0.00000000000E+00 -0.29177931467E+03  0.29177931467E+03  0.00000000000E+00 0. -1.
         -6    2    1    2    0  503  0.55828197790E+02  0.11747719488E+02 -0.18004553143E+03  0.25545476397E+03  0.17200565824E+03 0.  0.
        -24    2    3    3    0    0  0.52259195867E+02  0.61249570051E+02 -0.17074495292E+03  0.20474222366E+03  0.79265413766E+02 0.  0.
          6    2    1    2  501    0 -0.55828197790E+02 -0.11747719488E+02  0.36433208580E+02  0.18449154253E+03  0.17162445628E+03 0.  0.
         24    2    5    5    0    0 -0.23401620874E+02 -0.55260065945E+02 -0.26404888100E+02  0.10133191543E+03  0.77263369204E+02 0.  0.
          5    1    5    5  501    0 -0.32426576916E+02  0.43512346457E+02  0.62838096680E+02  0.83159627098E+02  0.47000000000E+01 0. -1.
        -13    1    6    6    0    0 -0.45411745917E+01 -0.60103623746E+02  0.89827056562E+01  0.60940601039E+02  0.00000000000E+00 0.  1.
         14    1    6    6    0    0 -0.18860446282E+02  0.48435578010E+01 -0.35387593757E+02  0.40391314388E+02  0.00000000000E+00 0. -1.
         -5    1    3    3    0  503  0.35690019230E+01 -0.49501850563E+02 -0.93005785096E+01  0.50712540308E+02  0.47000000000E+01 0.  1.
         13    1    4    4    0    0  0.22090943871E+02 -0.15226558846E+02 -0.68353517977E+02  0.73430656508E+02  0.00000000000E+00 0. -1.
        -14    1    4    4    0    0  0.30168251995E+02  0.76476128896E+02 -0.10239143494E+03  0.13131156716E+03  0.00000000000E+00 0.  1.
</event>
<event>
12    1  0.8258923E-002  0.3292999E+03  0.7818608E-02  0.1071579E+00
         21   -1    0    0  503  502  0.00000000000E+00  0.00000000000E+00  0.34481122357E+03  0.34481122357E+03  0.00000000000E+00 0. -1.
         21   -1    0    0  501  503 -0.00000000000E+00 -0.00000000000E+00 -0.68980300146E+03  0.68980300146E+03  0.00000000000E+00 0.  1.
          6    2    1    2  501    0  0.27443043402E+03  0.60150868385E+02 -0.55451031003E+03  0.64431123359E+03  0.16948478313E+03 0.  0.
         24    2    3    3    0    0  0.47881171281E+02 -0.13824823612E+02 -0.10344269674E+03  0.13413376132E+03  0.69337883617E+02 0.  0.
         -6    2    1    2    0  502 -0.27443043402E+03 -0.60150868385E+02  0.20951853214E+03  0.39030299144E+03  0.17177956728E+03 0.  0.
        -24    2    5    5    0    0 -0.72873419006E+02  0.28073261888E+01  0.11861928496E+03  0.16036011223E+03  0.79538761308E+02 0.  0.
          5    1    3    3  501    0  0.22654926274E+03  0.73975691997E+02 -0.45106761329E+03  0.51017747227E+03  0.47000000000E+01 0. -1.
        -11    1    4    4    0    0  0.31266217134E+02 -0.42128769320E+02 -0.66862494844E+02  0.84988250689E+02  0.00000000000E+00 0.  1.
         12    1    4    4    0    0  0.16614954146E+02  0.28303945709E+02 -0.36580201900E+02  0.49145510629E+02  0.00000000000E+00 0. -1.
         -5    1    5    5    0  502 -0.20155701501E+03 -0.62958194574E+02  0.90899247177E+02  0.22994287922E+03  0.47000000000E+01 0.  1.
         11    1    6    6    0    0 -0.37224862692E+02 -0.28795462602E+01  0.11851890326E+03  0.12426066400E+03  0.00000000000E+00 0. -1.
        -12    1    6    6    0    0 -0.35648556314E+02  0.56868724490E+01  0.10038170400E+00  0.36099448223E+02  0.00000000000E+00 0.  1.
</event>
<event>
12    1  0.8258923E-002  0.1732234E+03  0.7818608E-02  0.1174613E+00
         21   -1    0    0  503  502  0.00000000000E+00  0.00000000000E+00  0.63003849155E+02  0.63003849155E+02  0.00000000000E+00 0.  1.
         21   -1    0    0  501  503 -0.00000000000E+00 -0.00000000000E+00 -0.94457302076E+03  0.94457302076E+03  0.00000000000E+00 0.  1.
          6    2    1    2  501    0 -0.74888084670E+01 -0.79311089949E+01 -0.79564797126E+03  0.81421501210E+03  0.17254392778E+03 0.  0.
         24    2    3    3    0    0  0.48633950789E+02 -0.23547251027E+01 -0.67365279706E+03  0.67973165740E+03  0.76526003285E+02 0.  0.
         -6    2    1    2    0  502  0.74888084670E+01  0.79311089949E+01 -0.85921200345E+02  0.19336185782E+03  0.17287964209E+03 0.  0.
        -24    2    5    5    0    0 -0.55961915501E+02 -0.22580645540E+02 -0.30356890636E+02  0.10354847323E+03  0.78480086396E+02 0.  0.
          5    1    3    3  501    0 -0.56122759256E+02 -0.55763838922E+01 -0.12199517420E+03  0.13448335470E+03  0.47000000000E+01 0. -1.
        -13    1    4    4    0    0  0.12094089138E+02 -0.21622847847E+02 -0.63197978105E+02  0.67880770308E+02  0.00000000000E+00 0.  1.
         14    1    4    4    0    0  0.36539861651E+02  0.19268122744E+02 -0.61045481896E+03  0.61185088709E+03  0.00000000000E+00 0. -1.
         -5    1    5    5    0  502  0.63450723968E+02  0.30511754535E+02 -0.55564309709E+02  0.89813384583E+02  0.47000000000E+01 0.  1.
         11    1    6    6    0    0 -0.51259116936E+02 -0.48888659722E+02 -0.29716361869E+02  0.76815755422E+02  0.00000000000E+00 0. -1.
        -12    1    6    6    0    0 -0.47027985653E+01  0.26308014182E+02 -0.64052876734E+00  0.26732717812E+02  0.00000000000E+00 0.  1.
</event>
<event>
12    1  0.8258923E-002  0.2469986E+03  0.7818608E-02  0.1115241E+00
         21   -1    0    0  501  502  0.00000000000E+00  0.00000000000E+00  0.43199840078E+03  0.43199840078E+03  0.00000000000E+00 0. -1.
         21   -1    0    0  502  503 -0.00000000000E+00 -0.00000000000E+00 -0.15248277350E+03  0.15248277350E+03  0.00000000000E+00 0. -1.
         -6    2    1    2    0  503 -0.14310602519E+03  0.10492290965E+03  0.60076474309E+02  0.25419966289E+03  0.17181424398E+03 0.  0.
        -24    2    3    3    0    0 -0.11955701377E+02  0.48539468275E+02 -0.10895855748E+02  0.94704642494E+02  0.79694609992E+02 0.  0.
          6    2    1    2  501    0  0.14310602519E+03 -0.10492290965E+03  0.21943915298E+03  0.33028151139E+03  0.17159307530E+03 0.  0.
         24    2    5    5    0    0  0.51453634149E+01 -0.46508934238E+02  0.54334174526E+02  0.10728581495E+03  0.79802805965E+02 0.  0.
          5    1    5    5  501    0  0.13796066178E+03 -0.58413975411E+02  0.16510497845E+03  0.22299569644E+03  0.47000000000E+01 0. -1.
        -13    1    6    6    0    0 -0.10817944800E+02 -0.50920212186E+02  0.68122707584E+02  0.85735635691E+02  0.00000000000E+00 0.  1.
         14    1    6    6    0    0  0.15963308215E+02  0.44112779482E+01 -0.13788533058E+02  0.21550179261E+02  0.00000000000E+00 0. -1.
         -5    1    3    3    0  503 -0.13115032382E+03  0.56383441374E+02  0.70972330057E+02  0.15949502040E+03  0.47000000000E+01 0.  1.
         11    1    4    4    0    0 -0.45278962304E+01  0.67018901733E+02  0.75042963413E+01  0.67589566483E+02  0.00000000000E+00 0. -1.
        -12    1    4    4    0    0 -0.74278051462E+01 -0.18479433458E+02 -0.18400152089E+02  0.27115076012E+02  0.00000000000E+00 0.  1.
</event>
<event>
12    1  0.8258923E-002  0.2323398E+03  0.7818608E-02  0.1125040E+00
         21   -1    0    0  503  502  0.00000000000E+00  0.00000000000E+00  0.10930931489E+03  0.10930931489E+03  0.00000000000E+00 0. -1.
         21   -1    0    0  501  503 -0.00000000000E+00 -0.00000000000E+00 -0.19496102806E+04  0.19496102806E+04  0.00000000000E+00 0. -1.
          6    2    1    2  501    0 -0.28453325205E+02  0.15270055389E+03 -0.18099636676E+04  0.18248151278E+04  0.17278518891E+03 0.  0.
         24    2    3    3    0    0 -0.63880510288E+02  0.32821216522E+02 -0.82102063797E+03  0.82799190027E+03  0.79609968492E+02 0.  0.
         -6    2    1    2    0  502  0.28453325205E+02 -0.15270055389E+03 -0.30337298108E+02  0.23410446776E+03  0.17250362110E+03 0.  0.
        -24    2    5    5    0    0 -0.13932665209E+02 -0.35253045886E+02  0.33586925327E+02  0.93751749004E+02  0.78894945873E+02 0.  0.
          5    1    3    3  501    0  0.35427185084E+02  0.11987933737E+03 -0.98894302966E+03  0.99682322750E+03  0.47000000000E+01 0. -1.
        -11    1    4    4    0    0 -0.29127467327E+01 -0.15861468563E+02 -0.36418875850E+03  0.36454563788E+03  0.00000000000E+00 0.  1.
         12    1    4    4    0    0 -0.60967763556E+02  0.48682685084E+02 -0.45683187947E+03  0.46344626239E+03  0.00000000000E+00 0. -1.
         -5    1    5    5    0  502  0.42385990414E+02 -0.11744750801E+03 -0.63924223435E+02  0.14035271876E+03  0.47000000000E+01 0.  1.
         13    1    6    6    0    0 -0.45939251487E+02 -0.22812526080E+02  0.29500522455E+02  0.59170152936E+02  0.00000000000E+00 0. -1.
        -14    1    6    6    0    0  0.32006586278E+02 -0.12440519806E+02  0.40864028722E+01  0.34581596068E+02  0.00000000000E+00 0.  1.
</event>
<event>
12    1  0.8258923E-002  0.2347653E+03  0.7818608E-02  0.1123462E+00
         21   -1    0    0  503  502  0.00000000000E+00  0.00000000000E+00  0.24082797616E+02  0.24082797616E+02  0.00000000000E+00 0.  1.
         21   -1    0    0  501  503 -0.00000000000E+00 -0.00000000000E+00 -0.23178954602E+04  0.23178954602E+04  0.00000000000E+00 0.  1.
          6    2    1    2  501    0 -0.15358809153E+03 -0.40729452842E+02 -0.12963175320E+04  0.13174042215E+04  0.17281941179E+03 0.  0.
         24    2    3    3    0    0 -0.95694834917E+02  0.16244321078E+02 -0.46187605928E+03  0.47900556851E+03  0.81825797488E+02 0.  0.
         -6    2    1    2    0  502  0.15358809153E+03  0.40729452842E+02 -0.99749513062E+03  0.10245740363E+04  0.17177668640E+03 0.  0.
        -24    2    5    5    0    0  0.15003663400E+03 -0.11412563411E+02 -0.87623192476E+03  0.89244433557E+03  0.77674113992E+02 0.  0.
          5    1    3    3  501    0 -0.57893256613E+02 -0.56973773920E+02 -0.83444147268E+03  0.83839865303E+03  0.47000000000E+01 0. -1.
        -11    1    4    4    0    0 -0.89093417750E+02 -0.17109918246E+02 -0.37228484588E+03  0.38317932207E+03  0.00000000000E+00 0.  1.
         12    1    4    4    0    0 -0.66014171669E+01  0.33354239323E+02 -0.89591213398E+02  0.95826246444E+02  0.00000000000E+00 0. -1.
         -5    1    5    5    0  502  0.35514575299E+01  0.52142016253E+02 -0.12126320586E+03  0.13212970069E+03  0.47000000000E+01 0.  1.
         13    1    6    6    0    0  0.46714330495E+02 -0.33318780288E+02 -0.20205637786E+03  0.21004558941E+03  0.00000000000E+00 0. -1.
        -14    1    6    6    0    0  0.10332230350E+03  0.21906216877E+02 -0.67417554689E+03  0.68239874616E+03  0.00000000000E+00 0.  1.
</event>
<event>
12    1  0.8258923E-002  0.1757907E+03  0.7818608E-02  0.1171950E+00
         21   -1    0    0  503  502  0.00000000000E+00  0.00000000000E+00  0.49093154227E+03  0.49093154227E+03  0.00000000000E+00 0.  1.
         21   -1    0    0  501  503 -0.00000000000E+00 -0.00000000000E+00 -0.91786282856E+02  0.91786282856E+02  0.00000000000E+00 0.  1.
          6    2    1    2  501    0  0.37787657397E+02 -0.70989587793E+01  0.36200015332E+02  0.17944171646E+03  0.17149514929E+03 0.  0.
         24    2    3    3    0    0  0.67317711400E+02  0.46037821191E+02  0.27670607733E+02  0.11787563595E+03  0.80485077938E+02 0.  0.
         -6    2    1    2    0  502 -0.37787657397E+02  0.70989587793E+01  0.36294524408E+03  0.40327610866E+03  0.17153444946E+03 0.  0.
        -24    2    5    5    0    0  0.32326954267E+02  0.39245889757E+02  0.14213517382E+03  0.16933453248E+03  0.76723558430E+02 0.  0.
          5    1    3    3  501    0 -0.29530054004E+02 -0.53136779970E+02  0.85294075990E+01  0.61566080507E+02  0.47000000000E+01 0. -1.
        -13    1    4    4    0    0  0.34521047160E+02  0.24964208610E+02 -0.27216294234E+02  0.50553348854E+02  0.00000000000E+00 0.  1.
         14    1    4    4    0    0  0.32796664240E+02  0.21073612581E+02  0.54886901967E+02  0.67322287097E+02  0.00000000000E+00 0. -1.
         -5    1    5    5    0  502 -0.70114611664E+02 -0.32146930978E+02  0.22081007026E+03  0.23394157618E+03  0.47000000000E+01 0.  1.
         11    1    6    6    0    0 -0.15407885102E+02  0.90188436823E+01  0.16692646326E+01  0.17931227205E+02  0.00000000000E+00 0. -1.
        -12    1    6    6    0    0  0.47734839369E+02  0.30227046075E+02  0.14046590919E+03  0.15140330528E+03  0.00000000000E+00 0.  1.
</event>
<event>
12    1  0.8258923E-002  0.1880037E+03  0.7818608E-02  0.1160592E+00
         21   -1    0    0  501  502  0.00000000000E+00  0.00000000000E+00  0.12328324980E+03  0.12328324980E+03  0.00000000000E+00 0.  1.
         21   -1    0    0  502  503 -0.00000000000E+00 -0.00000000000E+00 -0.39367422447E+03  0.39367422447E+03  0.00000000000E+00 0. -1.
         -6    2    1    2    0  503 -0.31645796482E+02  0.67198372222E+02 -0.27161481258E+03  0.33033313925E+03  0.17270871088E+03 0.  0.
        -24    2    3    3    0    0 -0.59704845138E+02  0.97436276464E+02 -0.16494129412E+03  0.21586493142E+03  0.79583551108E+02 0.  0.
          6    2    1    2  501    0  0.31645796482E+02 -0.67198372222E+02  0.12238379058E+01  0.18662433501E+03  0.17120183111E+03 0.  0.
         24    2    5    5    0    0  0.51204004200E+02 -0.10086422016E+03  0.27033323519E+02  0.13967614704E+03  0.77351047282E+02 0.  0.
          5    1    5    5  501    0 -0.19558207718E+02  0.33665847938E+02 -0.25809485613E+02  0.46948187974E+02  0.47000000000E+01 0. -1.
        -13    1    6    6    0    0 -0.13967775437E+02 -0.44453589623E+02  0.26242341152E+02  0.53477853829E+02  0.00000000000E+00 0.  1.
         14    1    6    6    0    0  0.65171779637E+02 -0.56410630537E+02  0.79098236656E+00  0.86198293206E+02  0.00000000000E+00 0. -1.
         -5    1    3    3    0  503  0.28059048656E+02 -0.30237904242E+02 -0.10667351846E+03  0.11446820783E+03  0.47000000000E+01 0.  1.
         11    1    4    4    0    0 -0.21840379209E+02  0.49072961273E+02 -0.13931455493E+03  0.14931075952E+03  0.00000000000E+00 0. -1.
        -12    1    4    4    0    0 -0.37864465929E+02  0.48363315191E+02 -0.25626739192E+02  0.66554171905E+02  0.00000000000E+00 0.  1.
</event>
<event>
12    1  0.8258923E-002  0.2033135E+03  0.7818608E-02  0.1147148E+00
         21   -1    0    0  501  502  0.00000000000E+00  0.00000000000E+00  0.18787617718E+03  0.18787617718E+03  0.00000000000E+00 0. -1.
         21   -1    0    0  502  503 -0.00000000000E+00 -0.00000000000E+00 -0.50990082568E+03  0.50990082568E+03  0.00000000000E+00 0. -1.
         -6    2    1    2    0  503  0.10376332503E+03  0.27985306490E+02 -0.42434139131E+03  0.47016966276E+03  0.17159222127E+03 0.  0.
        -24    2    3    3    0    0  0.10692233267E+03 -0.34737574238E+02 -0.31605629894E+03  0.34490238720E+03  0.80168499494E+02 0.  0.
          6    2    1    2  501    0 -0.10376332503E+03 -0.27985306490E+02  0.10231674281E+03  0.22760734010E+03  0.17258731243E+03 0.  0.
         24    2    5    5    0    0 -0.37465880266E+02 -0.28118983515E+02  0.12646858016E+03  0.15689121536E+03  0.80163472175E+02 0.  0.
          5    1    5    5  501    0 -0.66297444760E+02  0.13367702484E+00 -0.24151837355E+02  0.70716124744E+02  0.47000000000E+01 0. -1.
        -11    1    6    6    0    0  0.33670892784E+01  0.19868565475E+02  0.61446208851E+01  0.21067832116E+02  0.00000000000E+00 0.  1.
         12    1    6    6    0    0 -0.40832969544E+02 -0.47987548991E+02  0.12032395928E+03  0.13582338324E+03  0.00000000000E+00 0. -1.
         -5    1    3    3    0  503 -0.31590076428E+01  0.62722880728E+02 -0.10828509237E+03  0.12526727556E+03  0.47000000000E+01 0.  1.
         11    1    4    4    0    0  0.78605215941E+02 -0.24217564514E+02 -0.29922061579E+03  0.31031958900E+03  0.00000000000E+00 0. -1.
        -12    1    4    4    0    0  0.28317116727E+02 -0.10520009724E+02 -0.16835683151E+02  0.34582798202E+02  0.00000000000E+00 0.  1.
</event>
<event>
12    1  0.8258923E-002  0.2018849E+03  0.7818608E-02  0.1148363E+00
         21   -1    0    0  503  502  0.00000000000E+00  0.00000000000E+00  0.85246627463E+02  0.85246627463E+02  0.00000000000E+00 0. -1.
         21   -1    0    0  501  503 -0.00000000000E+00 -0.00000000000E+00 -0.47773728899E+03  0.47773728899E+03  0.00000000000E+00 0. -1.
          6    2    1    2  501    0 -0.38194161872E+02  0.95399463472E+02 -0.21371026532E+03  0.29331759794E+03  0.17263627698E+03 0.  0.
         24    2    3    3    0    0 -0.32596279862E+02 -0.97619113820E+01 -0.57360060320E+02  0.10475003009E+03  0.80774871766E+02 0.  0.
         -6    2    1    2    0  502  0.38194161872E+02 -0.95399463472E+02 -0.17878039620E+03  0.26966631851E+03  0.17377468641E+03 0.  0.
        -24    2    5    5    0    0  0.90604851724E+02 -0.58157019511E+02 -0.94312312327E+02  0.16340801419E+03  0.78840907970E+02 0.  0.
          5    1    3    3  501    0 -0.55978820108E+01  0.10516137485E+03 -0.15635020500E+03  0.18856756786E+03  0.47000000000E+01 0. -1.
        -13    1    4    4    0    0 -0.26569977346E+02 -0.42921316109E+02 -0.48267787539E+02  0.69842554267E+02  0.00000000000E+00 0.  1.
         14    1    4    4    0    0 -0.60263025158E+01  0.33159404727E+02 -0.90922727817E+01  0.34907475821E+02  0.00000000000E+00 0. -1.
         -5    1    5    5    0  502 -0.52410689852E+02 -0.37242443961E+02 -0.84468083877E+02  0.10625830432E+03  0.47000000000E+01 0.  1.
         11    1    6    6    0    0  0.18493255188E+02 -0.30283197954E+01  0.13035680903E+02  0.22827618904E+02  0.00000000000E+00 0. -1.
        -12    1    6    6    0    0  0.72111596537E+02 -0.55128699716E+02 -0.10734799323E+03  0.14058039528E+03  0.00000000000E+00 0.  1.
</event>
<event>
12    1  0.8258923E-002  0.2372280E+03  0.7818608E-02  0.1121737E+00
         21   -1    0    0  503  502  0.00000000000E+00  0.00000000000E+00  0.36536958227E+02  0.36536958227E+02  0.00000000000E+00 0. -1.
         21   -1    0    0  501  503 -0.00000000000E+00 -0.00000000000E+00 -0.15380792164E+04  0.15380792164E+04  0.00000000000E+00 0.  1.
          6    2    1    2  501    0  0.83036747638E+02 -0.13963973585E+03 -0.77180098327E+03  0.80743660118E+03  0.17286627741E+03 0.  0.
         24    2    3    3    0    0  0.11032198698E+03 -0.53084077472E+02 -0.48417550914E+03  0.50579630273E+03  0.80094419970E+02 0.  0.
         -6    2    1    2    0  502 -0.83036747638E+02  0.13963973585E+03 -0.72974127493E+03  0.76717957347E+03  0.17218540104E+03 0.  0.
        -24    2    5    5    0    0 -0.41232208052E+02  0.21795030328E+02 -0.46223763654E+03  0.47185723991E+03  0.82525777149E+02 0.  0.
          5    1    3    3  501    0 -0.27285239339E+02 -0.86555658375E+02 -0.28762547413E+03  0.30164029845E+03  0.47000000000E+01 0. -1.
        -13    1    4    4    0    0  0.92525545508E+02 -0.51675864873E+02 -0.47301718111E+03  0.48474387588E+03  0.00000000000E+00 0.  1.
         14    1    4    4    0    0  0.17796441468E+02 -0.14082125990E+01 -0.11158328035E+02  0.21052426848E+02  0.00000000000E+00 0. -1.
         -5    1    5    5    0  502 -0.41804539585E+02  0.11784470552E+03 -0.26750363839E+03  0.29532233356E+03  0.47000000000E+01 0.  1.
         13    1    6    6    0    0 -0.39811065645E+02 -0.17412409890E+02 -0.12483568948E+03  0.13218192892E+03  0.00000000000E+00 0. -1.
        -14    1    6    6    0    0 -0.14211424074E+01  0.39207440218E+02 -0.33740194706E+03  0.33967531099E+03  0.00000000000E+00 0.  1.
</event>
<event>
12    1  0.8258923E-002  0.2684666E+03  0.7818608E-02  0.1102228E+00
         21   -1    0    0  501  502  0.00000000000E+00  0.00000000000E+00  0.28150625180E+03  0.28150625180E+03  0.00000000000E+00 0. -1.
         21   -1    0    0  502  503 -0.00000000000E+00 -0.00000000000E+00 -0.28548843710E+03  0.28548843710E+03  0.00000000000E+00 0. -1.
         -6    2    1    2    0  503 -0.13731228193E+03 -0.15255000438E+03 -0.93747061730E+02  0.28391866029E+03  0.17232274218E+03 0.  0.
        -24    2    3    3    0    0 -0.15276078897E+03 -0.11844657314E+03 -0.11795463239E+03  0.23908790222E+03  0.76709063010E+02 0.  0.
          6    2    1    2  501    0  0.13731228193E+03  0.15255000438E+03  0.89764876434E+02  0.28307602861E+03  0.17305530424E+03 0.  0.
         24    2    5    5    0    0  0.89746722384E+02  0.38559070373E+02 -0.63434229965E+01  0.12650236955E+03  0.80133229064E+02 0.  0.
          5    1    5    5  501    0  0.47565559547E+02  0.11399093401E+03  0.96108299431E+02  0.15657365906E+03  0.47000000000E+01 0. -1.
        -13    1    6    6    0    0 -0.43220324967E+01  0.17943509356E+02 -0.22236684450E+02  0.28898436432E+02  0.00000000000E+00 0.  1.
         14    1    6    6    0    0  0.94068754880E+02  0.20615561017E+02  0.15893261453E+02  0.97603933119E+02  0.00000000000E+00 0. -1.
         -5    1    3    3    0  503  0.15448507040E+02 -0.34103431238E+02  0.24207570661E+02  0.44830758072E+02  0.47000000000E+01 0.  1.
         11    1    4    4    0    0 -0.10943329823E+03 -0.11906703640E+03 -0.75678548918E+02  0.17854928923E+03  0.00000000000E+00 0. -1.
        -12    1    4    4    0    0 -0.43327490743E+02  0.62046325595E+00 -0.42276083473E+02  0.60538612988E+02  0.00000000000E+00 0.  1.
</event>
<event>
12    1  0.8258923E-002  0.2775394E+03  0.7818608E-02  0.1097369E+00
         21   -1    0    0  501  502  0.00000000000E+00  0.00000000000E+00  0.70935554267E+03  0.70935554267E+03  0.00000000000E+00 0. -1.
         21   -1    0    0  502  503 -0.00000000000E+00 -0.00000000000E+00 -0.11890774492E+03  0.11890774492E+03  0.00000000000E+00 0. -1.
         -6    2    1    2    0  503  0.69839902017E+02  0.20499343221E+03  0.16673641033E+03  0.32174631358E+03  0.16976377885E+03 0.  0.
        -24    2    3    3    0    0  0.60677290992E+02  0.38416437247E+02  0.53859003832E+02  0.12026369003E+03  0.80031284847E+02 0.  0.
          6    2    1    2  501    0 -0.69839902017E+02 -0.20499343221E+03  0.42371138742E+03  0.50651697401E+03  0.17357472732E+03 0.  0.
         24    2    5    5    0    0 -0.29594826755E+02 -0.21088489587E+02  0.10730828523E+03  0.13831362383E+03  0.79341113523E+02 0.  0.
          5    1    5    5  501    0 -0.40245075262E+02 -0.18390494263E+03  0.31640310219E+03  0.36820335018E+03  0.47000000000E+01 0. -1.
        -13    1    6    6    0    0  0.33529984581E+01  0.26747399502E+02  0.49503142995E+02  0.56366897601E+02  0.00000000000E+00 0.  1.
         14    1    6    6    0    0 -0.32947825214E+02 -0.47835889090E+02  0.57805142237E+02  0.81946726234E+02  0.00000000000E+00 0. -1.
         -5    1    3    3    0  503  0.91626110256E+01  0.16657699497E+03  0.11287740649E+03  0.20148262354E+03  0.47000000000E+01 0.  1.
         11    1    4    4    0    0 -0.16478688815E+02  0.13486010465E+01 -0.39171393230E+01  0.16991465220E+02  0.00000000000E+00 0. -1.
        -12    1    4    4    0    0  0.77155979806E+02  0.37067836201E+02  0.57776143155E+02  0.10327222482E+03  0.00000000000E+00 0.  1.
</event>
<event>
12    1  0.8258923E-002  0.2778863E+03  0.7818608E-02  0.1097058E+00
         21   -1    0    0  501  502  0.00000000000E+00  0.00000000000E+00  0.49657581685E+03  0.49657581685E+03  0.00000000000E+00 0. -1.
         21   -1    0    0  502  503 -0.00000000000E+00 -0.00000000000E+00 -0.15956602925E+03  0.15956602925E+03  0.00000000000E+00 0. -1.
         -6    2    1    2    0  503  0.20672812271E+03  0.64410027743E+02  0.11054949425E+03  0.29766581562E+03  0.17175150281E+03 0.  0.
        -24    2    3    3    0    0  0.22543035947E+02  0.98049870357E+01  0.21656860510E+02  0.85935215589E+02  0.79445046609E+02 0.  0.
          6    2    1    2  501    0 -0.20672812271E+03 -0.64410027743E+02  0.22646029335E+03  0.35847603048E+03  0.17417127080E+03 0.  0.
         24    2    5    5    0    0 -0.26364862988E+02 -0.11650578405E+02  0.99188679027E+02  0.13146365468E+03  0.81323160775E+02 0.  0.
          5    1    5    5  501    0 -0.18036325972E+03 -0.52759449338E+02  0.12727161433E+03  0.22701237580E+03  0.47000000000E+01 0. -1.
        -11    1    6    6    0    0 -0.44932965990E+02 -0.31859171131E+02  0.82959197753E+02  0.99580152187E+02  0.00000000000E+00 0.  1.
         12    1    6    6    0    0  0.18568103003E+02  0.20208592726E+02  0.16229481274E+02  0.31883502497E+02  0.00000000000E+00 0. -1.
         -5    1    3    3    0  503  0.18418508676E+03  0.54605040707E+02  0.88892633740E+02  0.21173060003E+03  0.47000000000E+01 0.  1.
         11    1    4    4    0    0  0.31275837556E+02  0.34764608347E+02  0.32925249190E+02  0.57191153534E+02  0.00000000000E+00 0. -1.
        -12    1    4    4    0    0 -0.87328016088E+01 -0.24959621311E+02 -0.11268388681E+02  0.28744062055E+02  0.00000000000E+00 0.  1.
</event>
<event>
12    1  0.8258923E-002  0.1919870E+03  0.7818608E-02  0.1156694E+00
         21   -1    0    0  501  502  0.00000000000E+00  0.00000000000E+00  0.40795272121E+03  0.40795272121E+03  0.00000000000E+00 0.  1.
         21   -1    0    0  502  503 -0.00000000000E+00 -0.00000000000E+00 -0.96748098008E+02  0.96748098008E+02  0.00000000000E+00 0. -1.
         -6    2    1    2    0  503 -0.10409012610E+01  0.83790638427E+02  0.90601822887E+02  0.21229151670E+03  0.17273402441E+03 0.  0.
        -24    2    3    3    0    0  0.48653638806E+01  0.40386455861E+02 -0.21720029917E+02  0.91638727052E+02  0.79190649785E+02 0.  0.
          6    2    1    2  501    0  0.10409012610E+01 -0.83790638427E+02  0.22060280032E+03  0.29240930252E+03  0.17267208845E+03 0.  0.
         24    2    5    5    0    0 -0.41164731467E+02 -0.10769741647E+03  0.13734822837E+03  0.19594032709E+03  0.78960796052E+02 0.  0.
          5    1    5    5  501    0  0.42205632728E+02  0.23906778043E+02  0.83254571955E+02  0.96468975436E+02  0.47000000000E+01 0. -1.
        -13    1    6    6    0    0 -0.56127502424E+02 -0.37277510905E+02  0.59272805333E+02  0.89739482948E+02  0.00000000000E+00 0.  1.
         14    1    6    6    0    0  0.14962770957E+02 -0.70419905565E+02  0.78075423032E+02  0.10620084414E+03  0.00000000000E+00 0. -1.
         -5    1    3    3    0  503 -0.59062651416E+01  0.43404182566E+02  0.11232185280E+03  0.12065278965E+03  0.47000000000E+01 0.  1.
         11    1    4    4    0    0 -0.37054409968E+02  0.20770211586E+02 -0.68582142416E+01  0.43028665910E+02  0.00000000000E+00 0. -1.
        -12    1    4    4    0    0  0.41919773849E+02  0.19616244275E+02 -0.14861815676E+02  0.48610061142E+02  0.00000000000E+00 0.  1.
</event>
<event>
12    1  0.8258923E-002  0.1946722E+03  0.7818608E-02  0.1154372E+00
         21   -1    0    0  503  502  0.00000000000E+00  0.00000000000E+00  0.84351335284E+03  0.84351335284E+03  0.00000000000E+00 0. -1.
         21   -1    0    0  501  503 -0.00000000000E+00 -0.00000000000E+00 -0.12624123687E+03  0.12624123687E+03  0.00000000000E+00 0.  1.
          6    2    1    2  501    0  0.82040418091E+02 -0.43776589187E+02 -0.30744889897E+02  0.19682076258E+03  0.17072241905E+03 0.  0.
         24    2    3    3    0    0 -0.15402709442E+02 -0.50689636410E+02 -0.73450658923E+01  0.96259362980E+02  0.80032695011E+02 0.  0.
         -6    2    1    2    0  502 -0.82040418091E+02  0.43776589187E+02  0.74801700587E+03  0.77293382714E+03  0.17102701571E+03 0.  0.
        -24    2    5    5    0    0 -0.12054744611E+03  0.16771044948E+02  0.59512379838E+03  0.61290097575E+03  0.81623011270E+02 0.  0.
          5    1    3    3  501    0  0.97443127534E+02  0.69130472224E+01 -0.23399824005E+02  0.10056139960E+03  0.47000000000E+01 0. -1.
        -11    1    4    4    0    0 -0.16851129199E+02  0.12032534564E+02  0.19104424854E+02  0.28173063240E+02  0.00000000000E+00 0.  1.
         12    1    4    4    0    0  0.14484197571E+01 -0.62722170974E+02 -0.26449490747E+02  0.68086299739E+02  0.00000000000E+00 0. -1.
         -5    1    5    5    0  502  0.38507028014E+02  0.27005544240E+02  0.15289320749E+03  0.16003285139E+03  0.47000000000E+01 0.  1.
         11    1    6    6    0    0 -0.31810087600E+02  0.18939011069E+01  0.35577064200E+03  0.35719493032E+03  0.00000000000E+00 0. -1.
        -12    1    6    6    0    0 -0.88737358506E+02  0.14877143841E+02  0.23935315638E+03  0.25570604543E+03  0.00000000000E+00 0.  1.
</event>
<event>
12    1  0.8258923E-002  0.2113628E+03  0.7818608E-02  0.1140599E+00
         21   -1    0    0  501  502  0.00000000000E+00  0.00000000000E+00  0.15717828491E+03  0.15717828491E+03  0.00000000000E+00 0. -1.
         21   -1    0    0  502  503 -0.00000000000E+00 -0.00000000000E+00 -0.66568453969E+03  0.66568453969E+03  0.00000000000E+00 0. -1.
         -6    2    1    2    0  503  0.23198966990E+02 -0.12052545307E+03 -0.56586146074E+03  0.60385628182E+03  0.17140198202E+03 0.  0.
        -24    2    3    3    0    0 -0.17372581681E+02 -0.87161149968E+02 -0.52160748555E+03  0.53501057314E+03  0.79139571277E+02 0.  0.
          6    2    1    2  501    0 -0.23198966990E+02  0.12052545307E+03  0.57355205956E+02  0.21900654277E+03  0.17207460365E+03 0.  0.
         24    2    5    5    0    0 -0.17468389592E+02  0.15463994327E+03  0.55911569790E+02  0.18406642193E+03  0.80843598110E+02 0.  0.
          5    1    5    5  501    0 -0.57305773977E+01 -0.34114490206E+02  0.14436361661E+01  0.34940120845E+02  0.47000000000E+01 0. -1.
        -13    1    6    6    0    0  0.32041384084E+02  0.64470920819E+02  0.16159011374E+02  0.73785253092E+02  0.00000000000E+00 0.  1.
         14    1    6    6    0    0 -0.49509773676E+02  0.90169022452E+02  0.39752558416E+02  0.11028116884E+03  0.00000000000E+00 0. -1.
         -5    1    3    3    0  503  0.40571548670E+02 -0.33364303097E+02 -0.44253975194E+02  0.68845708677E+02  0.47000000000E+01 0.  1.
         13    1    4    4    0    0  0.23763314613E+02 -0.69508792500E+02 -0.35298864791E+03  0.36055117932E+03  0.00000000000E+00 0. -1.
        -14    1    4    4    0    0 -0.41135896293E+02 -0.17652357468E+02 -0.16861883764E+03  0.17445939383E+03  0.00000000000E+00 0.  1.
</event>
<event>
12    1  0.8258923E-002  0.1842902E+03  0.7818608E-02  0.1163808E+00
         21   -1    0    0  503  502  0.00000000000E+00  0.00000000000E+00  0.13311523612E+03  0.13311523612E+03  0.00000000000E+00 0.  1.
         21   -1    0    0  501  503 -0.00000000000E+00 -0.00000000000E+00 -0.25487660968E+03  0.25487660968E+03  0.00000000000E+00 0.  1.
          6    2    1    2  501    0 -0.62928127097E+02  0.17571450862E+02 -0.67484026967E+02  0.19625736678E+03  0.17231992065E+03 0.  0.
         24    2    3    3    0    0  0.93288166624E+01 -0.41103531752E+02 -0.23727003811E+02  0.93298216717E+02  0.79781322312E+02 0.  0.
         -6    2    1    2    0  502  0.62928127097E+02 -0.17571450862E+02 -0.54277346589E+02  0.19173447902E+03  0.17189349908E+03 0.  0.
        -24    2    5    5    0    0  0.28596101491E+02 -0.49231522150E+02  0.24330208886E+02  0.10017965460E+03  0.78756106675E+02 0.  0.
          5    1    3    3  501    0 -0.72256943759E+02  0.58674982614E+02 -0.43757023156E+02  0.10295915006E+03  0.47000000000E+01 0. -1.
        -11    1    4    4    0    0 -0.30018970309E+02 -0.39763081874E+02 -0.20229955356E+02  0.53772598526E+02  0.00000000000E+00 0.  1.
         12    1    4    4    0    0  0.39347786972E+02 -0.13404498784E+01 -0.34970484541E+01  0.39525618190E+02  0.00000000000E+00 0. -1.
         -5    1    5    5    0  502  0.34332025606E+02  0.31660071288E+02 -0.78607555475E+02  0.91554824417E+02  0.47000000000E+01 0.  1.
         11    1    6    6    0    0  0.39143667947E+02 -0.63444467572E+02  0.61414050619E+01  0.74800695598E+02  0.00000000000E+00 0. -1.
        -12    1    6    6    0    0 -0.10547566455E+02  0.14212945422E+02  0.18188803824E+02  0.25378959006E+02  0.00000000000E+00 0.  1.
</event>
<event>
12    1  0.8258923E-002  0.2071256E+03  0.7818608E-02  0.1144001E+00
         21   -1    0    0  501  502  0.00000000000E+00  0.00000000000E+00  0.52480934853E+03  0.52480934853E+03  0.00000000000E+00 0.  1.
         21   -1    0    0  502  503 -0.00000000000E+00 -0.00000000000E+00 -0.12274380561E+03  0.12274380561E+03  0.00000000000E+00 0.  1.
         -6    2    1    2    0  503  0.39501624941E+02  0.10754182097E+03  0.13516969928E+02  0.20756623277E+03  0.17255552984E+03 0.  0.
        -24    2    3    3    0    0 -0.17674687609E+02 -0.90995533069E+01 -0.30383615747E+02  0.70366770913E+02  0.60275383785E+02 0.  0.
          6    2    1    2  501    0 -0.39501624941E+02 -0.10754182097E+03  0.38854857299E+03  0.43998692137E+03  0.17173489969E+03 0.  0.
         24    2    5    5    0    0 -0.87771395792E+02 -0.81120885565E+02  0.22088506424E+03  0.26346162921E+03  0.79607804054E+02 0.  0.
          5    1    5    5  501    0  0.48269770851E+02 -0.26420935408E+02  0.16766350875E+03  0.17652529216E+03  0.47000000000E+01 0. -1.
        -11    1    6    6    0    0 -0.30196138305E+02 -0.26782349068E+02  0.15589306407E+03  0.16103337671E+03  0.00000000000E+00 0.  1.
         12    1    6    6    0    0 -0.57575257487E+02 -0.54338536497E+02  0.64992000172E+02  0.10242825250E+03  0.00000000000E+00 0. -1.
         -5    1    3    3    0  503  0.57176312550E+02  0.11664137428E+03  0.43900585675E+02  0.13719946186E+03  0.47000000000E+01 0.  1.
         13    1    4    4    0    0  0.10823030356E+02 -0.80308989475E+01  0.12819446089E+02  0.18600309730E+02  0.00000000000E+00 0. -1.
        -14    1    4    4    0    0 -0.28497717965E+02 -0.10686543594E+01 -0.43203061837E+02  0.51766461183E+02  0.00000000000E+00 0.  1.
</event>
<event>
12    1  0.8258923E-002  0.2055142E+03  0.7818608E-02  0.1145327E+00
         21   -1    0    0  501  502  0.00000000000E+00  0.00000000000E+00  0.15875644328E+03  0.15875644328E+03  0.00000000000E+00 0.  1.
         21   -1    0    0  502  503 -0.00000000000E+00 -0.00000000000E+00 -0.27572456523E+03  0.27572456523E+03  0.00000000000E+00 0. -1.
         -6    2    1    2    0  503 -0.11175607194E+03 -0.21282566975E+02 -0.10115211431E+03  0.22835912464E+03  0.17021683907E+03 0.  0.
        -24    2    3    3    0    0 -0.13996412258E+03  0.77276479247E+01 -0.64177521339E+02  0.17334551528E+03  0.79247973276E+02 0.  0.
          6    2    1    2  501    0  0.11175607194E+03  0.21282566975E+02 -0.15816007643E+02  0.20612188387E+03  0.17115407573E+03 0.  0.
         24    2    5    5    0    0  0.55562874902E+02 -0.19508046691E+01  0.55160696487E+02  0.11254171780E+03  0.80820152828E+02 0.  0.
          5    1    5    5  501    0  0.56193197038E+02  0.23233371645E+02 -0.70976704130E+02  0.93580166064E+02  0.47000000000E+01 0. -1.
        -11    1    6    6    0    0 -0.71921639567E+01 -0.22697028005E+02 -0.36282471003E+01  0.24084154120E+02  0.00000000000E+00 0.  1.
         12    1    6    6    0    0  0.62755038858E+02  0.20746223336E+02  0.58788943588E+02  0.88457563684E+02  0.00000000000E+00 0. -1.
         -5    1    3    3    0  503  0.28208050642E+02 -0.29010214900E+02 -0.36974592972E+02  0.55013609362E+02  0.47000000000E+01 0.  1.
         11    1    4    4    0    0 -0.95988048927E+02 -0.93818368861E+01 -0.78149492894E+02  0.12413326564E+03  0.00000000000E+00 0. -1.
        -12    1    4    4    0    0 -0.43976073655E+02  0.17109484811E+02  0.13971971554E+02  0.49212249631E+02  0.00000000000E+00 0.  1.
</event>
<event>
12    1  0.8258923E-002  0.1846754E+03  0.7818608E-02  0.1163993E+00
         21   -1    0    0  501  502  0.00000000000E+00  0.00000000000E+00  0.40892729793E+03  0.40892729793E+03  0.00000000000E+00 0. -1.
         21   -1    0    0  502  503 -0.00000000000E+00 -0.00000000000E+00 -0.15654467634E+03  0.15654467634E+03  0.00000000000E+00 0. -1.
         -6    2    1    2    0  503  0.23061224013E+02 -0.62645922792E+02 -0.68184759195E+02  0.19686073809E+03  0.17218785416E+03 0.  0.
        -24    2    3    3    0    0 -0.32956362295E+02  0.78508052946E+01 -0.61466168266E+02  0.10644509724E+03  0.80029444114E+02 0.  0.
          6    2    1    2  501    0 -0.23061224013E+02  0.62645922792E+02  0.32056738078E+03  0.36861123618E+03  0.16927630112E+03 0.  0.
         24    2    5    5    0    0  0.25013551041E+02 -0.80220458759E+01  0.22605177814E+03  0.24109482572E+03  0.79607020020E+02 0.  0.
          5    1    5    5  501    0 -0.48074775054E+02  0.70667968668E+02  0.94515602645E+02  0.12751641046E+03  0.47000000000E+01 0. -1.
        -11    1    6    6    0    0  0.48787906701E+02 -0.15766512290E+02  0.19273963269E+03  0.19944274557E+03  0.00000000000E+00 0.  1.
         12    1    6    6    0    0 -0.23774355660E+02  0.77444664141E+01  0.33312145448E+02  0.41652080157E+02  0.00000000000E+00 0. -1.
         -5    1    3    3    0  503  0.56017586309E+02 -0.70496728087E+02 -0.67185909291E+01  0.90415640853E+02  0.47000000000E+01 0.  1.
         11    1    4    4    0    0 -0.32171983361E+01 -0.34444561534E+02 -0.18571406786E+02  0.39264173676E+02  0.00000000000E+00 0. -1.
        -12    1    4    4    0    0 -0.29739163959E+02  0.42295366829E+02 -0.42894761481E+02  0.67180923562E+02  0.00000000000E+00 0.  1.
</event>
<event>
12    1  0.8258923E-002  0.2559601E+03  0.7818608E-02  0.1110207E+00
         21   -1    0    0  501  502  0.00000000000E+00  0.00000000000E+00  0.12451737555E+04  0.12451737555E+04  0.00000000000E+00 0. -1.
         21   -1    0    0  502  503 -0.00000000000E+00 -0.00000000000E+00 -0.73700297885E+02  0.73700297885E+02  0.00000000000E+00 0.  1.
         -6    2    1    2    0  503 -0.15328737101E+03  0.10766543324E+03  0.22952327986E+03  0.34379719587E+03  0.17443254359E+03 0.  0.
        -24    2    3    3    0    0 -0.10725739737E+03  0.66218166765E+02  0.44636178589E+02  0.14875370177E+03  0.65163490178E+02 0.  0.
          6    2    1    2  501    0  0.15328737101E+03 -0.10766543324E+03  0.94195017771E+03  0.97507685748E+03  0.16857009542E+03 0.  0.
         24    2    5    5    0    0  0.17182210521E+03 -0.58931519960E+02  0.71558887352E+03  0.74274076318E+03  0.81244356766E+02 0.  0.
          5    1    5    5  501    0 -0.18534734200E+02 -0.48733913281E+02  0.22636130419E+03  0.23233609429E+03  0.47000000000E+01 0. -1.
        -11    1    6    6    0    0 -0.15604127505E+01  0.11222091512E+02  0.56605739191E+02  0.57728501932E+02  0.00000000000E+00 0.  1.
         12    1    6    6    0    0  0.17338251796E+03 -0.70153611473E+02  0.65898313433E+03  0.68501226125E+03  0.00000000000E+00 0. -1.
         -5    1    3    3    0  503 -0.46029973641E+02  0.41447266476E+02  0.18488710127E+03  0.19504349409E+03  0.47000000000E+01 0.  1.
         13    1    4    4    0    0 -0.34766370942E+02 -0.84907448896E+01  0.22667866865E+02  0.42363020259E+02  0.00000000000E+00 0. -1.
        -14    1    4    4    0    0 -0.72491026426E+02  0.74708911654E+02  0.21968311724E+02  0.10639068151E+03  0.00000000000E+00 0.  1.
</event>
<event>
12    1  0.8258923E-002  0.1888942E+03  0.7818608E-02  0.1159755E+00
         21   -1    0    0  503  502  0.00000000000E+00  0.00000000000E+00  0.22694531233E+03  0.22694531233E+03  0.00000000000E+00 0.  1.
         21   -1    0    0  501  503 -0.00000000000E+00 -0.00000000000E+00 -0.16680443182E+03  0.16680443182E+03  0.00000000000E+00 0. -1.
          6    2    1    2  501    0  0.39354835804E+00  0.76539877232E+02 -0.19571394382E+02  0.18990542327E+03  0.17269198772E+03 0.  0.
         24    2    3    3    0    0  0.45383574781E+02  0.93239999983E+02  0.16270869415E+02  0.12982419116E+03  0.76395110861E+02 0.  0.
         -6    2    1    2    0  502 -0.39354835804E+00 -0.76539877232E+02  0.79712274891E+02  0.20384432088E+03  0.17128909101E+03 0.  0.
        -24    2    5    5    0    0  0.25862402995E+02 -0.96275755104E+01 -0.13624950791E+02  0.85943689833E+02  0.80244155171E+02 0.  0.
          5    1    3    3  501    0 -0.44990026423E+02 -0.16700122751E+02 -0.35842263796E+02  0.60081232107E+02  0.47000000000E+01 0. -1.
        -13    1    4    4    0    0 -0.21519867953E+01  0.64872218540E+02  0.31872336864E+02  0.72311006373E+02  0.00000000000E+00 0.  1.
         14    1    4    4    0    0  0.47535561576E+02  0.28367781442E+02 -0.15601467449E+02  0.57513184792E+02  0.00000000000E+00 0. -1.
         -5    1    5    5    0  502 -0.26255951353E+02 -0.66912301721E+02  0.93337225683E+02  0.11790063105E+03  0.47000000000E+01 0.  1.
         13    1    6    6    0    0 -0.19958755960E+02 -0.27048507865E+02  0.39960764521E+01  0.33851770179E+02  0.00000000000E+00 0. -1.
        -14    1    6    6    0    0  0.45821158955E+02  0.17420932355E+02 -0.17621027243E+02  0.52091919654E+02  0.00000000000E+00 0.  1.
</event>
<event>
12    1  0.8258923E-002  0.2228720E+03  0.7818608E-02  0.1131856E+00
         21   -1    0    0  501  502  0.00000000000E+00  0.00000000000E+00  0.34107444938E+03  0.34107444938E+03  0.00000000000E+00 0.  1.
         21   -1    0    0  502  503 -0.00000000000E+00 -0.00000000000E+00 -0.16236423073E+03  0.16236423073E+03  0.00000000000E+00 0. -1.
         -6    2    1    2    0  503 -0.13260151832E+03 -0.49803195967E+02  0.76353461773E+01  0.22247865271E+03  0.17139116492E+03 0.  0.
        -24    2    3    3    0    0 -0.57805983769E+02 -0.83997109521E+02 -0.27425348403E+02  0.13295246650E+03  0.80790856207E+02 0.  0.
          6    2    1    2  501    0  0.13260151832E+03  0.49803195967E+02  0.17107487247E+03  0.28096002740E+03  0.17207092728E+03 0.  0.
         24    2    5    5    0    0  0.62192939881E+01 -0.45616101166E+01  0.36616483057E+02  0.88530437025E+02  0.80233306948E+02 0.  0.
          5    1    5    5  501    0  0.12638222433E+03  0.54364806084E+02  0.13445838941E+03  0.19242959037E+03  0.47000000000E+01 0. -1.
        -11    1    6    6    0    0  0.16430623681E+02 -0.33486154208E+02  0.43285740612E+02  0.57139681995E+02  0.00000000000E+00 0.  1.
         12    1    6    6    0    0 -0.10211329693E+02  0.28924544091E+02 -0.66692575556E+01  0.31390755030E+02  0.00000000000E+00 0. -1.
         -5    1    3    3    0  503 -0.74795534553E+02  0.34193913554E+02  0.35060694580E+02  0.89526186212E+02  0.47000000000E+01 0.  1.
         13    1    4    4    0    0 -0.53784523038E+02 -0.86156603587E+01 -0.14478711439E+02  0.56361667885E+02  0.00000000000E+00 0. -1.
        -14    1    4    4    0    0 -0.40214607311E+01 -0.75381449162E+02 -0.12946636965E+02  0.76590798618E+02  0.00000000000E+00 0.  1.
</event>
<event>
12    1  0.8258923E-002  0.2687795E+03  0.7818608E-02  0.1102200E+00
         21   -1    0    0  503  502  0.00000000000E+00  0.00000000000E+00  0.63694173708E+02  0.63694173708E+02  0.00000000000E+00 0.  1.
         21   -1    0    0  501  503 -0.00000000000E+00 -0.00000000000E+00 -0.13265492608E+04  0.13265492608E+04  0.00000000000E+00 0. -1.
          6    2    1    2  501    0  0.20444647390E+03 -0.45169546166E+01 -0.90202679026E+03  0.94121981861E+03  0.17442377429E+03 0.  0.
         24    2    3    3    0    0  0.15349761824E+03  0.30960275201E+02 -0.42160085902E+03  0.45677623559E+03  0.79857295378E+02 0.  0.
         -6    2    1    2    0  502 -0.20444647390E+03  0.45169546166E+01 -0.36082829685E+03  0.44902361591E+03  0.17206505824E+03 0.  0.
        -24    2    5    5    0    0 -0.17665877404E+03  0.36555133163E+02 -0.35256502531E+03  0.40556130115E+03  0.87368596833E+02 0.  0.
          5    1    3    3  501    0  0.50948855661E+02 -0.35477229818E+02 -0.48042593123E+03  0.48444358302E+03  0.47000000000E+01 0. -1.
        -11    1    4    4    0    0  0.51968206690E+02  0.20654594648E+02 -0.64439720137E+02  0.85321652106E+02  0.00000000000E+00 0.  1.
         12    1    4    4    0    0  0.10152941155E+03  0.10305680553E+02 -0.35716113889E+03  0.37145458349E+03  0.00000000000E+00 0. -1.
         -5    1    5    5    0  502 -0.27787699860E+02 -0.32038178547E+02 -0.82632715450E+01  0.43462314765E+02  0.47000000000E+01 0.  1.
         13    1    6    6    0    0 -0.10929163213E+03  0.55392594783E+02 -0.16606890199E+03  0.20637800420E+03  0.00000000000E+00 0. -1.
        -14    1    6    6    0    0 -0.67367141909E+02 -0.18837461620E+02 -0.18649612332E+03  0.19918329694E+03  0.00000000000E+00 0.  1.
</event>
<event>
12    1  0.8258923E-002  0.2217739E+03  0.7818608E-02  0.1133557E+00
         21   -1    0    0  503  502  0.00000000000E+00  0.00000000000E+00  0.15043229469E+04  0.15043229469E+04  0.00000000000E+00 0.  1.
         21   -1    0    0  501  503 -0.00000000000E+00 -0.00000000000E+00 -0.56116068417E+02  0.56116068417E+02  0.00000000000E+00 0.  1.
          6    2    1    2  501    0 -0.35435454356E+02 -0.12632347125E+03  0.20680477958E+03  0.29938278471E+03  0.17218752600E+03 0.  0.
         24    2    3    3    0    0 -0.52143726959E+02 -0.55521310351E+02  0.42163716939E+02  0.11932478886E+03  0.81602953662E+02 0.  0.
         -6    2    1    2    0  502  0.35435454356E+02  0.12632347125E+03  0.12414020989E+04  0.12610562306E+04  0.17880255811E+03 0.  0.
        -24    2    5    5    0    0 -0.23221641407E+02  0.74787584790E+02  0.10241422575E+04  0.10301438422E+04  0.78718132400E+02 0.  0.
          5    1    3    3  501    0  0.16708272603E+02 -0.70802160894E+02  0.16464106264E+03  0.18005799585E+03  0.47000000000E+01 0. -1.
        -13    1    4    4    0    0 -0.11860009255E+02 -0.33624688850E+02  0.60271771543E+02  0.70028322590E+02  0.00000000000E+00 0.  1.
         14    1    4    4    0    0 -0.40283717705E+02 -0.21896621501E+02 -0.18108054605E+02  0.49296466271E+02  0.00000000000E+00 0. -1.
         -5    1    5    5    0  502  0.58657095763E+02  0.51535886455E+02  0.21725984138E+03  0.23091238847E+03  0.47000000000E+01 0.  1.
         13    1    6    6    0    0  0.68012186345E+01  0.96860849470E+01  0.59026326594E+03  0.59038191024E+03  0.00000000000E+00 0. -1.
        -14    1    6    6    0    0 -0.30022860041E+02  0.65101499843E+02  0.43387899160E+03  0.43976193191E+03  0.00000000000E+00 0.  1.
</event>
<event>
12    1  0.8258923E-002  0.1783891E+03  0.7818608E-02  0.1169440E+00
         21   -1    0    0  503  502  0.00000000000E+00  0.00000000000E+00  0.37717508039E+03  0.37717508039E+03  0.00000000000E+00 0. -1.
         21   -1    0    0  501  503 -0.00000000000E+00 -0.00000000000E+00 -0.22747312911E+03  0.22747312911E+03  0.00000000000E+00 0. -1.
          6    2    1    2  501    0  0.31936520905E+02 -0.35735916571E+02 -0.16502855134E+03  0.24301664753E+03  0.17183035564E+03 0.  0.
         24    2    3    3    0    0 -0.28139336697E+02 -0.68985975741E+02 -0.81967527560E+02  0.13514682426E+03  0.77428040238E+02 0.  0.
         -6    2    1    2    0  502 -0.31936520905E+02  0.35735916571E+02  0.31473050261E+03  0.36163156197E+03  0.17153746015E+03 0.  0.
        -24    2    5    5    0    0 -0.18543095882E+02  0.64847188644E+02  0.31212679159E+03  0.32913972750E+03  0.79754761083E+02 0.  0.
          5    1    3    3  501    0  0.60075857602E+02  0.33250059171E+02 -0.83061023780E+02  0.10786982327E+03  0.47000000000E+01 0. -1.
        -13    1    4    4    0    0  0.10648914557E+02  0.11693030938E+02 -0.37115393057E+01  0.16245057026E+02  0.00000000000E+00 0.  1.
         14    1    4    4    0    0 -0.38788251254E+02 -0.80679006680E+02 -0.78255988254E+02  0.11890176724E+03  0.00000000000E+00 0. -1.
         -5    1    5    5    0  502 -0.13393425023E+02 -0.29111272073E+02  0.26037110240E+01  0.32491834461E+02  0.47000000000E+01 0.  1.
         13    1    6    6    0    0  0.17987487989E+02  0.62339700807E+02  0.23449537201E+03  0.24330611894E+03  0.00000000000E+00 0. -1.
        -14    1    6    6    0    0 -0.36530583871E+02  0.25074878362E+01  0.77631419581E+02  0.85833608566E+02  0.00000000000E+00 0.  1.
</event>
<event>
12    1  0.8258923E-002  0.1866155E+03  0.7818608E-02  0.1162118E+00
         21   -1    0    0  501  502  0.00000000000E+00  0.00000000000E+00  0.58432958107E+03  0.58432958107E+03  0.00000000000E+00 0. -1.
         21   -1    0    0  502  503 -0.00000000000E+00 -0.00000000000E+00 -0.15516490461E+03  0.15516490461E+03  0.00000000000E+00 0. -1.
         -6    2    1    2    0  503 -0.64141499837E+02  0.37475535789E+02 -0.77306329525E+02  0.19973692744E+03  0.16852306612E+03 0.  0.
        -24    2    3    3    0    0 -0.38958510064E+02  0.88775227728E+02 -0.46902001497E+02  0.13483427318E+03  0.81127534875E+02 0.  0.
          6    2    1    2  501    0  0.64141499837E+02 -0.37475535789E+02  0.50647100599E+03  0.53975755824E+03  0.17119227197E+03 0.  0.
         24    2    5    5    0    0  0.50232692937E+02 -0.17544784086E+02  0.11799293026E+03  0.15049158863E+03  0.76773978463E+02 0.  0.
          5    1    5    5  501    0  0.13908806900E+02 -0.19930751703E+02  0.38847807572E+03  0.38926596960E+03  0.47000000000E+01 0. -1.
        -11    1    6    6    0    0  0.39555149465E+01  0.28119210352E+02  0.35939559797E+02  0.45803799491E+02  0.00000000000E+00 0.  1.
         12    1    6    6    0    0  0.46277177990E+02 -0.45663994438E+02  0.82053370466E+02  0.10468778914E+03  0.00000000000E+00 0. -1.
         -5    1    3    3    0  503 -0.25182989773E+02 -0.51299691939E+02 -0.30404328029E+02  0.64902654259E+02  0.47000000000E+01 0.  1.
         11    1    4    4    0    0 -0.74878529501E+01  0.82722985491E+02 -0.57565808228E+02  0.10105930213E+03  0.00000000000E+00 0. -1.
        -12    1    4    4    0    0 -0.31470657114E+02  0.60522422373E+01  0.10663806732E+02  0.33774971048E+02  0.00000000000E+00 0.  1.
</event>
<event>
12    1  0.8258923E-002  0.1730300E+03  0.7818608E-02  0.1174860E+00
         21   -1    0    0  503  502  0.00000000000E+00  0.00000000000E+00  0.28234166038E+04  0.28234166038E+04  0.00000000000E+00 0. -1.
         21   -1    0    0  501  503 -0.00000000000E+00 -0.00000000000E+00 -0.14415511101E+02  0.14415511101E+02  0.00000000000E+00 0. -1.
          6    2    1    2  501    0  0.14899048840E+02 -0.10547026995E+02  0.67336783929E+03  0.69524356466E+03  0.17206436521E+03 0.  0.
         24    2    3    3    0    0  0.61111564414E+02  0.25241059139E+02  0.30516780912E+03  0.32240347035E+03  0.80279957659E+02 0.  0.
         -6    2    1    2    0  502 -0.14899048840E+02  0.10547026995E+02  0.21356332534E+04  0.21425885502E+04  0.17153157469E+03 0.  0.
        -24    2    5    5    0    0  0.34494503088E+02  0.56787547203E+02  0.12780246610E+04  0.12823022628E+04  0.80853958783E+02 0.  0.
          5    1    3    3  501    0 -0.46212515574E+02 -0.35788086134E+02  0.36820003017E+03  0.37284009431E+03  0.47000000000E+01 0. -1.
        -11    1    4    4    0    0  0.74743793764E+02  0.26605162113E+01  0.18859114528E+03  0.20288009545E+03  0.00000000000E+00 0.  1.
         12    1    4    4    0    0 -0.13632229349E+02  0.22580542927E+02  0.11657666384E+03  0.11952337490E+03  0.00000000000E+00 0. -1.
         -5    1    5    5    0  502 -0.49393551928E+02 -0.46240520208E+02  0.85760859239E+03  0.86028628747E+03  0.47000000000E+01 0.  1.
         11    1    6    6    0    0  0.28973809003E+02  0.20927534172E+02  0.11018875559E+04  0.11024670649E+04  0.00000000000E+00 0. -1.
        -12    1    6    6    0    0  0.55206940858E+01  0.35860013031E+02  0.17613710508E+03  0.17983519785E+03  0.00000000000E+00 0.  1.
</event>
<event>
12    1  0.8258923E-002  0.1719362E+03  0.7818608E-02  0.1175924E+00
         21   -1    0    0  503  502  0.00000000000E+00  0.00000000000E+00  0.49706078405E+02  0.49706078405E+02  0.00000000000E+00 0.  1.
         21   -1    0    0  501  503 -0.00000000000E+00 -0.00000000000E+00 -0.59366726723E+03  0.59366726723E+03  0.00000000000E+00 0.  1.
          6    2    1    2  501    0 -0.38364807827E+01 -0.53962264074E+01 -0.27080023652E+03  0.32077221904E+03  0.17180864520E+03 0.  0.
         24    2    3    3    0    0 -0.60353379603E+02  0.13594590672E+02 -0.10951455231E+03  0.14875485679E+03  0.79418051639E+02 0.  0.
         -6    2    1    2    0  502  0.38364807827E+01  0.53962264074E+01 -0.27316095231E+03  0.32260112660E+03  0.17149560685E+03 0.  0.
        -24    2    5    5    0    0  0.39147140396E+02  0.13753474902E+02 -0.50691235184E+02  0.97142590888E+02  0.71731617624E+02 0.  0.
          5    1    3    3  501    0  0.56516898820E+02 -0.18990817079E+02 -0.16128568420E+03  0.17201736225E+03  0.47000000000E+01 0. -1.
        -11    1    4    4    0    0 -0.48608987347E+02 -0.81716249074E+01 -0.15694139712E+02  0.51729248263E+02  0.00000000000E+00 0.  1.
         12    1    4    4    0    0 -0.11744392256E+02  0.21766215579E+02 -0.93820412600E+02  0.97025608530E+02  0.00000000000E+00 0. -1.
         -5    1    5    5    0  502 -0.35310659614E+02 -0.83572484946E+01 -0.22246971713E+03  0.22545853571E+03  0.47000000000E+01 0.  1.
         11    1    6    6    0    0 -0.35454847199E+01 -0.21543814692E+02 -0.31882460870E+02  0.38641916677E+02  0.00000000000E+00 0. -1.
        -12    1    6    6    0    0  0.42692625116E+02  0.35297289593E+02 -0.18808774314E+02  0.58500674211E+02  0.00000000000E+00 0.  1.
</event>
<event>
12    1  0.8258923E-002  0.2119820E+03  0.7818608E-02  0.1140573E+00
         21   -1    0    0  503  502  0.00000000000E+00  0.00000000000E+00  0.63594263060E+03  0.63594263060E+03  0.00000000000E+00 0.  1.
         21   -1    0    0  501  503 -0.00000000000E+00 -0.00000000000E+00 -0.19005749071E+03  0.19005749071E+03  0.00000000000E+00 0. -1.
          6    2    1    2  501    0 -0.76135272650E+02 -0.96698908351E+02 -0.10626464995E+03  0.23455632553E+03  0.16904802691E+03 0.  0.
         24    2    3    3    0    0 -0.10541693477E+03 -0.29590847551E+02 -0.82040797949E+02  0.15729189279E+03  0.77599604481E+02 0.  0.
         -6    2    1    2    0  502  0.76135272650E+02  0.96698908351E+02  0.55214978984E+03  0.59144379577E+03  0.17259523320E+03 0.  0.
        -24    2    5    5    0    0  0.48995314243E+02  0.99047170725E+02  0.54661581527E+03  0.56325148205E+03  0.79072749291E+02 0.  0.
          5    1    3    3  501    0  0.29281662121E+02 -0.67108060800E+02 -0.24223851996E+02  0.77264432738E+02  0.47000000000E+01 0. -1.
        -11    1    4    4    0    0 -0.48642233850E+02 -0.34833508254E+01 -0.81292043750E+02  0.94797663600E+02  0.00000000000E+00 0.  1.
         12    1    4    4    0    0 -0.56774700920E+02 -0.26107496725E+02 -0.74875419969E+00  0.62494229195E+02  0.00000000000E+00 0. -1.
         -5    1    5    5    0  502  0.27139958407E+02 -0.23482623746E+01  0.55339745656E+01  0.28192313722E+02  0.47000000000E+01 0.  1.
         11    1    6    6    0    0 -0.11257128944E+02  0.12521342107E+02  0.19814732356E+02  0.26002511005E+02  0.00000000000E+00 0. -1.
        -12    1    6    6    0    0  0.60252443187E+02  0.86525828618E+02  0.52680108291E+03  0.53724897104E+03  0.00000000000E+00 0.  1.
</event>
<event>
12    1  0.8258923E-002  0.2266816E+03  0.7818608E-02  0.1129583E+00
         21   -1    0    0  501  502  0.00000000000E+00  0.00000000000E+00  0.46597200870E+03  0.46597200870E+03  0.00000000000E+00 0. -1.
         21   -1    0    0  502  503 -0.00000000000E+00 -0.00000000000E+00 -0.26845980850E+03  0.26845980850E+03  0.00000000000E+00 0.  1.
         -6    2    1    2    0  503 -0.14168301352E+03 -0.41277098321E+02 -0.18423039666E+03  0.29210511671E+03  0.17206593210E+03 0.  0.
        -24    2    3    3    0    0 -0.11053861570E+02 -0.56994121190E+01 -0.11455796026E+03  0.13976967931E+03  0.79103513446E+02 0.  0.
          6    2    1    2  501    0  0.14168301352E+03  0.41277098321E+02  0.38174259686E+03  0.44232670049E+03  0.16777253811E+03 0.  0.
         24    2    5    5    0    0  0.17029482036E+02  0.22931129959E+02  0.85646870748E+02  0.12050400631E+03  0.79812211404E+02 0.  0.
          5    1    5    5  501    0  0.12465353149E+03  0.18345968361E+02  0.29609572611E+03  0.32182269418E+03  0.47000000000E+01 0. -1.
        -13    1    6    6    0    0  0.22237690933E+02 -0.20302357161E+02  0.74810288573E+01  0.31026865731E+02  0.00000000000E+00 0.  1.
         14    1    6    6    0    0 -0.52082088961E+01  0.43233487120E+02  0.78165841891E+02  0.89477140583E+02  0.00000000000E+00 0. -1.
         -5    1    3    3    0  503 -0.13062915195E+03 -0.35577686202E+02 -0.69672436396E+02  0.15233543740E+03  0.47000000000E+01 0.  1.
         11    1    4    4    0    0  0.15791638575E+02  0.30778126653E+02 -0.44862545105E+02  0.56650833025E+02  0.00000000000E+00 0. -1.
        -12    1    4    4    0    0 -0.26845500145E+02 -0.36477538772E+02 -0.69695415160E+02  0.83118846282E+02  0.00000000000E+00 0.  1.
</event>
<event>
12    1  0.8258923E-002  0.2006125E+03  0.7818608E-02  0.1150805E+00
         21   -1    0    0  503  502  0.00000000000E+00  0.00000000000E+00  0.14514241042E+04  0.14514241042E+04  0.00000000000E+00 0.  1.
         21   -1    0    0  501  503 -0.00000000000E+00 -0.00000000000E+00 -0.34654028952E+02  0.34654028952E+02  0.00000000000E+00 0. -1.
          6    2    1    2  501    0  0.21763701102E+02 -0.10125462854E+03  0.10741518456E+04  0.10927248268E+04  0.17181152827E+03 0.  0.
         24    2    3    3    0    0 -0.13828780273E+02  0.89238782909E+01  0.42226406805E+03  0.43061766584E+03  0.82787439863E+02 0.  0.
         -6    2    1    2    0  502 -0.21763701102E+02  0.10125462854E+03  0.34261822960E+03  0.39335330629E+03  0.16313618184E+03 0.  0.
        -24    2    5    5    0    0  0.42191804681E+02  0.23460968938E+02  0.14725357926E+03  0.17350882308E+03  0.78045689412E+02 0.  0.
          5    1    3    3  501    0  0.35592481375E+02 -0.11017850683E+03  0.65188777755E+03  0.66210716097E+03  0.47000000000E+01 0. -1.
        -13    1    4    4    0    0  0.16258831348E+02  0.20400856394E+02  0.35588501372E+03  0.35683986259E+03  0.00000000000E+00 0.  1.
         14    1    4    4    0    0 -0.30087611621E+02 -0.11476978103E+02  0.66379054330E+02  0.73777803255E+02  0.00000000000E+00 0. -1.
         -5    1    5    5    0  502 -0.63955505784E+02  0.77793659603E+02  0.19536465034E+03  0.21984448321E+03  0.47000000000E+01 0.  1.
         11    1    6    6    0    0  0.17497373581E+02  0.51487293177E+02  0.84860506076E+02  0.10078891275E+03  0.00000000000E+00 0. -1.
        -12    1    6    6    0    0  0.24694431100E+02 -0.28026324239E+02  0.62393073183E+02  0.72719910333E+02  0.00000000000E+00 0.  1.
</event>
<event>
12    1  0.8258923E-002  0.2281287E+03  0.7818608E-02  0.1127971E+00
         21   -1    0    0  503  502  0.00000000000E+00  0.00000000000E+00  0.54415863114E+03  0.54415863114E+03  0.00000000000E+00 0. -1.
         21   -1    0    0  501  503 -0.00000000000E+00 -0.00000000000E+00 -0.97935818719E+02  0.97935818719E+02  0.00000000000E+00 0. -1.
          6    2    1    2  501    0  0.14786639844E+00 -0.15130473927E+03  0.17375593166E+03  0.28673418168E+03  0.17068163688E+03 0.  0.
         24    2    3    3    0    0  0.26651388014E+02 -0.63555420349E+02  0.19900699505E+02  0.10758088953E+03  0.80174946285E+02 0.  0.
         -6    2    1    2    0  502 -0.14786639844E+00  0.15130473927E+03  0.27246688076E+03  0.35536026818E+03  0.17073246059E+03 0.  0.
        -24    2    5    5    0    0  0.57622323644E+02  0.10976877612E+03  0.21613047871E+03  0.26448391653E+03  0.88712129302E+02 0.  0.
          5    1    3    3  501    0 -0.26503521616E+02 -0.87749318917E+02  0.15385523215E+03  0.17915329215E+03  0.47000000000E+01 0. -1.
        -13    1    4    4    0    0  0.66635770706E+01  0.82105150687E+01  0.30548068188E+02  0.32326464191E+02  0.00000000000E+00 0.  1.
         14    1    4    4    0    0  0.19987810944E+02 -0.71765935417E+02 -0.10647368683E+02  0.75254425335E+02  0.00000000000E+00 0. -1.
         -5    1    5    5    0  502 -0.57770190042E+02  0.41535963148E+02  0.56336402054E+02  0.90876351646E+02  0.47000000000E+01 0.  1.
         11    1    6    6    0    0 -0.12875727086E+02  0.70395799421E+02  0.96043870264E+02  0.11977386167E+03  0.00000000000E+00 0. -1.
        -12    1    6    6    0    0  0.70498050730E+02  0.39372976697E+02  0.12008660844E+03  0.14471005486E+03  0.00000000000E+00 0.  1.
</event>
<event>
12    1  0.8258923E-002  0.2353138E+03  0.7818608E-02  0.1123073E+00
         21   -1    0    0  501  502  0.00000000000E+00  0.00000000000E+00  0.10176259966E+04  0.10176259966E+04  0.00000000000E+00 0. -1.
         21   -1    0    0  502  503 -0.00000000000E+00 -0.00000000000E+00 -0.62568607406E+02  0.62568607406E+02  0.00000000000E+00 0.  1.
         -6    2    1    2    0  503 -0.12433639927E+03 -0.10029678279E+03  0.28124829860E+03  0.36670588072E+03  0.17278198016E+03 0.  0.
        -24    2    3    3    0    0 -0.17420097508E+02 -0.42699760473E+02  0.20023178105E+03  0.22064329592E+03  0.80398809383E+02 0.  0.
          6    2    1    2  501    0  0.12433639927E+03  0.10029678279E+03  0.67380909057E+03  0.71348872327E+03  0.17183853720E+03 0.  0.
         24    2    5    5    0    0  0.23166437338E+01  0.52980375089E+02  0.19663116405E+03  0.21866701119E+03  0.79618842779E+02 0.  0.
          5    1    5    5  501    0  0.12201975554E+03  0.47316407697E+02  0.47717792652E+03  0.49482171207E+03  0.47000000000E+01 0. -1.
        -11    1    6    6    0    0  0.12404911000E+02  0.21336053686E+01 -0.25569083617E+01  0.12844137540E+02  0.00000000000E+00 0.  1.
         12    1    6    6    0    0 -0.10088267266E+02  0.50846769721E+02  0.19918807241E+03  0.20582287365E+03  0.00000000000E+00 0. -1.
         -5    1    3    3    0  503 -0.10691630176E+03 -0.57597022313E+02  0.81016517549E+02  0.14606258480E+03  0.47000000000E+01 0.  1.
         11    1    4    4    0    0  0.73246385468E+01 -0.54533077067E+02  0.78522727148E+02  0.95881830933E+02  0.00000000000E+00 0. -1.
        -12    1    4    4    0    0 -0.24744736055E+02  0.11833316594E+02  0.12170905390E+03  0.12476146499E+03  0.00000000000E+00 0.  1.
</event>
<event>
12    1  0.8258923E-002  0.2107110E+03  0.7818608E-02  0.1141182E+00
         21   -1    0    0  503  502  0.00000000000E+00  0.00000000000E+00  0.10999169639E+03  0.10999169639E+03  0.00000000000E+00 0.  1.
         21   -1    0    0  501  503 -0.00000000000E+00 -0.00000000000E+00 -0.40754731483E+03  0.40754731483E+03  0.00000000000E+00 0. -1.
          6    2    1    2  501    0 -0.17367550026E+02 -0.11972194206E+03 -0.11809701402E+03  0.24076382915E+03  0.17142153162E+03 0.  0.
         24    2    3    3    0    0 -0.55716174571E+02 -0.55387598662E+02 -0.13649279820E+02  0.11215222811E+03  0.78865336080E+02 0.  0.
         -6    2    1    2    0  502  0.17367550026E+02  0.11972194206E+03 -0.17945860441E+03  0.27677518207E+03  0.17252285503E+03 0.  0.
        -24    2    5    5    0    0  0.77649972098E+02  0.83884910798E+02 -0.13062761652E+03  0.19119002799E+03  0.80148962421E+02 0.  0.
          5    1    3    3  501    0  0.38348624545E+02 -0.64334343395E+02 -0.10444773420E+03  0.12861160105E+03  0.47000000000E+01 0. -1.
        -11    1    4    4    0    0 -0.10262114534E+01  0.75160832977E+01  0.20663676917E+02  0.22012091264E+02  0.00000000000E+00 0.  1.
         12    1    4    4    0    0 -0.54689963118E+02 -0.62903681959E+02 -0.34312956737E+02  0.90140136842E+02  0.00000000000E+00 0. -1.
         -5    1    5    5    0  502 -0.60282422072E+02  0.35837031259E+02 -0.48830987892E+02  0.85585154079E+02  0.47000000000E+01 0.  1.
         11    1    6    6    0    0  0.34602424420E+01  0.60228940976E+02 -0.43751726224E+02  0.74523232327E+02  0.00000000000E+00 0. -1.
        -12    1    6    6    0    0  0.74189729656E+02  0.23655969822E+02 -0.86875890297E+02  0.11666679566E+03  0.00000000000E+00 0.  1.
</event>
<event>
12    1  0.8258923E-002  0.1947732E+03  0.7818608E-02  0.1154466E+00
         21   -1    0    0  503  502  0.00000000000E+00  0.00000000000E+00  0.10298079204E+04  0.10298079204E+04  0.00000000000E+00 0. -1.
         21   -1    0    0  501  503 -0.00000000000E+00 -0.00000000000E+00 -0.39366558482E+02  0.39366558482E+02  0.00000000000E+00 0. -1.
          6    2    1    2  501    0  0.90136636480E+02  0.10526759756E+02  0.35298697913E+03  0.40262763266E+03  0.17109581302E+03 0.  0.
         24    2    3    3    0    0  0.10862337778E+03 -0.32459828498E+02  0.30681073356E+03  0.33671904423E+03  0.79963803392E+02 0.  0.
         -6    2    1    2    0  502 -0.90136636480E+02 -0.10526759756E+02  0.63745438276E+03  0.66654684620E+03  0.17234030919E+03 0.  0.
        -24    2    5    5    0    0 -0.87698443781E+02 -0.58908900926E+02  0.55623970629E+03  0.57186479911E+03  0.80408096312E+02 0.  0.
          5    1    3    3  501    0 -0.18486741296E+02  0.42986588254E+02  0.46176245577E+02  0.65908588432E+02  0.47000000000E+01 0. -1.
        -11    1    4    4    0    0  0.50393108636E+00 -0.30179993521E+02  0.78092819270E+02  0.83723200949E+02  0.00000000000E+00 0.  1.
         12    1    4    4    0    0  0.10811944669E+03 -0.22798349770E+01  0.22871791429E+03  0.25299584328E+03  0.00000000000E+00 0. -1.
         -5    1    5    5    0  502 -0.24381926992E+01  0.48382141169E+02  0.81214676461E+02  0.94682047087E+02  0.47000000000E+01 0.  1.
         11    1    6    6    0    0 -0.35446304113E+02 -0.94553676258E+01  0.59200729918E+02  0.69646039909E+02  0.00000000000E+00 0. -1.
        -12    1    6    6    0    0 -0.52252139668E+02 -0.49453533300E+02  0.49703897638E+03  0.50221875920E+03  0.00000000000E+00 0.  1.
</event>
<event>
12    1  0.8258923E-002  0.1879424E+03  0.7818608E-02  0.1161357E+00
         21   -1    0    0  501  502  0.00000000000E+00  0.00000000000E+00  0.10879700513E+04  0.10879700513E+04  0.00000000000E+00 0. -1.
         21   -1    0    0  502  503 -0.00000000000E+00 -0.00000000000E+00 -0.37808121012E+02  0.37808121012E+02  0.00000000000E+00 0. -1.
         -6    2    1    2    0  503  0.73475395362E+02  0.21450703140E+02  0.29368513849E+03  0.34630432749E+03  0.16678417274E+03 0.  0.
        -24    2    3    3    0    0  0.11370307404E+03  0.72441347068E+01  0.23791115125E+03  0.27592733997E+03  0.80952544870E+02 0.  0.
          6    2    1    2  501    0 -0.73475395362E+02 -0.21450703140E+02  0.75647679176E+03  0.77947384479E+03  0.17164956117E+03 0.  0.
         24    2    5    5    0    0 -0.63470713998E+02  0.45928489893E+02  0.35566133499E+03  0.37288416257E+03  0.80060325804E+02 0.  0.
          5    1    5    5  501    0 -0.10004681364E+02 -0.67379193033E+02  0.40081545677E+03  0.40658968222E+03  0.47000000000E+01 0. -1.
        -13    1    6    6    0    0  0.88775722342E+01 -0.48538386009E+01  0.50610898855E+01  0.11313075124E+02  0.00000000000E+00 0.  1.
         14    1    6    6    0    0 -0.72348286232E+02  0.50782328494E+02  0.35060024510E+03  0.36157108744E+03  0.00000000000E+00 0. -1.
         -5    1    3    3    0  503 -0.40227678682E+02  0.14206568433E+02  0.55773987246E+02  0.70376987518E+02  0.47000000000E+01 0.  1.
         13    1    4    4    0    0  0.93556744393E+02 -0.13588036635E+02  0.11125113005E+03  0.14599422282E+03  0.00000000000E+00 0. -1.
        -14    1    4    4    0    0  0.20146329652E+02  0.20832171341E+02  0.12666002120E+03  0.12993311715E+03  0.00000000000E+00 0.  1.
</event>
<event>
12    1  0.8258923E-002  0.2735713E+03  0.7818608E-02  0.1099343E+00
         21   -1    0    0  501  502  0.00000000000E+00  0.00000000000E+00  0.48472756158E+03  0.48472756158E+03  0.00000000000E+00 0. -1.
         21   -1    0    0  502  503 -0.00000000000E+00 -0.00000000000E+00 -0.16232708489E+03  0.16232708489E+03  0.00000000000E+00 0.  1.
         -6    2    1    2    0  503 -0.13731129782E+03 -0.16320421893E+03  0.87919197659E+02  0.28674541728E+03  0.17030308109E+03 0.  0.
        -24    2    3    3    0    0 -0.12019120299E+03 -0.87702703814E+02  0.11543427306E+03  0.20444872350E+03  0.79602258831E+02 0.  0.
          6    2    1    2  501    0  0.13731129782E+03  0.16320421893E+03  0.23448127904E+03  0.36030922919E+03  0.17132209674E+03 0.  0.
         24    2    5    5    0    0  0.11413461810E+03  0.18796649557E+03  0.22478736789E+03  0.32472284499E+03  0.80978088317E+02 0.  0.
          5    1    5    5  501    0  0.23176679721E+02 -0.24762276638E+02  0.96939111475E+01  0.35586384201E+02  0.47000000000E+01 0. -1.
        -11    1    6    6    0    0  0.22333540914E+02  0.82185259620E+02  0.43497023567E+02  0.95630512954E+02  0.00000000000E+00 0.  1.
         12    1    6    6    0    0  0.91801077185E+02  0.10578123595E+03  0.18129034432E+03  0.22909233203E+03  0.00000000000E+00 0. -1.
         -5    1    3    3    0  503 -0.17120094825E+02 -0.75501515120E+02 -0.27515075406E+02  0.82296693778E+02  0.47000000000E+01 0.  1.
         11    1    4    4    0    0 -0.43549806579E+02 -0.52885525863E+02  0.95364381920E+01  0.69169416307E+02  0.00000000000E+00 0. -1.
        -12    1    4    4    0    0 -0.76641396416E+02 -0.34817177951E+02  0.10589783487E+03  0.13527930720E+03  0.00000000000E+00 0.  1.
</event>
<event>
12    1  0.8258923E-002  0.1741399E+03  0.7818608E-02  0.1173642E+00
         21   -1    0    0  503  502  0.00000000000E+00  0.00000000000E+00  0.12038326416E+04  0.12038326416E+04  0.00000000000E+00 0.  1.
         21   -1    0    0  501  503 -0.00000000000E+00 -0.00000000000E+00 -0.25728631641E+02  0.25728631641E+02  0.00000000000E+00 0.  1.
          6    2    1    2  501    0  0.30994074551E+02 -0.14372765649E+01  0.68032941026E+03  0.70226264556E+03  0.17135348975E+03 0.  0.
         24    2    3    3    0    0 -0.23945571193E+02  0.19693135592E+02  0.57668547749E+03  0.58297721562E+03  0.79593241068E+02 0.  0.
         -6    2    1    2    0  502 -0.30994074551E+02  0.14372765649E+01  0.49777459972E+03  0.52729862771E+03  0.17117707860E+03 0.  0.
        -24    2    5    5    0    0 -0.37304318717E+02 -0.63110544641E+02  0.32820045985E+03  0.34568442310E+03  0.80047645115E+02 0.  0.
          5    1    3    3  501    0  0.54939645744E+02 -0.21130412157E+02  0.10364393278E+03  0.11928542993E+03  0.47000000000E+01 0. -1.
        -11    1    4    4    0    0 -0.44620047327E-01 -0.25274662977E+02  0.33674066691E+03  0.33768785487E+03  0.00000000000E+00 0.  1.
         12    1    4    4    0    0 -0.23900951146E+02  0.44967798569E+02  0.23994481058E+03  0.24528936075E+03  0.00000000000E+00 0. -1.
         -5    1    5    5    0  502  0.63102441664E+01  0.64547821206E+02  0.16957413987E+03  0.18161420461E+03  0.47000000000E+01 0.  1.
         11    1    6    6    0    0 -0.61071674374E+02 -0.56124215476E+02  0.23337071275E+03  0.24767229668E+03  0.00000000000E+00 0. -1.
        -12    1    6    6    0    0  0.23767355657E+02 -0.69863291648E+01  0.94829747108E+02  0.98012126427E+02  0.00000000000E+00 0.  1.
</event>
<event>
12    1  0.8258923E-002  0.1798223E+03  0.7818608E-02  0.1169990E+00
         21   -1    0    0  501  502  0.00000000000E+00  0.00000000000E+00  0.13112401156E+04  0.13112401156E+04  0.00000000000E+00 0.  1.
         21   -1    0    0  502  503 -0.00000000000E+00 -0.00000000000E+00 -0.25202239617E+02  0.25202239617E+02  0.00000000000E+00 0.  1.
         -6    2    1    2    0  503 -0.24962429906E+02 -0.85104408767E+01  0.48638082335E+03  0.51855798182E+03  0.17787783639E+03 0.  0.
        -24    2    3    3    0    0 -0.18996415577E+02 -0.42073053767E+02  0.47284247021E+03  0.48157934858E+03  0.78788715440E+02 0.  0.
          6    2    1    2  501    0  0.24962429906E+02  0.85104408767E+01  0.79965705266E+03  0.81788437342E+03  0.16966996171E+03 0.  0.
         24    2    5    5    0    0 -0.27595431908E+01  0.61282974770E+02  0.63077683183E+03  0.63873062070E+03  0.79587537799E+02 0.  0.
          5    1    5    5  501    0  0.27721973097E+02 -0.52772533893E+02  0.16888022083E+03  0.17915375272E+03  0.47000000000E+01 0. -1.
        -13    1    6    6    0    0 -0.27108196460E+02  0.31299801369E+00  0.31711319242E+03  0.31826989976E+03  0.00000000000E+00 0.  1.
         14    1    6    6    0    0  0.24348653269E+02  0.60969976756E+02  0.31366363940E+03  0.32046072094E+03  0.00000000000E+00 0. -1.
         -5    1    3    3    0  503 -0.59660143297E+01  0.33562612890E+02  0.13538353136E+02  0.36978633244E+02  0.47000000000E+01 0.  1.
         11    1    4    4    0    0 -0.45771180357E+02 -0.87257147262E+01  0.29563556680E+03  0.29928502703E+03  0.00000000000E+00 0. -1.
        -12    1    4    4    0    0  0.26774764780E+02 -0.33347339040E+02  0.17720690342E+03  0.18229432155E+03  0.00000000000E+00 0.  1.
</event>
<event>
12    1  0.8258923E-002  0.2043586E+03  0.7818608E-02  0.1147030E+00
         21   -1    0    0  503  502  0.00000000000E+00  0.00000000000E+00  0.45757722660E+03  0.45757722660E+03  0.00000000000E+00 0. -1.
         21   -1    0    0  501  503 -0.00000000000E+00 -0.00000000000E+00 -0.23336605243E+03  0.23336605243E+03  0.00000000000E+00 0. -1.
          6    2    1    2  501    0 -0.81805693262E+02 -0.59684361600E+02 -0.15979176380E+03  0.25594822260E+03  0.17239979816E+03 0.  0.
         24    2    3    3    0    0  0.22289387204E+01  0.16762310454E+02 -0.39984867202E+02  0.90776507370E+02  0.79722277097E+02 0.  0.
         -6    2    1    2    0  502  0.81805693262E+02  0.59684361600E+02  0.38400293798E+03  0.43499505643E+03  0.17750506548E+03 0.  0.
        -24    2    5    5    0    0  0.84619466131E+02  0.10490773601E+03  0.32394288699E+03  0.35961355581E+03  0.78846866553E+02 0.  0.
          5    1    3    3  501    0 -0.84034631982E+02 -0.76446672053E+02 -0.11980689660E+03  0.16517171523E+03  0.47000000000E+01 0. -1.
        -11    1    4    4    0    0  0.19054664741E+02 -0.27877267304E+02 -0.17646324326E+02  0.38100066180E+02  0.00000000000E+00 0.  1.
         12    1    4    4    0    0 -0.16825726021E+02  0.44639577758E+02 -0.22338542877E+02  0.52676441189E+02  0.00000000000E+00 0. -1.
         -5    1    5    5    0  502 -0.28137728695E+01 -0.45223374413E+02  0.60060050988E+02  0.75381500620E+02  0.47000000000E+01 0.  1.
         13    1    6    6    0    0  0.89893129550E+01 -0.87168533229E+01  0.71923909252E+02  0.73005753207E+02  0.00000000000E+00 0. -1.
        -14    1    6    6    0    0  0.75630153176E+02  0.11362458934E+03  0.25201897774E+03  0.28660780260E+03  0.00000000000E+00 0.  1.
</event>
<event>
12    1  0.8258923E-002  0.2065081E+03  0.7818608E-02  0.1144674E+00
         21   -1    0    0  503  502  0.00000000000E+00  0.00000000000E+00  0.37082011617E+02  0.37082011617E+02  0.00000000000E+00 0. -1.
         21   -1    0    0  501  503 -0.00000000000E+00 -0.00000000000E+00 -0.16991949840E+04  0.16991949840E+04  0.00000000000E+00 0. -1.
          6    2    1    2  501    0 -0.11105766643E+03  0.13140343554E+02 -0.13305056386E+04  0.13464363483E+04  0.17360619692E+03 0.  0.
         24    2    3    3    0    0 -0.13803460947E+02  0.59584833711E+01 -0.28454947325E+03  0.29593344513E+03  0.79888435724E+02 0.  0.
         -6    2    1    2    0  502  0.11105766643E+03 -0.13140343554E+02 -0.33160733372E+03  0.38984064731E+03  0.17177261895E+03 0.  0.
        -24    2    5    5    0    0  0.34430872061E+02  0.24777597902E+02 -0.49030222112E+02  0.94575766396E+02  0.68856362091E+02 0.  0.
          5    1    3    3  501    0 -0.97254205485E+02  0.71818601826E+01 -0.10459561654E+04  0.10505029032E+04  0.47000000000E+01 0. -1.
        -13    1    4    4    0    0  0.27938031174E+02  0.22888069467E+02 -0.13500148719E+03  0.13974905672E+03  0.00000000000E+00 0.  1.
         14    1    4    4    0    0 -0.41741492121E+02 -0.16929586096E+02 -0.14954798605E+03  0.15618438841E+03  0.00000000000E+00 0. -1.
         -5    1    5    5    0  502  0.76626794372E+02 -0.37917941455E+02 -0.28257711160E+03  0.29526488092E+03  0.47000000000E+01 0.  1.
         13    1    6    6    0    0  0.45030577771E+02  0.15427628947E+02 -0.60068546017E+02  0.76641991688E+02  0.00000000000E+00 0. -1.
        -14    1    6    6    0    0 -0.10599705711E+02  0.93499689549E+01  0.11038323905E+02  0.17933774707E+02  0.00000000000E+00 0.  1.
</event>
<event>
12    1  0.8258923E-002  0.2099213E+03  0.7818608E-02  0.1141743E+00
         21   -1    0    0  501  502  0.00000000000E+00  0.00000000000E+00  0.17488618721E+03  0.17488618721E+03  0.00000000000E+00 0.  1.
         21   -1    0    0  502  503 -0.00000000000E+00 -0.00000000000E+00 -0.26447612411E+03  0.26447612411E+03  0.00000000000E+00 0.  1.
         -6    2    1    2    0  503  0.10805696403E+03  0.44217204659E+02 -0.93805676694E+02  0.22939866270E+03  0.17376067681E+03 0.  0.
        -24    2    3    3    0    0  0.54847095549E+02  0.80405941784E+02 -0.10793809416E+02  0.12426077749E+03  0.76491274897E+02 0.  0.
          6    2    1    2  501    0 -0.10805696403E+03 -0.44217204659E+02  0.42157397966E+01  0.20996364862E+03  0.17445771010E+03 0.  0.
         24    2    5    5    0    0 -0.85872560118E+02 -0.72634974920E+02 -0.48075065405E+02  0.14627584953E+03  0.80221419082E+02 0.  0.
          5    1    5    5  501    0 -0.22184403915E+02  0.28417770261E+02  0.52290805202E+02  0.63687799085E+02  0.47000000000E+01 0. -1.
        -13    1    6    6    0    0 -0.94233744849E+02 -0.40313442130E+02 -0.24432312252E+02  0.10536655146E+03  0.00000000000E+00 0.  1.
         14    1    6    6    0    0  0.83611847311E+01 -0.32321532790E+02 -0.23642753153E+02  0.40909298071E+02  0.00000000000E+00 0. -1.
         -5    1    3    3    0  503  0.53209868483E+02 -0.36188737125E+02 -0.83011867278E+02  0.10513788522E+03  0.47000000000E+01 0.  1.
         11    1    4    4    0    0 -0.85815023289E+01  0.39047832893E+02  0.17211033233E+02  0.43526946836E+02  0.00000000000E+00 0. -1.
        -12    1    4    4    0    0  0.63428597878E+02  0.41358108891E+02 -0.28004842648E+02  0.80733830651E+02  0.00000000000E+00 0.  1.
</event>
<event>
12    1  0.8258923E-002  0.2085707E+03  0.7818608E-02  0.1143017E+00
         21   -1    0    0  501  502  0.00000000000E+00  0.00000000000E+00  0.63585547135E+03  0.63585547135E+03  0.00000000000E+00 0. -1.
         21   -1    0    0  502  503 -0.00000000000E+00 -0.00000000000E+00 -0.79506124904E+02  0.79506124904E+02  0.00000000000E+00 0. -1.
         -6    2    1    2    0  503  0.10616409058E+03  0.45619362093E+02  0.14241979572E+03  0.25255716591E+03  0.17363693015E+03 0.  0.
        -24    2    3    3    0    0  0.94428485395E+02  0.92822705493E+02  0.12945208550E+03  0.20199896612E+03  0.80702827487E+02 0.  0.
          6    2    1    2  501    0 -0.10616409058E+03 -0.45619362093E+02  0.41392955073E+03  0.46280443035E+03  0.17175077135E+03 0.  0.
         24    2    5    5    0    0 -0.21682442809E+02 -0.57747217205E+02  0.12121656362E+03  0.15786637680E+03  0.80146542083E+02 0.  0.
          5    1    5    5  501    0 -0.84481647771E+02  0.12127855112E+02  0.29271298711E+03  0.30493805355E+03  0.47000000000E+01 0. -1.
        -11    1    6    6    0    0 -0.19228150556E+02 -0.11493261605E+02 -0.54004880072E+01  0.23043048992E+02  0.00000000000E+00 0.  1.
         12    1    6    6    0    0 -0.24542922526E+01 -0.46253955600E+02  0.12661705163E+03  0.13482332781E+03  0.00000000000E+00 0. -1.
         -5    1    3    3    0  503  0.11735605185E+02 -0.47203343399E+02  0.12967710217E+02  0.50558199784E+02  0.47000000000E+01 0.  1.
         11    1    4    4    0    0  0.53704866574E+02  0.89306464059E+02  0.56920228885E+02  0.11874245101E+03  0.00000000000E+00 0. -1.
        -12    1    4    4    0    0  0.40723618821E+02  0.35162414342E+01  0.72531856616E+02  0.83256515108E+02  0.00000000000E+00 0.  1.
</event>
<event>
12    1  0.8258923E-002  0.2161025E+03  0.7818608E-02  0.1136905E+00
         21   -1    0    0  503  502  0.00000000000E+00  0.00000000000E+00  0.18093151872E+03  0.18093151872E+03  0.00000000000E+00 0.  1.
         21   -1    0    0  501  503 -0.00000000000E+00 -0.00000000000E+00 -0.31932215587E+03  0.31932215587E+03  0.00000000000E+00 0.  1.
          6    2    1    2  501    0  0.34524638022E+02 -0.12433420214E+03 -0.17922240977E+03  0.28075068643E+03  0.17334742951E+03 0.  0.
         24    2    3    3    0    0  0.15282112153E+02  0.25005613435E+01 -0.10075896703E+03  0.13029825583E+03  0.81150910509E+02 0.  0.
         -6    2    1    2    0  502 -0.34524638022E+02  0.12433420214E+03  0.40831772612E+02  0.21950298816E+03  0.17281025347E+03 0.  0.
        -24    2    5    5    0    0 -0.69351183148E+02  0.92071629557E+02  0.65937892808E+02  0.16559409180E+03  0.98928388035E+02 0.  0.
          5    1    3    3  501    0  0.19242525869E+02 -0.12683476348E+03 -0.78463442741E+02  0.15045243061E+03  0.47000000000E+01 0. -1.
        -11    1    4    4    0    0 -0.31148640611E+02 -0.10767296711E+02 -0.29579711199E+02  0.44284667832E+02  0.00000000000E+00 0.  1.
         12    1    4    4    0    0  0.46430752764E+02  0.13267858054E+02 -0.71179255830E+02  0.86013587997E+02  0.00000000000E+00 0. -1.
         -5    1    5    5    0  502  0.34826545126E+02  0.32262572578E+02 -0.25106120196E+02  0.53908896353E+02  0.47000000000E+01 0.  1.
         13    1    6    6    0    0 -0.41962439885E+02  0.85992275299E+02  0.19258289123E+01  0.95703848351E+02  0.00000000000E+00 0. -1.
        -14    1    6    6    0    0 -0.27388743263E+02  0.60793542577E+01  0.64012063896E+02  0.69890243453E+02  0.00000000000E+00 0.  1.
</event>
<event>
12    1  0.8258923E-002  0.1907298E+03  0.7818608E-02  0.1157945E+00
         21   -1    0    0  501  502  0.00000000000E+00  0.00000000000E+00  0.88844719469E+02  0.88844719469E+02  0.00000000000E+00 0. -1.
         21   -1    0    0  502  503 -0.00000000000E+00 -0.00000000000E+00 -0.49080815926E+03  0.49080815926E+03  0.00000000000E+00 0.  1.
         -6    2    1    2    0  503  0.49767063742E+02  0.63757244274E+02 -0.31966925130E+03  0.37192664730E+03  0.17204433706E+03 0.  0.
        -24    2    3    3    0    0 -0.94546230248E+01  0.81195387848E+02 -0.13387513115E+03  0.17608783063E+03  0.80014326521E+02 0.  0.
          6    2    1    2  501    0 -0.49767063742E+02 -0.63757244274E+02 -0.82294188492E+02  0.20772623143E+03  0.17273131428E+03 0.  0.
         24    2    5    5    0    0 -0.97050437084E+02 -0.10249172574E+02 -0.32021936879E+02  0.12027212682E+03  0.62579127279E+02 0.  0.
          5    1    5    5  501    0  0.47283373342E+02 -0.53508071700E+02 -0.50272251613E+02  0.87454104614E+02  0.47000000000E+01 0. -1.
        -11    1    6    6    0    0 -0.77072149277E+02 -0.33999820182E+01 -0.50503418812E+02  0.92207762057E+02  0.00000000000E+00 0.  1.
         12    1    6    6    0    0 -0.19978287808E+02 -0.68491905559E+01  0.18481481933E+02  0.28064364761E+02  0.00000000000E+00 0. -1.
         -5    1    3    3    0  503  0.59221686767E+02 -0.17438143574E+02 -0.18579412015E+03  0.19583881667E+03  0.47000000000E+01 0.  1.
         13    1    4    4    0    0 -0.33973318601E+02  0.73316683362E+02 -0.12500787107E+03  0.14885056353E+03  0.00000000000E+00 0. -1.
        -14    1    4    4    0    0  0.24518695576E+02  0.78787044863E+01 -0.88672600877E+01  0.27237267091E+02  0.00000000000E+00 0.  1.
</event>
<event>
12    1  0.8258923E-002  0.3007803E+03  0.7818608E-02  0.1085295E+00
         21   -1    0    0  501  502  0.00000000000E+00  0.00000000000E+00  0.28932237096E+03  0.28932237096E+03  0.00000000000E+00 0. -1.
         21   -1    0    0  502  503 -0.00000000000E+00 -0.00000000000E+00 -0.31948247300E+03  0.31948247300E+03  0.00000000000E+00 0. -1.
         -6    2    1    2    0  503  0.21559728702E+03 -0.11157812642E+03  0.40096464099E+02  0.29992825477E+03  0.17151490638E+03 0.  0.
        -24    2    3    3    0    0  0.19032848515E+03 -0.13533296474E+03  0.10266242115E+00  0.24678318101E+03  0.79762047893E+02 0.  0.
          6    2    1    2  501    0 -0.21559728702E+03  0.11157812642E+03 -0.70256566145E+02  0.30887658920E+03  0.17758629959E+03 0.  0.
         24    2    5    5    0    0 -0.49368619465E+02  0.34476877098E+02  0.27442984481E+02  0.10116557660E+03  0.76520852377E+02 0.  0.
          5    1    5    5  501    0 -0.16622866755E+03  0.77101249319E+02 -0.97699550626E+02  0.20771101260E+03  0.47000000000E+01 0. -1.
        -13    1    6    6    0    0  0.24709704436E+01  0.33516942590E+02 -0.12351847197E+02  0.35805855174E+02  0.00000000000E+00 0.  1.
         14    1    6    6    0    0 -0.51839589909E+02  0.95993450737E+00  0.39794831678E+02  0.65359721422E+02  0.00000000000E+00 0. -1.
         -5    1    3    3    0  503  0.25268801866E+02  0.23754838328E+02  0.39993801677E+02  0.53145073754E+02  0.47000000000E+01 0.  1.
         13    1    4    4    0    0  0.74793049174E+02 -0.95245782558E+02  0.20428457885E+02  0.12281319632E+03  0.00000000000E+00 0. -1.
        -14    1    4    4    0    0  0.11553543598E+03 -0.40087182187E+02 -0.20325795464E+02  0.12396998469E+03  0.00000000000E+00 0.  1.
</event>
<event>
12    1  0.8258923E-002  0.2029627E+03  0.7818608E-02  0.1147511E+00
         21   -1    0    0  501  502  0.00000000000E+00  0.00000000000E+00  0.17016760432E+03  0.17016760432E+03  0.00000000000E+00 0.  1.
         21   -1    0    0  502  503 -0.00000000000E+00 -0.00000000000E+00 -0.25840552218E+03  0.25840552218E+03  0.00000000000E+00 0.  1.
         -6    2    1    2    0  503  0.24137810029E+02 -0.10947711497E+03 -0.10015777049E+03  0.22526073813E+03  0.16775860211E+03 0.  0.
        -24    2    3    3    0    0  0.23449157621E+02 -0.90709650924E+02 -0.17613598004E+01  0.12497796003E+03  0.82693919609E+02 0.  0.
          6    2    1    2  501    0 -0.24137810029E+02  0.10947711497E+03  0.11919852625E+02  0.20331238837E+03  0.16919211508E+03 0.  0.
         24    2    5    5    0    0  0.25880411592E+02  0.23967582774E+02  0.44395817375E+02  0.98954921572E+02  0.81097763069E+02 0.  0.
          5    1    5    5  501    0 -0.50018221621E+02  0.85509532194E+02 -0.32475964750E+02  0.10435746680E+03  0.47000000000E+01 0. -1.
        -11    1    6    6    0    0 -0.20853647971E+02 -0.16290530391E+02  0.97041077294E+01  0.28185558731E+02  0.00000000000E+00 0.  1.
         12    1    6    6    0    0  0.46734059563E+02  0.40258113165E+02  0.34691709646E+02  0.70769362841E+02  0.00000000000E+00 0. -1.
         -5    1    3    3    0  503  0.68865240864E+00 -0.18767464044E+02 -0.98396410688E+02  0.10028277811E+03  0.47000000000E+01 0.  1.
         11    1    4    4    0    0 -0.20605962919E+02 -0.44348076089E+02  0.25854192921E+02  0.55315430507E+02  0.00000000000E+00 0. -1.
        -12    1    4    4    0    0  0.44055120540E+02 -0.46361574835E+02 -0.27615552721E+02  0.69662529519E+02  0.00000000000E+00 0.  1.
</event>
<event>
12    1  0.8258923E-002  0.1722610E+03  0.7818608E-02  0.1176497E+00
         21   -1    0    0  501  502  0.00000000000E+00  0.00000000000E+00  0.10373444774E+03  0.10373444774E+03  0.00000000000E+00 0.  1.
         21   -1    0    0  502  503 -0.00000000000E+00 -0.00000000000E+00 -0.35124298123E+03  0.35124298123E+03  0.00000000000E+00 0.  1.
         -6    2    1    2    0  503  0.13549698315E+02 -0.72639850632E+01 -0.22746595377E+03  0.28533244853E+03  0.17157355930E+03 0.  0.
        -24    2    3    3    0    0 -0.27881585094E+02  0.34323353376E+02 -0.62762380520E+02  0.11041699750E+03  0.79355664922E+02 0.  0.
          6    2    1    2  501    0 -0.13549698315E+02  0.72639850632E+01 -0.20042579716E+02  0.16964498044E+03  0.16775385117E+03 0.  0.
         24    2    5    5    0    0 -0.20046567627E+02 -0.58119105510E+02 -0.22566248566E+02  0.10372368837E+03  0.80434275377E+02 0.  0.
          5    1    5    5  501    0  0.64968693129E+01  0.65383090573E+02  0.25236688504E+01  0.65921292071E+02  0.47000000000E+01 0. -1.
        -13    1    6    6    0    0 -0.13542834963E+02 -0.13398473081E+02  0.29289254560E+02  0.34939775220E+02  0.00000000000E+00 0.  1.
         14    1    6    6    0    0 -0.65037326646E+01 -0.44720632429E+02 -0.51855503127E+02  0.68783913148E+02  0.00000000000E+00 0. -1.
         -5    1    3    3    0  503  0.41431283408E+02 -0.41587338439E+02 -0.16470357325E+03  0.17491545102E+03  0.47000000000E+01 0.  1.
         13    1    4    4    0    0 -0.13549972025E+02 -0.25723903936E+02 -0.18640700565E+02  0.34536888874E+02  0.00000000000E+00 0. -1.
        -14    1    4    4    0    0 -0.14331613069E+02  0.60047257311E+02 -0.44121679955E+02  0.75880108631E+02  0.00000000000E+00 0.  1.
</event>
<event>
12    1  0.8258923E-002  0.2756335E+03  0.7818608E-02  0.1098196E+00
         21   -1    0    0  501  502  0.00000000000E+00  0.00000000000E+00  0.10215390756E+04  0.10215390756E+04  0.00000000000E+00 0.  1.
         21   -1    0    0  502  503 -0.00000000000E+00 -0.00000000000E+00 -0.14185242039E+03  0.14185242039E+03  0.00000000000E+00 0.  1.
         -6    2    1    2    0  503 -0.16578091689E+03 -0.13863343627E+03  0.37781867908E+02  0.27751479765E+03  0.16995426243E+03 0.  0.
        -24    2    3    3    0    0 -0.46345249418E+02 -0.11786222839E+03  0.15576486581E+01  0.15090276899E+03  0.82035555682E+02 0.  0.
          6    2    1    2  501    0  0.16578091689E+03  0.13863343627E+03  0.84190478725E+03  0.88587669830E+03  0.17108860785E+03 0.  0.
         24    2    5    5    0    0  0.16747985084E+02  0.58377234565E+02  0.26442555944E+03  0.28408252981E+03  0.84223575900E+02 0.  0.
          5    1    5    5  501    0  0.14903293181E+03  0.80256201701E+02  0.57747922782E+03  0.60179416849E+03  0.47000000000E+01 0. -1.
        -13    1    6    6    0    0  0.33698412746E+02  0.62000734514E+02  0.25451359887E+03  0.26411521371E+03  0.00000000000E+00 0.  1.
         14    1    6    6    0    0 -0.16950427662E+02 -0.36234999489E+01  0.99119605626E+01  0.19967316094E+02  0.00000000000E+00 0. -1.
         -5    1    3    3    0  503 -0.11943566747E+03 -0.20771207881E+02  0.36224219250E+02  0.12661202866E+03  0.47000000000E+01 0.  1.
         13    1    4    4    0    0  0.18958272806E+02 -0.21005209088E+02  0.17094975883E+02  0.33058631506E+02  0.00000000000E+00 0. -1.
        -14    1    4    4    0    0 -0.65303522224E+02 -0.96857019297E+02 -0.15537327225E+02  0.11784413748E+03  0.00000000000E+00 0.  1.
</event>
<event>
12    1  0.8258923E-002  0.2274350E+03  0.7818608E-02  0.1128790E+00
         21   -1    0    0  503  502  0.00000000000E+00  0.00000000000E+00  0.27993741923E+03  0.27993741923E+03  0.00000000000E+00 0. -1.
         21   -1    0    0  501  503 -0.00000000000E+00 -0.00000000000E+00 -0.31452456773E+03  0.31452456773E+03  0.00000000000E+00 0.  1.
          6    2    1    2  501    0 -0.62460354041E+02 -0.13422877719E+03 -0.20925434904E+03  0.30769497416E+03  0.17020621046E+03 0.  0.
         24    2    3    3    0    0  0.24930437151E+02 -0.99948293145E+02 -0.13926212745E+03  0.19050579781E+03  0.79292691067E+02 0.  0.
         -6    2    1    2    0  502  0.62460354041E+02  0.13422877719E+03  0.17466720055E+03  0.28676701279E+03  0.17265001658E+03 0.  0.
        -24    2    5    5    0    0  0.48026469170E+02  0.16367415127E+03  0.12647900394E+03  0.22829001407E+03  0.83807055513E+02 0.  0.
          5    1    3    3  501    0 -0.87390791192E+02 -0.34280484047E+02 -0.69992221593E+02  0.11718917636E+03  0.47000000000E+01 0. -1.
        -13    1    4    4    0    0  0.33228860772E+02 -0.78542148647E+02 -0.14372049193E+03  0.16711853908E+03  0.00000000000E+00 0.  1.
         14    1    4    4    0    0 -0.82984236209E+01 -0.21406144498E+02  0.44583644838E+01  0.23387258727E+02  0.00000000000E+00 0. -1.
         -5    1    5    5    0  502  0.14433884871E+02 -0.29445374073E+02  0.48188196614E+02  0.58476998723E+02  0.47000000000E+01 0.  1.
         13    1    6    6    0    0  0.51856457414E+02  0.37928171777E+02  0.42693160728E+02  0.77138475243E+02  0.00000000000E+00 0. -1.
        -14    1    6    6    0    0 -0.38299882443E+01  0.12574597949E+03  0.83785843208E+02  0.15115153883E+03  0.00000000000E+00 0.  1.
</event>
<event>
12    1  0.8258923E-002  0.2381846E+03  0.7818608E-02  0.1121323E+00
         21   -1    0    0  501  502  0.00000000000E+00  0.00000000000E+00  0.38152163859E+03  0.38152163859E+03  0.00000000000E+00 0.  1.
         21   -1    0    0  502  503 -0.00000000000E+00 -0.00000000000E+00 -0.21187014434E+03  0.21187014434E+03  0.00000000000E+00 0. -1.
         -6    2    1    2    0  503  0.50452193191E+02 -0.15452294985E+03 -0.78894730519E+02  0.24914312429E+03  0.17153761118E+03 0.  0.
        -24    2    3    3    0    0  0.71966452203E+02 -0.68325002458E+02  0.51447817851E+01  0.12675979576E+03  0.78702610103E+02 0.  0.
          6    2    1    2  501    0 -0.50452193191E+02  0.15452294985E+03  0.24854622477E+03  0.34424865863E+03  0.17409522479E+03 0.  0.
         24    2    5    5    0    0 -0.98344345976E+02  0.12777430561E+03  0.20965660438E+03  0.27684212451E+03  0.81778888400E+02 0.  0.
          5    1    5    5  501    0  0.47892152785E+02  0.26748644244E+02  0.38889620396E+02  0.67406534119E+02  0.47000000000E+01 0. -1.
        -11    1    6    6    0    0 -0.35227506797E+02  0.89316210402E+02  0.16378959594E+03  0.18985624671E+03  0.00000000000E+00 0.  1.
         12    1    6    6    0    0 -0.63116839180E+02  0.38458095206E+02  0.45867008436E+02  0.86985877806E+02  0.00000000000E+00 0. -1.
         -5    1    3    3    0  503 -0.21514259012E+02 -0.86197947394E+02 -0.84039512304E+02  0.12238332854E+03  0.47000000000E+01 0.  1.
         13    1    4    4    0    0  0.38724046256E+02 -0.23513969129E+02 -0.35644211690E+02  0.57645193465E+02  0.00000000000E+00 0. -1.
        -14    1    4    4    0    0  0.33242405947E+02 -0.44811033329E+02  0.40788993475E+02  0.69114602291E+02  0.00000000000E+00 0.  1.
</event>
<event>
12    1  0.8258923E-002  0.1990112E+03  0.7818608E-02  0.1150898E+00
         21   -1    0    0  501  502  0.00000000000E+00  0.00000000000E+00  0.25716406622E+03  0.25716406622E+03  0.00000000000E+00 0.  1.
         21   -1    0    0  502  503 -0.00000000000E+00 -0.00000000000E+00 -0.20805438984E+03  0.20805438984E+03  0.00000000000E+00 0. -1.
         -6    2    1    2    0  503  0.54886617809E+02  0.87012145744E+02 -0.95203499805E+02  0.22061084745E+03  0.17035781554E+03 0.  0.
        -24    2    3    3    0    0 -0.27115017220E+02  0.17848150824E+02 -0.25623004333E+02  0.92659834596E+02  0.82918791293E+02 0.  0.
          6    2    1    2  501    0 -0.54886617809E+02 -0.87012145744E+02  0.14431317618E+03  0.24460760860E+03  0.16859102896E+03 0.  0.
         24    2    5    5    0    0 -0.86459094347E+02 -0.12345992051E+02  0.83101966434E+02  0.14291809105E+03  0.76759660033E+02 0.  0.
          5    1    5    5  501    0  0.31572476538E+02 -0.74666153693E+02  0.61211209747E+02  0.10168951756E+03  0.47000000000E+01 0. -1.
        -11    1    6    6    0    0 -0.68209402079E+02 -0.42465172705E+02  0.50317754732E+02  0.94803427502E+02  0.00000000000E+00 0.  1.
         12    1    6    6    0    0 -0.18249692268E+02  0.30119180654E+02  0.32784211703E+02  0.48114663545E+02  0.00000000000E+00 0. -1.
         -5    1    3    3    0  503  0.82001635029E+02  0.69163994919E+02 -0.69580495471E+02  0.12795101285E+03  0.47000000000E+01 0.  1.
         11    1    4    4    0    0 -0.19124013789E+01  0.36306608846E+02 -0.43479675889E+02  0.56677238291E+02  0.00000000000E+00 0. -1.
        -12    1    4    4    0    0 -0.25202615841E+02 -0.18458458022E+02  0.17856671555E+02  0.35982596304E+02  0.00000000000E+00 0.  1.
</event>
<event>
12    1  0.8258923E-002  0.1917728E+03  0.7818608E-02  0.1157340E+00
         21   -1    0    0  503  502  0.00000000000E+00  0.00000000000E+00  0.78600030319E+02  0.78600030319E+02  0.00000000000E+00 0. -1.
         21   -1    0    0  501  503 -0.00000000000E+00 -0.00000000000E+00 -0.57718671662E+03  0.57718671662E+03  0.00000000000E+00 0. -1.
          6    2    1    2  501    0  0.26218667423E+02 -0.74554058487E+02 -0.39634895099E+03  0.44030591682E+03  0.17473146047E+03 0.  0.
         24    2    3    3    0    0  0.63980931211E+02 -0.27352748849E+02 -0.34542641323E+03  0.36112797134E+03  0.79071311499E+02 0.  0.
         -6    2    1    2    0  502 -0.26218667423E+02  0.74554058487E+02 -0.10223773531E+03  0.21548083011E+03  0.17243464695E+03 0.  0.
        -24    2    5    5    0    0  0.10451440001E+01  0.11473651443E+03 -0.88226006129E+02  0.16472293680E+03  0.78640051382E+02 0.  0.
          5    1    3    3  501    0 -0.37762263788E+02 -0.47201309637E+02 -0.50922537763E+02  0.79177945478E+02  0.47000000000E+01 0. -1.
        -11    1    4    4    0    0 -0.18194609914E+02 -0.13523206873E-01 -0.74850884190E+02  0.77030506145E+02  0.00000000000E+00 0.  1.
         12    1    4    4    0    0  0.82175541125E+02 -0.27339225643E+02 -0.27057552904E+03  0.28409746520E+03  0.00000000000E+00 0. -1.
         -5    1    5    5    0  502 -0.27263811423E+02 -0.40182455945E+02 -0.14011729177E+02  0.50757893313E+02  0.47000000000E+01 0.  1.
         11    1    6    6    0    0 -0.81451692787E+01 -0.10745924576E+01  0.97495772671E+01  0.12749619148E+02  0.00000000000E+00 0. -1.
        -12    1    6    6    0    0  0.91903132789E+01  0.11581110689E+03 -0.97975583396E+02  0.15197331765E+03  0.00000000000E+00 0.  1.
</event>
<event>
12    1  0.8258923E-002  0.2379665E+03  0.7818608E-02  0.1121333E+00
         21   -1    0    0  501  502  0.00000000000E+00  0.00000000000E+00  0.35962062185E+03  0.35962062185E+03  0.00000000000E+00 0. -1.
         21   -1    0    0  502  503 -0.00000000000E+00 -0.00000000000E+00 -0.22827710556E+03  0.22827710556E+03  0.00000000000E+00 0.  1.
         -6    2    1    2    0  503  0.16330011073E+03 -0.17141796557E+00 -0.98948434848E+02  0.25674453213E+03  0.17163917522E+03 0.  0.
        -24    2    3    3    0    0  0.14507171732E+03 -0.75200313990E+01 -0.11627893772E+02  0.16711616977E+03  0.81793962163E+02 0.  0.
          6    2    1    2  501    0 -0.16330011073E+03  0.17141796557E+00  0.23029195114E+03  0.33115319528E+03  0.17309275095E+03 0.  0.
         24    2    5    5    0    0 -0.15129078589E+03  0.46993410550E+02  0.13427348762E+03  0.22355134487E+03  0.82755977343E+02 0.  0.
          5    1    5    5  501    0 -0.12009324840E+02 -0.46821992585E+02  0.96018463523E+02  0.10760185040E+03  0.47000000000E+01 0. -1.
        -11    1    6    6    0    0 -0.10134274013E+03  0.76673095331E+01  0.38668704152E+02  0.10874009056E+03  0.00000000000E+00 0.  1.
         12    1    6    6    0    0 -0.49948045760E+02  0.39326101017E+02  0.95604783465E+02  0.11481125432E+03  0.00000000000E+00 0. -1.
         -5    1    3    3    0  503  0.18228393413E+02  0.73486134335E+01 -0.87320541076E+02  0.89628362362E+02  0.47000000000E+01 0.  1.
         11    1    4    4    0    0  0.11601133385E+03 -0.17430766920E+02 -0.41345395715E+02  0.12438610439E+03  0.00000000000E+00 0. -1.
        -12    1    4    4    0    0  0.29060383468E+02  0.99107355214E+01  0.29717501943E+02  0.42730065383E+02  0.00000000000E+00 0.  1.
</event>
<event>
12    1  0.8258923E-002  0.1908119E+03  0.7818608E-02  0.1157909E+00
         21   -1    0    0  503  502  0.00000000000E+00  0.00000000000E+00  0.41384460546E+03  0.41384460546E+03  0.00000000000E+00 0.  1.
         21   -1    0    0  501  503 -0.00000000000E+00 -0.00000000000E+00 -0.90916542534E+02  0.90916542534E+02  0.00000000000E+00 0.  1.
          6    2    1    2  501    0  0.42394815838E+02  0.71975040262E+02  0.11303679758E+03  0.22110018598E+03  0.17067585594E+03 0.  0.
         24    2    3    3    0    0 -0.20792129801E+02 -0.12543173074E+02  0.65119730212E+02  0.10510857494E+03  0.78851692508E+02 0.  0.
         -6    2    1    2    0  502 -0.42394815838E+02 -0.71975040262E+02  0.20989126535E+03  0.28366096202E+03  0.17155602955E+03 0.  0.
        -24    2    5    5    0    0 -0.68434452621E+02 -0.89979075497E+02  0.20967072799E+03  0.25165554677E+03  0.81173836393E+02 0.  0.
          5    1    3    3  501    0  0.63186945639E+02  0.84518213336E+02  0.47917067369E+02  0.11599161103E+03  0.47000000000E+01 0. -1.
        -13    1    4    4    0    0 -0.27298981114E+02 -0.10661707893E+02  0.81914495753E+02  0.86999373559E+02  0.00000000000E+00 0.  1.
         14    1    4    4    0    0  0.65068513123E+01 -0.18814651813E+01 -0.16794765541E+02  0.18109201386E+02  0.00000000000E+00 0. -1.
         -5    1    5    5    0  502  0.26039636783E+02  0.18004035236E+02  0.22053736526E+00  0.32005415249E+02  0.47000000000E+01 0.  1.
         13    1    6    6    0    0 -0.60749663733E+01  0.12015870860E+02  0.52423105827E+02  0.54124563680E+02  0.00000000000E+00 0. -1.
        -14    1    6    6    0    0 -0.62359486247E+02 -0.10199494636E+03  0.15724762216E+03  0.19753098309E+03  0.00000000000E+00 0.  1.
</event>
<event>
12    1  0.8258923E-002  0.2112588E+03  0.7818608E-02  0.1140897E+00
         21   -1    0    0  503  502  0.00000000000E+00  0.00000000000E+00  0.10773365896E+03  0.10773365896E+03  0.00000000000E+00 0. -1.
         21   -1    0    0  501  503 -0.00000000000E+00 -0.00000000000E+00 -0.74434269882E+03  0.74434269882E+03  0.00000000000E+00 0.  1.
          6    2    1    2  501    0 -0.12491366250E+03  0.10285699006E+02 -0.60270196073E+03  0.63811379061E+03  0.16801886089E+03 0.  0.
         24    2    3    3    0    0  0.26522135813E+01  0.61815213525E+01 -0.21744508483E+03  0.23223838184E+03  0.81283796911E+02 0.  0.
         -6    2    1    2    0  502  0.12491366250E+03 -0.10285699006E+02 -0.33907079133E+02  0.21396256717E+03  0.17006196356E+03 0.  0.
        -24    2    5    5    0    0  0.93075814954E+02  0.68140436502E+01 -0.86449248072E+02  0.15001869137E+03  0.79514758055E+02 0.  0.
          5    1    3    3  501    0 -0.12756587608E+03  0.41041776533E+01 -0.38525687590E+03  0.40587540877E+03  0.47000000000E+01 0. -1.
        -11    1    4    4    0    0  0.30704830576E+01 -0.42135978058E+01 -0.22113755564E+03  0.22119900720E+03  0.00000000000E+00 0.  1.
         12    1    4    4    0    0 -0.41826947632E+00  0.10395119158E+02  0.36924708123E+01  0.11039374637E+02  0.00000000000E+00 0. -1.
         -5    1    5    5    0  502  0.31837847545E+02 -0.17099742656E+02  0.52542168939E+02  0.63943875797E+02  0.47000000000E+01 0.  1.
         13    1    6    6    0    0  0.48615043210E+02  0.43253114252E+02 -0.48016588755E+02  0.80869321219E+02  0.00000000000E+00 0. -1.
        -14    1    6    6    0    0  0.44460771744E+02 -0.36439070601E+02 -0.38432659317E+02  0.69149370153E+02  0.00000000000E+00 0.  1.
</event>
<event>
12    1  0.8258923E-002  0.3502746E+03  0.7818608E-02  0.1062828E+00
         21   -1    0    0  503  502  0.00000000000E+00  0.00000000000E+00  0.22458684401E+03  0.22458684401E+03  0.00000000000E+00 0.  1.
         21   -1    0    0  501  503 -0.00000000000E+00 -0.00000000000E+00 -0.71012030462E+03  0.71012030462E+03  0.00000000000E+00 0. -1.
          6    2    1    2  501    0  0.57122137416E+02  0.29913143985E+03 -0.15793831046E+02  0.35063045692E+03  0.17305986054E+03 0.  0.
         24    2    3    3    0    0  0.10132237320E+03  0.26995534387E+03 -0.79295792491E+01  0.29688250927E+03  0.70244110718E+02 0.  0.
         -6    2    1    2    0  502 -0.57122137416E+02 -0.29913143985E+03 -0.46973962956E+03  0.58407669172E+03  0.16657642492E+03 0.  0.
        -24    2    5    5    0    0 -0.26312609826E+02 -0.16875566086E+03 -0.37583268700E+03  0.42040728530E+03  0.79506291613E+02 0.  0.
          5    1    3    3  501    0 -0.44200235782E+02  0.29176095975E+02 -0.78642517967E+01  0.53747947643E+02  0.47000000000E+01 0. -1.
        -11    1    4    4    0    0  0.86360338515E+02  0.20826770825E+03  0.22323752439E+02  0.22656543490E+03  0.00000000000E+00 0.  1.
         12    1    4    4    0    0  0.14962034684E+02  0.61687635618E+02 -0.30253331688E+02  0.70317074372E+02  0.00000000000E+00 0. -1.
         -5    1    5    5    0  502 -0.30809527590E+02 -0.13037577898E+03 -0.93906942566E+02  0.16366940642E+03  0.47000000000E+01 0.  1.
         11    1    6    6    0    0 -0.42766786801E+02 -0.16045130739E+03 -0.30564229841E+03  0.34783736813E+03  0.00000000000E+00 0. -1.
        -12    1    6    6    0    0  0.16454176975E+02 -0.83043534775E+01 -0.70190388589E+02  0.72569917162E+02  0.00000000000E+00 0.  1.
</event>
<event>
12    1  0.8258923E-002  0.2005704E+03  0.7818608E-02  0.1150656E+00
         21   -1    0    0  503  502  0.00000000000E+00  0.00000000000E+00  0.38083222429E+03  0.38083222429E+03  0.00000000000E+00 0. -1.
         21   -1    0    0  501  503 -0.00000000000E+00 -0.00000000000E+00 -0.11476521122E+03  0.11476521122E+03  0.00000000000E+00 0. -1.
          6    2    1    2  501    0 -0.32717827382E+02  0.84225648008E+02  0.49155419227E+02  0.20016704791E+03  0.17171539191E+03 0.  0.
         24    2    3    3    0    0 -0.32922927154E+02 -0.18499890518E+02  0.56042209502E+02  0.97103493671E+02  0.69729435361E+02 0.  0.
         -6    2    1    2    0  502  0.32717827382E+02 -0.84225648008E+02  0.21691159384E+03  0.29543038760E+03  0.17906439725E+03 0.  0.
        -24    2    5    5    0    0  0.40996134130E+02 -0.60884923079E+02  0.23901680072E+03  0.26190353308E+03  0.77953657656E+02 0.  0.
          5    1    3    3  501    0  0.20509977189E+00  0.10272553853E+03 -0.68867902745E+01  0.10306355424E+03  0.47000000000E+01 0. -1.
        -13    1    4    4    0    0 -0.35639306269E+02 -0.22664659896E+02  0.70295409030E+02  0.82007874562E+02  0.00000000000E+00 0.  1.
         14    1    4    4    0    0  0.27163791156E+01  0.41647693779E+01 -0.14253199528E+02  0.15095619108E+02  0.00000000000E+00 0. -1.
         -5    1    5    5    0  502 -0.82783067480E+01 -0.23340724929E+02 -0.22105206877E+02  0.33526854519E+02  0.47000000000E+01 0.  1.
         11    1    6    6    0    0  0.32354366631E+02 -0.31548944733E+01  0.16219303358E+03  0.16541867652E+03  0.00000000000E+00 0. -1.
        -12    1    6    6    0    0  0.86417674983E+01 -0.57730028605E+02  0.76823767138E+02  0.96484856561E+02  0.00000000000E+00 0.  1.
</event>
<event>
12    1  0.8258923E-002  0.1757972E+03  0.7818608E-02  0.1172016E+00
         21   -1    0    0  503  502  0.00000000000E+00  0.00000000000E+00  0.20721420281E+03  0.20721420281E+03  0.00000000000E+00 0. -1.
         21   -1    0    0  501  503 -0.00000000000E+00 -0.00000000000E+00 -0.26868185106E+03  0.26868185106E+03  0.00000000000E+00 0. -1.
          6    2    1    2  501    0 -0.26001824049E+02  0.22746963815E+02 -0.18965080546E+03  0.25859639405E+03  0.17236921938E+03 0.  0.
         24    2    3    3    0    0  0.40235121431E+02 -0.28887627406E+02 -0.76698324436E+02  0.11776380930E+03  0.74379579166E+02 0.  0.
         -6    2    1    2    0  502  0.26001824049E+02 -0.22746963815E+02  0.12818315722E+03  0.21729965982E+03  0.17203110517E+03 0.  0.
        -24    2    5    5    0    0  0.78514804584E+02  0.10631169581E+02  0.73716268056E+02  0.13447185694E+03  0.79818518076E+02 0.  0.
          5    1    3    3  501    0 -0.66236945480E+02  0.51634591221E+02 -0.11295248103E+03  0.14083258475E+03  0.47000000000E+01 0. -1.
        -11    1    4    4    0    0 -0.25796073321E+01  0.17859583965E+02  0.27591525920E+00  0.18047028637E+02  0.00000000000E+00 0.  1.
         12    1    4    4    0    0  0.42814728763E+02 -0.46747211371E+02 -0.76974239695E+02  0.99716780667E+02  0.00000000000E+00 0. -1.
         -5    1    5    5    0  502 -0.52512980536E+02 -0.33378133397E+02  0.54466889165E+02  0.82827802875E+02  0.47000000000E+01 0.  1.
         11    1    6    6    0    0  0.25907681221E+02 -0.34501088500E+02  0.27580772806E+02  0.51207734596E+02  0.00000000000E+00 0. -1.
        -12    1    6    6    0    0  0.52607123364E+02  0.45132258081E+02  0.46135495250E+02  0.83264122346E+02  0.00000000000E+00 0.  1.
</event>
<event>
12    1  0.8258923E-002  0.2302166E+03  0.7818608E-02  0.1127392E+00
         21   -1    0    0  501  502  0.00000000000E+00  0.00000000000E+00  0.80370390389E+02  0.80370390389E+02  0.00000000000E+00 0.  1.
         21   -1    0    0  502  503 -0.00000000000E+00 -0.00000000000E+00 -0.64771198729E+03  0.64771198729E+03  0.00000000000E+00 0. -1.
         -6    2    1    2    0  503  0.12790759918E+03 -0.68103410542E+02 -0.30427855469E+03  0.37850853803E+03  0.17229290775E+03 0.  0.
        -24    2    3    3    0    0  0.10020459638E+03 -0.37893460733E+02 -0.31060973670E+03  0.33676801459E+03  0.73874296057E+02 0.  0.
          6    2    1    2  501    0 -0.12790759918E+03  0.68103410542E+02 -0.26306304220E+03  0.34957383964E+03  0.17888900674E+03 0.  0.
         24    2    5    5    0    0 -0.10858176188E+03 -0.21729878117E+02 -0.18054576552E+03  0.22598298768E+03  0.78799433092E+02 0.  0.
          5    1    5    5  501    0 -0.19325837304E+02  0.89833288659E+02 -0.82517276681E+02  0.12359085197E+03  0.47000000000E+01 0. -1.
        -13    1    6    6    0    0 -0.17160642263E+02  0.27234079014E+02 -0.44078784909E+02  0.54581333637E+02  0.00000000000E+00 0.  1.
         14    1    6    6    0    0 -0.91421119613E+02 -0.48963957131E+02 -0.13646698061E+03  0.17140165404E+03  0.00000000000E+00 0. -1.
         -5    1    3    3    0  503  0.27703002799E+02 -0.30209949808E+02  0.63311820063E+01  0.41740523441E+02  0.47000000000E+01 0.  1.
         11    1    4    4    0    0 -0.65855601482E+01  0.29911232936E+01 -0.17807751171E+01  0.74489986603E+01  0.00000000000E+00 0. -1.
        -12    1    4    4    0    0  0.10679015653E+03 -0.40884584027E+02 -0.30882896158E+03  0.32931901593E+03  0.00000000000E+00 0.  1.
</event>
<event>
12    1  0.8258923E-002  0.2034778E+03  0.7818608E-02  0.1146863E+00
         21   -1    0    0  501  502  0.00000000000E+00  0.00000000000E+00  0.16012203659E+03  0.16012203659E+03  0.00000000000E+00 0.  1.
         21   -1    0    0  502  503 -0.00000000000E+00 -0.00000000000E+00 -0.27092487687E+03  0.27092487687E+03  0.00000000000E+00 0.  1.
         -6    2    1    2    0  503 -0.62382024552E+02  0.88391156728E+02 -0.91018711754E+01  0.20368123731E+03  0.17233307517E+03 0.  0.
        -24    2    3    3    0    0 -0.58631857661E+02  0.12855932058E+03 -0.15458185744E+01  0.16236865969E+03  0.79974986421E+02 0.  0.
          6    2    1    2  501    0  0.62382024552E+02 -0.88391156728E+02 -0.10170096910E+03  0.22736567615E+03  0.17218463927E+03 0.  0.
         24    2    5    5    0    0  0.10793549348E+03 -0.50211584911E+02 -0.65609868197E+02  0.15767022580E+03  0.79899757742E+02 0.  0.
          5    1    5    5  501    0 -0.45553468928E+02 -0.38179571817E+02 -0.36091100898E+02  0.69695450350E+02  0.47000000000E+01 0. -1.
        -11    1    6    6    0    0  0.84084332574E+02 -0.53113632230E+02 -0.13602077694E+02  0.10038052316E+03  0.00000000000E+00 0.  1.
         12    1    6    6    0    0  0.23851160905E+02  0.29020473190E+01 -0.52007790503E+02  0.57289702637E+02  0.00000000000E+00 0. -1.
         -5    1    3    3    0  503 -0.37501668909E+01 -0.40168163851E+02 -0.75560526010E+01  0.41312577622E+02  0.47000000000E+01 0.  1.
         11    1    4    4    0    0 -0.10159212346E+02  0.27981726043E+02  0.34007082088E+02  0.45195887202E+02  0.00000000000E+00 0. -1.
        -12    1    4    4    0    0 -0.48472645314E+02  0.10057759454E+03 -0.35552900662E+02  0.11717277249E+03  0.00000000000E+00 0.  1.
</event>
<event>
12    1  0.8258923E-002  0.1993365E+03  0.7818608E-02  0.1150540E+00
         21   -1    0    0  501  502  0.00000000000E+00  0.00000000000E+00  0.12884799280E+03  0.12884799280E+03  0.00000000000E+00 0. -1.
         21   -1    0    0  502  503 -0.00000000000E+00 -0.00000000000E+00 -0.38249423621E+03  0.38249423621E+03  0.00000000000E+00 0. -1.
         -6    2    1    2    0  503  0.66001202924E+02  0.73766327147E+02 -0.24039093593E+03  0.31156546653E+03  0.17171956223E+03 0.  0.
        -24    2    3    3    0    0  0.88069931692E+02  0.32377935898E+02 -0.23227049656E+03  0.26373180417E+03  0.82463551677E+02 0.  0.
          6    2    1    2  501    0 -0.66001202924E+02 -0.73766327147E+02 -0.13255307476E+02  0.19977676248E+03  0.17302433888E+03 0.  0.
         24    2    5    5    0    0  0.19134983334E+02  0.58493573259E+01 -0.85637314980E+00  0.82462436856E+02  0.79993484415E+02 0.  0.
          5    1    5    5  501    0 -0.85136186258E+02 -0.79615684473E+02 -0.12398934326E+02  0.11731432563E+03  0.47000000000E+01 0. -1.
        -13    1    6    6    0    0 -0.16423726826E+02 -0.97122324383E+01 -0.28862159301E+02  0.34598995669E+02  0.00000000000E+00 0.  1.
         14    1    6    6    0    0  0.35558710161E+02  0.15561589764E+02  0.28005786151E+02  0.47863441187E+02  0.00000000000E+00 0. -1.
         -5    1    3    3    0  503 -0.22068728768E+02  0.41388391249E+02 -0.81204393647E+01  0.47833662363E+02  0.47000000000E+01 0.  1.
         13    1    4    4    0    0  0.45073966777E+02 -0.12256064624E+02 -0.39268750372E+02  0.61023834335E+02  0.00000000000E+00 0. -1.
        -14    1    4    4    0    0  0.42995964915E+02  0.44634000522E+02 -0.19300174619E+03  0.20270796983E+03  0.00000000000E+00 0.  1.
</event>
<event>
12    1  0.8258923E-002  0.1900070E+03  0.7818608E-02  0.1158487E+00
         21   -1    0    0  503  502  0.00000000000E+00  0.00000000000E+00  0.12034220087E+03  0.12034220087E+03  0.00000000000E+00 0. -1.
         21   -1    0    0  501  503 -0.00000000000E+00 -0.00000000000E+00 -0.61026712353E+03  0.61026712353E+03  0.00000000000E+00 0. -1.
          6    2    1    2  501    0 -0.78964931142E+02 -0.15512247946E+02  0.15649453278E+02  0.19050921625E+03  0.17196733963E+03 0.  0.
         24    2    3    3    0    0 -0.63347876932E+02 -0.13318950838E+02 -0.55133049642E+02  0.11783903217E+03  0.81584535156E+02 0.  0.
         -6    2    1    2    0  502  0.78964931142E+02  0.15512247946E+02 -0.50557437594E+03  0.54010010815E+03  0.17212375498E+03 0.  0.
        -24    2    5    5    0    0  0.21431233757E+02  0.47524742075E+02 -0.14457691423E+03  0.17311756977E+03  0.79682557340E+02 0.  0.
          5    1    3    3  501    0 -0.15617054210E+02 -0.21932971079E+01  0.70782502919E+02  0.72670184078E+02  0.47000000000E+01 0. -1.
        -11    1    4    4    0    0  0.86651459819E+01  0.22213110780E+02 -0.12448659780E+02  0.26897512445E+02  0.00000000000E+00 0.  1.
         12    1    4    4    0    0 -0.72013022914E+02 -0.35532061618E+02 -0.42684389861E+02  0.90941519725E+02  0.00000000000E+00 0. -1.
         -5    1    5    5    0  502  0.57533697385E+02 -0.32012494129E+02 -0.36099746171E+03  0.36698253838E+03  0.47000000000E+01 0.  1.
         13    1    6    6    0    0 -0.25636954400E+02  0.39116377199E+02 -0.81515363524E+02  0.93979247106E+02  0.00000000000E+00 0. -1.
        -14    1    6    6    0    0  0.47068188157E+02  0.84083648761E+01 -0.63061550704E+02  0.79138322660E+02  0.00000000000E+00 0.  1.
</event>
<event>
12    1  0.8258923E-002  0.1805750E+03  0.7818608E-02  0.1167994E+00
         21   -1    0    0  501  502  0.00000000000E+00  0.00000000000E+00  0.14850922418E+02  0.14850922418E+02  0.00000000000E+00 0. -1.
         21   -1    0    0  502  503 -0.00000000000E+00 -0.00000000000E+00 -0.21844634705E+04  0.21844634705E+04  0.00000000000E+00 0. -1.
         -6    2    1    2    0  503  0.42284483529E+02  0.35038655422E+02 -0.97408195960E+03  0.99067804556E+03  0.17202221079E+03 0.  0.
        -24    2    3    3    0    0  0.90575497718E+02  0.45984298590E+02 -0.69001890396E+03  0.70229333942E+03  0.82288336125E+02 0.  0.
          6    2    1    2  501    0 -0.42284483529E+02 -0.35038655422E+02 -0.11955305885E+04  0.12086363474E+04  0.16879794800E+03 0.  0.
         24    2    5    5    0    0  0.15373887473E+01  0.16166718481E+02 -0.97008260776E+03  0.97328293477E+03  0.77173045102E+02 0.  0.
          5    1    5    5  501    0 -0.43821872277E+02 -0.51205373902E+02 -0.22544798074E+03  0.23535341261E+03  0.47000000000E+01 0. -1.
        -13    1    6    6    0    0  0.43328237812E+01 -0.76562753767E-01 -0.92910094262E+03  0.92911104869E+03  0.00000000000E+00 0.  1.
         14    1    6    6    0    0 -0.27954350339E+01  0.16243281234E+02 -0.40981665142E+02  0.44171886082E+02  0.00000000000E+00 0. -1.
         -5    1    3    3    0  503 -0.48291014188E+02 -0.10945643168E+02 -0.28406305564E+03  0.28838470614E+03  0.47000000000E+01 0.  1.
         13    1    4    4    0    0  0.34796989975E+01  0.27531087515E+02 -0.33995527308E+03  0.34108599616E+03  0.00000000000E+00 0. -1.
        -14    1    4    4    0    0  0.87095798720E+02  0.18453211075E+02 -0.35006363089E+03  0.36120734326E+03  0.00000000000E+00 0.  1.
</event>
<event>
12    1  0.8258923E-002  0.2244766E+03  0.7818608E-02  0.1130797E+00
         21   -1    0    0  503  502  0.00000000000E+00  0.00000000000E+00  0.16252478096E+03  0.16252478096E+03  0.00000000000E+00 0. -1.
         21   -1    0    0  501  503 -0.00000000000E+00 -0.00000000000E+00 -0.38938736863E+03  0.38938736863E+03  0.00000000000E+00 0.  1.
          6    2    1    2  501    0 -0.23224081432E+02 -0.14298410049E+03 -0.23945741925E+03  0.32822189088E+03  0.17148161147E+03 0.  0.
         24    2    3    3    0    0  0.96921246512E+01 -0.61807323133E-01 -0.12441058125E+03  0.14175976755E+03  0.67259927655E+02 0.  0.
         -6    2    1    2    0  502  0.23224081432E+02  0.14298410049E+03  0.12594831570E+02  0.22369025871E+03  0.16998497319E+03 0.  0.
        -24    2    5    5    0    0  0.49166953101E+02  0.16294282922E+03  0.30305967429E+01  0.18926718460E+03  0.82735287391E+02 0.  0.
          5    1    3    3  501    0 -0.32916206083E+02 -0.14292229316E+03 -0.11504683800E+03  0.18646212334E+03  0.47000000000E+01 0. -1.
        -13    1    4    4    0    0  0.27234096879E+02 -0.24426805782E+02 -0.54109019243E+02  0.65315777856E+02  0.00000000000E+00 0.  1.
         14    1    4    4    0    0 -0.17541972228E+02  0.24364998458E+02 -0.70301562006E+02  0.76443989692E+02  0.00000000000E+00 0. -1.
         -5    1    5    5    0  502 -0.25942871669E+02 -0.19958728734E+02  0.95642348267E+01  0.34423074106E+02  0.47000000000E+01 0.  1.
         11    1    6    6    0    0  0.46096802459E+02  0.12953688043E+03 -0.31571827606E+02  0.14107267236E+03  0.00000000000E+00 0. -1.
        -12    1    6    6    0    0  0.30701506417E+01  0.33405948787E+02  0.34602424348E+02  0.48194512241E+02  0.00000000000E+00 0.  1.
</event>
<event>
12    1  0.8258923E-002  0.2867729E+03  0.7818608E-02  0.1092152E+00
         21   -1    0    0  501  502  0.00000000000E+00  0.00000000000E+00  0.83192943853E+03  0.83192943853E+03  0.00000000000E+00 0. -1.
         21   -1    0    0  502  503 -0.00000000000E+00 -0.00000000000E+00 -0.13345884485E+03  0.13345884485E+03  0.00000000000E+00 0.  1.
         -6    2    1    2    0  503  0.22750432539E+03  0.33187156796E+02  0.10282820346E+03  0.30465116193E+03  0.17140328348E+03 0.  0.
        -24    2    3    3    0    0  0.14388974910E+03  0.85140330150E+02  0.47196319684E+02  0.19148082093E+03  0.80525005280E+02 0.  0.
          6    2    1    2  501    0 -0.22750432539E+03 -0.33187156796E+02  0.59564239021E+03  0.66073712146E+03  0.17007081232E+03 0.  0.
         24    2    5    5    0    0 -0.24317162907E+03 -0.50759605036E+02  0.54212909216E+03  0.60208545132E+03  0.83029870731E+02 0.  0.
          5    1    5    5  501    0  0.15667303677E+02  0.17572448240E+02  0.53513298049E+02  0.58651670136E+02  0.47000000000E+01 0. -1.
        -13    1    6    6    0    0 -0.11524457766E+03 -0.27240068176E+02  0.35469239864E+03  0.37393853994E+03  0.00000000000E+00 0.  1.
         14    1    6    6    0    0 -0.12792705141E+03 -0.23519536859E+02  0.18743669352E+03  0.22814691138E+03  0.00000000000E+00 0. -1.
         -5    1    3    3    0  503  0.83614576288E+02 -0.51953173354E+02  0.55631883777E+02  0.11317034100E+03  0.47000000000E+01 0.  1.
         13    1    4    4    0    0  0.14168385023E+03  0.49890231995E+02  0.39825789313E+02  0.15540090785E+03  0.00000000000E+00 0. -1.
        -14    1    4    4    0    0  0.22058988707E+01  0.35250098154E+02  0.73705303707E+01  0.36079913077E+02  0.00000000000E+00 0.  1.
</event>
<event>
12    1  0.8258923E-002  0.1947428E+03  0.7818608E-02  0.1154347E+00
         21   -1    0    0  503  502  0.00000000000E+00  0.00000000000E+00  0.73618397167E+02  0.73618397167E+02  0.00000000000E+00 0.  1.
         21   -1    0    0  501  503 -0.00000000000E+00 -0.00000000000E+00 -0.57974168106E+03  0.57974168106E+03  0.00000000000E+00 0.  1.
          6    2    1    2  501    0 -0.82444745711E+02  0.37287255499E+02 -0.36281695903E+03  0.41157199533E+03  0.17195315076E+03 0.  0.
         24    2    3    3    0    0 -0.36817240871E+02 -0.46740863053E+02 -0.18654515929E+03  0.21098178796E+03  0.78574810808E+02 0.  0.
         -6    2    1    2    0  502  0.82444745711E+02 -0.37287255499E+02 -0.14330632485E+03  0.24178808289E+03  0.17244506015E+03 0.  0.
        -24    2    5    5    0    0  0.72187064618E+02 -0.82726872488E+02 -0.13591924866E+03  0.19438937291E+03  0.85196704244E+02 0.  0.
          5    1    3    3  501    0 -0.45627504840E+02  0.84028118552E+02 -0.17627179974E+03  0.20059020736E+03  0.47000000000E+01 0. -1.
        -13    1    4    4    0    0 -0.36956515721E+02  0.68737165352E+01 -0.39783619289E+02  0.54733613045E+02  0.00000000000E+00 0.  1.
         14    1    4    4    0    0  0.13927484996E+00 -0.53614579588E+02 -0.14676154000E+03  0.15624817492E+03  0.00000000000E+00 0. -1.
         -5    1    5    5    0  502  0.10257681092E+02  0.45439616989E+02 -0.73870761933E+01  0.47398709984E+02  0.47000000000E+01 0.  1.
         11    1    6    6    0    0  0.34544001671E+02 -0.20209873048E+02 -0.10982368544E+03  0.11688870306E+03  0.00000000000E+00 0. -1.
        -12    1    6    6    0    0  0.37643062947E+02 -0.62516999440E+02 -0.26095563221E+02  0.77500669847E+02  0.00000000000E+00 0.  1.
</event>
<event>
12    1  0.8258923E-002  0.2229694E+03  0.7818608E-02  0.1131714E+00
         21   -1    0    0  503  502  0.00000000000E+00  0.00000000000E+00  0.49117958902E+03  0.49117958902E+03  0.00000000000E+00 0.  1.
         21   -1    0    0  501  503 -0.00000000000E+00 -0.00000000000E+00 -0.10297125982E+03  0.10297125982E+03  0.00000000000E+00 0. -1.
          6    2    1    2  501    0  0.96656315337E+02 -0.10398749668E+03  0.23363433264E+03  0.32295564218E+03  0.17192877207E+03 0.  0.
         24    2    3    3    0    0  0.45098604770E+02 -0.25706843515E+02  0.39874961581E+02  0.10766318515E+03  0.85478786377E+02 0.  0.
         -6    2    1    2    0  502 -0.96656315337E+02  0.10398749668E+03  0.15457399657E+03  0.27119520666E+03  0.17174945980E+03 0.  0.
        -24    2    5    5    0    0 -0.24876214940E+02  0.63989396547E+02  0.15453645075E+03  0.18888893572E+03  0.84166777797E+02 0.  0.
          5    1    3    3  501    0  0.51557710567E+02 -0.78280653164E+02  0.19375937106E+03  0.21529245702E+03  0.47000000000E+01 0. -1.
        -11    1    4    4    0    0 -0.86499598904E+01  0.13369198190E+02  0.37981530272E+02  0.41184389131E+02  0.00000000000E+00 0.  1.
         12    1    4    4    0    0  0.53748564661E+02 -0.39076041705E+02  0.18934313090E+01  0.66478796022E+02  0.00000000000E+00 0. -1.
         -5    1    5    5    0  502 -0.71780100397E+02  0.39998100132E+02  0.37545817397E-01  0.82306270945E+02  0.47000000000E+01 0.  1.
         13    1    6    6    0    0 -0.84659600665E+01  0.15299630914E+02 -0.74070536315E+01  0.18989882292E+02  0.00000000000E+00 0. -1.
        -14    1    6    6    0    0 -0.16410254874E+02  0.48689765632E+02  0.16194350438E+03  0.16989905342E+03  0.00000000000E+00 0.  1.
</event>
<event>
12    1  0.8258923E-002  0.2291637E+03  0.7818608E-02  0.1127494E+00
         21   -1    0    0  501  502  0.00000000000E+00  0.00000000000E+00  0.90962116819E+03  0.90962116819E+03  0.00000000000E+00 0.  1.
         21   -1    0    0  502  503 -0.00000000000E+00 -0.00000000000E+00 -0.36892095283E+03  0.36892095283E+03  0.00000000000E+00 0.  1.
         -6    2    1    2    0  503  0.13486439457E+03 -0.63189303255E+02 -0.31726227547E+03  0.39050178996E+03  0.17220628198E+03 0.  0.
        -24    2    3    3    0    0  0.61570814668E+02  0.28251558666E+02 -0.10659105651E+03  0.14938390886E+03  0.79779590830E+02 0.  0.
          6    2    1    2  501    0 -0.13486439457E+03  0.63189303255E+02  0.85796249084E+03  0.88804033107E+03  0.17416859921E+03 0.  0.
         24    2    5    5    0    0 -0.53203218288E+02  0.95073286209E+02  0.41299800800E+03  0.43449803198E+03  0.79697383836E+02 0.  0.
          5    1    5    5  501    0 -0.81661176282E+02 -0.31883982955E+02  0.44496448284E+03  0.45354229909E+03  0.47000000000E+01 0. -1.
        -13    1    6    6    0    0 -0.44536367132E+02  0.10647836301E+03  0.39487865079E+03  0.41140038725E+03  0.00000000000E+00 0.  1.
         14    1    6    6    0    0 -0.86668511555E+01 -0.11405076800E+02  0.18119357216E+02  0.23097644721E+02  0.00000000000E+00 0. -1.
         -5    1    3    3    0  503  0.73293579902E+02 -0.91440861921E+02 -0.21067121897E+03  0.24111788110E+03  0.47000000000E+01 0.  1.
         13    1    4    4    0    0 -0.17688429111E+02  0.12151503435E+02 -0.36592563233E+02  0.42421165049E+02  0.00000000000E+00 0. -1.
        -14    1    4    4    0    0  0.79259243779E+02  0.16100055231E+02 -0.69998493275E+02  0.10696274381E+03  0.00000000000E+00 0.  1.
</event>
<event>
12    1  0.8258923E-002  0.1858037E+03  0.7818608E-02  0.1162538E+00
         21   -1    0    0  503  502  0.00000000000E+00  0.00000000000E+00  0.12540937205E+04  0.12540937205E+04  0.00000000000E+00 0. -1.
         21   -1    0    0  501  503 -0.00000000000E+00 -0.00000000000E+00 -0.27759710413E+02  0.27759710413E+02  0.00000000000E+00 0. -1.
          6    2    1    2  501    0 -0.46692087657E+02 -0.49216593033E+02  0.68668654872E+03  0.71111496025E+03  0.17188265308E+03 0.  0.
         24    2    3    3    0    0 -0.72384050230E+02 -0.24784811181E+02  0.65203385355E+03  0.66131648449E+03  0.79609100620E+02 0.  0.
         -6    2    1    2    0  502  0.46692087657E+02  0.49216593033E+02  0.53964746135E+03  0.57073847064E+03  0.17297570710E+03 0.  0.
        -24    2    5    5    0    0 -0.24199025755E+02  0.57120273978E+02  0.19825544193E+03  0.22194251445E+03  0.78134121335E+02 0.  0.
          5    1    3    3  501    0  0.25691962573E+02 -0.24431781853E+02  0.34652695171E+02  0.49798475759E+02  0.47000000000E+01 0. -1.
        -11    1    4    4    0    0  0.10741730018E+02  0.27048230728E+01  0.17098195586E+02  0.20372754451E+02  0.00000000000E+00 0.  1.
         12    1    4    4    0    0 -0.83125780247E+02 -0.27489634253E+02  0.63493565796E+03  0.64094373004E+03  0.00000000000E+00 0. -1.
         -5    1    5    5    0  502  0.70891113412E+02 -0.79036809450E+01  0.34139201941E+03  0.34879595619E+03  0.47000000000E+01 0.  1.
         11    1    6    6    0    0 -0.15479178225E+02 -0.12132588345E+02  0.12003358704E+02  0.23040947868E+02  0.00000000000E+00 0. -1.
        -12    1    6    6    0    0 -0.87198475300E+01  0.69252862324E+02  0.18625208323E+03  0.19890156658E+03  0.00000000000E+00 0.  1.
</event>
<event>
12    1  0.8258923E-002  0.2116499E+03  0.7818608E-02  0.1140379E+00
         21   -1    0    0  501  502  0.00000000000E+00  0.00000000000E+00  0.26340920301E+04  0.26340920301E+04  0.00000000000E+00 0.  1.
         21   -1    0    0  502  503 -0.00000000000E+00 -0.00000000000E+00 -0.39817400761E+02  0.39817400761E+02  0.00000000000E+00 0.  1.
         -6    2    1    2    0  503  0.11018951321E+03  0.54585589139E+02  0.28492346961E+03  0.35493245514E+03  0.17226244169E+03 0.  0.
        -24    2    3    3    0    0  0.79414163706E+02  0.80926868589E+02  0.28207357723E+03  0.31405217840E+03  0.78787691499E+02 0.  0.
          6    2    1    2  501    0 -0.11018951321E+03 -0.54585589139E+02  0.23093511597E+04  0.23189769757E+04  0.17155209004E+03 0.  0.
         24    2    5    5    0    0 -0.48523146427E+02 -0.91126505371E+01  0.19037724721E+04  0.19061977480E+04  0.82478439571E+02 0.  0.
          5    1    5    5  501    0 -0.61666366781E+02 -0.45472938601E+02  0.40557868768E+03  0.41277922772E+03  0.47000000000E+01 0. -1.
        -13    1    6    6    0    0  0.14290185293E+02  0.21289221918E+02  0.41583993664E+03  0.41662968362E+03  0.00000000000E+00 0.  1.
         14    1    6    6    0    0 -0.62813331720E+02 -0.30401872455E+02  0.14879325354E+04  0.14895680644E+04  0.00000000000E+00 0. -1.
         -5    1    3    3    0  503  0.30775349501E+02 -0.26341279450E+02  0.28498923816E+01  0.40880276743E+02  0.47000000000E+01 0.  1.
         13    1    4    4    0    0  0.85374118539E+02  0.37048571030E+02  0.17560363386E+03  0.19874096950E+03  0.00000000000E+00 0. -1.
        -14    1    4    4    0    0 -0.59599548332E+01  0.43878297559E+02  0.10646994336E+03  0.11531120890E+03  0.00000000000E+00 0.  1.
</event>
<event>
12    1  0.8258923E-002  0.1879393E+03  0.7818608E-02  0.1160532E+00
         21   -1    0    0  503  502  0.00000000000E+00  0.00000000000E+00  0.56992044539E+03  0.56992044539E+03  0.00000000000E+00 0.  1.
         21   -1    0    0  501  503 -0.00000000000E+00 -0.00000000000E+00 -0.12881568873E+03  0.12881568873E+03  0.00000000000E+00 0. -1.
          6    2    1    2  501    0 -0.68228840439E+02 -0.32780434233E+02 -0.31891000138E+02  0.18977035892E+03  0.17107314722E+03 0.  0.
         24    2    3    3    0    0 -0.16427234083E+02 -0.12645264411E+02 -0.80769032712E+02  0.11560848494E+03  0.80074517874E+02 0.  0.
         -6    2    1    2    0  502  0.68228840439E+02  0.32780434233E+02  0.47299575680E+03  0.50896577520E+03  0.17202163481E+03 0.  0.
        -24    2    5    5    0    0  0.45278511823E+01 -0.34876243771E+02  0.29760090865E+03  0.31041934520E+03  0.80975398905E+02 0.  0.
          5    1    3    3  501    0 -0.51801606356E+02 -0.20135169822E+02  0.48878032574E+02  0.74161873986E+02  0.47000000000E+01 0. -1.
        -11    1    4    4    0    0 -0.19649916060E+02  0.26833683685E+02 -0.10382556691E+02  0.34841975614E+02  0.00000000000E+00 0.  1.
         12    1    4    4    0    0  0.32226819765E+01 -0.39478948095E+02 -0.70386476020E+02  0.80766509324E+02  0.00000000000E+00 0. -1.
         -5    1    5    5    0  502  0.63700989257E+02  0.67656678004E+02  0.17539484815E+03  0.19854643000E+03  0.47000000000E+01 0.  1.
         11    1    6    6    0    0 -0.33964875785E+02 -0.12100029934E+02  0.73124044248E+02  0.81530051875E+02  0.00000000000E+00 0. -1.
        -12    1    6    6    0    0  0.38492726968E+02 -0.22776213836E+02  0.22447686440E+03  0.22888929332E+03  0.00000000000E+00 0.  1.
</event>
<event>
12    1  0.8258923E-002  0.2509435E+03  0.7818608E-02  0.1112841E+00
         21   -1    0    0  501  502  0.00000000000E+00  0.00000000000E+00  0.16461647193E+03  0.16461647193E+03  0.00000000000E+00 0. -1.
         21   -1    0    0  502  503 -0.00000000000E+00 -0.00000000000E+00 -0.39389480930E+03  0.39389480930E+03  0.00000000000E+00 0.  1.
         -6    2    1    2    0  503  0.16820683477E+03  0.69053029290E+02 -0.16443720747E+03  0.29932602615E+03  0.17173996218E+03 0.  0.
        -24    2    3    3    0    0  0.16097818009E+03  0.10789284849E+03 -0.12443826262E+03  0.24290979982E+03  0.77236315435E+02 0.  0.
          6    2    1    2  501    0 -0.16820683477E+03 -0.69053029290E+02 -0.64841129896E+02  0.25918525508E+03  0.17294728736E+03 0.  0.
         24    2    5    5    0    0 -0.15353653065E+03 -0.55127510071E+01 -0.81710576308E+02  0.19166301422E+03  0.80338260336E+02 0.  0.
          5    1    5    5  501    0 -0.14670304125E+02 -0.63540278283E+02  0.16869446412E+02  0.67522240852E+02  0.47000000000E+01 0. -1.
        -11    1    6    6    0    0 -0.26198509034E+02  0.23043198290E+02  0.46145014447E+01  0.35194381464E+02  0.00000000000E+00 0.  1.
         12    1    6    6    0    0 -0.12733802161E+03 -0.28555949297E+02 -0.86325077753E+02  0.15646863276E+03  0.00000000000E+00 0. -1.
         -5    1    3    3    0  503  0.72286546813E+01 -0.38839819204E+02 -0.39998944848E+02  0.56416226330E+02  0.47000000000E+01 0.  1.
         13    1    4    4    0    0  0.13408320129E+02  0.29069325934E+02  0.36287945320E+01  0.32217649025E+02  0.00000000000E+00 0. -1.
        -14    1    4    4    0    0  0.14756985996E+03  0.78823522561E+02 -0.12806705716E+03  0.21069215079E+03  0.00000000000E+00 0.  1.
</event>
<event>
12    1  0.8258923E-002  0.2853738E+03  0.7818608E-02  0.1092829E+00
         21   -1    0    0  503  502  0.00000000000E+00  0.00000000000E+00  0.38608420137E+03  0.38608420137E+03  0.00000000000E+00 0. -1.
         21   -1    0    0  501  503 -0.00000000000E+00 -0.00000000000E+00 -0.27010791026E+03  0.27010791026E+03  0.00000000000E+00 0.  1.
          6    2    1    2  501    0  0.35042230676E+02  0.22497942107E+03 -0.95841855297E+02  0.30103796866E+03  0.17203051913E+03 0.  0.
         24    2    3    3    0    0 -0.34097344855E+02  0.88630531614E+02 -0.80829156600E+02  0.14735396923E+03  0.78497386133E+02 0.  0.
         -6    2    1    2    0  502 -0.35042230676E+02 -0.22497942107E+03  0.21181814640E+03  0.35515414296E+03  0.17153378759E+03 0.  0.
        -24    2    5    5    0    0 -0.31526887623E+02 -0.19087410607E+03  0.23402192066E+03  0.31403689914E+03  0.80162620091E+02 0.  0.
          5    1    3    3  501    0  0.69139575531E+02  0.13634888946E+03 -0.15012698698E+02  0.15368399944E+03  0.47000000000E+01 0. -1.
        -13    1    4    4    0    0 -0.33013614914E+01  0.21659257115E+02 -0.69380452564E+02  0.72757608567E+02  0.00000000000E+00 0.  1.
         14    1    4    4    0    0 -0.30795983363E+02  0.66971274500E+02 -0.11448704036E+02  0.74596360659E+02  0.00000000000E+00 0. -1.
         -5    1    5    5    0  502 -0.35153430539E+01 -0.34105315000E+02 -0.22203774264E+02  0.41117243822E+02  0.47000000000E+01 0.  1.
         11    1    6    6    0    0  0.24596393328E+02 -0.28929299093E+02  0.39978783616E+02  0.55137918443E+02  0.00000000000E+00 0. -1.
        -12    1    6    6    0    0 -0.56123280950E+02 -0.16194480698E+03  0.19404313705E+03  0.25889898070E+03  0.00000000000E+00 0.  1.
</event>
<event>
12    1  0.8258923E-002  0.2089903E+03  0.7818608E-02  0.1142749E+00
         21   -1    0    0  501  502  0.00000000000E+00  0.00000000000E+00  0.14677265788E+04  0.14677265788E+04  0.00000000000E+00 0.  1.
         21   -1    0    0  502  503 -0.00000000000E+00 -0.00000000000E+00 -0.16571900080E+03  0.16571900080E+03  0.00000000000E+00 0.  1.
         -6    2    1    2    0  503 -0.11541324346E+03 -0.24376914285E+02 -0.88967853587E+02  0.22713924209E+03  0.17251813125E+03 0.  0.
        -24    2    3    3    0    0 -0.15065071034E+03 -0.25292368884E+02 -0.65555813681E+02  0.18456306634E+03  0.80191148499E+02 0.  0.
          6    2    1    2  501    0  0.11541324346E+03  0.24376914285E+02  0.13909754316E+04  0.14063063375E+04  0.17020697084E+03 0.  0.
         24    2    5    5    0    0  0.10032476573E+03  0.71445532101E+02  0.83532982504E+03  0.84844681485E+03  0.83165848502E+02 0.  0.
          5    1    5    5  501    0  0.15088477736E+02 -0.47068617817E+02  0.55564560655E+03  0.55785952266E+03  0.47000000000E+01 0. -1.
        -13    1    6    6    0    0  0.98700050217E+02  0.34969849179E+02  0.48242557814E+03  0.49365881812E+03  0.00000000000E+00 0.  1.
         14    1    6    6    0    0  0.16247155092E+01  0.36475682922E+02  0.35290424691E+03  0.35478799674E+03  0.00000000000E+00 0. -1.
         -5    1    3    3    0  503  0.35237466882E+02  0.91545459967E+00 -0.23412039907E+02  0.42576175756E+02  0.47000000000E+01 0.  1.
         13    1    4    4    0    0  0.20593429301E+01 -0.18001619691E+02  0.24355816652E+00  0.18120665699E+02  0.00000000000E+00 0. -1.
        -14    1    4    4    0    0 -0.15271005327E+03 -0.72907491934E+01 -0.65799371847E+02  0.16644240064E+03  0.00000000000E+00 0.  1.
</event>
<event>
12    1  0.8258923E-002  0.2428508E+03  0.7818608E-02  0.1117997E+00
         21   -1    0    0  503  502  0.00000000000E+00  0.00000000000E+00  0.17526006380E+03  0.17526006380E+03  0.00000000000E+00 0. -1.
         21   -1    0    0  501  503 -0.00000000000E+00 -0.00000000000E+00 -0.42983898099E+03  0.42983898099E+03  0.00000000000E+00 0. -1.
          6    2    1    2  501    0  0.14860101885E+03 -0.78543555596E+02 -0.26894591833E+03  0.36236505457E+03  0.17528597451E+03 0.  0.
         24    2    3    3    0    0  0.16216965235E+03 -0.39974791867E+02 -0.15086068141E+03  0.23731358305E+03  0.75245008984E+02 0.  0.
         -6    2    1    2    0  502 -0.14860101885E+03  0.78543555596E+02  0.14367001141E+02  0.24273399022E+03  0.17453373989E+03 0.  0.
        -24    2    5    5    0    0 -0.94475857200E+02  0.11677235764E+03 -0.16811887313E+02  0.16935015335E+03  0.76389552828E+02 0.  0.
          5    1    3    3  501    0 -0.13568633501E+02 -0.38568763729E+02 -0.11808523692E+03  0.12505147152E+03  0.47000000000E+01 0. -1.
        -11    1    4    4    0    0  0.37811930510E+02  0.20010401487E+02 -0.52845836517E+02  0.67991475155E+02  0.00000000000E+00 0.  1.
         12    1    4    4    0    0  0.12435772184E+03 -0.59985193354E+02 -0.98014844895E+02  0.16932210790E+03  0.00000000000E+00 0. -1.
         -5    1    5    5    0  502 -0.54125161651E+02 -0.38228802044E+02  0.31178888455E+02  0.73383836876E+02  0.47000000000E+01 0.  1.
         13    1    6    6    0    0 -0.29601555171E+02  0.92200003418E+02  0.40170269313E+01  0.96918673145E+02  0.00000000000E+00 0. -1.
        -14    1    6    6    0    0 -0.64874302028E+02  0.24572354222E+02 -0.20828914245E+02  0.72431480202E+02  0.00000000000E+00 0.  1.
</event>
<event>
12    1  0.8258923E-002  0.2555634E+03  0.7818608E-02  0.1110455E+00
         21   -1    0    0  503  502  0.00000000000E+00  0.00000000000E+00  0.21506614031E+04  0.21506614031E+04  0.00000000000E+00 0. -1.
         21   -1    0    0  501  503 -0.00000000000E+00 -0.00000000000E+00 -0.51281525885E+02  0.51281525885E+02  0.00000000000E+00 0. -1.
          6    2    1    2  501    0 -0.31820476227E+02 -0.18535666108E+03  0.34355452856E+03  0.42818499626E+03  0.17304058027E+03 0.  0.
         24    2    3    3    0    0 -0.10578409666E+02 -0.13788345905E+02  0.13197267369E+03  0.15491611133E+03  0.79247673246E+02 0.  0.
         -6    2    1    2    0  502  0.31820476227E+02  0.18535666108E+03  0.17558253486E+04  0.17737579327E+04  0.16710749352E+03 0.  0.
        -24    2    5    5    0    0  0.37941886929E+02  0.18705425755E+03  0.17533468118E+04  0.17654762271E+04  0.79072018345E+02 0.  0.
          5    1    3    3  501    0 -0.21242066561E+02 -0.17156831517E+03  0.21158185486E+03  0.27326888493E+03  0.47000000000E+01 0. -1.
        -11    1    4    4    0    0 -0.85798572891E-01 -0.58341887504E+01  0.13958520070E+03  0.13970709851E+03  0.00000000000E+00 0.  1.
         12    1    4    4    0    0 -0.10492611093E+02 -0.79541571546E+01 -0.76125270068E+01  0.15209012822E+02  0.00000000000E+00 0. -1.
         -5    1    5    5    0  502 -0.61214107012E+01 -0.16975964670E+01  0.24785368833E+01  0.82817056105E+01  0.47000000000E+01 0.  1.
         11    1    6    6    0    0 -0.22558863116E+02  0.77339006665E+02  0.61458746131E+03  0.61984511925E+03  0.00000000000E+00 0. -1.
        -12    1    6    6    0    0  0.60500750045E+02  0.10971525088E+03  0.11387593504E+04  0.11456311078E+04  0.00000000000E+00 0.  1.
</event>
<event>
12    1  0.8258923E-002  0.1821726E+03  0.7818608E-02  0.1166015E+00
         21   -1    0    0  503  502  0.00000000000E+00  0.00000000000E+00  0.50191482147E+03  0.50191482147E+03  0.00000000000E+00 0.  1.
         21   -1    0    0  501  503 -0.00000000000E+00 -0.00000000000E+00 -0.19604781064E+03  0.19604781064E+03  0.00000000000E+00 0.  1.
          6    2    1    2  501    0 -0.44298026141E+02  0.33739203418E+02 -0.13148347078E+03  0.22466586189E+03  0.17345373285E+03 0.  0.
         24    2    3    3    0    0  0.12322863542E+02  0.76879038381E+02 -0.76267446436E+02  0.13445571914E+03  0.78736125863E+02 0.  0.
         -6    2    1    2    0  502  0.44298026141E+02 -0.33739203418E+02  0.43735048162E+03  0.47329677023E+03  0.17214453221E+03 0.  0.
        -24    2    5    5    0    0  0.44588874480E+02  0.25311120253E+02  0.37495039360E+03  0.38725674290E+03  0.82165483770E+02 0.  0.
          5    1    3    3  501    0 -0.56620889683E+02 -0.43139834963E+02 -0.55216024347E+02  0.90210142744E+02  0.47000000000E+01 0. -1.
        -13    1    4    4    0    0  0.75748428445E+01  0.91535283003E+02 -0.51537550162E+02  0.10531953928E+03  0.00000000000E+00 0.  1.
         14    1    4    4    0    0  0.47480206976E+01 -0.14656244622E+02 -0.24729896274E+02  0.29136179857E+02  0.00000000000E+00 0. -1.
         -5    1    5    5    0  502 -0.29084833849E+00 -0.59050323671E+02  0.62400088011E+02  0.86040027325E+02  0.47000000000E+01 0.  1.
         13    1    6    6    0    0  0.68271212537E+02  0.16875882922E+02  0.24483779514E+03  0.25473770788E+03  0.00000000000E+00 0. -1.
        -14    1    6    6    0    0 -0.23682338057E+02  0.84352373307E+01  0.13011259847E+03  0.13251903503E+03  0.00000000000E+00 0.  1.
</event>
<event>
12    1  0.8258923E-002  0.1940329E+03  0.7818608E-02  0.1155018E+00
         21   -1    0    0  501  502  0.00000000000E+00  0.00000000000E+00  0.21263607031E+03  0.21263607031E+03  0.00000000000E+00 0.  1.
         21   -1    0    0  502  503 -0.00000000000E+00 -0.00000000000E+00 -0.21226590156E+03  0.21226590156E+03  0.00000000000E+00 0.  1.
         -6    2    1    2    0  503  0.15839638688E+02 -0.89289716960E+02 -0.87072170205E+02  0.21207595311E+03  0.17079548986E+03 0.  0.
        -24    2    3    3    0    0  0.33466605799E+02 -0.47952324739E+01  0.43258162245E+01  0.86275675684E+02  0.79257627839E+02 0.  0.
          6    2    1    2  501    0 -0.15839638688E+02  0.89289716960E+02  0.87442338957E+02  0.21282601875E+03  0.17153776234E+03 0.  0.
         24    2    5    5    0    0  0.44967609171E+02  0.89362121950E+02  0.34982487340E+02  0.13237943607E+03  0.79327586365E+02 0.  0.
          5    1    5    5  501    0 -0.60807247859E+02 -0.72404990606E-01  0.52459851616E+02  0.80446582689E+02  0.47000000000E+01 0. -1.
        -11    1    6    6    0    0  0.64169529108E+02  0.83156756603E+02  0.38548127360E+02  0.11188714295E+03  0.00000000000E+00 0.  1.
         12    1    6    6    0    0 -0.19201919937E+02  0.62053653475E+01 -0.35656400201E+01  0.20492293115E+02  0.00000000000E+00 0. -1.
         -5    1    3    3    0  503 -0.17626967111E+02 -0.84494484486E+02 -0.91397986429E+02  0.12580027743E+03  0.47000000000E+01 0.  1.
         13    1    4    4    0    0 -0.84190884890E+01 -0.99524903621E+01 -0.29460213606E+02  0.32215482320E+02  0.00000000000E+00 0. -1.
        -14    1    4    4    0    0  0.41885694288E+02  0.51572578882E+01  0.33786029831E+02  0.54060193365E+02  0.00000000000E+00 0.  1.
</event>
<event>
12    1  0.8258923E-002  0.2039071E+03  0.7818608E-02  0.1148034E+00
         21   -1    0    0  501  502  0.00000000000E+00  0.00000000000E+00  0.18699459376E+03  0.18699459376E+03  0.00000000000E+00 0.  1.
         21   -1    0    0  502  503 -0.00000000000E+00 -0.00000000000E+00 -0.21472224859E+03  0.21472224859E+03  0.00000000000E+00 0.  1.
         -6    2    1    2    0  503 -0.74023225397E+02  0.78172867771E+02 -0.22286700713E+02  0.20512145171E+03  0.17316950589E+03 0.  0.
        -24    2    3    3    0    0 -0.86675672886E+02  0.72702821647E+02 -0.71124752069E+02  0.15415821896E+03  0.76861261830E+02 0.  0.
          6    2    1    2  501    0  0.74023225397E+02 -0.78172867771E+02 -0.54409541169E+01  0.19659539064E+03  0.16440714244E+03 0.  0.
         24    2    5    5    0    0  0.16907206719E+02 -0.10335121680E+03  0.61395519323E+01  0.13293702929E+03  0.81653119995E+02 0.  0.
          5    1    5    5  501    0  0.57116018678E+02  0.25178349027E+02 -0.11580506049E+02  0.63658361349E+02  0.47000000000E+01 0. -1.
        -11    1    6    6    0    0  0.14389925000E+02 -0.22581421483E+02 -0.33535140258E+02  0.42913822596E+02  0.00000000000E+00 0.  1.
         12    1    6    6    0    0  0.25172817195E+01 -0.80769795315E+02  0.39674692190E+02  0.90023206691E+02  0.00000000000E+00 0. -1.
         -5    1    3    3    0  503  0.12652447489E+02  0.54700461240E+01  0.48838051356E+02  0.50963232750E+02  0.47000000000E+01 0.  1.
         13    1    4    4    0    0 -0.49294933419E+02  0.36324237305E+02  0.54842683952E+01  0.61477783601E+02  0.00000000000E+00 0. -1.
        -14    1    4    4    0    0 -0.37380739467E+02  0.36378584342E+02 -0.76609020464E+02  0.92680435359E+02  0.00000000000E+00 0.  1.
</event>
<event>
12    1  0.8258923E-002  0.2088026E+03  0.7818608E-02  0.1142990E+00
         21   -1    0    0  503  502  0.00000000000E+00  0.00000000000E+00  0.13808505998E+03  0.13808505998E+03  0.00000000000E+00 0.  1.
         21   -1    0    0  501  503 -0.00000000000E+00 -0.00000000000E+00 -0.35836828692E+03  0.35836828692E+03  0.00000000000E+00 0.  1.
          6    2    1    2  501    0 -0.11365425795E+03 -0.24688765982E+02 -0.19870101078E+03  0.28653831529E+03  0.17057341213E+03 0.  0.
         24    2    3    3    0    0 -0.10734371211E+03 -0.39005992631E+02 -0.22033308919E+03  0.25943033152E+03  0.75586286640E+02 0.  0.
         -6    2    1    2    0  502  0.11365425795E+03  0.24688765982E+02 -0.21582216153E+02  0.20991503161E+03  0.17341194574E+03 0.  0.
        -24    2    5    5    0    0  0.65759907876E+02  0.28180936274E+02 -0.80773466712E+02  0.13354908261E+03  0.78692273378E+02 0.  0.
          5    1    3    3  501    0 -0.63105458448E+01  0.14317226649E+02  0.21632078411E+02  0.27107983771E+02  0.47000000000E+01 0. -1.
        -13    1    4    4    0    0 -0.58909308778E+02  0.12952108824E+02 -0.13853094835E+03  0.15109231428E+03  0.00000000000E+00 0.  1.
         14    1    4    4    0    0 -0.48434403332E+02 -0.51958101454E+02 -0.81802140844E+02  0.10833801724E+03  0.00000000000E+00 0. -1.
         -5    1    5    5    0  502  0.47894350079E+02 -0.34921702919E+01  0.59191250559E+02  0.76365948993E+02  0.47000000000E+01 0.  1.
         13    1    6    6    0    0  0.41626466695E+02  0.54145705921E+02 -0.66531870552E+02  0.95346788086E+02  0.00000000000E+00 0. -1.
        -14    1    6    6    0    0  0.24133441181E+02 -0.25964769647E+02 -0.14241596160E+02  0.38202294529E+02  0.00000000000E+00 0.  1.
</event>
<event>
12    1  0.8258923E-002  0.2332727E+03  0.7818608E-02  0.1124467E+00
         21   -1    0    0  501  502  0.00000000000E+00  0.00000000000E+00  0.12849551357E+04  0.12849551357E+04  0.00000000000E+00 0.  1.
         21   -1    0    0  502  503 -0.00000000000E+00 -0.00000000000E+00 -0.61082243223E+02  0.61082243223E+02  0.00000000000E+00 0. -1.
         -6    2    1    2    0  503 -0.13342482339E+03  0.81648390709E+02  0.23749719796E+03  0.33245306404E+03  0.17219604393E+03 0.  0.
        -24    2    3    3    0    0 -0.13823138597E+03  0.91064567282E+02  0.13110747759E+03  0.22543610264E+03  0.78940447269E+02 0.  0.
          6    2    1    2  501    0  0.13342482339E+03 -0.81648390709E+02  0.98637569451E+03  0.10135843149E+04  0.17305348724E+03 0.  0.
         24    2    5    5    0    0  0.89676107506E+02 -0.12354575769E+03  0.69864578840E+03  0.71950961626E+03  0.79264063286E+02 0.  0.
          5    1    5    5  501    0  0.43748715887E+02  0.41897366985E+02  0.28772990610E+03  0.29407469862E+03  0.47000000000E+01 0. -1.
        -13    1    6    6    0    0  0.65639107868E+02 -0.75667560605E+02  0.58921067845E+03  0.59766486914E+03  0.00000000000E+00 0.  1.
         14    1    6    6    0    0  0.24036999637E+02 -0.47878197090E+02  0.10943510996E+03  0.12184474711E+03  0.00000000000E+00 0. -1.
         -5    1    3    3    0  503  0.48065625742E+01 -0.94161765726E+01  0.10638972037E+03  0.10701696139E+03  0.47000000000E+01 0.  1.
         11    1    4    4    0    0 -0.21691578912E+02 -0.10619665729E+02  0.24888512016E+01  0.24279544399E+02  0.00000000000E+00 0. -1.
        -12    1    4    4    0    0 -0.11653980705E+03  0.10168423301E+03  0.12861862638E+03  0.20115655824E+03  0.00000000000E+00 0.  1.
</event>
<event>
12    1  0.8258923E-002  0.2081150E+03  0.7818608E-02  0.1143749E+00
         21   -1    0    0  501  502  0.00000000000E+00  0.00000000000E+00  0.36140056363E+02  0.36140056363E+02  0.00000000000E+00 0.  1.
         21   -1    0    0  502  503 -0.00000000000E+00 -0.00000000000E+00 -0.18581830526E+04  0.18581830526E+04  0.00000000000E+00 0.  1.
         -6    2    1    2    0  503 -0.21778463321E+01  0.11845407686E+03 -0.14788739859E+04  0.14929793285E+04  0.16698172971E+03 0.  0.
        -24    2    3    3    0    0 -0.30720833225E+02  0.74803118796E+02 -0.51282392526E+03  0.52551102528E+03  0.81450495329E+02 0.  0.
          6    2    1    2  501    0  0.21778463321E+01 -0.11845407686E+03 -0.34316901042E+03  0.40134378047E+03  0.17110157530E+03 0.  0.
         24    2    5    5    0    0 -0.48364022994E+02 -0.90916982224E+02 -0.30587292952E+03  0.33259889130E+03  0.80366641751E+02 0.  0.
          5    1    5    5  501    0  0.50541869326E+02 -0.27537094632E+02 -0.37296080903E+02  0.68744889167E+02  0.47000000000E+01 0. -1.
        -13    1    6    6    0    0  0.26861970644E+01 -0.76932246960E+02 -0.16381983910E+03  0.18100476778E+03  0.00000000000E+00 0.  1.
         14    1    6    6    0    0 -0.51050220058E+02 -0.13984735264E+02 -0.14205309042E+03  0.15159412352E+03  0.00000000000E+00 0. -1.
         -5    1    3    3    0  503  0.28542986893E+02  0.43650958060E+02 -0.96605006059E+03  0.96746830325E+03  0.47000000000E+01 0.  1.
         13    1    4    4    0    0 -0.66946450797E+01  0.73993185842E+00 -0.27865587597E+03  0.27873726516E+03  0.00000000000E+00 0. -1.
        -14    1    4    4    0    0 -0.24026188145E+02  0.74063186937E+02 -0.23416804929E+03  0.24677376012E+03  0.00000000000E+00 0.  1.
</event>
<event>
12    1  0.8258923E-002  0.1828525E+03  0.7818608E-02  0.1165112E+00
         21   -1    0    0  501  502  0.00000000000E+00  0.00000000000E+00  0.89367421741E+02  0.89367421741E+02  0.00000000000E+00 0.  1.
         21   -1    0    0  502  503 -0.00000000000E+00 -0.00000000000E+00 -0.69329363101E+03  0.69329363101E+03  0.00000000000E+00 0.  1.
         -6    2    1    2    0  503 -0.62056605516E+02 -0.98452716539E+01 -0.56755097887E+03  0.59622556192E+03  0.17153091675E+03 0.  0.
        -24    2    3    3    0    0 -0.32906619682E+01  0.27075650836E+02 -0.46312349509E+03  0.47075134143E+03  0.79871987735E+02 0.  0.
          6    2    1    2  501    0  0.62056605516E+02  0.98452716539E+01 -0.36375230390E+02  0.18643549083E+03  0.17171803398E+03 0.  0.
         24    2    5    5    0    0  0.45843995772E+02 -0.46447137236E+02 -0.66066983803E+02  0.12059193204E+03  0.76932172842E+02 0.  0.
          5    1    5    5  501    0  0.16212609744E+02  0.56292408890E+02  0.29691753413E+02  0.65843558790E+02  0.47000000000E+01 0. -1.
        -11    1    6    6    0    0  0.26400436687E+02 -0.19155159667E+02 -0.78376537567E+02  0.84892784382E+02  0.00000000000E+00 0.  1.
         12    1    6    6    0    0  0.19443559085E+02 -0.27291977569E+02  0.12309553764E+02  0.35699147656E+02  0.00000000000E+00 0. -1.
         -5    1    3    3    0  503 -0.58765943548E+02 -0.36920922490E+02 -0.10442748378E+03  0.12547422049E+03  0.47000000000E+01 0.  1.
         11    1    4    4    0    0  0.27656980911E+02 -0.12550515054E+02 -0.11194622157E+03  0.11599301938E+03  0.00000000000E+00 0. -1.
        -12    1    4    4    0    0 -0.30947642879E+02  0.39626165890E+02 -0.35117727352E+03  0.35475832204E+03  0.00000000000E+00 0.  1.
</event>
<event>
12    1  0.8258923E-002  0.1775260E+03  0.7818608E-02  0.1171989E+00
         21   -1    0    0  503  502  0.00000000000E+00  0.00000000000E+00  0.87157856389E+03  0.87157856389E+03  0.00000000000E+00 0.  1.
         21   -1    0    0  501  503 -0.00000000000E+00 -0.00000000000E+00 -0.79677155726E+02  0.79677155726E+02  0.00000000000E+00 0.  1.
          6    2    1    2  501    0 -0.41669101951E+02 -0.16206031446E+02  0.35304793167E+02  0.17411099976E+03  0.16452739074E+03 0.  0.
         24    2    3    3    0    0  0.54144607540E+01  0.18713193906E+02  0.68263429153E+02  0.10669753031E+03  0.79655302423E+02 0.  0.
         -6    2    1    2    0  502  0.41669101951E+02  0.16206031446E+02  0.75659661500E+03  0.77714471986E+03  0.17180374928E+03 0.  0.
        -24    2    5    5    0    0  0.84147041515E+02  0.25954822855E+02  0.38199438422E+03  0.39998648306E+03  0.79467601127E+02 0.  0.
          5    1    3    3  501    0 -0.47083562705E+02 -0.34919225352E+02 -0.32958635986E+02  0.67413469442E+02  0.47000000000E+01 0. -1.
        -13    1    4    4    0    0 -0.22764133714E+01  0.27006845768E+02 -0.90403859775E+01  0.28570620483E+02  0.00000000000E+00 0.  1.
         14    1    4    4    0    0  0.76908741254E+01 -0.82936518620E+01  0.77303815131E+02  0.78126909831E+02  0.00000000000E+00 0. -1.
         -5    1    5    5    0  502 -0.42477939564E+02 -0.97487914086E+01  0.37460223077E+03  0.37715823680E+03  0.47000000000E+01 0.  1.
         11    1    6    6    0    0  0.10111167424E+02 -0.24119887359E+02  0.53514289747E+02  0.59563276270E+02  0.00000000000E+00 0. -1.
        -12    1    6    6    0    0  0.74035874091E+02  0.50074710214E+02  0.32848009448E+03  0.34042320679E+03  0.00000000000E+00 0.  1.
</event>
<event>
12    1  0.8258923E-002  0.1987759E+03  0.7818608E-02  0.1151489E+00
         21   -1    0    0  501  502  0.00000000000E+00  0.00000000000E+00  0.14008102715E+03  0.14008102715E+03  0.00000000000E+00 0.  1.
         21   -1    0    0  502  503 -0.00000000000E+00 -0.00000000000E+00 -0.44247194513E+03  0.44247194513E+03  0.00000000000E+00 0. -1.
         -6    2    1    2    0  503 -0.86876800039E+02 -0.30157169680E+02 -0.32991759132E+03  0.38517199777E+03  0.17622377120E+03 0.  0.
        -24    2    3    3    0    0 -0.12258364356E+03 -0.53288617320E+02 -0.24972142197E+03  0.29426788278E+03  0.79789547187E+02 0.  0.
          6    2    1    2  501    0  0.86876800039E+02  0.30157169680E+02  0.27526673348E+02  0.19738097451E+03  0.17246593311E+03 0.  0.
         24    2    5    5    0    0  0.68196926330E+02  0.82090233735E+02 -0.37781301408E+01  0.13375659596E+03  0.80541451809E+02 0.  0.
          5    1    5    5  501    0  0.18679873709E+02 -0.51933064056E+02  0.31304803488E+02  0.63624378547E+02  0.47000000000E+01 0. -1.
        -13    1    6    6    0    0  0.68970742608E+02  0.32695742883E+02 -0.24532107136E+02  0.80173556857E+02  0.00000000000E+00 0.  1.
         14    1    6    6    0    0 -0.77381627869E+00  0.49394490853E+02  0.20753976995E+02  0.53583039101E+02  0.00000000000E+00 0. -1.
         -5    1    3    3    0  503  0.35706843517E+02  0.23131447640E+02 -0.80196169353E+02  0.90904114994E+02  0.47000000000E+01 0.  1.
         11    1    4    4    0    0 -0.11862957007E+03 -0.33651504048E+02 -0.24407558565E+03  0.27345619418E+03  0.00000000000E+00 0. -1.
        -12    1    4    4    0    0 -0.39540734811E+01 -0.19637113272E+02 -0.56458363159E+01  0.20811688602E+02  0.00000000000E+00 0.  1.
</event>
<event>
12    1  0.8258923E-002  0.1923379E+03  0.7818608E-02  0.1156487E+00
         21   -1    0    0  503  502  0.00000000000E+00  0.00000000000E+00  0.24948196161E+03  0.24948196161E+03  0.00000000000E+00 0.  1.
         21   -1    0    0  501  503 -0.00000000000E+00 -0.00000000000E+00 -0.20576005732E+03  0.20576005732E+03  0.00000000000E+00 0.  1.
          6    2    1    2  501    0 -0.72924058830E+02 -0.45822626105E+02 -0.98888736244E+02  0.21580170573E+03  0.17138775517E+03 0.  0.
         24    2    3    3    0    0 -0.98039568401E+02  0.99244549033E+01 -0.86512903804E+02  0.15324151799E+03  0.79298351395E+02 0.  0.
         -6    2    1    2    0  502  0.72924058830E+02  0.45822626105E+02  0.14261064053E+03  0.23944031319E+03  0.17197743273E+03 0.  0.
        -24    2    5    5    0    0  0.81284079731E+01 -0.34564988635E+02  0.57542352643E+02  0.10557714209E+03  0.81083914117E+02 0.  0.
          5    1    3    3  501    0  0.25115509571E+02 -0.55747081009E+02 -0.12375832440E+02  0.62560187744E+02  0.47000000000E+01 0. -1.
        -11    1    4    4    0    0 -0.70702204928E+02 -0.31056800985E+02 -0.52850461933E+02  0.93576161471E+02  0.00000000000E+00 0.  1.
         12    1    4    4    0    0 -0.27337363473E+02  0.40981255888E+02 -0.33662441871E+02  0.59665356519E+02  0.00000000000E+00 0. -1.
         -5    1    5    5    0  502  0.64795650857E+02  0.80387614741E+02  0.85068287887E+02  0.13386317110E+03  0.47000000000E+01 0.  1.
         11    1    6    6    0    0 -0.35876662051E+02 -0.20694911477E+02  0.34999969881E+02  0.54225567149E+02  0.00000000000E+00 0. -1.
        -12    1    6    6    0    0  0.44005070025E+02 -0.13870077159E+02  0.22542382762E+02  0.51351574940E+02  0.00000000000E+00 0.  1.
</event>
<event>
12    1  0.8258923E-002  0.1807752E+03  0.7818608E-02  0.1167319E+00
         21   -1    0    0  501  502  0.00000000000E+00  0.00000000000E+00  0.97871775352E+02  0.97871775352E+02  0.00000000000E+00 0.  1.
         21   -1    0    0  502  503 -0.00000000000E+00 -0.00000000000E+00 -0.38434185559E+03  0.38434185559E+03  0.00000000000E+00 0.  1.
         -6    2    1    2    0  503  0.46534496391E+02  0.23712224014E+02 -0.23268164995E+03  0.29465306014E+03  0.17306630725E+03 0.  0.
        -24    2    3    3    0    0  0.90367200491E+02  0.30205443885E+02 -0.10774383299E+03  0.16200685416E+03  0.74557947154E+02 0.  0.
          6    2    1    2  501    0 -0.46534496391E+02 -0.23712224014E+02 -0.53788430287E+02  0.18756057080E+03  0.17192452869E+03 0.  0.
         24    2    5    5    0    0 -0.66869075133E+02  0.24883824582E+02 -0.74764011761E+02  0.13066473572E+03  0.79955848880E+02 0.  0.
          5    1    5    5  501    0  0.20334578743E+02 -0.48596048596E+02  0.20975581474E+02  0.56895835085E+02  0.47000000000E+01 0. -1.
        -11    1    6    6    0    0 -0.42927745315E+02 -0.65017968177E+01  0.29316963102E+01  0.43516198397E+02  0.00000000000E+00 0.  1.
         12    1    6    6    0    0 -0.23941329818E+02  0.31385621400E+02 -0.77695708072E+02  0.87148537319E+02  0.00000000000E+00 0. -1.
         -5    1    3    3    0  503 -0.43832704100E+02 -0.64932198708E+01 -0.12493781696E+03  0.13264620597E+03  0.47000000000E+01 0.  1.
         13    1    4    4    0    0  0.96255572175E+02  0.14627098176E+02 -0.67549894893E+02  0.11849926361E+03  0.00000000000E+00 0. -1.
        -14    1    4    4    0    0 -0.58883716843E+01  0.15578345709E+02 -0.40193938098E+02  0.43507590555E+02  0.00000000000E+00 0.  1.
</event>
<event>
12    1  0.8258923E-002  0.2266529E+03  0.7818608E-02  0.1129139E+00
         21   -1    0    0  503  502  0.00000000000E+00  0.00000000000E+00  0.18626894031E+03  0.18626894031E+03  0.00000000000E+00 0.  1.
         21   -1    0    0  501  503 -0.00000000000E+00 -0.00000000000E+00 -0.28379254416E+03  0.28379254416E+03  0.00000000000E+00 0. -1.
          6    2    1    2  501    0 -0.13449795432E+03  0.58502167281E+02 -0.73950962686E+01  0.22677350197E+03  0.17279852561E+03 0.  0.
         24    2    3    3    0    0 -0.13587907643E+03  0.90170503865E+02 -0.36299885618E+02  0.18361834136E+03  0.76185106208E+02 0.  0.
         -6    2    1    2    0  502  0.13449795432E+03 -0.58502167281E+02 -0.90128507586E+02  0.24328798250E+03  0.17191187061E+03 0.  0.
        -24    2    5    5    0    0 -0.43224732586E+00 -0.78104659349E+01 -0.39703329842E+02  0.90511687047E+02  0.80961848273E+02 0.  0.
          5    1    3    3  501    0  0.13811221085E+01 -0.31668336583E+02  0.28904789350E+02  0.43155160613E+02  0.47000000000E+01 0. -1.
        -11    1    4    4    0    0 -0.14273996113E+03  0.81169810492E+02 -0.22449894786E+02  0.16573241208E+03  0.00000000000E+00 0.  1.
         12    1    4    4    0    0  0.68608846977E+01  0.90006933725E+01 -0.13849990832E+02  0.17885929276E+02  0.00000000000E+00 0. -1.
         -5    1    5    5    0  502  0.13493020165E+03 -0.50691701346E+02 -0.50425177744E+02  0.15277629545E+03  0.47000000000E+01 0.  1.
         13    1    6    6    0    0  0.76234139176E+01 -0.19537860685E+02 -0.61222128021E+02  0.64714707751E+02  0.00000000000E+00 0. -1.
        -14    1    6    6    0    0 -0.80556612434E+01  0.11727394750E+02  0.21518798179E+02  0.25796979296E+02  0.00000000000E+00 0.  1.
</event>
<event>
12    1  0.8258923E-002  0.1814955E+03  0.7818608E-02  0.1166778E+00
         21   -1    0    0  503  502  0.00000000000E+00  0.00000000000E+00  0.11623969831E+04  0.11623969831E+04  0.00000000000E+00 0. -1.
         21   -1    0    0  501  503 -0.00000000000E+00 -0.00000000000E+00 -0.56433602790E+02  0.56433602790E+02  0.00000000000E+00 0.  1.
          6    2    1    2  501    0  0.40617052868E+01 -0.53328474370E+02  0.11963422336E+03  0.21594185310E+03  0.17163365898E+03 0.  0.
         24    2    3    3    0    0 -0.53067696503E+02 -0.72799950308E+01  0.42592572547E+02  0.10944426178E+03  0.85409252780E+02 0.  0.
         -6    2    1    2    0  502 -0.40617052868E+01  0.53328474370E+02  0.98632915692E+03  0.10028887328E+04  0.17343638853E+03 0.  0.
        -24    2    5    5    0    0 -0.13016457870E+02 -0.12737668278E+02  0.23659628254E+03  0.25018268408E+03  0.79258426232E+02 0.  0.
          5    1    3    3  501    0  0.57129401790E+02 -0.46048479339E+02  0.77041650811E+02  0.10649759132E+03  0.47000000000E+01 0. -1.
        -13    1    4    4    0    0  0.14805508968E+02  0.12978737386E+02 -0.91647616261E+01  0.21717356552E+02  0.00000000000E+00 0.  1.
         14    1    4    4    0    0 -0.67873205471E+02 -0.20258732416E+02  0.51757334173E+02  0.87726905227E+02  0.00000000000E+00 0. -1.
         -5    1    5    5    0  502  0.89547525831E+01  0.66066142648E+02  0.74973287437E+03  0.75270604868E+03  0.47000000000E+01 0.  1.
         13    1    6    6    0    0 -0.47692193923E+01  0.49576362201E+01  0.22920395443E+03  0.22930716591E+03  0.00000000000E+00 0. -1.
        -14    1    6    6    0    0 -0.82472384776E+01 -0.17695304498E+02  0.73923281139E+01  0.20875518167E+02  0.00000000000E+00 0.  1.
</event>
<event>
12    1  0.8258923E-002  0.2360681E+03  0.7818608E-02  0.1122892E+00
         21   -1    0    0  501  502  0.00000000000E+00  0.00000000000E+00  0.12978252928E+03  0.12978252928E+03  0.00000000000E+00 0.  1.
         21   -1    0    0  502  503 -0.00000000000E+00 -0.00000000000E+00 -0.43017288817E+03  0.43017288817E+03  0.00000000000E+00 0.  1.
         -6    2    1    2    0  503 -0.41024388803E+02 -0.15320078983E+03 -0.18288051883E+03  0.29861920440E+03  0.17485611967E+03 0.  0.
        -24    2    3    3    0    0 -0.56060204530E+01 -0.90997521081E+00 -0.31786211411E+02  0.81136945883E+02  0.74435107518E+02 0.  0.
          6    2    1    2  501    0  0.41024388803E+02  0.15320078983E+03 -0.11750984006E+03  0.26133621305E+03  0.17127338164E+03 0.  0.
         24    2    5    5    0    0  0.93320747912E+02  0.11212592587E+03 -0.84404358621E+02  0.18690425401E+03  0.80796776973E+02 0.  0.
          5    1    5    5  501    0 -0.52296359109E+02  0.41074863962E+02 -0.33105481437E+02  0.74431959041E+02  0.47000000000E+01 0. -1.
        -11    1    6    6    0    0  0.33656064233E+02  0.58386433170E+02  0.39563081197E+01  0.67508211440E+02  0.00000000000E+00 0.  1.
         12    1    6    6    0    0  0.59664683679E+02  0.53739492702E+02 -0.88360666741E+02  0.11939604257E+03  0.00000000000E+00 0. -1.
         -5    1    3    3    0  503 -0.35418368350E+02 -0.15229081462E+03 -0.15109430742E+03  0.21748225852E+03  0.47000000000E+01 0.  1.
         13    1    4    4    0    0  0.28688935460E+02 -0.65520154290E+01 -0.35582073208E+02  0.46174320328E+02  0.00000000000E+00 0. -1.
        -14    1    4    4    0    0 -0.34294955913E+02  0.56420402182E+01  0.37958617970E+01  0.34962625555E+02  0.00000000000E+00 0.  1.
</event>
<event>
12    1  0.8258923E-002  0.1784994E+03  0.7818608E-02  0.1169637E+00
         21   -1    0    0  503  502  0.00000000000E+00  0.00000000000E+00  0.49814396165E+03  0.49814396165E+03  0.00000000000E+00 0.  1.
         21   -1    0    0  501  503 -0.00000000000E+00 -0.00000000000E+00 -0.90439654945E+02  0.90439654945E+02  0.00000000000E+00 0.  1.
          6    2    1    2  501    0  0.29679817725E+02  0.34152460885E+02  0.42381064107E+02  0.18198419278E+03  0.17109883010E+03 0.  0.
         24    2    3    3    0    0 -0.10846588500E+02  0.65480071632E+02  0.70904753126E+02  0.12316668151E+03  0.75744697210E+02 0.  0.
         -6    2    1    2    0  502 -0.29679817725E+02 -0.34152460885E+02  0.36532324260E+03  0.40659942381E+03  0.17266944634E+03 0.  0.
        -24    2    5    5    0    0 -0.10391676098E+02  0.10703660727E+02  0.73110453072E+02  0.11029804276E+03  0.81227856075E+02 0.  0.
          5    1    3    3  501    0  0.40526406226E+02 -0.31327610747E+02 -0.28523689019E+02  0.58817511270E+02  0.47000000000E+01 0. -1.
        -11    1    4    4    0    0 -0.22790080974E+02  0.61303211370E+02  0.16694571482E+02  0.67499483198E+02  0.00000000000E+00 0.  1.
         12    1    4    4    0    0  0.11943492474E+02  0.41768602624E+01  0.54210181644E+02  0.55667198313E+02  0.00000000000E+00 0. -1.
         -5    1    5    5    0  502 -0.19288141628E+02 -0.44856121612E+02  0.29221278953E+03  0.29630138106E+03  0.47000000000E+01 0.  1.
         13    1    6    6    0    0  0.30435515820E+02 -0.98174307587E+01  0.49322088076E+02  0.58782403337E+02  0.00000000000E+00 0. -1.
        -14    1    6    6    0    0 -0.40827191918E+02  0.20521091486E+02  0.23788364996E+02  0.51515639420E+02  0.00000000000E+00 0.  1.
</event>
<event>
12    1  0.8258923E-002  0.2409726E+03  0.7818608E-02  0.1119316E+00
         21   -1    0    0  501  502  0.00000000000E+00  0.00000000000E+00  0.32102636968E+02  0.32102636968E+02  0.00000000000E+00 0.  1.
         21   -1    0    0  502  503 -0.00000000000E+00 -0.00000000000E+00 -0.19175670652E+04  0.19175670652E+04  0.00000000000E+00 0. -1.
         -6    2    1    2    0  503 -0.19747139480E+02 -0.16587261389E+03 -0.11810323377E+04  0.12051615625E+04  0.17225950070E+03 0.  0.
        -24    2    3    3    0    0  0.27636031589E+02 -0.10518666207E+03 -0.98822113331E+03  0.99749307628E+03  0.81138429752E+02 0.  0.
          6    2    1    2  501    0  0.19747139480E+02  0.16587261389E+03 -0.70443209056E+03  0.74450813965E+03  0.17367822615E+03 0.  0.
         24    2    5    5    0    0  0.41673205935E+02  0.11003601098E+03 -0.26243718292E+03  0.29843632145E+03  0.79664190042E+02 0.  0.
          5    1    5    5  501    0 -0.21926066455E+02  0.55836602912E+02 -0.44199490764E+03  0.44607181820E+03  0.47000000000E+01 0. -1.
        -11    1    6    6    0    0  0.84125611578E+01  0.63646098115E+02 -0.21448259586E+03  0.22388474919E+03  0.00000000000E+00 0.  1.
         12    1    6    6    0    0  0.33260644777E+02  0.46389912867E+02 -0.47954587057E+02  0.74551572261E+02  0.00000000000E+00 0. -1.
         -5    1    3    3    0  503 -0.47383171069E+02 -0.60685951821E+02 -0.19281120437E+03  0.20766848625E+03  0.47000000000E+01 0.  1.
         11    1    4    4    0    0 -0.64447553196E+01 -0.82284557568E+02 -0.82764192969E+03  0.83174722546E+03  0.00000000000E+00 0. -1.
        -12    1    4    4    0    0  0.34080786909E+02 -0.22902104505E+02 -0.16057920362E+03  0.16574585081E+03  0.00000000000E+00 0.  1.
</event>
<event>
12    1  0.8258923E-002  0.2318019E+03  0.7818608E-02  0.1125536E+00
         21   -1    0    0  501  502  0.00000000000E+00  0.00000000000E+00  0.98819122416E+03  0.98819122416E+03  0.00000000000E+00 0.  1.
         21   -1    0    0  502  503 -0.00000000000E+00 -0.00000000000E+00 -0.63901134397E+02  0.63901134397E+02  0.00000000000E+00 0.  1.
         -6    2    1    2    0  503 -0.12105272666E+02 -0.15468850230E+03  0.25600482924E+03  0.34474711857E+03  0.17098839959E+03 0.  0.
        -24    2    3    3    0    0  0.53033341812E+02 -0.36087069708E+02  0.12355284872E+03  0.15534026533E+03  0.68923723503E+02 0.  0.
          6    2    1    2  501    0  0.12105272666E+02  0.15468850230E+03  0.66828526052E+03  0.70734523999E+03  0.17221216198E+03 0.  0.
         24    2    5    5    0    0 -0.17130811723E+02  0.17130285979E+03  0.61890288133E+03  0.64741615790E+03  0.80428667240E+02 0.  0.
          5    1    5    5  501    0  0.29236084389E+02 -0.16614357485E+02  0.49382379191E+02  0.59929082085E+02  0.47000000000E+01 0. -1.
        -11    1    6    6    0    0 -0.20018386825E+01  0.31638621518E+01  0.13244369525E+03  0.13249660295E+03  0.00000000000E+00 0.  1.
         12    1    6    6    0    0 -0.15128973040E+02  0.16813899764E+03  0.48645918607E+03  0.51491955495E+03  0.00000000000E+00 0. -1.
         -5    1    3    3    0  503 -0.65138614478E+02 -0.11860143260E+03  0.13245198052E+03  0.18940685324E+03  0.47000000000E+01 0.  1.
         13    1    4    4    0    0  0.29736131179E+02 -0.51575833834E+02  0.54016217268E+02  0.80386913494E+02  0.00000000000E+00 0. -1.
        -14    1    4    4    0    0  0.23297210633E+02  0.15488764125E+02  0.69536631457E+02  0.74953351838E+02  0.00000000000E+00 0.  1.
</event>
<event>
12    1  0.8258923E-002  0.2058078E+03  0.7818608E-02  0.1145188E+00
         21   -1    0    0  501  502  0.00000000000E+00  0.00000000000E+00  0.43595858180E+02  0.43595858180E+02  0.00000000000E+00 0. -1.
         21   -1    0    0  502  503 -0.00000000000E+00 -0.00000000000E+00 -0.10277614092E+04  0.10277614092E+04  0.00000000000E+00 0. -1.
         -6    2    1    2    0  503 -0.75277885600E+01 -0.11318477791E+03 -0.62238956975E+03  0.65513770350E+03  0.17020332681E+03 0.  0.
        -24    2    3    3    0    0  0.20098571321E+02 -0.44987318239E+02 -0.13149123136E+03  0.15873325358E+03  0.74016825756E+02 0.  0.
          6    2    1    2  501    0  0.75277885600E+01  0.11318477791E+03 -0.36177598129E+03  0.41621956391E+03  0.17172478909E+03 0.  0.
         24    2    5    5    0    0 -0.49249206314E+02  0.73450908765E+02 -0.30400122672E+03  0.32587345293E+03  0.77176687873E+02 0.  0.
          5    1    5    5  501    0  0.56776994874E+02  0.39733869140E+02 -0.57774754569E+02  0.90346110980E+02  0.47000000000E+01 0. -1.
        -13    1    6    6    0    0  0.97081116272E+01  0.52664361734E+02 -0.16471319928E+03  0.17319994355E+03  0.00000000000E+00 0.  1.
         14    1    6    6    0    0 -0.58957317941E+02  0.20786547031E+02 -0.13928802745E+03  0.15267350938E+03  0.00000000000E+00 0. -1.
         -5    1    3    3    0  503 -0.27626359881E+02 -0.68197459666E+02 -0.49089833839E+03  0.49640444992E+03  0.47000000000E+01 0.  1.
         13    1    4    4    0    0 -0.18907701425E+02 -0.16157594846E+02 -0.94542252083E+02  0.97758920172E+02  0.00000000000E+00 0. -1.
        -14    1    4    4    0    0  0.39006272746E+02 -0.28829723393E+02 -0.36948979276E+02  0.60974333403E+02  0.00000000000E+00 0.  1.
</event>
<event>
12    1  0.8258923E-002  0.2943740E+03  0.7818608E-02  0.1088576E+00
         21   -1    0    0  501  502  0.00000000000E+00  0.00000000000E+00  0.84645244297E+02  0.84645244297E+02  0.00000000000E+00 0.  1.
         21   -1    0    0  502  503 -0.00000000000E+00 -0.00000000000E+00 -0.11733662272E+04  0.11733662272E+04  0.00000000000E+00 0. -1.
         -6    2    1    2    0  503 -0.34855050637E+02  0.23693670997E+03 -0.77557357504E+03  0.82822394061E+03  0.16458021273E+03 0.  0.
        -24    2    3    3    0    0 -0.63194975333E+02  0.17774667934E+03 -0.42226034770E+03  0.46883704927E+03  0.76921327370E+02 0.  0.
          6    2    1    2  501    0  0.34855050637E+02 -0.23693670997E+03 -0.31314740786E+03  0.42978753088E+03  0.17117868898E+03 0.  0.
         24    2    5    5    0    0  0.36587346923E+02 -0.17026446715E+03 -0.12085453285E+03  0.22620258892E+03  0.78950429979E+02 0.  0.
          5    1    5    5  501    0 -0.17322962862E+01 -0.66672242821E+02 -0.19229287501E+03  0.20358494196E+03  0.47000000000E+01 0. -1.
        -11    1    6    6    0    0  0.10055958311E+01 -0.13797323130E+03 -0.11116126553E+03  0.17718479261E+03  0.00000000000E+00 0.  1.
         12    1    6    6    0    0  0.35581751092E+02 -0.32291235850E+02 -0.96932673223E+01  0.49017796308E+02  0.00000000000E+00 0. -1.
         -5    1    3    3    0  503  0.28339924696E+02  0.59190030633E+02 -0.35331322734E+03  0.35938689134E+03  0.47000000000E+01 0.  1.
         13    1    4    4    0    0  0.15302076797E+02  0.52509874218E+02 -0.13807738035E+03  0.14851533056E+03  0.00000000000E+00 0. -1.
        -14    1    4    4    0    0 -0.78497052129E+02  0.12523680512E+03 -0.28418296735E+03  0.32032171872E+03  0.00000000000E+00 0.  1.
</event>
<event>
12    1  0.8258923E-002  0.2219263E+03  0.7818608E-02  0.1133338E+00
         21   -1    0    0  501  502  0.00000000000E+00  0.00000000000E+00  0.70839336850E+03  0.70839336850E+03  0.00000000000E+00 0. -1.
         21   -1    0    0  502  503 -0.00000000000E+00 -0.00000000000E+00 -0.29736487439E+03  0.29736487439E+03  0.00000000000E+00 0.  1.
         -6    2    1    2    0  503 -0.91369689155E+02  0.95949936267E+02 -0.23659293631E+03  0.32116727982E+03  0.17209704748E+03 0.  0.
        -24    2    3    3    0    0 -0.75835513209E+02  0.96968883069E+01 -0.63939215352E+02  0.12748636630E+03  0.79495255363E+02 0.  0.
          6    2    1    2  501    0  0.91369689155E+02 -0.95949936267E+02  0.64762143041E+03  0.68459096307E+03  0.17803499437E+03 0.  0.
         24    2    5    5    0    0  0.10569430336E+03 -0.88937041189E+01  0.36999750645E+03  0.39324732527E+03  0.80591068476E+02 0.  0.
          5    1    5    5  501    0 -0.14324614206E+02 -0.87056232148E+02  0.27762392396E+03  0.29134363779E+03  0.47000000000E+01 0. -1.
        -11    1    6    6    0    0  0.55541900453E+02  0.12875102551E+02  0.29487219619E+03  0.30033361960E+03  0.00000000000E+00 0.  1.
         12    1    6    6    0    0  0.50152402909E+02 -0.21768806669E+02  0.75125310259E+02  0.92913705678E+02  0.00000000000E+00 0. -1.
         -5    1    3    3    0  503 -0.15534175946E+02  0.86253047960E+02 -0.17265372096E+03  0.19368091353E+03  0.47000000000E+01 0.  1.
         13    1    4    4    0    0 -0.29539822330E+02  0.85734337510E+01  0.16323723134E+02  0.34821958683E+02  0.00000000000E+00 0. -1.
        -14    1    4    4    0    0 -0.46295690879E+02  0.11234545559E+01 -0.80262938485E+02  0.92664407614E+02  0.00000000000E+00 0.  1.
</event>
<event>
12    1  0.8258923E-002  0.1996639E+03  0.7818608E-02  0.1150207E+00
         21   -1    0    0  503  502  0.00000000000E+00  0.00000000000E+00  0.52753989708E+03  0.52753989708E+03  0.00000000000E+00 0.  1.
         21   -1    0    0  501  503 -0.00000000000E+00 -0.00000000000E+00 -0.93180117088E+02  0.93180117088E+02  0.00000000000E+00 0.  1.
          6    2    1    2  501    0  0.56771145173E+02 -0.83896576534E+02  0.35374144531E+03  0.40620030241E+03  0.17205835367E+03 0.  0.
         24    2    3    3    0    0  0.16395609370E+02 -0.98390409289E+02  0.33688354724E+03  0.35986960193E+03  0.77885283268E+02 0.  0.
         -6    2    1    2    0  502 -0.56771145173E+02  0.83896576534E+02  0.80618334682E+02  0.21451971176E+03  0.17104909344E+03 0.  0.
        -24    2    5    5    0    0  0.25171278272E+02  0.16825599931E+02  0.66898933565E+02  0.10763945807E+03  0.78702551152E+02 0.  0.
          5    1    3    3  501    0  0.40375535804E+02  0.14493832755E+02  0.16857898078E+02  0.46330700480E+02  0.47000000000E+01 0. -1.
        -13    1    4    4    0    0 -0.91384047891E+01 -0.77426341302E+02  0.14009996742E+03  0.16033199818E+03  0.00000000000E+00 0.  1.
         14    1    4    4    0    0  0.25534014159E+02 -0.20964067987E+02  0.19678357982E+03  0.19953760375E+03  0.00000000000E+00 0. -1.
         -5    1    5    5    0  502 -0.81942423446E+02  0.67070976603E+02  0.13719401118E+02  0.10688025369E+03  0.47000000000E+01 0.  1.
         11    1    6    6    0    0  0.21295472834E+02  0.22667894883E+01 -0.13845410883E+02  0.25501586231E+02  0.00000000000E+00 0. -1.
        -12    1    6    6    0    0  0.38758054385E+01  0.14558810443E+02  0.80744344448E+02  0.82137871835E+02  0.00000000000E+00 0.  1.
</event>
<event>
12    1  0.8258923E-002  0.2185337E+03  0.7818608E-02  0.1135747E+00
         21   -1    0    0  503  502  0.00000000000E+00  0.00000000000E+00  0.54354339829E+03  0.54354339829E+03  0.00000000000E+00 0. -1.
         21   -1    0    0  501  503 -0.00000000000E+00 -0.00000000000E+00 -0.13943200551E+03  0.13943200551E+03  0.00000000000E+00 0.  1.
          6    2    1    2  501    0  0.28045703342E+02  0.12972507539E+03 -0.10007676918E+02  0.21473233681E+03  0.16850716962E+03 0.  0.
         24    2    3    3    0    0  0.59385243302E+02  0.70415406763E+02  0.44000581078E+02  0.12848394268E+03  0.78020098443E+02 0.  0.
         -6    2    1    2    0  502 -0.28045703342E+02 -0.12972507539E+03  0.41411906969E+03  0.46824306699E+03  0.17361396613E+03 0.  0.
        -24    2    5    5    0    0  0.11457376856E+02 -0.53442771391E+00  0.12807374971E+03  0.15186555218E+03  0.80800392797E+02 0.  0.
          5    1    3    3  501    0 -0.31339539959E+02  0.59309668632E+02 -0.54008257995E+02  0.86248394129E+02  0.47000000000E+01 0. -1.
        -11    1    4    4    0    0  0.65726830097E+02  0.55569549958E+02  0.49314177820E+01  0.86210845945E+02  0.00000000000E+00 0.  1.
         12    1    4    4    0    0 -0.63415867958E+01  0.14845856805E+02  0.39069163296E+02  0.42273096740E+02  0.00000000000E+00 0. -1.
         -5    1    5    5    0  502 -0.39503080199E+02 -0.12919064768E+03  0.28604531998E+03  0.31637751481E+03  0.47000000000E+01 0.  1.
         13    1    6    6    0    0 -0.23273101040E+02 -0.28186425024E+02  0.67551758803E+02  0.76807238625E+02  0.00000000000E+00 0. -1.
        -14    1    6    6    0    0  0.34730477897E+02  0.27651997310E+02  0.60521990909E+02  0.75058313555E+02  0.00000000000E+00 0.  1.
</event>
<event>
12    1  0.8258923E-002  0.1890869E+03  0.7818608E-02  0.1161626E+00
         21   -1    0    0  503  502  0.00000000000E+00  0.00000000000E+00  0.64952614207E+03  0.64952614207E+03  0.00000000000E+00 0. -1.
         21   -1    0    0  501  503 -0.00000000000E+00 -0.00000000000E+00 -0.90817330107E+02  0.90817330107E+02  0.00000000000E+00 0. -1.
          6    2    1    2  501    0 -0.29319771838E+02  0.43109524059E+02  0.42292579405E+02  0.19375890322E+03  0.18175744886E+03 0.  0.
         24    2    3    3    0    0 -0.17210568177E+02  0.23893021458E+02 -0.50937437136E+02  0.97686884555E+02  0.77980925749E+02 0.  0.
         -6    2    1    2    0  502  0.29319771838E+02 -0.43109524059E+02  0.51641623256E+03  0.54658456896E+03  0.17132100189E+03 0.  0.
        -24    2    5    5    0    0 -0.16771915456E+00 -0.17853488346E+02  0.99933025857E+02  0.12826922029E+03  0.78406683657E+02 0.  0.
          5    1    3    3  501    0 -0.12109203662E+02  0.19216502601E+02  0.93230016541E+02  0.96072018662E+02  0.47000000000E+01 0. -1.
        -11    1    4    4    0    0 -0.10702227603E+02  0.25708214054E+01  0.20273104944E+02  0.23068280873E+02  0.00000000000E+00 0.  1.
         12    1    4    4    0    0 -0.65083405734E+01  0.21322200053E+02 -0.71210542080E+02  0.74618603682E+02  0.00000000000E+00 0. -1.
         -5    1    5    5    0  502  0.29487490993E+02 -0.25256035713E+02  0.41648320670E+03  0.41831534867E+03  0.47000000000E+01 0.  1.
         13    1    6    6    0    0 -0.12889631275E+02 -0.41593243455E+00  0.10525144500E+03  0.10603858858E+03  0.00000000000E+00 0. -1.
        -14    1    6    6    0    0  0.12721912121E+02 -0.17437555912E+02 -0.53184191413E+01  0.22230631713E+02  0.00000000000E+00 0.  1.
</event>
<event>
12    1  0.8258923E-002  0.2447394E+03  0.7818608E-02  0.1116789E+00
         21   -1    0    0  501  502  0.00000000000E+00  0.00000000000E+00  0.37902299513E+02  0.37902299513E+02  0.00000000000E+00 0.  1.
         21   -1    0    0  502  503 -0.00000000000E+00 -0.00000000000E+00 -0.21856456256E+04  0.21856456256E+04  0.00000000000E+00 0. -1.
         -6    2    1    2    0  503  0.51441208508E+02  0.16517749385E+03 -0.16600305967E+04  0.16778730483E+04  0.17212373979E+03 0.  0.
        -24    2    3    3    0    0  0.87015693241E+02  0.13675863912E+03 -0.15147757912E+04  0.15255765487E+04  0.81015134951E+02 0.  0.
          6    2    1    2  501    0 -0.51441208508E+02 -0.16517749385E+03 -0.48771272937E+03  0.54567487680E+03  0.17311141608E+03 0.  0.
         24    2    5    5    0    0 -0.14735766768E+02  0.16320939253E+01 -0.12429462447E+03  0.14409358118E+03  0.71372262901E+02 0.  0.
          5    1    5    5  501    0 -0.36705441740E+02 -0.16680958778E+03 -0.36341810489E+03  0.40158129562E+03  0.47000000000E+01 0. -1.
        -11    1    6    6    0    0  0.16959552127E+02 -0.11370472330E+02 -0.65150023845E+01  0.21432669116E+02  0.00000000000E+00 0.  1.
         12    1    6    6    0    0 -0.31695318895E+02  0.13002566256E+02 -0.11777962209E+03  0.12266091206E+03  0.00000000000E+00 0. -1.
         -5    1    3    3    0  503 -0.35574484733E+02  0.28418854728E+02 -0.14525480555E+03  0.15229649964E+03  0.47000000000E+01 0.  1.
         11    1    4    4    0    0  0.54556764433E+02  0.11908826970E+03 -0.87674515553E+03  0.88647646572E+03  0.00000000000E+00 0. -1.
        -12    1    4    4    0    0  0.32458928808E+02  0.17670369426E+02 -0.63803063562E+03  0.63910008294E+03  0.00000000000E+00 0.  1.
</event>
<event>
12    1  0.8258923E-002  0.2121404E+03  0.7818608E-02  0.1139886E+00
         21   -1    0    0  501  502  0.00000000000E+00  0.00000000000E+00  0.67555070158E+03  0.67555070158E+03  0.00000000000E+00 0. -1.
         21   -1    0    0  502  503 -0.00000000000E+00 -0.00000000000E+00 -0.11972122840E+03  0.11972122840E+03  0.00000000000E+00 0.  1.
         -6    2    1    2    0  503 -0.11590908106E+03 -0.43891044873E+02  0.13066542040E+02  0.21252399323E+03  0.17214637459E+03 0.  0.
        -24    2    3    3    0    0 -0.80705697707E+02 -0.53833133778E+02  0.72090905201E+02  0.14292450489E+03  0.76281711761E+02 0.  0.
          6    2    1    2  501    0  0.11590908106E+03  0.43891044873E+02  0.54276293114E+03  0.58274793675E+03  0.17216915947E+03 0.  0.
         24    2    5    5    0    0 -0.84965745822E+01  0.82771031856E+01  0.18464933741E+03  0.20194279496E+03  0.80900014913E+02 0.  0.
          5    1    5    5  501    0  0.12440565564E+03  0.35613941688E+02  0.35811359373E+03  0.38080514179E+03  0.47000000000E+01 0. -1.
        -11    1    6    6    0    0  0.22126603949E+02 -0.24991505145E+02  0.51931409103E+02  0.61733566098E+02  0.00000000000E+00 0.  1.
         12    1    6    6    0    0 -0.30623178532E+02  0.33268608331E+02  0.13271792830E+03  0.14020922886E+03  0.00000000000E+00 0. -1.
         -5    1    3    3    0  503 -0.35203383354E+02  0.99420889047E+01 -0.59024363161E+02  0.69599488345E+02  0.47000000000E+01 0.  1.
         11    1    4    4    0    0 -0.90401490041E+02 -0.49381646295E+02  0.42434896304E+02  0.11140779513E+03  0.00000000000E+00 0. -1.
        -12    1    4    4    0    0  0.96957923336E+01 -0.44514874827E+01  0.29656008897E+02  0.31516709750E+02  0.00000000000E+00 0.  1.
</event>
<event>
12    1  0.8258923E-002  0.1797916E+03  0.7818608E-02  0.1168817E+00
         21   -1    0    0  501  502  0.00000000000E+00  0.00000000000E+00  0.39338288479E+02  0.39338288479E+02  0.00000000000E+00 0. -1.
         21   -1    0    0  502  503 -0.00000000000E+00 -0.00000000000E+00 -0.80780247302E+03  0.80780247302E+03  0.00000000000E+00 0.  1.
         -6    2    1    2    0  503 -0.40444279139E+02  0.13368544364E+02 -0.36443970002E+03  0.40491819404E+03  0.17125417139E+03 0.  0.
        -24    2    3    3    0    0  0.11837278183E+02 -0.20769031317E+01 -0.40821679829E+02  0.76706926595E+02  0.63820908504E+02 0.  0.
          6    2    1    2  501    0  0.40444279139E+02 -0.13368544364E+02 -0.40402448452E+03  0.44222256746E+03  0.17467271506E+03 0.  0.
         24    2    5    5    0    0 -0.57996572622E+01 -0.67581684479E+02 -0.27968041289E+03  0.29883112990E+03  0.80485966128E+02 0.  0.
          5    1    5    5  501    0  0.46243936402E+02  0.54213140115E+02 -0.12434407163E+03  0.14339143756E+03  0.47000000000E+01 0. -1.
        -11    1    6    6    0    0 -0.43013651181E+02 -0.36837044010E+02 -0.13871329369E+03  0.14982830122E+03  0.00000000000E+00 0.  1.
         12    1    6    6    0    0  0.37213993919E+02 -0.30744640468E+02 -0.14096711920E+03  0.14900282868E+03  0.00000000000E+00 0. -1.
         -5    1    3    3    0  503 -0.52281557323E+02  0.15445447495E+02 -0.32361802019E+03  0.32821126745E+03  0.47000000000E+01 0.  1.
         11    1    4    4    0    0  0.29416470384E+02 -0.21316874010E+02 -0.34024570372E+02  0.49773579703E+02  0.00000000000E+00 0. -1.
        -12    1    4    4    0    0 -0.17579192201E+02  0.19239970879E+02 -0.67971094567E+01  0.26933346892E+02  0.00000000000E+00 0.  1.
</event>
<event>
12    1  0.8258923E-002  0.1983706E+03  0.7818608E-02  0.1151394E+00
         21   -1    0    0  503  502  0.00000000000E+00  0.00000000000E+00  0.74953591206E+02  0.74953591206E+02  0.00000000000E+00 0. -1.
         21   -1    0    0  501  503 -0.00000000000E+00 -0.00000000000E+00 -0.56288732131E+03  0.56288732131E+03  0.00000000000E+00 0. -1.
          6    2    1    2  501    0 -0.44134236402E+00  0.10006968246E+03 -0.33102939916E+03  0.38591625407E+03  0.17127975920E+03 0.  0.
         24    2    3    3    0    0  0.28916294137E+02 -0.43369428193E+01 -0.18945830659E+03  0.20751480094E+03  0.79454273247E+02 0.  0.
         -6    2    1    2    0  502  0.44134236402E+00 -0.10006968246E+03 -0.15690433094E+03  0.25192465845E+03  0.16980261581E+03 0.  0.
        -24    2    5    5    0    0 -0.35328141521E+02 -0.92005676771E+02 -0.47329260510E+02  0.13628180210E+03  0.81360608043E+02 0.  0.
          5    1    3    3  501    0 -0.29357636501E+02  0.10440662528E+03 -0.14157109258E+03  0.17840145312E+03  0.47000000000E+01 0. -1.
        -13    1    4    4    0    0 -0.48246449931E+01 -0.78853167809E+01  0.47306970928E+01  0.10384359153E+02  0.00000000000E+00 0.  1.
         14    1    4    4    0    0  0.33740939131E+02  0.35483739615E+01 -0.19418900368E+03  0.19713044179E+03  0.00000000000E+00 0. -1.
         -5    1    5    5    0  502  0.35769483885E+02 -0.80640056849E+01 -0.10957507043E+03  0.11564285635E+03  0.47000000000E+01 0.  1.
         13    1    6    6    0    0 -0.16160562468E+02 -0.31868815018E+02 -0.61928507086E+02  0.71497728215E+02  0.00000000000E+00 0. -1.
        -14    1    6    6    0    0 -0.19167579053E+02 -0.60136861754E+02  0.14599246576E+02  0.64784073883E+02  0.00000000000E+00 0.  1.
</event>
<event>
12    1  0.8258923E-002  0.2861632E+03  0.7818608E-02  0.1092509E+00
         21   -1    0    0  501  502  0.00000000000E+00  0.00000000000E+00  0.29930994938E+03  0.29930994938E+03  0.00000000000E+00 0. -1.
         21   -1    0    0  502  503 -0.00000000000E+00 -0.00000000000E+00 -0.34766702700E+03  0.34766702700E+03  0.00000000000E+00 0.  1.
         -6    2    1    2    0  503 -0.22278885115E+03  0.55508436676E+02 -0.17446572472E+03  0.33425860754E+03  0.16903984405E+03 0.  0.
        -24    2    3    3    0    0 -0.83994450528E+02  0.35320874395E+02 -0.15096230020E+02  0.12190948662E+03  0.79570062717E+02 0.  0.
          6    2    1    2  501    0  0.22278885115E+03 -0.55508436676E+02  0.12610864710E+03  0.31271836883E+03  0.17080201576E+03 0.  0.
         24    2    5    5    0    0  0.22455281625E+03 -0.94600910274E+01  0.11581553955E+03  0.26526734383E+03  0.80250008704E+02 0.  0.
          5    1    5    5  501    0 -0.17639650964E+01 -0.46048345648E+02  0.10293107553E+02  0.47451024993E+02  0.47000000000E+01 0. -1.
        -13    1    6    6    0    0  0.41117991605E+02  0.30011477363E+02  0.21442071360E+02  0.55237129101E+02  0.00000000000E+00 0.  1.
         14    1    6    6    0    0  0.18343482464E+03 -0.39471568391E+02  0.94373468187E+02  0.21003021473E+03  0.00000000000E+00 0. -1.
         -5    1    3    3    0  503 -0.13879440062E+03  0.20187562281E+02 -0.15936949470E+03  0.21234912092E+03  0.47000000000E+01 0.  1.
         13    1    4    4    0    0 -0.65426878669E+02 -0.14175022611E+02 -0.16790717160E+02  0.69018373649E+02  0.00000000000E+00 0. -1.
        -14    1    4    4    0    0 -0.18567571859E+02  0.49495897006E+02  0.16944871394E+01  0.52891112975E+02  0.00000000000E+00 0.  1.
</event>
<event>
12    1  0.8258923E-002  0.2053049E+03  0.7818608E-02  0.1147403E+00
         21   -1    0    0  501  502  0.00000000000E+00  0.00000000000E+00  0.99806478953E+02  0.99806478953E+02  0.00000000000E+00 0. -1.
         21   -1    0    0  502  503 -0.00000000000E+00 -0.00000000000E+00 -0.63731889423E+03  0.63731889423E+03  0.00000000000E+00 0.  1.
         -6    2    1    2    0  503  0.90338302974E+02 -0.32784984001E+02 -0.49671400376E+03  0.53747082096E+03  0.18142275958E+03 0.  0.
        -24    2    3    3    0    0  0.13200897545E+03 -0.48026536249E+02 -0.37304924517E+03  0.40600290710E+03  0.77069471667E+02 0.  0.
          6    2    1    2  501    0 -0.90338302974E+02  0.32784984001E+02 -0.40798411522E+02  0.19965455223E+03  0.17018097920E+03 0.  0.
         24    2    5    5    0    0 -0.66646156384E+02  0.72070395369E+02 -0.70082928352E+02  0.14502549144E+03  0.80529027508E+02 0.  0.
          5    1    5    5  501    0 -0.23692146590E+02 -0.39285411368E+02  0.29284516830E+02  0.54629060786E+02  0.47000000000E+01 0. -1.
        -13    1    6    6    0    0  0.94616229328E+01  0.28349068503E+02 -0.44493675799E+02  0.53599246073E+02  0.00000000000E+00 0.  1.
         14    1    6    6    0    0 -0.76107779317E+02  0.43721326866E+02 -0.25589252553E+02  0.91426245366E+02  0.00000000000E+00 0. -1.
         -5    1    3    3    0  503 -0.41670672479E+02  0.15241552248E+02 -0.12366475859E+03  0.13146791387E+03  0.47000000000E+01 0.  1.
         11    1    4    4    0    0  0.41100712009E+02 -0.38059773483E+02 -0.71142366784E+02  0.90548612561E+02  0.00000000000E+00 0. -1.
        -12    1    4    4    0    0  0.90908263444E+02 -0.99667627663E+01 -0.30190687839E+03  0.31545429453E+03  0.00000000000E+00 0.  1.
</event>
<event>
12    1  0.8258923E-002  0.2768661E+03  0.7818608E-02  0.1097449E+00
         21   -1    0    0  503  502  0.00000000000E+00  0.00000000000E+00  0.24084571062E+03  0.24084571062E+03  0.00000000000E+00 0. -1.
         21   -1    0    0  501  503 -0.00000000000E+00 -0.00000000000E+00 -0.39615641394E+03  0.39615641394E+03  0.00000000000E+00 0.  1.
          6    2    1    2  501    0  0.20108497059E+03 -0.79592993325E+02 -0.21911602517E+03  0.35287897321E+03  0.17245732013E+03 0.  0.
         24    2    3    3    0    0  0.10099271759E+03  0.10467073352E+02 -0.16367410731E+03  0.20719036358E+03  0.76351455297E+02 0.  0.
         -6    2    1    2    0  502 -0.20108497059E+03  0.79592993325E+02  0.63805321842E+02  0.28412315135E+03  0.17287173295E+03 0.  0.
        -24    2    5    5    0    0 -0.36854844922E+02 -0.15014705304E+01  0.44128146784E+02  0.99848553360E+02  0.81620501478E+02 0.  0.
          5    1    3    3  501    0  0.10009225300E+03 -0.90060066677E+02 -0.55441917860E+02  0.14568860963E+03  0.47000000000E+01 0. -1.
        -11    1    4    4    0    0  0.11379682426E+03  0.94741636743E+01 -0.14657682276E+03  0.18580700191E+03  0.00000000000E+00 0.  1.
         12    1    4    4    0    0 -0.12804106670E+02  0.99290967815E+00 -0.17097284548E+02  0.21383361666E+02  0.00000000000E+00 0. -1.
         -5    1    5    5    0  502 -0.16423012567E+03  0.81094463855E+02  0.19677175058E+02  0.18427459799E+03  0.47000000000E+01 0.  1.
         13    1    6    6    0    0  0.12212968187E+01 -0.30763465803E+02 -0.49518746522E+01  0.31183384305E+02  0.00000000000E+00 0. -1.
        -14    1    6    6    0    0 -0.38076141741E+02  0.29261995273E+02  0.49080021437E+02  0.68665169056E+02  0.00000000000E+00 0.  1.
</event>
<event>
12    1  0.8258923E-002  0.1738400E+03  0.7818608E-02  0.1173968E+00
         21   -1    0    0  501  502  0.00000000000E+00  0.00000000000E+00  0.16487556121E+03  0.16487556121E+03  0.00000000000E+00 0.  1.
         21   -1    0    0  502  503 -0.00000000000E+00 -0.00000000000E+00 -0.18541366380E+03  0.18541366380E+03  0.00000000000E+00 0.  1.
         -6    2    1    2    0  503 -0.16495086465E+02 -0.10686644718E+01 -0.30203550602E+02  0.17644433757E+03  0.17305236164E+03 0.  0.
        -24    2    3    3    0    0  0.33104076897E+02  0.40722048322E+02 -0.12781314103E+02  0.10912298132E+03  0.94817181646E+02 0.  0.
          6    2    1    2  501    0  0.16495086465E+02  0.10686644718E+01  0.96654480111E+01  0.17384488744E+03  0.17278713518E+03 0.  0.
         24    2    5    5    0    0 -0.57821669607E+02 -0.39102439527E+01  0.15123596743E+02  0.99014070596E+02  0.78844324549E+02 0.  0.
          5    1    5    5  501    0  0.74316756073E+02  0.49789084245E+01 -0.54581487316E+01  0.74830816846E+02  0.47000000000E+01 0. -1.
        -11    1    6    6    0    0 -0.53439088367E+01  0.23478255280E+01 -0.29360474211E+02  0.29935047891E+02  0.00000000000E+00 0.  1.
         12    1    6    6    0    0 -0.52477760771E+02 -0.62580694807E+01  0.44484070954E+02  0.69079022704E+02  0.00000000000E+00 0. -1.
         -5    1    3    3    0  503 -0.49599163362E+02 -0.41790712794E+02 -0.17422236499E+02  0.67321356245E+02  0.47000000000E+01 0.  1.
         11    1    4    4    0    0  0.46318661770E+02  0.13936879061E+02 -0.44378401270E+02  0.65643716572E+02  0.00000000000E+00 0. -1.
        -12    1    4    4    0    0 -0.13214584872E+02  0.26785169261E+02  0.31597087167E+02  0.43479264749E+02  0.00000000000E+00 0.  1.
</event>
<event>
12    1  0.8258923E-002  0.1873826E+03  0.7818608E-02  0.1160867E+00
         21   -1    0    0  501  502  0.00000000000E+00  0.00000000000E+00  0.21573580867E+03  0.21573580867E+03  0.00000000000E+00 0. -1.
         21   -1    0    0  502  503 -0.00000000000E+00 -0.00000000000E+00 -0.36487633814E+03  0.36487633814E+03  0.00000000000E+00 0. -1.
         -6    2    1    2    0  503 -0.71157378542E+02 -0.13332983119E+02 -0.29067594052E+03  0.34578348985E+03  0.17272110031E+03 0.  0.
        -24    2    3    3    0    0 -0.78655857019E+02  0.49118818008E+02 -0.21279572984E+03  0.24556437062E+03  0.80127619155E+02 0.  0.
          6    2    1    2  501    0  0.71157378542E+02  0.13332983119E+02  0.14153541106E+03  0.23482865696E+03  0.17283253336E+03 0.  0.
         24    2    5    5    0    0  0.74600183510E+02  0.44477933067E+02  0.15947085157E+03  0.19841944330E+03  0.79974052487E+02 0.  0.
          5    1    5    5  501    0 -0.34428049681E+01 -0.31144949948E+02 -0.17935440504E+02  0.36409213660E+02  0.47000000000E+01 0. -1.
        -13    1    6    6    0    0  0.25419825096E+02  0.14735815167E+02  0.50919608062E+00  0.29386579202E+02  0.00000000000E+00 0.  1.
         14    1    6    6    0    0  0.49180358414E+02  0.29742117899E+02  0.15896165549E+03  0.16903286410E+03  0.00000000000E+00 0. -1.
         -5    1    3    3    0  503  0.74984784777E+01 -0.62451801127E+02 -0.77880210685E+02  0.10021911923E+03  0.47000000000E+01 0.  1.
         11    1    4    4    0    0 -0.19899325202E+02 -0.19960502925E+02 -0.79461138665E+02  0.84311786712E+02  0.00000000000E+00 0. -1.
        -12    1    4    4    0    0 -0.58756531817E+02  0.69079320934E+02 -0.13333459117E+03  0.16125258390E+03  0.00000000000E+00 0.  1.
</event>
<event>
12    1  0.8258923E-002  0.2584084E+03  0.7818608E-02  0.1108315E+00
         21   -1    0    0  501  502  0.00000000000E+00  0.00000000000E+00  0.81489340327E+03  0.81489340327E+03  0.00000000000E+00 0. -1.
         21   -1    0    0  502  503 -0.00000000000E+00 -0.00000000000E+00 -0.88936310900E+02  0.88936310900E+02  0.00000000000E+00 0. -1.
         -6    2    1    2    0  503  0.16493149024E+03  0.98657798873E+02  0.49453069129E+03  0.55797447827E+03  0.17274014015E+03 0.  0.
        -24    2    3    3    0    0  0.18489042884E+03  0.79051010554E+02  0.48213219179E+03  0.52701324173E+03  0.69699165417E+02 0.  0.
          6    2    1    2  501    0 -0.16493149024E+03 -0.98657798873E+02  0.23142640108E+03  0.34585523590E+03  0.17065142054E+03 0.  0.
         24    2    5    5    0    0 -0.15080352532E+03 -0.11455873851E+03  0.24499229591E+03  0.32019275792E+03  0.81466369432E+02 0.  0.
          5    1    5    5  501    0 -0.14127964922E+02  0.15900939635E+02 -0.13565894825E+02  0.25662477989E+02  0.47000000000E+01 0. -1.
        -11    1    6    6    0    0 -0.61041735191E+02 -0.89873990661E+02  0.16442713594E+03  0.19707793044E+03  0.00000000000E+00 0.  1.
         12    1    6    6    0    0 -0.89761790131E+02 -0.24684747848E+02  0.80565159968E+02  0.12311482748E+03  0.00000000000E+00 0. -1.
         -5    1    3    3    0  503 -0.19958938594E+02  0.19606788319E+02  0.12398499504E+02  0.30961236537E+02  0.47000000000E+01 0.  1.
         13    1    4    4    0    0  0.56409316567E+02  0.60223677216E+02  0.20423243444E+03  0.22027208077E+03  0.00000000000E+00 0. -1.
        -14    1    4    4    0    0  0.12848111227E+03  0.18827333338E+02  0.27789975735E+03  0.30674116096E+03  0.00000000000E+00 0.  1.
</event>
<event>
12    1  0.8258923E-002  0.1803664E+03  0.7818608E-02  0.1168917E+00
         21   -1    0    0  503  502  0.00000000000E+00  0.00000000000E+00  0.55056574998E+02  0.55056574998E+02  0.00000000000E+00 0. -1.
         21   -1    0    0  501  503 -0.00000000000E+00 -0.00000000000E+00 -0.82007363512E+03  0.82007363512E+03  0.00000000000E+00 0. -1.
          6    2    1    2  501    0 -0.25100966947E+02  0.50646012020E+02 -0.61891183524E+03  0.64301217517E+03  0.16497793958E+03 0.  0.
         24    2    3    3    0    0 -0.13808697413E+02  0.98382118543E+02 -0.42846987613E+03  0.44629796367E+03  0.75668462748E+02 0.  0.
         -6    2    1    2    0  502  0.25100966947E+02 -0.50646012020E+02 -0.14610522489E+03  0.23211803495E+03  0.17128037930E+03 0.  0.
        -24    2    5    5    0    0  0.13725165347E+02 -0.93373238608E+02 -0.67856723586E+02  0.14211835323E+03  0.81768878777E+02 0.  0.
          5    1    3    3  501    0 -0.11292269534E+02 -0.47736106523E+02 -0.19044195911E+03  0.19671421150E+03  0.47000000000E+01 0. -1.
        -11    1    4    4    0    0 -0.11251321276E+02  0.20734381390E+02 -0.21303308512E+02  0.31785810602E+02  0.00000000000E+00 0.  1.
         12    1    4    4    0    0 -0.25573761365E+01  0.77647737153E+02 -0.40716656762E+03  0.41451215307E+03  0.00000000000E+00 0. -1.
         -5    1    5    5    0  502  0.11375801600E+02  0.42727226588E+02 -0.78248501301E+02  0.89999681720E+02  0.47000000000E+01 0.  1.
         11    1    6    6    0    0  0.28549068074E+02 -0.14050295608E+02 -0.50323762564E+02  0.59539408572E+02  0.00000000000E+00 0. -1.
        -12    1    6    6    0    0 -0.14823902727E+02 -0.79322943000E+02 -0.17532961022E+02  0.82578944655E+02  0.00000000000E+00 0.  1.
</event>
<event>
12    1  0.8258923E-002  0.2300674E+03  0.7818608E-02  0.1126609E+00
         21   -1    0    0  503  502  0.00000000000E+00  0.00000000000E+00  0.22254832583E+03  0.22254832583E+03  0.00000000000E+00 0.  1.
         21   -1    0    0  501  503 -0.00000000000E+00 -0.00000000000E+00 -0.27964645717E+03  0.27964645717E+03  0.00000000000E+00 0.  1.
          6    2    1    2  501    0 -0.11608785062E+03 -0.99650029844E+02 -0.12574217541E+03  0.26210518264E+03  0.17170181880E+03 0.  0.
         24    2    3    3    0    0 -0.52858656921E+02 -0.12853236963E+03 -0.93069765837E+02  0.18515262040E+03  0.79403424830E+02 0.  0.
         -6    2    1    2    0  502  0.11608785062E+03  0.99650029844E+02  0.68644044069E+02  0.24008960036E+03  0.17182693009E+03 0.  0.
        -24    2    5    5    0    0  0.25731254080E+02 -0.79124756550E+01 -0.12658464425E+02  0.77712893240E+02  0.71793818304E+02 0.  0.
          5    1    3    3  501    0 -0.63229193701E+02  0.28882339784E+02 -0.32672409575E+02  0.76952562238E+02  0.47000000000E+01 0. -1.
        -11    1    4    4    0    0 -0.65935327568E+02 -0.73161705942E+02 -0.36819792987E+02  0.10514656339E+03  0.00000000000E+00 0.  1.
         12    1    4    4    0    0  0.13076670647E+02 -0.55370663686E+02 -0.56249972850E+02  0.80006057007E+02  0.00000000000E+00 0. -1.
         -5    1    5    5    0  502  0.90356596543E+02  0.10756250550E+03  0.81302508495E+02  0.16237670712E+03  0.47000000000E+01 0.  1.
         13    1    6    6    0    0 -0.20030801004E+02  0.74302810059E-01 -0.22608261505E+02  0.30205496156E+02  0.00000000000E+00 0. -1.
        -14    1    6    6    0    0  0.45762055084E+02 -0.79867784651E+01  0.99497970797E+01  0.47507397084E+02  0.00000000000E+00 0.  1.
</event>
<event>
12    1  0.8258923E-002  0.2677510E+03  0.7818608E-02  0.1102740E+00
         21   -1    0    0  503  502  0.00000000000E+00  0.00000000000E+00  0.22802292899E+03  0.22802292899E+03  0.00000000000E+00 0.  1.
         21   -1    0    0  501  503 -0.00000000000E+00 -0.00000000000E+00 -0.31491661058E+03  0.31491661058E+03  0.00000000000E+00 0. -1.
          6    2    1    2  501    0 -0.20485705486E+03 -0.20952325380E+02 -0.64415971819E+02  0.27539068261E+03  0.17112918448E+03 0.  0.
         24    2    3    3    0    0 -0.10032473846E+03  0.22107138766E+02 -0.90152717818E+02  0.15934934206E+03  0.81920214550E+02 0.  0.
         -6    2    1    2    0  502  0.20485705486E+03  0.20952325380E+02 -0.22477709776E+02  0.26754885696E+03  0.16932728830E+03 0.  0.
        -24    2    5    5    0    0  0.64920561771E+02  0.29254105614E+02 -0.61834842029E+02  0.12187039078E+03  0.77190429608E+02 0.  0.
          5    1    3    3  501    0 -0.10453231639E+03 -0.43059464146E+02  0.25736745999E+02  0.11604134055E+03  0.47000000000E+01 0. -1.
        -13    1    4    4    0    0 -0.20855284111E+02  0.20564163667E+02  0.10484613510E+02  0.31108757981E+02  0.00000000000E+00 0.  1.
         14    1    4    4    0    0 -0.79469454353E+02  0.15429750988E+01 -0.10063733133E+03  0.12824058408E+03  0.00000000000E+00 0. -1.
         -5    1    5    5    0  502  0.13993649308E+03 -0.83017802344E+01  0.39357132253E+02  0.14567846619E+03  0.47000000000E+01 0.  1.
         11    1    6    6    0    0 -0.79882357102E+01  0.17119577164E+02 -0.40898211222E+02  0.45050588377E+02  0.00000000000E+00 0. -1.
        -12    1    6    6    0    0  0.72908797481E+02  0.12134528451E+02 -0.20936630807E+02  0.76819802398E+02  0.00000000000E+00 0.  1.
</event>
<event>
12    1  0.8258923E-002  0.2148522E+03  0.7818608E-02  0.1137933E+00
         21   -1    0    0  501  502  0.00000000000E+00  0.00000000000E+00  0.18868345560E+03  0.18868345560E+03  0.00000000000E+00 0. -1.
         21   -1    0    0  502  503 -0.00000000000E+00 -0.00000000000E+00 -0.38517421773E+03  0.38517421773E+03  0.00000000000E+00 0. -1.
         -6    2    1    2    0  503 -0.10252189824E+03 -0.77109509556E+02 -0.27199383321E+03  0.34612499832E+03  0.17136292794E+03 0.  0.
        -24    2    3    3    0    0 -0.89377412480E+02 -0.15357921187E+02 -0.80861985810E+02  0.14478074272E+03  0.78731284177E+02 0.  0.
          6    2    1    2  501    0  0.10252189824E+03  0.77109509556E+02  0.75503071085E+02  0.22773267502E+03  0.17235092528E+03 0.  0.
         24    2    5    5    0    0  0.13890317164E+03  0.45686420636E+02  0.58807239788E+02  0.17662642927E+03  0.79732452257E+02 0.  0.
          5    1    5    5  501    0 -0.36381273400E+02  0.31423088920E+02  0.16695831297E+02  0.51106245746E+02  0.47000000000E+01 0. -1.
        -11    1    6    6    0    0  0.41227382609E+02  0.54105555576E+02  0.17473161341E+02  0.70231186721E+02  0.00000000000E+00 0.  1.
         12    1    6    6    0    0  0.97675789032E+02 -0.84191349398E+01  0.41334078447E+02  0.10639524255E+03  0.00000000000E+00 0. -1.
         -5    1    3    3    0  503 -0.13144485762E+02 -0.61751588369E+02 -0.19113184740E+03  0.20134425560E+03  0.47000000000E+01 0.  1.
         13    1    4    4    0    0 -0.91977863094E+02 -0.36352761680E+02 -0.67993074218E+02  0.12001878487E+03  0.00000000000E+00 0. -1.
        -14    1    4    4    0    0  0.26004506140E+01  0.20994840493E+02 -0.12868911591E+02  0.24761957844E+02  0.00000000000E+00 0.  1.
</event>
<event>
12    1  0.8258923E-002  0.2615976E+03  0.7818608E-02  0.1106434E+00
         21   -1    0    0  503  502  0.00000000000E+00  0.00000000000E+00  0.54542924451E+03  0.54542924451E+03  0.00000000000E+00 0.  1.
         21   -1    0    0  501  503 -0.00000000000E+00 -0.00000000000E+00 -0.19472640706E+03  0.19472640706E+03  0.00000000000E+00 0.  1.
          6    2    1    2  501    0 -0.10230512845E+03 -0.16696846356E+03 -0.46969439683E+02  0.26415509466E+03  0.17095899697E+03 0.  0.
         24    2    3    3    0    0 -0.88549194738E+02 -0.72858802945E+02  0.21790134751E+02  0.14669947322E+03  0.88862592890E+02 0.  0.
         -6    2    1    2    0  502  0.10230512845E+03  0.16696846356E+03  0.39767227714E+03  0.47600055691E+03  0.17346032123E+03 0.  0.
        -24    2    5    5    0    0  0.61887544799E+02  0.15302067041E+02  0.17796959142E+03  0.20594938210E+03  0.81717507683E+02 0.  0.
          5    1    3    3  501    0 -0.13755933712E+02 -0.94109660611E+02 -0.68759574434E+02  0.11745562144E+03  0.47000000000E+01 0. -1.
        -11    1    4    4    0    0 -0.30636067397E+02  0.16276942238E+02 -0.93597066135E+01  0.35932041162E+02  0.00000000000E+00 0.  1.
         12    1    4    4    0    0 -0.57913127341E+02 -0.89135745183E+02  0.31149841364E+02  0.11076743206E+03  0.00000000000E+00 0. -1.
         -5    1    5    5    0  502  0.40417583650E+02  0.15166639652E+03  0.21970268572E+03  0.27005117481E+03  0.47000000000E+01 0.  1.
         13    1    6    6    0    0 -0.17344642718E+02 -0.87037615154E+01  0.48900612722E+02  0.52610474434E+02  0.00000000000E+00 0. -1.
        -14    1    6    6    0    0  0.79232187517E+02  0.24005828556E+02  0.12906897869E+03  0.15333890767E+03  0.00000000000E+00 0.  1.
</event>
<event>
12    1  0.8258923E-002  0.2614535E+03  0.7818608E-02  0.1106500E+00
         21   -1    0    0  503  502  0.00000000000E+00  0.00000000000E+00  0.10029421416E+04  0.10029421416E+04  0.00000000000E+00 0. -1.
         21   -1    0    0  501  503 -0.00000000000E+00 -0.00000000000E+00 -0.73072965843E+02  0.73072965843E+02  0.00000000000E+00 0. -1.
          6    2    1    2  501    0 -0.64684771597E+02  0.18468262694E+03  0.31865204512E+03  0.41122618840E+03  0.17110248332E+03 0.  0.
         24    2    3    3    0    0 -0.50257187803E+02  0.24076193249E+02  0.14260916124E+03  0.17244643909E+03  0.79340742857E+02 0.  0.
         -6    2    1    2    0  502  0.64684771597E+02 -0.18468262694E+03  0.61121713065E+03  0.66478891905E+03  0.17339588728E+03 0.  0.
        -24    2    5    5    0    0  0.10953044494E+03 -0.12677940522E+03  0.39329501636E+03  0.43484097843E+03  0.79597554399E+02 0.  0.
          5    1    3    3  501    0 -0.14427583794E+02  0.16060643369E+03  0.17604288388E+03  0.23877974931E+03  0.47000000000E+01 0. -1.
        -13    1    4    4    0    0  0.20798007720E+02  0.14213921614E+02  0.38907212065E+02  0.46350445990E+02  0.00000000000E+00 0.  1.
         14    1    4    4    0    0 -0.71055195523E+02  0.98622716347E+01  0.10370194918E+03  0.12609599310E+03  0.00000000000E+00 0. -1.
         -5    1    5    5    0  502 -0.44845673341E+02 -0.57903221722E+02  0.21792211428E+03  0.22994794062E+03  0.47000000000E+01 0.  1.
         11    1    6    6    0    0  0.66984727137E+02 -0.22677170209E+02  0.18625861048E+03  0.19923222053E+03  0.00000000000E+00 0. -1.
        -12    1    6    6    0    0  0.42545717801E+02 -0.10410223501E+03  0.20703640588E+03  0.23560875790E+03  0.00000000000E+00 0.  1.
</event>
<event>
12    1  0.8258923E-002  0.1953922E+03  0.7818608E-02  0.1153698E+00
         21   -1    0    0  501  502  0.00000000000E+00  0.00000000000E+00  0.23563335618E+03  0.23563335618E+03  0.00000000000E+00 0.  1.
         21   -1    0    0  502  503 -0.00000000000E+00 -0.00000000000E+00 -0.19204361923E+03  0.19204361923E+03  0.00000000000E+00 0.  1.
         -6    2    1    2    0  503  0.26903239537E+02  0.90593145208E+02 -0.62812471201E+02  0.20524012799E+03  0.17101813163E+03 0.  0.
        -24    2    3    3    0    0  0.32973052721E+02 -0.18766705630E+01 -0.59226541126E+02  0.11238293465E+03  0.89618060286E+02 0.  0.
          6    2    1    2  501    0 -0.26903239537E+02 -0.90593145208E+02  0.10640220815E+03  0.22243684741E+03  0.17095560515E+03 0.  0.
         24    2    5    5    0    0  0.35316416097E+02 -0.29602778014E+01  0.45185730859E+02  0.98661437543E+02  0.80226657005E+02 0.  0.
          5    1    5    5  501    0 -0.62219655634E+02 -0.87632867406E+02  0.61216477287E+02  0.12377540987E+03  0.47000000000E+01 0. -1.
        -11    1    6    6    0    0  0.14574850267E+02 -0.30807838050E+02  0.53054209830E+02  0.63057896621E+02  0.00000000000E+00 0.  1.
         12    1    6    6    0    0  0.20741565830E+02  0.27847560249E+02 -0.78684789706E+01  0.35603540922E+02  0.00000000000E+00 0. -1.
         -5    1    3    3    0  503 -0.60698131837E+01  0.92469815771E+02 -0.35859300750E+01  0.92857193341E+02  0.47000000000E+01 0.  1.
         11    1    4    4    0    0  0.63017686968E+01  0.20146181105E+02 -0.72366757126E+02  0.75382547309E+02  0.00000000000E+00 0. -1.
        -12    1    4    4    0    0  0.26671284024E+02 -0.22022851668E+02  0.13140216000E+02  0.37000387344E+02  0.00000000000E+00 0.  1.
</event>
<event>
12    1  0.8258923E-002  0.3079307E+03  0.7818608E-02  0.1081373E+00
         21   -1    0    0  503  502  0.00000000000E+00  0.00000000000E+00  0.17372571526E+03  0.17372571526E+03  0.00000000000E+00 0. -1.
         21   -1    0    0  501  503 -0.00000000000E+00 -0.00000000000E+00 -0.67771283763E+03  0.67771283763E+03  0.00000000000E+00 0.  1.
          6    2    1    2  501    0  0.24404139847E+03 -0.75978792859E+02 -0.44021390601E+03  0.53722395016E+03  0.17173324793E+03 0.  0.
         24    2    3    3    0    0  0.24875956608E+03 -0.31378460181E+02 -0.37833552143E+03  0.46065714757E+03  0.78748405403E+02 0.  0.
         -6    2    1    2    0  502 -0.24404139847E+03  0.75978792859E+02 -0.63773216361E+02  0.31421460273E+03  0.17127408535E+03 0.  0.
        -24    2    5    5    0    0 -0.16342636386E+03  0.12126681056E+02  0.16792766699E+02  0.18349029890E+03  0.80817448465E+02 0.  0.
          5    1    3    3  501    0 -0.47181676023E+01 -0.44600332678E+02 -0.61878384582E+02  0.76566802591E+02  0.47000000000E+01 0. -1.
        -11    1    4    4    0    0  0.21174093255E+03 -0.11259181737E+02 -0.35211919590E+03  0.41103396430E+03  0.00000000000E+00 0.  1.
         12    1    4    4    0    0  0.37018633526E+02 -0.20119278444E+02 -0.26216325535E+02  0.49623183270E+02  0.00000000000E+00 0. -1.
         -5    1    5    5    0  502 -0.80615034611E+02  0.63852111803E+02 -0.80565983060E+02  0.13072430384E+03  0.47000000000E+01 0.  1.
         11    1    6    6    0    0 -0.69112504673E+02  0.40533370996E+02  0.26798070792E+02  0.84484490083E+02  0.00000000000E+00 0. -1.
        -12    1    6    6    0    0 -0.94313859189E+02 -0.28406689939E+02 -0.10005304093E+02  0.99005808812E+02  0.00000000000E+00 0.  1.
</event>
<event>
12    1  0.8258923E-002  0.1973164E+03  0.7818608E-02  0.1152212E+00
         21   -1    0    0  503  502  0.00000000000E+00  0.00000000000E+00  0.98446349121E+02  0.98446349121E+02  0.00000000000E+00 0.  1.
         21   -1    0    0  501  503 -0.00000000000E+00 -0.00000000000E+00 -0.40309333450E+03  0.40309333450E+03  0.00000000000E+00 0.  1.
          6    2    1    2  501    0 -0.67291596090E+02 -0.68666084982E+02 -0.11442982436E+03  0.22809634146E+03  0.17230950686E+03 0.  0.
         24    2    3    3    0    0  0.16177411523E+02 -0.69887356415E+02 -0.32224877581E+02  0.11084315383E+03  0.78114088261E+02 0.  0.
         -6    2    1    2    0  502  0.67291596090E+02  0.68666084982E+02 -0.19021716102E+03  0.27344334216E+03  0.17130529149E+03 0.  0.
        -24    2    5    5    0    0  0.65126791926E+02  0.96626334787E+02 -0.86189307678E+02  0.16559925926E+03  0.80102249080E+02 0.  0.
          5    1    3    3  501    0 -0.83469007613E+02  0.12212714324E+01 -0.82204946782E+02  0.11725318764E+03  0.47000000000E+01 0. -1.
        -13    1    4    4    0    0  0.20117183132E+02  0.97988171548E+01  0.48022894864E+01  0.22886237330E+02  0.00000000000E+00 0.  1.
         14    1    4    4    0    0 -0.39397716094E+01 -0.79686173569E+02 -0.37027167067E+02  0.87956916496E+02  0.00000000000E+00 0. -1.
         -5    1    5    5    0  502  0.21648041644E+01 -0.27960249805E+02 -0.10402785334E+03  0.10784408290E+03  0.47000000000E+01 0.  1.
         13    1    6    6    0    0  0.80666143591E+01  0.25478366843E+02  0.13955016701E+02  0.30148962426E+02  0.00000000000E+00 0. -1.
        -14    1    6    6    0    0  0.57060177567E+02  0.71147967945E+02 -0.10014432438E+03  0.13545029683E+03  0.00000000000E+00 0.  1.
</event>
<event>
12    1  0.8258923E-002  0.2710961E+03  0.7818608E-02  0.1100881E+00
         21   -1    0    0  503  502  0.00000000000E+00  0.00000000000E+00  0.11737455345E+03  0.11737455345E+03  0.00000000000E+00 0. -1.
         21   -1    0    0  501  503 -0.00000000000E+00 -0.00000000000E+00 -0.18361304649E+04  0.18361304649E+04  0.00000000000E+00 0. -1.
          6    2    1    2  501    0  0.64323718583E+02 -0.19850790574E+03 -0.16526298722E+04  0.16744606807E+04  0.17055833945E+03 0.  0.
         24    2    3    3    0    0  0.75948739969E+02 -0.17219953169E+03 -0.16094644895E+04  0.16223779395E+04  0.79456564538E+02 0.  0.
         -6    2    1    2    0  502 -0.64323718583E+02  0.19850790574E+03 -0.66126039223E+02  0.27904433766E+03  0.17306114499E+03 0.  0.
        -24    2    5    5    0    0  0.77355317064E+01  0.65773061426E+02  0.20834975938E+02  0.10470162171E+03  0.78373460473E+02 0.  0.
          5    1    3    3  501    0 -0.11625021386E+02 -0.26308374052E+02 -0.43165382710E+02  0.52082741210E+02  0.47000000000E+01 0. -1.
        -11    1    4    4    0    0  0.11187498088E+02 -0.16917413388E+02 -0.48228227901E+03  0.48270856180E+03  0.00000000000E+00 0.  1.
         12    1    4    4    0    0  0.64761241881E+02 -0.15528211830E+03 -0.11271822105E+04  0.11396693777E+04  0.00000000000E+00 0. -1.
         -5    1    5    5    0  502 -0.72059250290E+02  0.13273484431E+03 -0.86961015162E+02  0.17434271595E+03  0.47000000000E+01 0.  1.
         13    1    6    6    0    0  0.41784694887E+02  0.38328718078E+02  0.10737574084E+01  0.56711588862E+02  0.00000000000E+00 0. -1.
        -14    1    6    6    0    0 -0.34049163181E+02  0.27444343348E+02  0.19761218530E+02  0.47990032850E+02  0.00000000000E+00 0.  1.
</event>
<event>
12    1  0.8258923E-002  0.1772515E+03  0.7818608E-02  0.1170507E+00
         21   -1    0    0  501  502  0.00000000000E+00  0.00000000000E+00  0.92610011997E+03  0.92610011997E+03  0.00000000000E+00 0. -1.
         21   -1    0    0  502  503 -0.00000000000E+00 -0.00000000000E+00 -0.81880838901E+02  0.81880838901E+02  0.00000000000E+00 0. -1.
         -6    2    1    2    0  503  0.14771385064E+02 -0.39010134589E+02  0.36319053599E+02  0.18086496714E+03  0.17220069183E+03 0.  0.
        -24    2    3    3    0    0  0.21011110437E+02  0.19633624828E+02  0.76243325684E+02  0.10949226793E+03  0.73133891176E+02 0.  0.
          6    2    1    2  501    0 -0.14771385064E+02  0.39010134589E+02  0.80790022747E+03  0.82711599174E+03  0.17227333461E+03 0.  0.
         24    2    5    5    0    0 -0.32607891203E+02  0.81081787950E+02  0.42105032089E+03  0.43754814759E+03  0.80792808062E+02 0.  0.
          5    1    5    5  501    0  0.17836506139E+02 -0.42071653361E+02  0.38684990658E+03  0.38956784414E+03  0.47000000000E+01 0. -1.
        -13    1    6    6    0    0  0.24391311543E+02  0.14671683146E+02  0.66104034313E+02  0.71971784177E+02  0.00000000000E+00 0.  1.
         14    1    6    6    0    0 -0.56999202746E+02  0.66410104804E+02  0.35494628658E+03  0.36557636342E+03  0.00000000000E+00 0. -1.
         -5    1    3    3    0  503 -0.62397253730E+01 -0.58643759416E+02 -0.39924272085E+02  0.71372699211E+02  0.47000000000E+01 0.  1.
         13    1    4    4    0    0  0.22679820488E+01 -0.24476088335E+01 -0.14167642045E+02  0.14555295005E+02  0.00000000000E+00 0. -1.
        -14    1    4    4    0    0  0.18743128389E+02  0.22081233661E+02  0.90410967729E+02  0.94936972921E+02  0.00000000000E+00 0.  1.
</event>
<event>
12    1  0.8258923E-002  0.1942631E+03  0.7818608E-02  0.1154784E+00
         21   -1    0    0  503  502  0.00000000000E+00  0.00000000000E+00  0.10982284055E+03  0.10982284055E+03  0.00000000000E+00 0.  1.
         21   -1    0    0  501  503 -0.00000000000E+00 -0.00000000000E+00 -0.43606171720E+03  0.43606171720E+03  0.00000000000E+00 0.  1.
          6    2    1    2  501    0 -0.88431574248E+02  0.27464918187E+02 -0.28922823861E+03  0.34812726255E+03  0.17019151526E+03 0.  0.
         24    2    3    3    0    0 -0.84535398174E+02 -0.30409942350E+02 -0.12571989052E+03  0.17457107693E+03  0.81231594168E+02 0.  0.
         -6    2    1    2    0  502  0.88431574248E+02 -0.27464918187E+02 -0.37010638035E+02  0.19775729520E+03  0.17077381363E+03 0.  0.
        -24    2    5    5    0    0 -0.14480413097E+02  0.54681066275E+01 -0.37207111953E+02  0.89601898367E+02  0.80028422811E+02 0.  0.
          5    1    3    3  501    0 -0.38961760748E+01  0.57874860537E+02 -0.16350834810E+03  0.17355618562E+03  0.47000000000E+01 0. -1.
        -13    1    4    4    0    0 -0.17209605361E+02  0.23291411487E+02 -0.58668629056E+02  0.65426817139E+02  0.00000000000E+00 0.  1.
         14    1    4    4    0    0 -0.67325792813E+02 -0.53701353837E+02 -0.67051261460E+02  0.10914425979E+03  0.00000000000E+00 0. -1.
         -5    1    5    5    0  502  0.10291198734E+03 -0.32933024814E+02  0.19647391757E+00  0.10815539684E+03  0.47000000000E+01 0.  1.
         13    1    6    6    0    0 -0.10907807708E+02  0.18030161182E+02  0.21117382267E+02  0.29833049040E+02  0.00000000000E+00 0. -1.
        -14    1    6    6    0    0 -0.35726053882E+01 -0.12562054554E+02 -0.58324494219E+02  0.59768849327E+02  0.00000000000E+00 0.  1.
</event>
<event>
12    1  0.8258923E-002  0.1741822E+03  0.7818608E-02  0.1174136E+00
         21   -1    0    0  501  502  0.00000000000E+00  0.00000000000E+00  0.16192286633E+03  0.16192286633E+03  0.00000000000E+00 0. -1.
         21   -1    0    0  502  503 -0.00000000000E+00 -0.00000000000E+00 -0.20639214891E+03  0.20639214891E+03  0.00000000000E+00 0. -1.
         -6    2    1    2    0  503 -0.18990608345E+02 -0.16453989520E+02 -0.81499238309E+02  0.19024019046E+03  0.17005242499E+03 0.  0.
        -24    2    3    3    0    0 -0.35105897321E+02  0.39550240696E+02 -0.91431255804E+02  0.13093663819E+03  0.77382705539E+02 0.  0.
          6    2    1    2  501    0  0.18990608345E+02  0.16453989520E+02  0.37029955734E+02  0.17807482478E+03  0.17236022924E+03 0.  0.
         24    2    5    5    0    0  0.16710803818E+02 -0.31142135596E+01 -0.45979771189E+02  0.92630007241E+02  0.78595353505E+02 0.  0.
          5    1    5    5  501    0  0.22798045273E+01  0.19568203080E+02  0.83009726923E+02  0.85444817539E+02  0.47000000000E+01 0. -1.
        -13    1    6    6    0    0 -0.31601042949E+02 -0.43372793834E+01 -0.15205727034E+02  0.35336270920E+02  0.00000000000E+00 0.  1.
         14    1    6    6    0    0  0.48311846766E+02  0.12230658238E+01 -0.30774044155E+02  0.57293736321E+02  0.00000000000E+00 0. -1.
         -5    1    3    3    0  503  0.16115288976E+02 -0.56004230216E+02  0.99320174952E+01  0.59303552275E+02  0.47000000000E+01 0.  1.
         11    1    4    4    0    0 -0.51517087644E+02  0.17594037292E+02 -0.26685793858E+02  0.60627486022E+02  0.00000000000E+00 0. -1.
        -12    1    4    4    0    0  0.16411190324E+02  0.21956203405E+02 -0.64745461946E+02  0.70309152167E+02  0.00000000000E+00 0.  1.
</event>
<event>
12    1  0.8258923E-002  0.2314261E+03  0.7818608E-02  0.1125945E+00
         21   -1    0    0  503  502  0.00000000000E+00  0.00000000000E+00  0.24088001966E+04  0.24088001966E+04  0.00000000000E+00 0. -1.
         21   -1    0    0  501  503 -0.00000000000E+00 -0.00000000000E+00 -0.56081716220E+02  0.56081716220E+02  0.00000000000E+00 0. -1.
          6    2    1    2  501    0  0.42414772089E+02 -0.14578758698E+03  0.21479971048E+03  0.31447388087E+03  0.17234231262E+03 0.  0.
         24    2    3    3    0    0  0.48847174010E+02 -0.22913040991E+02  0.14284350952E+03  0.17185791156E+03  0.78865833528E+02 0.  0.
         -6    2    1    2    0  502 -0.42414772089E+02  0.14578758698E+03  0.21379187699E+04  0.21504080320E+04  0.17465681715E+03 0.  0.
        -24    2    5    5    0    0 -0.51697040777E+02  0.65720475856E+02  0.62079259732E+03  0.63113491091E+03  0.77175526606E+02 0.  0.
          5    1    3    3  501    0 -0.64324019206E+01 -0.12287454598E+03  0.71956200960E+02  0.14261596931E+03  0.47000000000E+01 0. -1.
        -11    1    4    4    0    0 -0.51961834946E+01 -0.24395372661E+02  0.99459567869E+02  0.10253945665E+03  0.00000000000E+00 0.  1.
         12    1    4    4    0    0  0.54043357505E+02  0.14823316702E+01  0.43383941649E+02  0.69318454906E+02  0.00000000000E+00 0. -1.
         -5    1    5    5    0  502  0.92822686879E+01  0.80067111119E+02  0.15171261726E+04  0.15192731211E+04  0.47000000000E+01 0.  1.
         13    1    6    6    0    0 -0.70631370373E+02  0.50595157958E+02  0.53402827767E+03  0.54104977760E+03  0.00000000000E+00 0. -1.
        -14    1    6    6    0    0  0.18934329595E+02  0.15125317898E+02  0.86764319652E+02  0.90085133309E+02  0.00000000000E+00 0.  1.
</event>
<event>
12    1  0.8258923E-002  0.2313304E+03  0.7818608E-02  0.1125722E+00
         21   -1    0    0  503  502  0.00000000000E+00  0.00000000000E+00  0.11494039032E+03  0.11494039032E+03  0.00000000000E+00 0. -1.
         21   -1    0    0  501  503 -0.00000000000E+00 -0.00000000000E+00 -0.13109325680E+04  0.13109325680E+04  0.00000000000E+00 0. -1.
          6    2    1    2  501    0  0.90534365672E+02  0.12556771814E+03 -0.11706007316E+04  0.11932392122E+04  0.17190119684E+03 0.  0.
         24    2    3    3    0    0  0.86483504924E+02  0.43212279503E+02 -0.93842627873E+03  0.94681296701E+03  0.80400349301E+02 0.  0.
         -6    2    1    2    0  502 -0.90534365672E+02 -0.12556771814E+03 -0.25391446089E+02  0.23263374615E+03  0.17178478136E+03 0.  0.
        -24    2    5    5    0    0  0.20708004894E+01 -0.57254295737E+02  0.42840558248E+02  0.98767630584E+02  0.68098376083E+02 0.  0.
          5    1    3    3  501    0  0.40508607480E+01  0.82355438635E+02 -0.23217445285E+03  0.24642624515E+03  0.47000000000E+01 0. -1.
        -13    1    4    4    0    0  0.22393193594E+02  0.11932599371E+02 -0.55662592115E+02  0.61173247487E+02  0.00000000000E+00 0.  1.
         14    1    4    4    0    0  0.64090311330E+02  0.31279680132E+02 -0.88276368662E+03  0.88563971953E+03  0.00000000000E+00 0. -1.
         -5    1    5    5    0  502 -0.92605166161E+02 -0.68313422401E+02 -0.68232004337E+02  0.13386611556E+03  0.47000000000E+01 0.  1.
         11    1    6    6    0    0 -0.12564405312E+02  0.91352626203E+01  0.23350013636E+02  0.28045328324E+02  0.00000000000E+00 0. -1.
        -12    1    6    6    0    0  0.14635205802E+02 -0.66389558357E+02  0.19490544612E+02  0.70722302260E+02  0.00000000000E+00 0.  1.
</event>
<event>
12    1  0.8258923E-002  0.1820892E+03  0.7818608E-02  0.1165832E+00
         21   -1    0    0  501  502  0.00000000000E+00  0.00000000000E+00  0.20600934586E+03  0.20600934586E+03  0.00000000000E+00 0.  1.
         21   -1    0    0  502  503 -0.00000000000E+00 -0.00000000000E+00 -0.45797293166E+03  0.45797293166E+03  0.00000000000E+00 0.  1.
         -6    2    1    2    0  503 -0.57314690776E+01 -0.60589869238E+02 -0.39338771740E+03  0.43342365766E+03  0.17145900042E+03 0.  0.
        -24    2    3    3    0    0 -0.12803460887E+02 -0.10573555365E+02 -0.36736192212E+03  0.37640544354E+03  0.80315300028E+02 0.  0.
          6    2    1    2  501    0  0.57314690776E+01  0.60589869238E+02  0.14142413160E+03  0.23055861986E+03  0.17161733654E+03 0.  0.
         24    2    5    5    0    0  0.30101116953E+02  0.44982462424E+02  0.13384050337E+02  0.99204810266E+02  0.82054630636E+02 0.  0.
          5    1    5    5  501    0 -0.24369647876E+02  0.15607406814E+02  0.12804008126E+03  0.13135380959E+03  0.47000000000E+01 0. -1.
        -11    1    6    6    0    0 -0.21728742968E+00  0.40890709372E+01  0.41058483765E+02  0.41262171586E+02  0.00000000000E+00 0.  1.
         12    1    6    6    0    0  0.30318404383E+02  0.40893391487E+02 -0.27674433427E+02  0.57942638679E+02  0.00000000000E+00 0. -1.
         -5    1    3    3    0  503  0.70719918090E+01 -0.50016313872E+02 -0.26025795279E+02  0.57018214120E+02  0.47000000000E+01 0.  1.
         13    1    4    4    0    0 -0.35843572568E+02 -0.33777976973E+02 -0.22790638421E+03  0.23316739349E+03  0.00000000000E+00 0. -1.
        -14    1    4    4    0    0  0.23040111681E+02  0.23204421607E+02 -0.13945553791E+03  0.14323805005E+03  0.00000000000E+00 0.  1.
</event>
<event>
12    1  0.8258923E-002  0.1858889E+03  0.7818608E-02  0.1162322E+00
         21   -1    0    0  503  502  0.00000000000E+00  0.00000000000E+00  0.14722727413E+04  0.14722727413E+04  0.00000000000E+00 0.  1.
         21   -1    0    0  501  503 -0.00000000000E+00 -0.00000000000E+00 -0.27177104677E+02  0.27177104677E+02  0.00000000000E+00 0.  1.
          6    2    1    2  501    0  0.64385859646E+02 -0.23153744572E+02  0.44436598751E+03  0.48168021667E+03  0.17283826391E+03 0.  0.
         24    2    3    3    0    0  0.33427207511E+02  0.21876516046E+02  0.40349611566E+03  0.41327993204E+03  0.79970161416E+02 0.  0.
         -6    2    1    2    0  502 -0.64385859646E+02  0.23153744572E+02  0.10007296491E+04  0.10177696293E+04  0.17237619587E+03 0.  0.
        -24    2    5    5    0    0 -0.14366359416E+02  0.66603727198E+02  0.79830601739E+03  0.80472675081E+03  0.75167794407E+02 0.  0.
          5    1    3    3  501    0  0.30958652135E+02 -0.45030260618E+02  0.40869871851E+02  0.68400284637E+02  0.47000000000E+01 0. -1.
        -11    1    4    4    0    0  0.44689831687E+02  0.37167541415E+02  0.18397494990E+03  0.19293882290E+03  0.00000000000E+00 0.  1.
         12    1    4    4    0    0 -0.11262624176E+02 -0.15291025369E+02  0.21952116576E+03  0.22034110914E+03  0.00000000000E+00 0. -1.
         -5    1    5    5    0  502 -0.50019500230E+02 -0.43449982626E+02  0.20242363170E+03  0.21304287847E+03  0.47000000000E+01 0.  1.
         11    1    6    6    0    0  0.26316568310E+02  0.47022356956E+01  0.17399643582E+03  0.17603815628E+03  0.00000000000E+00 0. -1.
        -12    1    6    6    0    0 -0.40682927726E+02  0.61901491503E+02  0.62430958157E+03  0.62868859453E+03  0.00000000000E+00 0.  1.
</event>
<event>
12    1  0.8258923E-002  0.1791649E+03  0.7818608E-02  0.1168640E+00
         21   -1    0    0  501  502  0.00000000000E+00  0.00000000000E+00  0.57375080051E+02  0.57375080051E+02  0.00000000000E+00 0. -1.
         21   -1    0    0  502  503 -0.00000000000E+00 -0.00000000000E+00 -0.70750575774E+03  0.70750575774E+03  0.00000000000E+00 0. -1.
         -6    2    1    2    0  503 -0.38859091106E+02 -0.30352196523E+02 -0.50012069617E+03  0.53120787174E+03  0.17213310972E+03 0.  0.
        -24    2    3    3    0    0 -0.69229753233E+02  0.13172759941E+02 -0.20148811020E+03  0.22785937519E+03  0.79725503904E+02 0.  0.
          6    2    1    2  501    0  0.38859091106E+02  0.30352196523E+02 -0.15000998151E+03  0.23367296605E+03  0.17224626473E+03 0.  0.
         24    2    5    5    0    0 -0.42661151793E+02 -0.32993733514E+01 -0.73909679975E+02  0.11709113191E+03  0.80105134925E+02 0.  0.
          5    1    5    5  501    0  0.81520242899E+02  0.33651569874E+02 -0.76100301539E+02  0.11658183414E+03  0.47000000000E+01 0. -1.
        -13    1    6    6    0    0 -0.30970331842E+02  0.35529089439E+02 -0.24333597026E+02  0.53043393509E+02  0.00000000000E+00 0.  1.
         14    1    6    6    0    0 -0.11690819952E+02 -0.38828462790E+02 -0.49576082948E+02  0.64047738401E+02  0.00000000000E+00 0. -1.
         -5    1    3    3    0  503  0.30370662127E+02 -0.43524956464E+02 -0.29863258597E+03  0.30334849655E+03  0.47000000000E+01 0.  1.
         11    1    4    4    0    0 -0.20014923417E+02 -0.21571248436E+02 -0.13486496417E+03  0.13803794579E+03  0.00000000000E+00 0. -1.
        -12    1    4    4    0    0 -0.49214829816E+02  0.34744008377E+02 -0.66623146033E+02  0.89821429399E+02  0.00000000000E+00 0.  1.
</event>
<event>
12    1  0.8258923E-002  0.2264585E+03  0.7818608E-02  0.1130147E+00
         21   -1    0    0  501  502  0.00000000000E+00  0.00000000000E+00  0.13236996532E+03  0.13236996532E+03  0.00000000000E+00 0. -1.
         21   -1    0    0  502  503 -0.00000000000E+00 -0.00000000000E+00 -0.59105977140E+03  0.59105977140E+03  0.00000000000E+00 0.  1.
         -6    2    1    2    0  503  0.46694925357E+02 -0.13246442320E+03 -0.44820274568E+03  0.50216447130E+03  0.17764069221E+03 0.  0.
        -24    2    3    3    0    0  0.13007248322E+02 -0.12085329938E+03 -0.44266985452E+03  0.46579991899E+03  0.78982630677E+02 0.  0.
          6    2    1    2  501    0 -0.46694925357E+02  0.13246442320E+03 -0.10487060391E+02  0.22126526542E+03  0.17064905443E+03 0.  0.
         24    2    5    5    0    0 -0.12269331139E+02  0.15479691784E+03  0.11851458500E+02  0.17430825018E+03  0.78296147752E+02 0.  0.
          5    1    5    5  501    0 -0.34425594218E+02 -0.22332494638E+02 -0.22338518891E+02  0.46957015241E+02  0.47000000000E+01 0. -1.
        -13    1    6    6    0    0  0.10663639730E+02  0.12364122774E+03  0.35360122946E+02  0.12903954706E+03  0.00000000000E+00 0.  1.
         14    1    6    6    0    0 -0.22932970869E+02  0.31155690094E+02 -0.23508664446E+02  0.45268703119E+02  0.00000000000E+00 0. -1.
         -5    1    3    3    0  503  0.33687677035E+02 -0.11611123816E+02 -0.55328911648E+01  0.36364552313E+02  0.47000000000E+01 0.  1.
         13    1    4    4    0    0  0.31146510144E+02 -0.28912244394E+02 -0.22239591765E+03  0.22641989126E+03  0.00000000000E+00 0. -1.
        -14    1    4    4    0    0 -0.18139261822E+02 -0.91941054989E+02 -0.22027393686E+03  0.23938002772E+03  0.00000000000E+00 0.  1.
</event>
<event>
12    1  0.8258923E-002  0.1831365E+03  0.7818608E-02  0.1165466E+00
         21   -1    0    0  503  502  0.00000000000E+00  0.00000000000E+00  0.47219400757E+03  0.47219400757E+03  0.00000000000E+00 0. -1.
         21   -1    0    0  501  503 -0.00000000000E+00 -0.00000000000E+00 -0.70220196738E+02  0.70220196738E+02  0.00000000000E+00 0. -1.
          6    2    1    2  501    0 -0.52840445193E+02 -0.14466478131E+02  0.18270276721E+03  0.25672419185E+03  0.17183020077E+03 0.  0.
         24    2    3    3    0    0 -0.40389173207E+02  0.49645523489E+02  0.15266382265E+03  0.18468384818E+03  0.81889667961E+02 0.  0.
         -6    2    1    2    0  502  0.52840445193E+02  0.14466478131E+02  0.21927104362E+03  0.28569001245E+03  0.17475011018E+03 0.  0.
        -24    2    5    5    0    0  0.92118283115E+02  0.41365183540E+02  0.12707985929E+03  0.18182667256E+03  0.81943832749E+02 0.  0.
          5    1    3    3  501    0 -0.12451271986E+02 -0.64112001620E+02  0.30038944561E+02  0.72040343671E+02  0.47000000000E+01 0. -1.
        -11    1    4    4    0    0 -0.44012979259E+02  0.48881062998E+01  0.12335115475E+03  0.13105931216E+03  0.00000000000E+00 0.  1.
         12    1    4    4    0    0  0.36238060521E+01  0.44757417189E+02  0.29312667895E+02  0.53624536015E+02  0.00000000000E+00 0. -1.
         -5    1    5    5    0  502 -0.39277837921E+02 -0.26898705409E+02  0.92191184334E+02  0.10386333989E+03  0.47000000000E+01 0.  1.
         11    1    6    6    0    0  0.67995184551E+02 -0.10073580417E+02  0.45572915836E+02  0.82472497248E+02  0.00000000000E+00 0. -1.
        -12    1    6    6    0    0  0.24123098564E+02  0.51438763957E+02  0.81506943451E+02  0.99354175315E+02  0.00000000000E+00 0.  1.
</event>
<event>
12    1  0.8258923E-002  0.1806498E+03  0.7818608E-02  0.1168360E+00
         21   -1    0    0  501  502  0.00000000000E+00  0.00000000000E+00  0.18936786122E+03  0.18936786122E+03  0.00000000000E+00 0.  1.
         21   -1    0    0  502  503 -0.00000000000E+00 -0.00000000000E+00 -0.17768756977E+03  0.17768756977E+03  0.00000000000E+00 0. -1.
         -6    2    1    2    0  503 -0.54906539590E+02 -0.12324048619E+02 -0.37505496626E+02  0.18450210098E+03  0.17166173926E+03 0.  0.
        -24    2    3    3    0    0  0.20066067283E+01 -0.38375362046E+02 -0.70788491295E+02  0.11345546215E+03  0.79902668969E+02 0.  0.
          6    2    1    2  501    0  0.54906539590E+02  0.12324048619E+02  0.49185788079E+02  0.18255333002E+03  0.16655289336E+03 0.  0.
         24    2    5    5    0    0  0.42642627962E+02 -0.52652285691E+02  0.22450513814E+02  0.11107471476E+03  0.85105286445E+02 0.  0.
          5    1    5    5  501    0  0.12263911627E+02  0.64976334309E+02  0.26735274265E+02  0.71478615255E+02  0.47000000000E+01 0. -1.
        -13    1    6    6    0    0  0.18115120677E+02  0.22687259421E+02  0.10874187068E+02  0.31001891581E+02  0.00000000000E+00 0.  1.
         14    1    6    6    0    0  0.24527507285E+02 -0.75339545112E+02  0.11576326746E+02  0.80072823181E+02  0.00000000000E+00 0. -1.
         -5    1    3    3    0  503 -0.56913146318E+02  0.26051313428E+02  0.33282994669E+02  0.71046638831E+02  0.47000000000E+01 0.  1.
         11    1    4    4    0    0 -0.38520412013E+02 -0.12221586106E+02 -0.31169563410E+02  0.51036565243E+02  0.00000000000E+00 0. -1.
        -12    1    4    4    0    0  0.40527018741E+02 -0.26153775941E+02 -0.39618927884E+02  0.62418896904E+02  0.00000000000E+00 0.  1.
</event>
<event>
12    1  0.8258923E-002  0.2754114E+03  0.7818608E-02  0.1098374E+00
         21   -1    0    0  501  502  0.00000000000E+00  0.00000000000E+00  0.26655154983E+03  0.26655154983E+03  0.00000000000E+00 0.  1.
         21   -1    0    0  502  503 -0.00000000000E+00 -0.00000000000E+00 -0.66056831356E+03  0.66056831356E+03  0.00000000000E+00 0. -1.
         -6    2    1    2    0  503 -0.79729858689E+02 -0.20020826774E+03 -0.54743604094E+03  0.61281126384E+03  0.17149701258E+03 0.  0.
        -24    2    3    3    0    0 -0.11251932084E+03 -0.15887605633E+03 -0.49676788585E+03  0.53951151985E+03  0.79950914939E+02 0.  0.
          6    2    1    2  501    0  0.79729858689E+02  0.20020826774E+03  0.15341927722E+03  0.31430859956E+03  0.16974162807E+03 0.  0.
         24    2    5    5    0    0  0.54569354660E+01  0.17598664689E+03  0.87745959129E+02  0.21214094935E+03  0.79393645961E+02 0.  0.
          5    1    5    5  501    0  0.74272923223E+02  0.24221620844E+02  0.65673318087E+02  0.10216765021E+03  0.47000000000E+01 0. -1.
        -11    1    6    6    0    0 -0.20416243965E+02  0.46558412221E+02 -0.46130844536E+01  0.51046932468E+02  0.00000000000E+00 0.  1.
         12    1    6    6    0    0  0.25873179431E+02  0.12942823467E+03  0.92359043583E+02  0.16109401688E+03  0.00000000000E+00 0. -1.
         -5    1    3    3    0  503  0.32789462154E+02 -0.41332211403E+02 -0.50668155091E+02  0.73299743984E+02  0.47000000000E+01 0.  1.
         11    1    4    4    0    0 -0.88848045390E+02 -0.15159033000E+03 -0.47528940084E+03  0.50672834721E+03  0.00000000000E+00 0. -1.
        -12    1    4    4    0    0 -0.23671275453E+02 -0.72857263321E+01 -0.21478485012E+02  0.32783172637E+02  0.00000000000E+00 0.  1.
</event>
<event>
12    1  0.8258923E-002  0.1987614E+03  0.7818608E-02  0.1150802E+00
         21   -1    0    0  501  502  0.00000000000E+00  0.00000000000E+00  0.11298722326E+03  0.11298722326E+03  0.00000000000E+00 0.  1.
         21   -1    0    0  502  503 -0.00000000000E+00 -0.00000000000E+00 -0.40313474127E+03  0.40313474127E+03  0.00000000000E+00 0.  1.
         -6    2    1    2    0  503  0.55892406811E+02 -0.83094678848E+02 -0.23918586361E+03  0.31099189698E+03  0.17168982451E+03 0.  0.
        -24    2    3    3    0    0  0.14149410161E+02 -0.68967879133E+02 -0.41184648297E+02  0.10809139056E+03  0.70928127686E+02 0.  0.
          6    2    1    2  501    0 -0.55892406811E+02  0.83094678848E+02 -0.50961654401E+02  0.20513006755E+03  0.17161750378E+03 0.  0.
         24    2    5    5    0    0 -0.64236682219E+02  0.12074948405E+03 -0.40663055884E+02  0.16493476412E+03  0.82723654785E+02 0.  0.
          5    1    5    5  501    0  0.83442754083E+01 -0.37654805200E+02 -0.10298598517E+02  0.40195303434E+02  0.47000000000E+01 0. -1.
        -11    1    6    6    0    0 -0.26469825693E+02  0.11843412764E+03 -0.24577675825E+02  0.12381985467E+03  0.00000000000E+00 0.  1.
         12    1    6    6    0    0 -0.37766856527E+02  0.23153564074E+01 -0.16085380059E+02  0.41114909447E+02  0.00000000000E+00 0. -1.
         -5    1    3    3    0  503  0.41742996650E+02 -0.14126799715E+02 -0.19800121532E+03  0.20290050642E+03  0.47000000000E+01 0.  1.
         11    1    4    4    0    0  0.16944328652E+02 -0.80907544782E+02 -0.22374726900E+02  0.85637430368E+02  0.00000000000E+00 0. -1.
        -12    1    4    4    0    0 -0.27949184908E+01  0.11939665649E+02 -0.18809921397E+02  0.22453960188E+02  0.00000000000E+00 0.  1.
</event>
<event>
12    1  0.8258923E-002  0.2070061E+03  0.7818608E-02  0.1144107E+00
         21   -1    0    0  501  502  0.00000000000E+00  0.00000000000E+00  0.15026176082E+03  0.15026176082E+03  0.00000000000E+00 0. -1.
         21   -1    0    0  502  503 -0.00000000000E+00 -0.00000000000E+00 -0.60951108509E+03  0.60951108509E+03  0.00000000000E+00 0. -1.
         -6    2    1    2    0  503 -0.55863405972E+02 -0.10088864841E+03 -0.50697878220E+03  0.54733545789E+03  0.17102449635E+03 0.  0.
        -24    2    3    3    0    0  0.13374651810E+02 -0.56301691036E+02 -0.13997486134E+03  0.17117608563E+03  0.79746653585E+02 0.  0.
          6    2    1    2  501    0  0.55863405972E+02  0.10088864841E+03  0.47729457929E+02  0.21243738802E+03  0.17190783336E+03 0.  0.
         24    2    5    5    0    0  0.58286585399E+02  0.10520434934E+03 -0.18689884827E+02  0.14566826218E+03  0.80029055062E+02 0.  0.
          5    1    5    5  501    0 -0.24231794271E+01 -0.43157009368E+01  0.66419342755E+02  0.66769125838E+02  0.47000000000E+01 0. -1.
        -13    1    6    6    0    0  0.15344623200E+02 -0.11239506499E+02 -0.93861542375E+01  0.21210465786E+02  0.00000000000E+00 0.  1.
         14    1    6    6    0    0  0.42941962200E+02  0.11644385584E+03 -0.93037305892E+01  0.12445779640E+03  0.00000000000E+00 0. -1.
         -5    1    3    3    0  503 -0.69238057782E+02 -0.44586957372E+02 -0.36700392086E+03  0.37615937226E+03  0.47000000000E+01 0.  1.
         11    1    4    4    0    0  0.55126765471E+01 -0.14887075986E+02 -0.12565820705E+03  0.12665701572E+03  0.00000000000E+00 0. -1.
        -12    1    4    4    0    0  0.78619752626E+01 -0.41414615050E+02 -0.14316654297E+02  0.44519069903E+02  0.00000000000E+00 0.  1.
</event>
<event>
12    1  0.8258923E-002  0.1764327E+03  0.7818608E-02  0.1171379E+00
         21   -1    0    0  503  502  0.00000000000E+00  0.00000000000E+00  0.27415098984E+02  0.27415098984E+02  0.00000000000E+00 0.  1.
         21   -1    0    0  501  503 -0.00000000000E+00 -0.00000000000E+00 -0.16376016527E+04  0.16376016527E+04  0.00000000000E+00 0.  1.
          6    2    1    2  501    0 -0.17152619788E+02 -0.28935182555E+02 -0.12665221722E+04  0.12787089888E+04  0.17287801510E+03 0.  0.
         24    2    3    3    0    0  0.75396537451E+01 -0.80712561951E+02 -0.69611407459E+03  0.70540445083E+03  0.80307349443E+02 0.  0.
         -6    2    1    2    0  502  0.17152619788E+02  0.28935182555E+02 -0.34366438144E+03  0.38630776285E+03  0.17319648788E+03 0.  0.
        -24    2    5    5    0    0  0.68626687530E+00  0.39042813921E+02 -0.35323237339E+03  0.36424101276E+03  0.79834788684E+02 0.  0.
          5    1    3    3  501    0 -0.24692273533E+02  0.51777379397E+02 -0.57040809765E+03  0.57330453796E+03  0.47000000000E+01 0. -1.
        -13    1    4    4    0    0  0.19359196652E+01 -0.93604045360E+02 -0.66073508683E+03  0.66733523814E+03  0.00000000000E+00 0.  1.
         14    1    4    4    0    0  0.56037340800E+01  0.12891483408E+02 -0.35378987755E+02  0.38069212688E+02  0.00000000000E+00 0. -1.
         -5    1    5    5    0  502  0.16466352912E+02 -0.10107631366E+02  0.95679919424E+01  0.22066750098E+02  0.47000000000E+01 0.  1.
         11    1    6    6    0    0 -0.19496479111E+02  0.61894852333E+01 -0.19408396688E+02  0.28197664570E+02  0.00000000000E+00 0. -1.
        -12    1    6    6    0    0  0.20182745987E+02  0.32853328687E+02 -0.33382397670E+03  0.33604334819E+03  0.00000000000E+00 0.  1.
</event>
<event>
12    1  0.8258923E-002  0.1930745E+03  0.7818608E-02  0.1156003E+00
         21   -1    0    0  501  502  0.00000000000E+00  0.00000000000E+00  0.17522838168E+03  0.17522838168E+03  0.00000000000E+00 0.  1.
         21   -1    0    0  502  503 -0.00000000000E+00 -0.00000000000E+00 -0.41310629341E+03  0.41310629341E+03  0.00000000000E+00 0.  1.
         -6    2    1    2    0  503 -0.71033053076E+02 -0.47355417315E+02 -0.32473741837E+03  0.37779907869E+03  0.17317483303E+03 0.  0.
        -24    2    3    3    0    0 -0.81709274633E+01 -0.79068692377E+02 -0.13571386071E+03  0.17603343741E+03  0.79062613977E+02 0.  0.
          6    2    1    2  501    0  0.71033053076E+02  0.47355417315E+02  0.86859506633E+02  0.21053559640E+03  0.17173361139E+03 0.  0.
         24    2    5    5    0    0  0.60682029908E+02 -0.50541006505E+02  0.42148903928E+02  0.10231368793E+03  0.49546529080E+02 0.  0.
          5    1    5    5  501    0  0.10351023168E+02  0.97896423820E+02  0.44710602705E+02  0.10822190846E+03  0.47000000000E+01 0. -1.
        -11    1    6    6    0    0  0.75099644515E+01 -0.14726682655E+02  0.33848824580E+02  0.37669850989E+02  0.00000000000E+00 0.  1.
         12    1    6    6    0    0  0.53172065456E+02 -0.35814323850E+02  0.83000793485E+01  0.64643836944E+02  0.00000000000E+00 0. -1.
         -5    1    3    3    0  503 -0.62862125613E+02  0.31713275063E+02 -0.18902355766E+03  0.20176564128E+03  0.47000000000E+01 0.  1.
         13    1    4    4    0    0 -0.27931890138E+02 -0.83535482619E+02 -0.89496522874E+02  0.12557067711E+03  0.00000000000E+00 0. -1.
        -14    1    4    4    0    0  0.19760962675E+02  0.44667902414E+01 -0.46217337837E+02  0.50462760306E+02  0.00000000000E+00 0.  1.
</event>
<event>
12    1  0.8258923E-002  0.1789700E+03  0.7818608E-02  0.1169035E+00
         21   -1    0    0  501  502  0.00000000000E+00  0.00000000000E+00  0.95690249890E+03  0.95690249890E+03  0.00000000000E+00 0.  1.
         21   -1    0    0  502  503 -0.00000000000E+00 -0.00000000000E+00 -0.70592529620E+02  0.70592529620E+02  0.00000000000E+00 0.  1.
         -6    2    1    2    0  503 -0.42931697683E+02  0.20107753824E+02  0.69175491692E+02  0.19099098569E+03  0.17159503353E+03 0.  0.
        -24    2    3    3    0    0 -0.37625136827E+02  0.17212712592E+02  0.11466029513E+03  0.14486617462E+03  0.78277052021E+02 0.  0.
          6    2    1    2  501    0  0.42931697683E+02 -0.20107753824E+02  0.81713447759E+03  0.83650404284E+03  0.17257695901E+03 0.  0.
         24    2    5    5    0    0  0.52605744969E+02 -0.74918254164E+02  0.60711032809E+03  0.61917937440E+03  0.80125139588E+02 0.  0.
          5    1    5    5  501    0 -0.96740472859E+01  0.54810500339E+02  0.21002414950E+03  0.21732466844E+03  0.47000000000E+01 0. -1.
        -11    1    6    6    0    0  0.50271522115E+02 -0.21081276715E+02  0.44547322667E+03  0.44879621416E+03  0.00000000000E+00 0.  1.
         12    1    6    6    0    0  0.23342228539E+01 -0.53836977449E+02  0.16163710142E+03  0.17038316024E+03  0.00000000000E+00 0. -1.
         -5    1    3    3    0  503 -0.53065608557E+01  0.28950412323E+01 -0.45484803441E+02  0.46124811067E+02  0.47000000000E+01 0.  1.
         13    1    4    4    0    0 -0.10670633622E+01 -0.93402233493E+01  0.95211754430E+02  0.95674743679E+02  0.00000000000E+00 0. -1.
        -14    1    4    4    0    0 -0.36558073465E+02  0.26552935941E+02  0.19448540704E+02  0.49191430942E+02  0.00000000000E+00 0.  1.
</event>
<event>
12    1  0.8258923E-002  0.1944551E+03  0.7818608E-02  0.1155474E+00
         21   -1    0    0  503  502  0.00000000000E+00  0.00000000000E+00  0.37026595521E+03  0.37026595521E+03  0.00000000000E+00 0.  1.
         21   -1    0    0  501  503 -0.00000000000E+00 -0.00000000000E+00 -0.15672944203E+03  0.15672944203E+03  0.00000000000E+00 0.  1.
          6    2    1    2  501    0 -0.30910422095E+02 -0.77008458419E+02 -0.51210008523E+02  0.20108521015E+03  0.17586085382E+03 0.  0.
         24    2    3    3    0    0  0.18997705725E+02 -0.13447901598E+01 -0.69556741753E+02  0.10848658955E+03  0.81046150471E+02 0.  0.
         -6    2    1    2    0  502  0.30910422095E+02  0.77008458419E+02  0.26474652171E+03  0.32591018708E+03  0.17099991937E+03 0.  0.
        -24    2    5    5    0    0 -0.12332504419E+02  0.24369425760E+02  0.45654739808E+02  0.96423548367E+02  0.80418815184E+02 0.  0.
          5    1    3    3  501    0 -0.49908127820E+02 -0.75663668259E+02  0.18346733231E+02  0.92598620601E+02  0.47000000000E+01 0. -1.
        -11    1    4    4    0    0 -0.21814211196E+02 -0.21380129003E+02 -0.50861197176E+02  0.59328164513E+02  0.00000000000E+00 0.  1.
         12    1    4    4    0    0  0.40811916922E+02  0.20035338843E+02 -0.18695544577E+02  0.49158425040E+02  0.00000000000E+00 0. -1.
         -5    1    5    5    0  502  0.43242926514E+02  0.52639032659E+02  0.21909178190E+03  0.22948663872E+03  0.47000000000E+01 0.  1.
         11    1    6    6    0    0  0.22653070905E+02  0.39761475017E+02  0.31981459622E+02  0.55829654096E+02  0.00000000000E+00 0. -1.
        -12    1    6    6    0    0 -0.34985575324E+02 -0.15392049256E+02  0.13673280186E+02  0.40593894271E+02  0.00000000000E+00 0.  1.
</event>
<event>
12    1  0.8258923E-002  0.1807257E+03  0.7818608E-02  0.1167320E+00
         21   -1    0    0  501  502  0.00000000000E+00  0.00000000000E+00  0.31427159868E+03  0.31427159868E+03  0.00000000000E+00 0. -1.
         21   -1    0    0  502  503 -0.00000000000E+00 -0.00000000000E+00 -0.14759743059E+03  0.14759743059E+03  0.00000000000E+00 0. -1.
         -6    2    1    2    0  503  0.54845020275E+02  0.48076800268E+01 -0.42872630496E+02  0.18574132514E+03  0.17213566563E+03 0.  0.
        -24    2    3    3    0    0  0.46749600902E+02 -0.51805444280E+02  0.11008718972E+02  0.10702746690E+03  0.80401228443E+02 0.  0.
          6    2    1    2  501    0 -0.54845020275E+02 -0.48076800268E+01  0.20954679858E+03  0.27612770414E+03  0.17118866248E+03 0.  0.
         24    2    5    5    0    0 -0.10480062536E+02 -0.63222358732E+02  0.93480141848E+02  0.13874472496E+03  0.80029141125E+02 0.  0.
          5    1    5    5  501    0 -0.44364957739E+02  0.58414678705E+02  0.11606665673E+03  0.13738297918E+03  0.47000000000E+01 0. -1.
        -11    1    6    6    0    0  0.12925375734E+02  0.52510367108E+01 -0.64461578478E+01  0.15368528733E+02  0.00000000000E+00 0.  1.
         12    1    6    6    0    0 -0.23405438270E+02 -0.68473395443E+02  0.99926299695E+02  0.12337619622E+03  0.00000000000E+00 0. -1.
         -5    1    3    3    0  503  0.80954193729E+01  0.56613124306E+02 -0.53881349468E+02  0.78713858240E+02  0.47000000000E+01 0.  1.
         11    1    4    4    0    0  0.49343069066E+02 -0.51745999495E+01 -0.17147887319E+02  0.52493475680E+02  0.00000000000E+00 0. -1.
        -12    1    4    4    0    0 -0.25934681640E+01 -0.46630844330E+02  0.28156606291E+02  0.54533991215E+02  0.00000000000E+00 0.  1.
</event>
<event>
12    1  0.8258923E-002  0.1826369E+03  0.7818608E-02  0.1165454E+00
         21   -1    0    0  503  502  0.00000000000E+00  0.00000000000E+00  0.10856773485E+03  0.10856773485E+03  0.00000000000E+00 0.  1.
         21   -1    0    0  501  503 -0.00000000000E+00 -0.00000000000E+00 -0.53423963281E+03  0.53423963281E+03  0.00000000000E+00 0.  1.
          6    2    1    2  501    0  0.53948300327E+02  0.27288455649E+02 -0.42317612163E+03  0.46090591139E+03  0.17234021678E+03 0.  0.
         24    2    3    3    0    0 -0.53466158240E+01 -0.28771790547E+02 -0.30494262308E+03  0.31717043051E+03  0.82162499890E+02 0.  0.
         -6    2    1    2    0  502 -0.53948300327E+02 -0.27288455649E+02 -0.24957763280E+01  0.18190145627E+03  0.17154250777E+03 0.  0.
        -24    2    5    5    0    0 -0.70896355664E+02  0.35513791830E+02 -0.27912906405E+02  0.11190517516E+03  0.73865521227E+02 0.  0.
          5    1    3    3  501    0  0.59294916151E+02  0.56060246197E+02 -0.11823349854E+03  0.14373548088E+03  0.47000000000E+01 0. -1.
        -11    1    4    4    0    0  0.28983369825E+02 -0.26314630473E+01 -0.21979895290E+03  0.22171725241E+03  0.00000000000E+00 0.  1.
         12    1    4    4    0    0 -0.34329985649E+02 -0.26140327500E+02 -0.85143670186E+02  0.95453178099E+02  0.00000000000E+00 0. -1.
         -5    1    5    5    0  502  0.16948055337E+02 -0.62802247480E+02  0.25417130077E+02  0.69996281112E+02  0.47000000000E+01 0.  1.
         11    1    6    6    0    0 -0.76486591817E+02  0.49011655426E+01 -0.25147837438E+02  0.80663708564E+02  0.00000000000E+00 0. -1.
        -12    1    6    6    0    0  0.55902361526E+01  0.30612626288E+02 -0.27650689663E+01  0.31241466593E+02  0.00000000000E+00 0.  1.
</event>
<event>
12    1  0.8258923E-002  0.1818178E+03  0.7818608E-02  0.1166241E+00
         21   -1    0    0  501  502  0.00000000000E+00  0.00000000000E+00  0.63079424048E+03  0.63079424048E+03  0.00000000000E+00 0. -1.
         21   -1    0    0  502  503 -0.00000000000E+00 -0.00000000000E+00 -0.61469050076E+02  0.61469050076E+02  0.00000000000E+00 0. -1.
         -6    2    1    2    0  503  0.17232874208E+02  0.56904121320E+02  0.14961229619E+03  0.23486123583E+03  0.17099973670E+03 0.  0.
        -24    2    3    3    0    0  0.16298630919E+02 -0.34740730196E+02  0.62472168277E+02  0.10831028360E+03  0.79723158613E+02 0.  0.
          6    2    1    2  501    0 -0.17232874208E+02 -0.56904121320E+02  0.41971289422E+03  0.45740205473E+03  0.17182163751E+03 0.  0.
         24    2    5    5    0    0 -0.42226543161E+02  0.16352999816E+02  0.15156198890E+03  0.17826358137E+03  0.82197119251E+02 0.  0.
          5    1    5    5  501    0  0.24993668953E+02 -0.73257121135E+02  0.26815090531E+03  0.27913847335E+03  0.47000000000E+01 0. -1.
        -11    1    6    6    0    0 -0.80391234271E+00  0.41242683105E+02  0.43825946600E+02  0.60185702456E+02  0.00000000000E+00 0.  1.
         12    1    6    6    0    0 -0.41422630818E+02 -0.24889683290E+02  0.10773604230E+03  0.11807787892E+03  0.00000000000E+00 0. -1.
         -5    1    3    3    0  503  0.93424328947E+00  0.91644851516E+02  0.87140127912E+02  0.12655095224E+03  0.47000000000E+01 0.  1.
         13    1    4    4    0    0 -0.17716764428E+02 -0.24356203932E+02 -0.64060105649E+01  0.30791969458E+02  0.00000000000E+00 0. -1.
        -14    1    4    4    0    0  0.34015395347E+02 -0.10384526264E+02  0.68878178842E+02  0.77518314138E+02  0.00000000000E+00 0.  1.
</event>
<event>
12    1  0.8258923E-002  0.1810766E+03  0.7818608E-02  0.1167059E+00
         21   -1    0    0  501  502  0.00000000000E+00  0.00000000000E+00  0.73088518804E+03  0.73088518804E+03  0.00000000000E+00 0.  1.
         21   -1    0    0  502  503 -0.00000000000E+00 -0.00000000000E+00 -0.46821419750E+02  0.46821419750E+02  0.00000000000E+00 0.  1.
         -6    2    1    2    0  503  0.51079127903E+02  0.13349560463E+02  0.25546651876E+03  0.31242784956E+03  0.17193234397E+03 0.  0.
        -24    2    3    3    0    0  0.60136474398E+02  0.14180422033E+02  0.27349683542E+03  0.29169362241E+03  0.80418719523E+02 0.  0.
          6    2    1    2  501    0 -0.51079127903E+02 -0.13349560463E+02  0.42859724953E+03  0.46527875823E+03  0.17320921592E+03 0.  0.
         24    2    5    5    0    0  0.37463937185E+02 -0.15572210227E+02  0.26067885418E+03  0.27537485609E+03  0.78941788894E+02 0.  0.
          5    1    5    5  501    0 -0.88543065087E+02  0.22226497644E+01  0.16791839536E+03  0.18990390214E+03  0.47000000000E+01 0. -1.
        -11    1    6    6    0    0  0.34479405001E+01 -0.35936440277E+02  0.19760604534E+03  0.20087674129E+03  0.00000000000E+00 0.  1.
         12    1    6    6    0    0  0.34015996685E+02  0.20364230050E+02  0.63072808833E+02  0.74498114808E+02  0.00000000000E+00 0. -1.
         -5    1    3    3    0  503 -0.90573464951E+01 -0.83086157072E+00 -0.18030316662E+02  0.20734227148E+02  0.47000000000E+01 0.  1.
         13    1    4    4    0    0 -0.15066715046E+02 -0.97112712808E+00  0.11072787366E+03  0.11175245409E+03  0.00000000000E+00 0. -1.
        -14    1    4    4    0    0  0.75203189444E+02  0.15151549161E+02  0.16276896176E+03  0.17994116832E+03  0.00000000000E+00 0.  1.
</event>
<event>
12    1  0.8258923E-002  0.1995068E+03  0.7818608E-02  0.1152620E+00
         21   -1    0    0  503  502  0.00000000000E+00  0.00000000000E+00  0.35603481637E+02  0.35603481637E+02  0.00000000000E+00 0.  1.
         21   -1    0    0  501  503 -0.00000000000E+00 -0.00000000000E+00 -0.13319469052E+04  0.13319469052E+04  0.00000000000E+00 0.  1.
          6    2    1    2  501    0  0.30294084731E+02 -0.72060574053E+02 -0.94456887758E+03  0.96313934852E+03  0.17122085816E+03 0.  0.
         24    2    3    3    0    0 -0.20298720893E+01 -0.53596919597E+02 -0.28965561805E+03  0.30715214420E+03  0.86978804591E+02 0.  0.
         -6    2    1    2    0  502 -0.30294084731E+02  0.72060574053E+02 -0.35177454601E+03  0.40441103835E+03  0.18355516559E+03 0.  0.
        -24    2    5    5    0    0 -0.45018988342E+02 -0.21434938656E+02 -0.23720987822E+03  0.25573223425E+03  0.81512473895E+02 0.  0.
          5    1    3    3  501    0  0.32323956820E+02 -0.18463654457E+02 -0.65491325953E+03  0.65598720432E+03  0.47000000000E+01 0. -1.
        -13    1    4    4    0    0 -0.33204499064E+02 -0.44139192241E+02 -0.24900889948E+03  0.25506124572E+03  0.00000000000E+00 0.  1.
         14    1    4    4    0    0  0.31174626975E+02 -0.94577273559E+01 -0.40646718576E+02  0.52090898482E+02  0.00000000000E+00 0. -1.
         -5    1    5    5    0  502  0.14724903612E+02  0.93495512709E+02 -0.11456466779E+03  0.14867880410E+03  0.47000000000E+01 0.  1.
         11    1    6    6    0    0 -0.29118269429E+02 -0.92974635952E+00 -0.22531008426E+03  0.22718576565E+03  0.00000000000E+00 0. -1.
        -12    1    6    6    0    0 -0.15900718914E+02 -0.20505192296E+02 -0.11899793955E+02  0.28546468595E+02  0.00000000000E+00 0.  1.
</event>
<event>
12    1  0.8258923E-002  0.1830792E+03  0.7818608E-02  0.1165099E+00
         21   -1    0    0  501  502  0.00000000000E+00  0.00000000000E+00  0.14126347623E+03  0.14126347623E+03  0.00000000000E+00 0. -1.
         21   -1    0    0  502  503 -0.00000000000E+00 -0.00000000000E+00 -0.25154852497E+03  0.25154852497E+03  0.00000000000E+00 0.  1.
         -6    2    1    2    0  503  0.56145428521E+02  0.18819440503E+02 -0.10420543495E+03  0.21065796112E+03  0.17323834283E+03 0.  0.
        -24    2    3    3    0    0 -0.31365963431E+02  0.72943268283E+01 -0.16180047871E+02  0.85911695702E+02  0.77987144091E+02 0.  0.
          6    2    1    2  501    0 -0.56145428521E+02 -0.18819440503E+02 -0.60796137853E+01  0.18215404008E+03  0.17215299047E+03 0.  0.
         24    2    5    5    0    0  0.21165800579E+02 -0.45751342656E+02 -0.24377155283E+02  0.98134735608E+02  0.80591588669E+02 0.  0.
          5    1    5    5  501    0 -0.77311229101E+02  0.26931902153E+02  0.18297541497E+02  0.84019304469E+02  0.47000000000E+01 0. -1.
        -13    1    6    6    0    0 -0.15222561589E+00  0.40475102328E+01 -0.41210882097E+02  0.41409447170E+02  0.00000000000E+00 0.  1.
         14    1    6    6    0    0  0.21318026195E+02 -0.49798852889E+02  0.16833726814E+02  0.56725288438E+02  0.00000000000E+00 0. -1.
         -5    1    3    3    0  503  0.87511391952E+02  0.11525113675E+02 -0.88025387078E+02  0.12474626542E+03  0.47000000000E+01 0.  1.
         11    1    4    4    0    0  0.50143591269E+01  0.86415962486E+01  0.27377580111E+02  0.29143659275E+02  0.00000000000E+00 0. -1.
        -12    1    4    4    0    0 -0.36380322558E+02 -0.13472694203E+01 -0.43557627983E+02  0.56768036427E+02  0.00000000000E+00 0.  1.
</event>
<event>
12    1  0.8258923E-002  0.1913858E+03  0.7818608E-02  0.1157473E+00
         21   -1    0    0  501  502  0.00000000000E+00  0.00000000000E+00  0.95815361661E+02  0.95815361661E+02  0.00000000000E+00 0. -1.
         21   -1    0    0  502  503 -0.00000000000E+00 -0.00000000000E+00 -0.38000768895E+03  0.38000768895E+03  0.00000000000E+00 0. -1.
         -6    2    1    2    0  503 -0.36017146855E+02  0.76202695200E+02 -0.14256520770E+03  0.23864904920E+03  0.17182678666E+03 0.  0.
        -24    2    3    3    0    0 -0.82161806879E+02  0.24776799959E+02 -0.11532064674E+03  0.16422923697E+03  0.79422530725E+02 0.  0.
          6    2    1    2  501    0  0.36017146855E+02 -0.76202695200E+02 -0.14162711958E+03  0.23717400141E+03  0.17055550510E+03 0.  0.
         24    2    5    5    0    0 -0.38723478678E+02 -0.97321165960E+01 -0.71267738605E+02  0.11479331904E+03  0.80648581115E+02 0.  0.
          5    1    5    5  501    0  0.74740625533E+02 -0.66470578604E+02 -0.70359380977E+02  0.12238068237E+03  0.47000000000E+01 0. -1.
        -11    1    6    6    0    0 -0.36662348447E+02  0.47430430832E+01  0.48494301618E+01  0.37284597681E+02  0.00000000000E+00 0.  1.
         12    1    6    6    0    0 -0.20611302312E+01 -0.14475159679E+02 -0.76117168766E+02  0.77508721358E+02  0.00000000000E+00 0. -1.
         -5    1    3    3    0  503  0.46144660024E+02  0.51425895241E+02 -0.27244560965E+02  0.74419812229E+02  0.47000000000E+01 0.  1.
         11    1    4    4    0    0 -0.13829306606E+02 -0.35087015530E+01 -0.81794409394E+02  0.83029429216E+02  0.00000000000E+00 0. -1.
        -12    1    4    4    0    0 -0.68332500272E+02  0.28285501512E+02 -0.33526237344E+02  0.81199807757E+02  0.00000000000E+00 0.  1.
</event>
<event>
12    1  0.8258923E-002  0.1954709E+03  0.7818608E-02  0.1153957E+00
         21   -1    0    0  503  502  0.00000000000E+00  0.00000000000E+00  0.26454550449E+03  0.26454550449E+03  0.00000000000E+00 0.  1.
         21   -1    0    0  501  503 -0.00000000000E+00 -0.00000000000E+00 -0.19284694397E+03  0.19284694397E+03  0.00000000000E+00 0.  1.
          6    2    1    2  501    0  0.83695608328E+02 -0.33396444392E+02  0.15189232513E+03  0.24754830567E+03  0.17346068101E+03 0.  0.
         24    2    3    3    0    0 -0.10231463276E+02  0.98017088499E+01  0.10793368611E+03  0.13510797853E+03  0.80023302401E+02 0.  0.
         -6    2    1    2    0  502 -0.83695608328E+02  0.33396444392E+02 -0.80193764612E+02  0.20984414279E+03  0.17170686367E+03 0.  0.
        -24    2    5    5    0    0 -0.14450736969E+02 -0.41210232772E+02 -0.62113353434E+02  0.10635501411E+03  0.74472902910E+02 0.  0.
          5    1    3    3  501    0  0.93927071604E+02 -0.43198153242E+02  0.43958639015E+02  0.11244032714E+03  0.47000000000E+01 0. -1.
        -11    1    4    4    0    0  0.54423334447E+01  0.31989396786E+02  0.10725982310E+02  0.34175827665E+02  0.00000000000E+00 0.  1.
         12    1    4    4    0    0 -0.15673796721E+02 -0.22187687936E+02  0.97207703801E+02  0.10093215086E+03  0.00000000000E+00 0. -1.
         -5    1    5    5    0  502 -0.69244871360E+02  0.74606677164E+02 -0.18080411178E+02  0.10348912868E+03  0.47000000000E+01 0.  1.
         11    1    6    6    0    0  0.18597897803E+02 -0.48524923005E+02 -0.43218924868E+02  0.67590128141E+02  0.00000000000E+00 0. -1.
        -12    1    6    6    0    0 -0.33048634772E+02  0.73146902332E+01 -0.18894428566E+02  0.38764885971E+02  0.00000000000E+00 0.  1.
</event>
<event>
12    1  0.8258923E-002  0.1885571E+03  0.7818608E-02  0.1160434E+00
         21   -1    0    0  501  502  0.00000000000E+00  0.00000000000E+00  0.28004714492E+03  0.28004714492E+03  0.00000000000E+00 0.  1.
         21   -1    0    0  502  503 -0.00000000000E+00 -0.00000000000E+00 -0.58070149712E+03  0.58070149712E+03  0.00000000000E+00 0.  1.
         -6    2    1    2    0  503 -0.45991682944E+02 -0.55346375358E+02 -0.53181852642E+03  0.56425588834E+03  0.17428512937E+03 0.  0.
        -24    2    3    3    0    0  0.75207796022E+01 -0.65565043904E+02 -0.47356301926E+03  0.48435720907E+03  0.77360426985E+02 0.  0.
          6    2    1    2  501    0  0.45991682944E+02  0.55346375358E+02  0.23116417422E+03  0.29649275369E+03  0.17115087316E+03 0.  0.
         24    2    5    5    0    0  0.53038399304E+02  0.28098840624E+02  0.24500465260E+03  0.26477945676E+03  0.80487665417E+02 0.  0.
          5    1    5    5  501    0 -0.70467163603E+01  0.27247534734E+02 -0.13840478376E+02  0.31713296931E+02  0.47000000000E+01 0. -1.
        -13    1    6    6    0    0  0.81067518809E+01  0.48840856581E+02  0.10044705422E+03  0.11198553209E+03  0.00000000000E+00 0.  1.
         14    1    6    6    0    0  0.44931647423E+02 -0.20742015957E+02  0.14455759838E+03  0.15279392467E+03  0.00000000000E+00 0. -1.
         -5    1    3    3    0  503 -0.53512462546E+02  0.10218668546E+02 -0.58255507165E+02  0.79898679273E+02  0.47000000000E+01 0.  1.
         13    1    4    4    0    0  0.39189132065E+02 -0.25037670689E+02 -0.29079783123E+03  0.29449287202E+03  0.00000000000E+00 0. -1.
        -14    1    4    4    0    0 -0.31668352463E+02 -0.40527373214E+02 -0.18276518803E+03  0.18986433705E+03  0.00000000000E+00 0.  1.
</event>
<event>
12    1  0.8258923E-002  0.2046399E+03  0.7818608E-02  0.1146151E+00
         21   -1    0    0  501  502  0.00000000000E+00  0.00000000000E+00  0.27760304595E+02  0.27760304595E+02  0.00000000000E+00 0.  1.
         21   -1    0    0  502  503 -0.00000000000E+00 -0.00000000000E+00 -0.23511542514E+04  0.23511542514E+04  0.00000000000E+00 0. -1.
         -6    2    1    2    0  503 -0.26332873766E+02  0.10561319096E+03 -0.18754496224E+04  0.18864395886E+04  0.17174244851E+03 0.  0.
        -24    2    3    3    0    0 -0.32854069064E+01  0.10433283061E+03 -0.18342379913E+04  0.18389705082E+04  0.80544321731E+02 0.  0.
          6    2    1    2  501    0  0.26332873766E+02 -0.10561319096E+03 -0.44794432440E+03  0.49247496747E+03  0.17329140048E+03 0.  0.
         24    2    5    5    0    0 -0.34375712352E+02 -0.64632730476E+02 -0.37131876475E+03  0.38636890279E+03  0.77744611026E+02 0.  0.
          5    1    5    5  501    0  0.60708586118E+02 -0.40980460484E+02 -0.76625559656E+02  0.10610606468E+03  0.47000000000E+01 0. -1.
        -13    1    6    6    0    0  0.78562006292E+01  0.85474368069E+01 -0.10061818059E+02  0.15362901645E+02  0.00000000000E+00 0.  1.
         14    1    6    6    0    0 -0.42231912981E+02 -0.73180167283E+02 -0.36125694669E+03  0.37100600115E+03  0.00000000000E+00 0. -1.
         -5    1    3    3    0  503 -0.23047466860E+02  0.12803603454E+01 -0.41211631143E+02  0.47469080387E+02  0.47000000000E+01 0.  1.
         11    1    4    4    0    0 -0.22385303670E+02  0.52742016786E+01 -0.15412259400E+03  0.15582905058E+03  0.00000000000E+00 0. -1.
        -12    1    4    4    0    0  0.19099896764E+02  0.99058628935E+02 -0.16801153973E+04  0.16831414576E+04  0.00000000000E+00 0.  1.
</event>
<event>
12    1  0.8258923E-002  0.3421554E+03  0.7818608E-02  0.1065882E+00
         21   -1    0    0  501  502  0.00000000000E+00  0.00000000000E+00  0.39652078470E+03  0.39652078470E+03  0.00000000000E+00 0.  1.
         21   -1    0    0  502  503 -0.00000000000E+00 -0.00000000000E+00 -0.32987891139E+03  0.32987891139E+03  0.00000000000E+00 0. -1.
         -6    2    1    2    0  503  0.20789651619E+03  0.21065231368E+03  0.15101848164E+03  0.37400116253E+03  0.17168264057E+03 0.  0.
        -24    2    3    3    0    0  0.10867036088E+03  0.17637044757E+03  0.48257336374E+02  0.22702150674E+03  0.79336069327E+02 0.  0.
          6    2    1    2  501    0 -0.20789651619E+03 -0.21065231368E+03 -0.84376608330E+02  0.35239853356E+03  0.17166815579E+03 0.  0.
         24    2    5    5    0    0 -0.49039184868E+02 -0.42346715805E+02  0.87244102708E+01  0.10289439400E+03  0.79454735475E+02 0.  0.
          5    1    5    5  501    0 -0.15885733133E+03 -0.16830559788E+03 -0.93101018600E+02  0.24950413956E+03  0.47000000000E+01 0. -1.
        -13    1    6    6    0    0 -0.69970404051E+02 -0.35182536647E+02  0.15334139160E+02  0.79804787775E+02  0.00000000000E+00 0.  1.
         14    1    6    6    0    0  0.20931219183E+02 -0.71641791586E+01 -0.66097288891E+01  0.23089606222E+02  0.00000000000E+00 0. -1.
         -5    1    3    3    0  503  0.99226155311E+02  0.34281866110E+02  0.10276114526E+03  0.14697965580E+03  0.47000000000E+01 0.  1.
         11    1    4    4    0    0  0.55026913648E+02  0.31693463920E+02 -0.52194403374E+01  0.63715613772E+02  0.00000000000E+00 0. -1.
        -12    1    4    4    0    0  0.53643447235E+02  0.14467698365E+03  0.53476776712E+02  0.16330589297E+03  0.00000000000E+00 0.  1.
</event>
<event>
12    1  0.8258923E-002  0.1827504E+03  0.7818608E-02  0.1166023E+00
         21   -1    0    0  501  502  0.00000000000E+00  0.00000000000E+00  0.16031025495E+03  0.16031025495E+03  0.00000000000E+00 0. -1.
         21   -1    0    0  502  503 -0.00000000000E+00 -0.00000000000E+00 -0.20703832026E+03  0.20703832026E+03  0.00000000000E+00 0. -1.
         -6    2    1    2    0  503 -0.39221735558E+02 -0.33158451101E+02 -0.44318497248E+02  0.18458225736E+03  0.17166436180E+03 0.  0.
        -24    2    3    3    0    0 -0.63663772049E+02  0.31788369149E+02 -0.13834481248E+02  0.10864236112E+03  0.80920908759E+02 0.  0.
          6    2    1    2  501    0  0.39221735558E+02  0.33158451101E+02 -0.24095680585E+01  0.18276631786E+03  0.17538498655E+03 0.  0.
         24    2    5    5    0    0 -0.66381911880E+00  0.32151834188E+02 -0.64785127145E+02  0.10857284698E+03  0.80973880387E+02 0.  0.
          5    1    5    5  501    0  0.39885554677E+02  0.10066169136E+01  0.62375559086E+02  0.74193470877E+02  0.47000000000E+01 0. -1.
        -13    1    6    6    0    0  0.15550649890E+02  0.48818432985E+02 -0.67954641902E+02  0.85105202350E+02  0.00000000000E+00 0.  1.
         14    1    6    6    0    0 -0.16214469009E+02 -0.16666598797E+02  0.31695147571E+01  0.23467644630E+02  0.00000000000E+00 0. -1.
         -5    1    3    3    0  503  0.24442036491E+02 -0.64946820251E+02 -0.30484016000E+02  0.75939896234E+02  0.47000000000E+01 0.  1.
         11    1    4    4    0    0 -0.34414335681E+02 -0.15217706163E+02 -0.33006380848E+02  0.50053434027E+02  0.00000000000E+00 0. -1.
        -12    1    4    4    0    0 -0.29249436369E+02  0.47006075312E+02  0.19171899600E+02  0.58588927097E+02  0.00000000000E+00 0.  1.
</event>
<event>
12    1  0.8258923E-002  0.2128335E+03  0.7818608E-02  0.1139673E+00
         21   -1    0    0  501  502  0.00000000000E+00  0.00000000000E+00  0.66181735182E+03  0.66181735182E+03  0.00000000000E+00 0. -1.
         21   -1    0    0  502  503 -0.00000000000E+00 -0.00000000000E+00 -0.10456436952E+03  0.10456436952E+03  0.00000000000E+00 0. -1.
         -6    2    1    2    0  503 -0.48886193041E+02 -0.11099730853E+03  0.50480590679E+03  0.54718135694E+03  0.17282410561E+03 0.  0.
        -24    2    3    3    0    0  0.33506088453E+02 -0.73763284708E+02  0.34983699981E+03  0.36770346774E+03  0.79096356551E+02 0.  0.
          6    2    1    2  501    0  0.48886193041E+02  0.11099730853E+03  0.52447075506E+02  0.21920036440E+03  0.17489380107E+03 0.  0.
         24    2    5    5    0    0 -0.32557880212E+02  0.88083411803E+02  0.51687952242E+02  0.13446046825E+03  0.81174319319E+02 0.  0.
          5    1    5    5  501    0  0.81444073253E+02  0.22913896732E+02  0.75912326428E+00  0.84739896151E+02  0.47000000000E+01 0. -1.
        -13    1    6    6    0    0 -0.35498896008E+02  0.76627996152E+00  0.64918549026E+01  0.36095747434E+02  0.00000000000E+00 0.  1.
         14    1    6    6    0    0  0.29410157956E+01  0.87317131841E+02  0.45196097340E+02  0.98364720818E+02  0.00000000000E+00 0. -1.
         -5    1    3    3    0  503 -0.82392281494E+02 -0.37234023826E+02  0.15496890698E+03  0.17947788920E+03  0.47000000000E+01 0.  1.
         11    1    4    4    0    0  0.13334157887E+02 -0.45735646537E+02  0.63980429070E+02  0.79768693324E+02  0.00000000000E+00 0. -1.
        -12    1    4    4    0    0  0.20171930566E+02 -0.28027638172E+02  0.28585657074E+03  0.28793477442E+03  0.00000000000E+00 0.  1.
</event>
<event>
12    1  0.8258923E-002  0.2158584E+03  0.7818608E-02  0.1137020E+00
         21   -1    0    0  503  502  0.00000000000E+00  0.00000000000E+00  0.44231402444E+03  0.44231402444E+03  0.00000000000E+00 0.  1.
         21   -1    0    0  501  503 -0.00000000000E+00 -0.00000000000E+00 -0.11223087545E+03  0.11223087545E+03  0.00000000000E+00 0. -1.
          6    2    1    2  501    0  0.55817098076E+02 -0.11916068703E+03  0.96230618064E+02  0.23633698234E+03  0.17111405436E+03 0.  0.
         24    2    3    3    0    0  0.59182341160E+01 -0.13400213236E+03  0.97762677565E+02  0.18404355704E+03  0.79516619591E+02 0.  0.
         -6    2    1    2    0  502 -0.55817098076E+02  0.11916068703E+03  0.23385253092E+03  0.31820791755E+03  0.17103933700E+03 0.  0.
        -24    2    5    5    0    0 -0.47702955332E+02  0.10362372672E+03  0.25395298816E+03  0.29112739264E+03  0.85144523418E+02 0.  0.
          5    1    3    3  501    0  0.49898863960E+02  0.14841445330E+02 -0.15320595010E+01  0.52293425307E+02  0.47000000000E+01 0. -1.
        -11    1    4    4    0    0 -0.14152890023E+02 -0.64908291915E+02  0.89730511855E+02  0.11164656472E+03  0.00000000000E+00 0.  1.
         12    1    4    4    0    0  0.20071124139E+02 -0.69093840441E+02  0.80321657105E+01  0.72396992321E+02  0.00000000000E+00 0. -1.
         -5    1    5    5    0  502 -0.81141427443E+01  0.15536960308E+02 -0.20100457233E+02  0.27080524903E+02  0.47000000000E+01 0.  1.
         11    1    6    6    0    0  0.95143076737E+01 -0.10805805744E+02  0.26920671543E+02  0.30528839556E+02  0.00000000000E+00 0. -1.
        -12    1    6    6    0    0 -0.57217263006E+02  0.11442953246E+03  0.22703231661E+03  0.26059855309E+03  0.00000000000E+00 0.  1.
</event>
<event>
12    1  0.8258923E-002  0.2307729E+03  0.7818608E-02  0.1126275E+00
         21   -1    0    0  501  502  0.00000000000E+00  0.00000000000E+00  0.14582586881E+03  0.14582586881E+03  0.00000000000E+00 0.  1.
         21   -1    0    0  502  503 -0.00000000000E+00 -0.00000000000E+00 -0.45594861501E+03  0.45594861501E+03  0.00000000000E+00 0.  1.
         -6    2    1    2    0  503 -0.11322881777E+03  0.10275948927E+03 -0.29074664023E+03  0.37120038337E+03  0.17284628430E+03 0.  0.
        -24    2    3    3    0    0 -0.12012731927E+03  0.11041762376E+03 -0.16588805647E+03  0.24582896603E+03  0.79312097364E+02 0.  0.
          6    2    1    2  501    0  0.11322881777E+03 -0.10275948927E+03 -0.19376105966E+02  0.23057410045E+03  0.17148966298E+03 0.  0.
         24    2    5    5    0    0  0.67140089649E+02 -0.13697375719E+03 -0.18440505423E+02  0.17297416697E+03  0.79438079038E+02 0.  0.
          5    1    5    5  501    0  0.46088728122E+02  0.34214267921E+02 -0.93560054287E+00  0.57599933486E+02  0.47000000000E+01 0. -1.
        -11    1    6    6    0    0  0.40062905294E+02 -0.88445776853E+01 -0.40608357712E+01  0.41228064740E+02  0.00000000000E+00 0.  1.
         12    1    6    6    0    0  0.27077184355E+02 -0.12812917950E+03 -0.14379669652E+02  0.13174610223E+03  0.00000000000E+00 0. -1.
         -5    1    3    3    0  503  0.68985014976E+01 -0.76581344878E+01 -0.12485858376E+03  0.12537141734E+03  0.47000000000E+01 0.  1.
         11    1    4    4    0    0 -0.65537990978E+02  0.10048348752E+03 -0.14067657160E+03  0.18488390228E+03  0.00000000000E+00 0. -1.
        -12    1    4    4    0    0 -0.54589328290E+02  0.99341362400E+01 -0.25211484872E+02  0.60945063749E+02  0.00000000000E+00 0.  1.
</event>
<event>
12    1  0.8258923E-002  0.2390075E+03  0.7818608E-02  0.1120471E+00
         21   -1    0    0  503  502  0.00000000000E+00  0.00000000000E+00  0.64002692006E+03  0.64002692006E+03  0.00000000000E+00 0. -1.
         21   -1    0    0  501  503 -0.00000000000E+00 -0.00000000000E+00 -0.90290978099E+02  0.90290978099E+02  0.00000000000E+00 0.  1.
          6    2    1    2  501    0 -0.65383762253E+02 -0.15240224562E+03  0.23503484251E+03  0.33514533495E+03  0.17198702716E+03 0.  0.
         24    2    3    3    0    0 -0.40389829244E+02 -0.13198782411E+03  0.83196623971E+02  0.17984440160E+03  0.79813573577E+02 0.  0.
         -6    2    1    2    0  502  0.65383762253E+02  0.15240224562E+03  0.31470109945E+03  0.39517256320E+03  0.17211360166E+03 0.  0.
        -24    2    5    5    0    0  0.90982913226E+02  0.80898499951E+02  0.12888501366E+03  0.19437961035E+03  0.79684555474E+02 0.  0.
          5    1    3    3  501    0 -0.24993933009E+02 -0.20414421512E+02  0.15183821854E+03  0.15530093335E+03  0.47000000000E+01 0. -1.
        -11    1    4    4    0    0 -0.61217180411E+02 -0.69091720368E+02  0.57659078285E+02  0.10883831269E+03  0.00000000000E+00 0.  1.
         12    1    4    4    0    0  0.20827351167E+02 -0.62896103738E+02  0.25537545686E+02  0.71006088906E+02  0.00000000000E+00 0. -1.
         -5    1    5    5    0  502 -0.25599150973E+02  0.71503745668E+02  0.18581608579E+03  0.20079295285E+03  0.47000000000E+01 0.  1.
         13    1    6    6    0    0 -0.13276472584E+02  0.11543869945E+02  0.30183313199E+02  0.34936485989E+02  0.00000000000E+00 0. -1.
        -14    1    6    6    0    0  0.10425938581E+03  0.69354630006E+02  0.98701700458E+02  0.15944312436E+03  0.00000000000E+00 0.  1.
</event>
<event>
12    1  0.8258923E-002  0.1772993E+03  0.7818608E-02  0.1171413E+00
         21   -1    0    0  503  502  0.00000000000E+00  0.00000000000E+00  0.40165007084E+03  0.40165007084E+03  0.00000000000E+00 0. -1.
         21   -1    0    0  501  503 -0.00000000000E+00 -0.00000000000E+00 -0.98158627179E+02  0.98158627179E+02  0.00000000000E+00 0. -1.
          6    2    1    2  501    0  0.37142845162E+02  0.16723319568E+02  0.35835387237E+02  0.18088452067E+03  0.17255658341E+03 0.  0.
         24    2    3    3    0    0  0.47150998564E+02 -0.52831064036E+02 -0.75117555381E+01  0.98186030966E+02  0.67599794473E+02 0.  0.
         -6    2    1    2    0  502 -0.37142845162E+02 -0.16723319568E+02  0.26765605642E+03  0.31892417734E+03  0.16856335898E+03 0.  0.
        -24    2    5    5    0    0  0.42598463272E+02 -0.12826509351E+02  0.11353870737E+03  0.14529207006E+03  0.78991133274E+02 0.  0.
          5    1    3    3  501    0 -0.10008153402E+02  0.69554383605E+02  0.43347142775E+02  0.82698489707E+02  0.47000000000E+01 0. -1.
        -11    1    4    4    0    0  0.32901640415E+02  0.91110682015E+01 -0.56091561174E+01  0.34597574165E+02  0.00000000000E+00 0.  1.
         12    1    4    4    0    0  0.14249358150E+02 -0.61942132238E+02 -0.19025994207E+01  0.63588456802E+02  0.00000000000E+00 0. -1.
         -5    1    5    5    0  502 -0.79741308435E+02 -0.38968102169E+01  0.15411734905E+03  0.17363210728E+03  0.47000000000E+01 0.  1.
         11    1    6    6    0    0  0.28782515089E+02 -0.11064578764E+02 -0.66722348591E-01  0.30836058924E+02  0.00000000000E+00 0. -1.
        -12    1    6    6    0    0  0.13815948183E+02 -0.17619305873E+01  0.11360542972E+03  0.11445601114E+03  0.00000000000E+00 0.  1.
</event>
<event>
12    1  0.8258923E-002  0.1915268E+03  0.7818608E-02  0.1157270E+00
         21   -1    0    0  503  502  0.00000000000E+00  0.00000000000E+00  0.15607523103E+04  0.15607523103E+04  0.00000000000E+00 0. -1.
         21   -1    0    0  501  503 -0.00000000000E+00 -0.00000000000E+00 -0.63879732457E+02  0.63879732457E+02  0.00000000000E+00 0.  1.
          6    2    1    2  501    0 -0.19096527714E+02  0.80824600561E+02  0.10126464791E+03  0.21594328768E+03  0.17169647973E+03 0.  0.
         24    2    3    3    0    0 -0.63467425731E+01  0.90707063735E+02  0.63920130361E+01  0.11959430249E+03  0.77420196368E+02 0.  0.
         -6    2    1    2    0  502  0.19096527714E+02 -0.80824600561E+02  0.13956079299E+04  0.14086887550E+04  0.17258395389E+03 0.  0.
        -24    2    5    5    0    0 -0.16322580140E+02 -0.61687238268E+02  0.31894799586E+03  0.33126615670E+03  0.62751099795E+02 0.  0.
          5    1    3    3  501    0 -0.12749785141E+02 -0.98824631742E+01  0.94872634870E+02  0.96348985188E+02  0.47000000000E+01 0. -1.
        -13    1    4    4    0    0  0.35128607512E+02  0.49865127997E+02 -0.34177602972E+00  0.60997269338E+02  0.00000000000E+00 0.  1.
         14    1    4    4    0    0 -0.41475350085E+02  0.40841935739E+02  0.67337890659E+01  0.58597033156E+02  0.00000000000E+00 0. -1.
         -5    1    5    5    0  502  0.35419107854E+02 -0.19137362293E+02  0.10766599340E+04  0.10774225983E+04  0.47000000000E+01 0.  1.
         11    1    6    6    0    0  0.14729707068E+02 -0.55076890858E+02  0.22444437833E+03  0.23157225037E+03  0.00000000000E+00 0. -1.
        -12    1    6    6    0    0 -0.31052287208E+02 -0.66103474096E+01  0.94503617536E+02  0.99693906339E+02  0.00000000000E+00 0.  1.
</event>
<event>
12    1  0.8258923E-002  0.2250851E+03  0.7818608E-02  0.1130186E+00
         21   -1    0    0  503  502  0.00000000000E+00  0.00000000000E+00  0.52564160545E+02  0.52564160545E+02  0.00000000000E+00 0. -1.
         21   -1    0    0  501  503 -0.00000000000E+00 -0.00000000000E+00 -0.17769712812E+04  0.17769712812E+04  0.00000000000E+00 0. -1.
          6    2    1    2  501    0  0.14536817846E+03  0.10388752807E+01 -0.14811313447E+04  0.14981046265E+04  0.17156463791E+03 0.  0.
         24    2    3    3    0    0  0.34961692697E+02 -0.13840864690E+02 -0.39481430308E+03  0.40607999135E+03  0.87228068687E+02 0.  0.
         -6    2    1    2    0  502 -0.14536817846E+03 -0.10388752807E+01 -0.24327577587E+03  0.33143081520E+03  0.17184381156E+03 0.  0.
        -24    2    5    5    0    0 -0.14021098731E+03  0.45444415191E+02 -0.22513835538E+03  0.28104878531E+03  0.81097625306E+02 0.  0.
          5    1    3    3  501    0  0.11040648576E+03  0.14879739970E+02 -0.10863170417E+04  0.10920246351E+04  0.47000000000E+01 0. -1.
        -11    1    4    4    0    0 -0.17133315089E+02 -0.29771108292E+02 -0.87986250879E+02  0.94453426188E+02  0.00000000000E+00 0.  1.
         12    1    4    4    0    0  0.52095007786E+02  0.15930243603E+02 -0.30682805221E+03  0.31162656517E+03  0.00000000000E+00 0. -1.
         -5    1    5    5    0  502 -0.51571911443E+01 -0.46483290472E+02 -0.18137420493E+02  0.50382029889E+02  0.47000000000E+01 0.  1.
         11    1    6    6    0    0 -0.38888239267E+02  0.50624070191E+02 -0.62351143647E+02  0.89234280129E+02  0.00000000000E+00 0. -1.
        -12    1    6    6    0    0 -0.10132274805E+03 -0.51796549995E+01 -0.16278721173E+03  0.19181450519E+03  0.00000000000E+00 0.  1.
</event>
<event>
12    1  0.8258923E-002  0.2210468E+03  0.7818608E-02  0.1133365E+00
         21   -1    0    0  503  502  0.00000000000E+00  0.00000000000E+00  0.13596326612E+04  0.13596326612E+04  0.00000000000E+00 0.  1.
         21   -1    0    0  501  503 -0.00000000000E+00 -0.00000000000E+00 -0.37072991376E+02  0.37072991376E+02  0.00000000000E+00 0. -1.
          6    2    1    2  501    0  0.14238615985E+02 -0.13718421314E+03  0.79313664731E+03  0.82298930576E+03  0.17094855824E+03 0.  0.
         24    2    3    3    0    0 -0.42013160870E+02 -0.13421740872E+03  0.62296590536E+03  0.64367607216E+03  0.80330244229E+02 0.  0.
         -6    2    1    2    0  502 -0.14238615985E+02  0.13718421314E+03  0.52942302248E+03  0.57371634678E+03  0.17274102963E+03 0.  0.
        -24    2    5    5    0    0 -0.44467397855E+02  0.11697282495E+02  0.21617526059E+03  0.23488453106E+03  0.79528760537E+02 0.  0.
          5    1    3    3  501    0  0.56251776855E+02 -0.29668044220E+01  0.17017074195E+03  0.17931323360E+03  0.47000000000E+01 0. -1.
        -13    1    4    4    0    0  0.99682457073E+01 -0.87712473443E+01  0.17695315512E+03  0.17745061231E+03  0.00000000000E+00 0.  1.
         14    1    4    4    0    0 -0.51981406577E+02 -0.12544616137E+03  0.44601275025E+03  0.46622545985E+03  0.00000000000E+00 0. -1.
         -5    1    5    5    0  502  0.30228781870E+02  0.12548693064E+03  0.31324776189E+03  0.33883181572E+03  0.47000000000E+01 0.  1.
         13    1    6    6    0    0 -0.52282845125E+01 -0.28924113252E+02  0.11816642880E+03  0.12176717202E+03  0.00000000000E+00 0. -1.
        -14    1    6    6    0    0 -0.39239113343E+02  0.40621395747E+02  0.98008831787E+02  0.11311735904E+03  0.00000000000E+00 0.  1.
</event>
<event>
12    1  0.8258923E-002  0.1962930E+03  0.7818608E-02  0.1153095E+00
         21   -1    0    0  501  502  0.00000000000E+00  0.00000000000E+00  0.78027246135E+03  0.78027246135E+03  0.00000000000E+00 0.  1.
         21   -1    0    0  502  503 -0.00000000000E+00 -0.00000000000E+00 -0.68075277463E+02  0.68075277463E+02  0.00000000000E+00 0.  1.
         -6    2    1    2    0  503 -0.86105037481E+02  0.34857337740E+02  0.13193631620E+03  0.23578457725E+03  0.17192458773E+03 0.  0.
        -24    2    3    3    0    0 -0.11186073029E+02  0.89529120786E+01  0.12836609960E+03  0.15629415676E+03  0.88004119492E+02 0.  0.
          6    2    1    2  501    0  0.86105037481E+02 -0.34857337740E+02  0.58026086769E+03  0.61256316156E+03  0.17292148754E+03 0.  0.
         24    2    5    5    0    0  0.68324503037E+02 -0.76472158759E+02  0.52328079890E+03  0.53964705241E+03  0.82945270535E+02 0.  0.
          5    1    5    5  501    0  0.17780534444E+02  0.41614821018E+02  0.56980068795E+02  0.72916109149E+02  0.47000000000E+01 0. -1.
        -13    1    6    6    0    0  0.39155397062E+02 -0.13164995903E+02  0.71950283001E+02  0.82965688451E+02  0.00000000000E+00 0.  1.
         14    1    6    6    0    0  0.29169105975E+02 -0.63307162856E+02  0.45133051590E+03  0.45668136396E+03  0.00000000000E+00 0. -1.
         -5    1    3    3    0  503 -0.74918964452E+02  0.25904425662E+02  0.35702166008E+01  0.79490420492E+02  0.47000000000E+01 0.  1.
         11    1    4    4    0    0 -0.33234856050E+02 -0.64031277021E+01  0.12465696518E+03  0.12917009975E+03  0.00000000000E+00 0. -1.
        -12    1    4    4    0    0  0.22048783021E+02  0.15356039781E+02  0.37091344106E+01  0.27124057008E+02  0.00000000000E+00 0.  1.
</event>
<event>
12    1  0.8258923E-002  0.2894537E+03  0.7818608E-02  0.1091392E+00
         21   -1    0    0  503  502  0.00000000000E+00  0.00000000000E+00  0.12437828494E+04  0.12437828494E+04  0.00000000000E+00 0. -1.
         21   -1    0    0  501  503 -0.00000000000E+00 -0.00000000000E+00 -0.12189322533E+03  0.12189322533E+03  0.00000000000E+00 0. -1.
          6    2    1    2  501    0 -0.36762686641E+02 -0.22356395742E+03  0.10175112668E+03  0.30681707269E+03  0.18014185002E+03 0.  0.
         24    2    3    3    0    0 -0.36234581887E+01 -0.59806260927E+02 -0.23033523728E+02  0.98231141716E+02  0.74356544381E+02 0.  0.
         -6    2    1    2    0  502  0.36762686641E+02  0.22356395742E+03  0.10201384974E+04  0.10588590020E+04  0.17078493543E+03 0.  0.
        -24    2    5    5    0    0  0.22784228122E+02  0.24437040810E+03  0.91022187889E+03  0.94602257745E+03  0.78859564010E+02 0.  0.
          5    1    3    3  501    0 -0.33139228452E+02 -0.16375769649E+03  0.12478465040E+03  0.20858593097E+03  0.47000000000E+01 0. -1.
        -11    1    4    4    0    0  0.32013868948E+02 -0.48435161613E+02 -0.12889151331E+02  0.59472539104E+02  0.00000000000E+00 0.  1.
         12    1    4    4    0    0 -0.35637327137E+02 -0.11371099314E+02 -0.10144372398E+02  0.38758602612E+02  0.00000000000E+00 0. -1.
         -5    1    5    5    0  502  0.13978458519E+02 -0.20806450678E+02  0.10991661850E+03  0.11283642459E+03  0.47000000000E+01 0.  1.
         11    1    6    6    0    0  0.30874268221E+02  0.84884170866E+02  0.44736356751E+03  0.45639095569E+03  0.00000000000E+00 0. -1.
        -12    1    6    6    0    0 -0.80900400989E+01  0.15948623723E+03  0.46285831138E+03  0.48963162176E+03  0.00000000000E+00 0.  1.
</event>
<event>
12    1  0.8258923E-002  0.1820476E+03  0.7818608E-02  0.1166479E+00
         21   -1    0    0  501  502  0.00000000000E+00  0.00000000000E+00  0.13092965523E+03  0.13092965523E+03  0.00000000000E+00 0. -1.
         21   -1    0    0  502  503 -0.00000000000E+00 -0.00000000000E+00 -0.26271193768E+03  0.26271193768E+03  0.00000000000E+00 0.  1.
         -6    2    1    2    0  503 -0.49089192484E+02  0.25013750306E+02 -0.11063400359E+03  0.21302863129E+03  0.17351045638E+03 0.  0.
        -24    2    3    3    0    0  0.12315030411E+02 -0.78109918072E+01  0.11284532683E+00  0.82128299626E+02  0.80823098792E+02 0.  0.
          6    2    1    2  501    0  0.49089192484E+02 -0.25013750306E+02 -0.21148278865E+02  0.18061296162E+03  0.17069960657E+03 0.  0.
         24    2    5    5    0    0  0.62149018668E+01 -0.77475126395E+02 -0.10196094818E+02  0.11182022136E+03  0.79741967247E+02 0.  0.
          5    1    5    5  501    0  0.42874290617E+02  0.52461376089E+02 -0.10952184047E+02  0.68792740259E+02  0.47000000000E+01 0. -1.
        -13    1    6    6    0    0 -0.16040105952E+02  0.11148578395E+02 -0.56378847768E+01  0.20331294694E+02  0.00000000000E+00 0.  1.
         14    1    6    6    0    0  0.22255007819E+02 -0.88623704790E+02 -0.45582100416E+01  0.91488926666E+02  0.00000000000E+00 0. -1.
         -5    1    3    3    0  503 -0.61404222894E+02  0.32824742113E+02 -0.11074684892E+03  0.13090033166E+03  0.47000000000E+01 0.  1.
         13    1    4    4    0    0 -0.33884229021E+02 -0.11477350927E+02  0.63268066727E+00  0.35780872621E+02  0.00000000000E+00 0. -1.
        -14    1    4    4    0    0  0.46199259432E+02  0.36663591196E+01 -0.51983534043E+00  0.46347427006E+02  0.00000000000E+00 0.  1.
</event>
<event>
12    1  0.8258923E-002  0.1782982E+03  0.7818608E-02  0.1169492E+00
         21   -1    0    0  501  502  0.00000000000E+00  0.00000000000E+00  0.66320833059E+02  0.66320833059E+02  0.00000000000E+00 0. -1.
         21   -1    0    0  502  503 -0.00000000000E+00 -0.00000000000E+00 -0.68968344599E+03  0.68968344599E+03  0.00000000000E+00 0. -1.
         -6    2    1    2    0  503  0.26941928831E+02 -0.40445633002E+02 -0.52068883972E+03  0.55036998305E+03  0.17154746771E+03 0.  0.
        -24    2    3    3    0    0  0.36954550096E+02 -0.19527398206E+02 -0.51957769684E+03  0.52668138305E+03  0.75401181331E+02 0.  0.
          6    2    1    2  501    0 -0.26941928831E+02  0.40445633002E+02 -0.10267377322E+03  0.20563429600E+03  0.17141132759E+03 0.  0.
         24    2    5    5    0    0 -0.37184452892E+01  0.78201556195E+02 -0.33770974590E+02  0.12357014072E+03  0.89441549213E+02 0.  0.
          5    1    5    5  501    0 -0.23223483542E+02 -0.37755923193E+02 -0.68902798627E+02  0.82064155285E+02  0.47000000000E+01 0. -1.
        -13    1    6    6    0    0 -0.31401848494E+02 -0.44155664194E+01 -0.10095583304E+02  0.33279034209E+02  0.00000000000E+00 0.  1.
         14    1    6    6    0    0  0.27683403204E+02  0.82617122614E+02 -0.23675391286E+02  0.90291106509E+02  0.00000000000E+00 0. -1.
         -5    1    3    3    0  503 -0.10012621264E+02 -0.20918234796E+02 -0.11111428813E+01  0.23688600003E+02  0.47000000000E+01 0.  1.
         13    1    4    4    0    0 -0.33358769862E+01 -0.12297434172E+02 -0.40163738994E+03  0.40183945545E+03  0.00000000000E+00 0. -1.
        -14    1    4    4    0    0  0.40290427082E+02 -0.72299640341E+01 -0.11794030690E+03  0.12484192759E+03  0.00000000000E+00 0.  1.
</event>
<event>
12    1  0.8258923E-002  0.1948293E+03  0.7818608E-02  0.1154314E+00
         21   -1    0    0  501  502  0.00000000000E+00  0.00000000000E+00  0.50188219218E+03  0.50188219218E+03  0.00000000000E+00 0.  1.
         21   -1    0    0  502  503 -0.00000000000E+00 -0.00000000000E+00 -0.12429585047E+03  0.12429585047E+03  0.00000000000E+00 0.  1.
         -6    2    1    2    0  503 -0.17466163870E+02 -0.91098600794E+02 -0.74163811066E+01  0.19497043846E+03  0.17133139589E+03 0.  0.
        -24    2    3    3    0    0  0.17812258999E+02  0.73178224920E+01 -0.30220339088E+02  0.87860821750E+02  0.80221119459E+02 0.  0.
          6    2    1    2  501    0  0.17466163870E+02  0.91098600794E+02  0.38500272281E+03  0.43120760419E+03  0.17061324507E+03 0.  0.
         24    2    5    5    0    0  0.63397136787E+02  0.81308869209E+02  0.18993562568E+03  0.23051192536E+03  0.80186511749E+02 0.  0.
          5    1    5    5  501    0 -0.45930972917E+02  0.97897315847E+01  0.19506709713E+03  0.20069567883E+03  0.47000000000E+01 0. -1.
        -11    1    6    6    0    0  0.13643951090E+02 -0.91509863905E+01  0.71649470273E+02  0.73508805892E+02  0.00000000000E+00 0.  1.
         12    1    6    6    0    0  0.49753185697E+02  0.90459855600E+02  0.11828615541E+03  0.15700311947E+03  0.00000000000E+00 0. -1.
         -5    1    3    3    0  503 -0.35278422869E+02 -0.98416423286E+02  0.22803957982E+02  0.10710961671E+03  0.47000000000E+01 0.  1.
         13    1    4    4    0    0  0.36860886328E+02 -0.18562054702E+02  0.33288124247E+01  0.41404780012E+02  0.00000000000E+00 0. -1.
        -14    1    4    4    0    0 -0.19048627329E+02  0.25879877195E+02 -0.33549151513E+02  0.46456041738E+02  0.00000000000E+00 0.  1.
</event>
<event>
12    1  0.8258923E-002  0.2221114E+03  0.7818608E-02  0.1132343E+00
         21   -1    0    0  503  502  0.00000000000E+00  0.00000000000E+00  0.64281930636E+03  0.64281930636E+03  0.00000000000E+00 0.  1.
         21   -1    0    0  501  503 -0.00000000000E+00 -0.00000000000E+00 -0.79310324133E+02  0.79310324133E+02  0.00000000000E+00 0. -1.
          6    2    1    2  501    0  0.13340319718E+03  0.42025764316E+02  0.21616324040E+03  0.30984026431E+03  0.17237129983E+03 0.  0.
         24    2    3    3    0    0  0.12328939222E+03 -0.65892191455E+01  0.21467499255E+03  0.25994025881E+03  0.78992997647E+02 0.  0.
         -6    2    1    2    0  502 -0.13340319718E+03 -0.42025764316E+02  0.34734574183E+03  0.41228936618E+03  0.17254239831E+03 0.  0.
        -24    2    5    5    0    0 -0.19386284299E+01 -0.88676525289E+01  0.83942294591E+02  0.11600258073E+03  0.79548075864E+02 0.  0.
          5    1    3    3  501    0  0.10113804960E+02  0.48614983462E+02  0.14882478442E+01  0.49900005505E+02  0.47000000000E+01 0. -1.
        -13    1    4    4    0    0 -0.48112988837E+00 -0.17929691768E+02  0.53385122826E+02  0.56317640860E+02  0.00000000000E+00 0.  1.
         14    1    4    4    0    0  0.12377052211E+03  0.11340472623E+02  0.16128986973E+03  0.20362261795E+03  0.00000000000E+00 0. -1.
         -5    1    5    5    0  502 -0.13146456875E+03 -0.33158111788E+02  0.26340344724E+03  0.29628678545E+03  0.47000000000E+01 0.  1.
         11    1    6    6    0    0 -0.28794778897E+02 -0.25141855638E+02  0.73610527369E+02  0.82944330344E+02  0.00000000000E+00 0. -1.
        -12    1    6    6    0    0  0.26856150467E+02  0.16274203109E+02  0.10331767221E+02  0.33058250387E+02  0.00000000000E+00 0.  1.
</event>
<event>
12    1  0.8258923E-002  0.2668282E+03  0.7818608E-02  0.1103212E+00
         21   -1    0    0  503  502  0.00000000000E+00  0.00000000000E+00  0.14290958184E+03  0.14290958184E+03  0.00000000000E+00 0.  1.
         21   -1    0    0  501  503 -0.00000000000E+00 -0.00000000000E+00 -0.23343721481E+04  0.23343721481E+04  0.00000000000E+00 0. -1.
          6    2    1    2  501    0 -0.12541760232E+03  0.16052658577E+03 -0.21949821774E+04  0.22111408949E+04  0.17233379820E+03 0.  0.
         24    2    3    3    0    0 -0.10522503564E+02  0.58176337193E+02 -0.51972581325E+03  0.52882628908E+03  0.77763190373E+02 0.  0.
         -6    2    1    2    0  502  0.12541760232E+03 -0.16052658577E+03  0.35196111833E+01  0.26614083505E+03  0.17123141274E+03 0.  0.
        -24    2    5    5    0    0  0.81456788285E+02 -0.77433052026E+02  0.65400537040E+02  0.15349791470E+03  0.81567724430E+02 0.  0.
          5    1    3    3  501    0 -0.11489509875E+03  0.10235024858E+03 -0.16752563642E+04  0.16823146058E+04  0.47000000000E+01 0. -1.
        -11    1    4    4    0    0 -0.33829653909E+02  0.38018962436E+02 -0.16270581744E+03  0.17047894303E+03  0.00000000000E+00 0.  1.
         12    1    4    4    0    0  0.23307150345E+02  0.20157374757E+02 -0.35701999581E+03  0.35834734605E+03  0.00000000000E+00 0. -1.
         -5    1    5    5    0  502  0.43960814034E+02 -0.83093533743E+02 -0.61880925857E+02  0.11264292035E+03  0.47000000000E+01 0.  1.
         11    1    6    6    0    0  0.56296333170E+02 -0.61410981563E+02  0.18902729273E+01  0.83331620149E+02  0.00000000000E+00 0. -1.
        -12    1    6    6    0    0  0.25160455115E+02 -0.16022070464E+02  0.63510264113E+02  0.70166294552E+02  0.00000000000E+00 0.  1.
</event>
<event>
12    1  0.8258923E-002  0.2591835E+03  0.7818608E-02  0.1107655E+00
         21   -1    0    0  501  502  0.00000000000E+00  0.00000000000E+00  0.14636318777E+04  0.14636318777E+04  0.00000000000E+00 0.  1.
         21   -1    0    0  502  503 -0.00000000000E+00 -0.00000000000E+00 -0.57236181419E+02  0.57236181419E+02  0.00000000000E+00 0.  1.
         -6    2    1    2    0  503  0.18106939051E+03 -0.68772422957E+02  0.36451580651E+03  0.44726707922E+03  0.17222164968E+03 0.  0.
        -24    2    3    3    0    0  0.54212889279E+02 -0.81312453536E+02  0.20433761698E+03  0.24250144081E+03  0.86616018255E+02 0.  0.
          6    2    1    2  501    0 -0.18106939051E+03  0.68772422957E+02  0.10418798898E+04  0.10736009799E+04  0.17201624632E+03 0.  0.
         24    2    5    5    0    0 -0.77787508655E+02 -0.22669186198E+02  0.59281903738E+03  0.60380692486E+03  0.81139404253E+02 0.  0.
          5    1    5    5  501    0 -0.10328188185E+03  0.91441609155E+02  0.44906085242E+03  0.46979405507E+03  0.47000000000E+01 0. -1.
        -11    1    6    6    0    0 -0.78200325422E+02 -0.65453573556E+01  0.57255389550E+03  0.57790664977E+03  0.00000000000E+00 0.  1.
         12    1    6    6    0    0  0.41281676616E+00 -0.16123828842E+02  0.20265141883E+02  0.25900275090E+02  0.00000000000E+00 0. -1.
         -5    1    3    3    0  503  0.12685650123E+03  0.12540030579E+02  0.16017818953E+03  0.20476563841E+03  0.47000000000E+01 0.  1.
         11    1    4    4    0    0  0.62371503508E+02 -0.31369618887E+02  0.16242346382E+03  0.17679264418E+03  0.00000000000E+00 0. -1.
        -12    1    4    4    0    0 -0.81586142286E+01 -0.49942834649E+02  0.41914153163E+02  0.65708796628E+02  0.00000000000E+00 0.  1.
</event>
<event>
12    1  0.8258923E-002  0.2321234E+03  0.7818608E-02  0.1125674E+00
         21   -1    0    0  503  502  0.00000000000E+00  0.00000000000E+00  0.17277753192E+03  0.17277753192E+03  0.00000000000E+00 0. -1.
         21   -1    0    0  501  503 -0.00000000000E+00 -0.00000000000E+00 -0.32605374149E+03  0.32605374149E+03  0.00000000000E+00 0. -1.
          6    2    1    2  501    0 -0.15093253038E+03  0.16390481250E+02 -0.17284637068E+02  0.22980531141E+03  0.17164628126E+03 0.  0.
         24    2    3    3    0    0 -0.83676931205E+02  0.29312987319E+02 -0.77161318409E+02  0.13871407280E+03  0.73665764720E+02 0.  0.
         -6    2    1    2    0  502  0.15093253038E+03 -0.16390481250E+02 -0.13599157250E+03  0.26902596200E+03  0.17559038653E+03 0.  0.
        -24    2    5    5    0    0  0.37687236509E+02 -0.18773724579E+02 -0.69061849376E+00  0.92507932935E+02  0.82367834570E+02 0.  0.
          5    1    3    3  501    0 -0.67255599171E+02 -0.12922506069E+02  0.59876681342E+02  0.91091238610E+02  0.47000000000E+01 0. -1.
        -13    1    4    4    0    0  0.90241616360E+00 -0.15745283633E+02 -0.25125933536E+02  0.29665482428E+02  0.00000000000E+00 0.  1.
         14    1    4    4    0    0 -0.84579347368E+02  0.45058270953E+02 -0.52035384873E+02  0.10904859037E+03  0.00000000000E+00 0. -1.
         -5    1    5    5    0  502  0.11324529387E+03  0.23832433290E+01 -0.13530095400E+03  0.17651802907E+03  0.47000000000E+01 0.  1.
         13    1    6    6    0    0  0.48150749908E+02 -0.42481621881E+02 -0.99719610769E+01  0.64981712212E+02  0.00000000000E+00 0. -1.
        -14    1    6    6    0    0 -0.10463513399E+02  0.23707897301E+02  0.92813425832E+01  0.27526220722E+02  0.00000000000E+00 0.  1.
</event>
<event>
12    1  0.8258923E-002  0.1848748E+03  0.7818608E-02  0.1163428E+00
         21   -1    0    0  501  502  0.00000000000E+00  0.00000000000E+00  0.88658722530E+03  0.88658722530E+03  0.00000000000E+00 0. -1.
         21   -1    0    0  502  503 -0.00000000000E+00 -0.00000000000E+00 -0.46051011322E+02  0.46051011322E+02  0.00000000000E+00 0. -1.
         -6    2    1    2    0  503  0.44388268739E+02  0.47725177567E+02  0.23024645792E+03  0.29528313118E+03  0.17300487044E+03 0.  0.
        -24    2    3    3    0    0  0.34057485597E+02 -0.30332585213E+02  0.64878743703E+02  0.11206656447E+03  0.79181345256E+02 0.  0.
          6    2    1    2  501    0 -0.44388268739E+02 -0.47725177567E+02  0.61028975605E+03  0.63735510544E+03  0.17181365811E+03 0.  0.
         24    2    5    5    0    0  0.30216540861E+01  0.32296792944E+02  0.27070185965E+03  0.28522835848E+03  0.83806362718E+02 0.  0.
          5    1    5    5  501    0 -0.47409922826E+02 -0.80021970511E+02  0.33958789640E+03  0.35212674697E+03  0.47000000000E+01 0. -1.
        -11    1    6    6    0    0  0.24033071687E+02  0.92867134392E+01  0.20050069800E+02  0.32647157307E+02  0.00000000000E+00 0.  1.
         12    1    6    6    0    0 -0.21011417601E+02  0.23010079505E+02  0.25065178985E+03  0.25258120117E+03  0.00000000000E+00 0. -1.
         -5    1    3    3    0  503  0.10330783143E+02  0.78057762780E+02  0.16536771422E+03  0.18321656671E+03  0.47000000000E+01 0.  1.
         11    1    4    4    0    0  0.37715010395E+02  0.13098620164E+02  0.53978584097E+02  0.67139283586E+02  0.00000000000E+00 0. -1.
        -12    1    4    4    0    0 -0.36575247985E+01 -0.43431205377E+02  0.10900159607E+02  0.44927280884E+02  0.00000000000E+00 0.  1.
</event>
<event>
12    1  0.8258923E-002  0.2245613E+03  0.7818608E-02  0.1130703E+00
         21   -1    0    0  501  502  0.00000000000E+00  0.00000000000E+00  0.26418888803E+03  0.26418888803E+03  0.00000000000E+00 0. -1.
         21   -1    0    0  502  503 -0.00000000000E+00 -0.00000000000E+00 -0.33184606942E+03  0.33184606942E+03  0.00000000000E+00 0. -1.
         -6    2    1    2    0  503  0.94838642646E+02 -0.10820287922E+03 -0.22858889883E+03  0.31976188448E+03  0.17115065553E+03 0.  0.
        -24    2    3    3    0    0  0.10313751490E+03 -0.49873611804E+02 -0.22005574467E+03  0.26004522484E+03  0.77937565182E+02 0.  0.
          6    2    1    2  501    0 -0.94838642646E+02  0.10820287922E+03  0.16093171744E+03  0.27627307297E+03  0.17241102621E+03 0.  0.
         24    2    5    5    0    0 -0.32214190190E+02  0.27364132791E+02  0.76190157023E+01  0.91926661331E+02  0.81276760825E+02 0.  0.
          5    1    5    5  501    0 -0.62624452456E+02  0.80838746430E+02  0.15331270173E+03  0.18434641164E+03  0.47000000000E+01 0. -1.
        -11    1    6    6    0    0  0.12922023503E+02  0.34741705476E+02  0.23060693693E+02  0.43655015570E+02  0.00000000000E+00 0.  1.
         12    1    6    6    0    0 -0.45136213694E+02 -0.73775726852E+01 -0.15441677991E+02  0.48271645761E+02  0.00000000000E+00 0. -1.
         -5    1    3    3    0  503 -0.82988722544E+01 -0.58329267417E+02 -0.85331541562E+01  0.59716659635E+02  0.47000000000E+01 0.  1.
         11    1    4    4    0    0  0.60593463964E+01 -0.39438539324E+02 -0.50191631346E+02  0.64119528382E+02  0.00000000000E+00 0. -1.
        -12    1    4    4    0    0  0.97078168504E+02 -0.10435072480E+02 -0.16986411332E+03  0.19592569646E+03  0.00000000000E+00 0.  1.
</event>
<event>
12    1  0.8258923E-002  0.2340866E+03  0.7818608E-02  0.1124454E+00
         21   -1    0    0  501  502  0.00000000000E+00  0.00000000000E+00  0.37795674141E+03  0.37795674141E+03  0.00000000000E+00 0. -1.
         21   -1    0    0  502  503 -0.00000000000E+00 -0.00000000000E+00 -0.15086907197E+03  0.15086907197E+03  0.00000000000E+00 0.  1.
         -6    2    1    2    0  503 -0.74988900974E+02  0.14064178575E+03  0.52670609922E+02  0.23993905962E+03  0.17144419505E+03 0.  0.
        -24    2    3    3    0    0 -0.11016650361E+03  0.63483292628E+02  0.22217622828E+02  0.14971505389E+03  0.75856361872E+02 0.  0.
          6    2    1    2  501    0  0.74988900974E+02 -0.14064178575E+03  0.17441705952E+03  0.28888675376E+03  0.16622514455E+03 0.  0.
         24    2    5    5    0    0  0.26773013451E+02 -0.10957757329E+03  0.18415838934E+03  0.23051946316E+03  0.80627983442E+02 0.  0.
          5    1    5    5  501    0  0.48215887524E+02 -0.31064212451E+02 -0.97413298233E+01  0.58367290597E+02  0.47000000000E+01 0. -1.
        -11    1    6    6    0    0  0.18709261282E+01 -0.11071214594E+03  0.12909996637E+03  0.17008080709E+03  0.00000000000E+00 0.  1.
         12    1    6    6    0    0  0.24902087323E+02  0.11345726450E+01  0.55058422968E+02  0.60438656073E+02  0.00000000000E+00 0. -1.
         -5    1    3    3    0  503  0.35177602636E+02  0.77158493117E+02  0.30452987094E+02  0.90224005732E+02  0.47000000000E+01 0.  1.
         11    1    4    4    0    0 -0.38735900323E+02  0.47215438945E+02  0.41649732934E+02  0.73922039353E+02  0.00000000000E+00 0. -1.
        -12    1    4    4    0    0 -0.71430603287E+02  0.16267853683E+02 -0.19432110106E+02  0.75793014537E+02  0.00000000000E+00 0.  1.
</event>
<event>
12    1  0.8258923E-002  0.2010852E+03  0.7818608E-02  0.1149679E+00
         21   -1    0    0  503  502  0.00000000000E+00  0.00000000000E+00  0.27065686834E+03  0.27065686834E+03  0.00000000000E+00 0. -1.
         21   -1    0    0  501  503 -0.00000000000E+00 -0.00000000000E+00 -0.14941373046E+03  0.14941373046E+03  0.00000000000E+00 0. -1.
          6    2    1    2  501    0  0.35565499614E+02  0.98238188999E+02  0.31498819197E+02  0.20353734379E+03  0.17181277067E+03 0.  0.
         24    2    3    3    0    0  0.64291264379E+02  0.10953062250E+03 -0.11535034140E+02  0.15037070811E+03  0.79674142016E+02 0.  0.
         -6    2    1    2    0  502 -0.35565499614E+02 -0.98238188999E+02  0.89744318683E+02  0.21653325501E+03  0.16708369533E+03 0.  0.
        -24    2    5    5    0    0  0.37774930356E+02 -0.84412242637E+02  0.47361510558E+02  0.13057763922E+03  0.79088779929E+02 0.  0.
          5    1    3    3  501    0 -0.28725764765E+02 -0.11292433499E+02  0.43033853337E+02  0.53166635672E+02  0.47000000000E+01 0. -1.
        -11    1    4    4    0    0  0.72551045477E+02  0.49392001879E+02  0.34839626194E+01  0.87837133634E+02  0.00000000000E+00 0.  1.
         12    1    4    4    0    0 -0.82597810974E+01  0.60138620619E+02 -0.15018996759E+02  0.62533574481E+02  0.00000000000E+00 0. -1.
         -5    1    5    5    0  502 -0.73340429970E+02 -0.13825946362E+02  0.42382808125E+02  0.85955615789E+02  0.47000000000E+01 0.  1.
         11    1    6    6    0    0  0.37042247793E+02 -0.60414318135E+02  0.68520659692E+02  0.98575345609E+02  0.00000000000E+00 0. -1.
        -12    1    6    6    0    0  0.73268256304E+00 -0.23997924502E+02 -0.21159149133E+02  0.32002293608E+02  0.00000000000E+00 0.  1.
</event>
<event>
12    1  0.8258923E-002  0.2630244E+03  0.7818608E-02  0.1105423E+00
         21   -1    0    0  503  502  0.00000000000E+00  0.00000000000E+00  0.11004177333E+04  0.11004177333E+04  0.00000000000E+00 0.  1.
         21   -1    0    0  501  503 -0.00000000000E+00 -0.00000000000E+00 -0.69574647725E+02  0.69574647725E+02  0.00000000000E+00 0.  1.
          6    2    1    2  501    0  0.11461718151E+03 -0.16150068342E+03  0.33248282082E+03  0.42394180284E+03  0.17309609184E+03 0.  0.
         24    2    3    3    0    0  0.48330430110E+01 -0.99367958030E+02  0.22233459578E+03  0.25640746573E+03  0.80092238166E+02 0.  0.
         -6    2    1    2    0  502 -0.11461718151E+03  0.16150068342E+03  0.69836026473E+03  0.74605057816E+03  0.17223483032E+03 0.  0.
        -24    2    5    5    0    0 -0.77708008597E+02  0.15898181741E+03  0.67427613899E+03  0.70165725835E+03  0.79754897765E+02 0.  0.
          5    1    3    3  501    0  0.10978413850E+03 -0.62132725394E+02  0.11014822504E+03  0.16753433710E+03  0.47000000000E+01 0. -1.
        -13    1    4    4    0    0  0.36544432802E+02 -0.25891863494E+02  0.55060785303E+02  0.70975870844E+02  0.00000000000E+00 0.  1.
         14    1    4    4    0    0 -0.31711389791E+02 -0.73476094536E+02  0.16727381048E+03  0.18543159489E+03  0.00000000000E+00 0. -1.
         -5    1    5    5    0  502 -0.36909172911E+02  0.25188660113E+01  0.24084125736E+02  0.44393319806E+02  0.47000000000E+01 0.  1.
         11    1    6    6    0    0 -0.21712315884E+02  0.39598248604E+02  0.32852260606E+03  0.33161204538E+03  0.00000000000E+00 0. -1.
        -12    1    6    6    0    0 -0.55995692713E+02  0.11938356881E+03  0.34575353294E+03  0.37004521297E+03  0.00000000000E+00 0.  1.
</event>
<event>
12    1  0.8258923E-002  0.2446141E+03  0.7818608E-02  0.1116819E+00
         21   -1    0    0  501  502  0.00000000000E+00  0.00000000000E+00  0.28280308074E+03  0.28280308074E+03  0.00000000000E+00 0. -1.
         21   -1    0    0  502  503 -0.00000000000E+00 -0.00000000000E+00 -0.21916281702E+03  0.21916281702E+03  0.00000000000E+00 0.  1.
         -6    2    1    2    0  503  0.64555066714E+02  0.16115931581E+03 -0.15850951418E+02  0.24512716062E+03  0.17232640686E+03 0.  0.
        -24    2    3    3    0    0  0.17619451881E+01  0.74372575636E+02  0.49192649366E+02  0.11971713557E+03  0.79861701327E+02 0.  0.
          6    2    1    2  501    0 -0.64555066714E+02 -0.16115931581E+03  0.79491215139E+02  0.25683873714E+03  0.17177776894E+03 0.  0.
         24    2    5    5    0    0 -0.91239312298E+02 -0.16659831560E+03  0.41774233932E+02  0.21008093188E+03  0.79431105051E+02 0.  0.
          5    1    5    5  501    0  0.26684245584E+02  0.54389997923E+01  0.37716981206E+02  0.46757805257E+02  0.47000000000E+01 0. -1.
        -13    1    6    6    0    0 -0.52969653108E+02 -0.92928616093E+02 -0.17077730810E+02  0.10831971533E+03  0.00000000000E+00 0.  1.
         14    1    6    6    0    0 -0.38269659190E+02 -0.73669699510E+02  0.58851964742E+02  0.10176121655E+03  0.00000000000E+00 0. -1.
         -5    1    3    3    0  503  0.62793121526E+02  0.86786740175E+02 -0.65043600784E+02  0.12541002505E+03  0.47000000000E+01 0.  1.
         11    1    4    4    0    0 -0.19424891413E+01  0.87873109101E+02  0.55930040442E+02  0.10418073714E+03  0.00000000000E+00 0. -1.
        -12    1    4    4    0    0  0.37044343294E+01 -0.13500533465E+02 -0.67373910755E+01  0.15536398426E+02  0.00000000000E+00 0.  1.
</event>
<event>
12    1  0.8258923E-002  0.2402420E+03  0.7818608E-02  0.1119665E+00
         21   -1    0    0  503  502  0.00000000000E+00  0.00000000000E+00  0.25625416013E+03  0.25625416013E+03  0.00000000000E+00 0.  1.
         21   -1    0    0  501  503 -0.00000000000E+00 -0.00000000000E+00 -0.23172516728E+03  0.23172516728E+03  0.00000000000E+00 0.  1.
          6    2    1    2  501    0  0.90775142610E+02 -0.14165789204E+03 -0.29167678809E+02  0.24200616227E+03  0.17149094494E+03 0.  0.
         24    2    3    3    0    0  0.96026338979E+02 -0.12042298332E+03 -0.77850423718E+02  0.18842821846E+03  0.75642265615E+02 0.  0.
         -6    2    1    2    0  502 -0.90775142610E+02  0.14165789204E+03  0.53696671669E+02  0.24597316514E+03  0.17120858777E+03 0.  0.
        -24    2    5    5    0    0 -0.12564989506E+03  0.89353233340E+02  0.21175617348E+02  0.17503844406E+03  0.80113380228E+02 0.  0.
          5    1    3    3  501    0 -0.52511963682E+01 -0.21234908715E+02  0.48682744908E+02  0.53577943813E+02  0.47000000000E+01 0. -1.
        -13    1    4    4    0    0  0.32551501234E+02 -0.27031143799E+02  0.12158048990E+02  0.44023869922E+02  0.00000000000E+00 0.  1.
         14    1    4    4    0    0  0.63474837745E+02 -0.93391839526E+02 -0.90008472707E+02  0.14440434854E+03  0.00000000000E+00 0. -1.
         -5    1    5    5    0  502  0.34874752453E+02  0.52304658700E+02  0.32521054321E+02  0.70934721079E+02  0.47000000000E+01 0.  1.
         13    1    6    6    0    0 -0.38308185082E+02 -0.10989647388E+02 -0.24380247710E+01  0.39927851918E+02  0.00000000000E+00 0. -1.
        -14    1    6    6    0    0 -0.87341709981E+02  0.10034288073E+03  0.23613642119E+02  0.13511059214E+03  0.00000000000E+00 0.  1.
</event>
<event>
12    1  0.8258923E-002  0.2159952E+03  0.7818608E-02  0.1140312E+00
         21   -1    0    0  503  502  0.00000000000E+00  0.00000000000E+00  0.16375110558E+03  0.16375110558E+03  0.00000000000E+00 0. -1.
         21   -1    0    0  501  503 -0.00000000000E+00 -0.00000000000E+00 -0.41424408525E+03  0.41424408525E+03  0.00000000000E+00 0.  1.
          6    2    1    2  501    0  0.74472051400E+02  0.72706071509E+02 -0.29660958757E+03  0.35713177546E+03  0.16950987680E+03 0.  0.
         24    2    3    3    0    0  0.10375589403E+03  0.94669007754E+02 -0.25462656169E+03  0.30123384643E+03  0.78610671933E+02 0.  0.
         -6    2    1    2    0  502 -0.74472051400E+02 -0.72706071509E+02  0.46116607897E+02  0.22086341536E+03  0.18926607580E+03 0.  0.
        -24    2    5    5    0    0 -0.96653858277E+02 -0.58537035981E+02  0.93204720818E+02  0.16671385856E+03  0.79610537937E+02 0.  0.
          5    1    3    3  501    0 -0.29283842634E+02 -0.21962936245E+02 -0.41983025879E+02  0.55897929030E+02  0.47000000000E+01 0. -1.
        -13    1    4    4    0    0  0.11306319336E+03  0.83060153462E+02 -0.19786703519E+03  0.24255646435E+03  0.00000000000E+00 0.  1.
         14    1    4    4    0    0 -0.93072993247E+01  0.11608854292E+02 -0.56759526507E+02  0.58677382082E+02  0.00000000000E+00 0. -1.
         -5    1    5    5    0  502  0.22181806877E+02 -0.14169035528E+02 -0.47088112920E+02  0.54149556808E+02  0.47000000000E+01 0.  1.
         11    1    6    6    0    0 -0.39811635483E+02 -0.29211965943E+02 -0.48773519968E+01  0.49619490491E+02  0.00000000000E+00 0. -1.
        -12    1    6    6    0    0 -0.56842222794E+02 -0.29325070037E+02  0.98082072814E+02  0.11709436806E+03  0.00000000000E+00 0.  1.
</event>
<event>
12    1  0.8258923E-002  0.2501330E+03  0.7818608E-02  0.1113288E+00
         21   -1    0    0  501  502  0.00000000000E+00  0.00000000000E+00  0.24421674592E+03  0.24421674592E+03  0.00000000000E+00 0.  1.
         21   -1    0    0  502  503 -0.00000000000E+00 -0.00000000000E+00 -0.48649172655E+03  0.48649172655E+03  0.00000000000E+00 0.  1.
         -6    2    1    2    0  503 -0.11267334733E+03  0.14220705650E+03 -0.37269733614E+03  0.44861540172E+03  0.17156440243E+03 0.  0.
        -24    2    3    3    0    0 -0.72435976237E+02  0.64858323192E+02 -0.93991473172E+02  0.15655218831E+03  0.78870893836E+02 0.  0.
          6    2    1    2  501    0  0.11267334733E+03 -0.14220705650E+03  0.13042235551E+03  0.28209307075E+03  0.17218704839E+03 0.  0.
         24    2    5    5    0    0  0.99580710051E+02 -0.11613241702E+03  0.26652069150E+02  0.17419651703E+03  0.78936922011E+02 0.  0.
          5    1    5    5  501    0  0.13092637283E+02 -0.26074639474E+02  0.10377028636E+03  0.10789655372E+03  0.47000000000E+01 0. -1.
        -13    1    6    6    0    0  0.29998786545E+02 -0.10188217303E+02  0.34952289209E+02  0.47174034033E+02  0.00000000000E+00 0.  1.
         14    1    6    6    0    0  0.69581923507E+02 -0.10594419972E+03 -0.83002200589E+01  0.12702248299E+03  0.00000000000E+00 0. -1.
         -5    1    3    3    0  503 -0.40237371096E+02  0.77348733303E+02 -0.27870586297E+03  0.29206321342E+03  0.47000000000E+01 0.  1.
         11    1    4    4    0    0 -0.80997432392E+02  0.60903529489E+02 -0.52751671664E+02  0.11424781320E+03  0.00000000000E+00 0. -1.
        -12    1    4    4    0    0  0.85614561542E+01  0.39547937033E+01 -0.41239801508E+02  0.42304375107E+02  0.00000000000E+00 0.  1.
</event>
<event>
12    1  0.8258923E-002  0.1913682E+03  0.7818608E-02  0.1157382E+00
         21   -1    0    0  501  502  0.00000000000E+00  0.00000000000E+00  0.31969010341E+03  0.31969010341E+03  0.00000000000E+00 0. -1.
         21   -1    0    0  502  503 -0.00000000000E+00 -0.00000000000E+00 -0.39697591363E+03  0.39697591363E+03  0.00000000000E+00 0. -1.
         -6    2    1    2    0  503  0.10206819890E+02 -0.80718780584E+02 -0.34107807138E+03  0.39077008589E+03  0.17247408077E+03 0.  0.
        -24    2    3    3    0    0 -0.26916453727E+02 -0.11339791264E+03 -0.25435918723E+03  0.29082851303E+03  0.79366528166E+02 0.  0.
          6    2    1    2  501    0 -0.10206819890E+02  0.80718780584E+02  0.26379226116E+03  0.32589593115E+03  0.17321114336E+03 0.  0.
         24    2    5    5    0    0  0.20789442571E+02  0.83548875834E+02  0.26898219059E+03  0.29399290476E+03  0.81656558939E+02 0.  0.
          5    1    5    5  501    0 -0.30996262461E+02 -0.28300952500E+01 -0.51899294322E+01  0.31903026396E+02  0.47000000000E+01 0. -1.
        -13    1    6    6    0    0 -0.25242846687E+02  0.17927370695E+02  0.35345090097E+02  0.46987948698E+02  0.00000000000E+00 0.  1.
         14    1    6    6    0    0  0.46032289258E+02  0.65621505139E+02  0.23363710049E+03  0.24700495606E+03  0.00000000000E+00 0. -1.
         -5    1    3    3    0  503  0.37123273617E+02  0.32679132059E+02 -0.86718884154E+02  0.99941572857E+02  0.47000000000E+01 0.  1.
         13    1    4    4    0    0 -0.18274065236E+02 -0.11780462661E+03 -0.25459607916E+03  0.28112458988E+03  0.00000000000E+00 0. -1.
        -14    1    4    4    0    0 -0.86423884913E+01  0.44067139655E+01  0.23689193266E+00  0.97039231549E+01  0.00000000000E+00 0.  1.
</event>
<event>
12    1  0.8258923E-002  0.2889016E+03  0.7818608E-02  0.1091174E+00
         21   -1    0    0  503  502  0.00000000000E+00  0.00000000000E+00  0.10081701323E+03  0.10081701323E+03  0.00000000000E+00 0.  1.
         21   -1    0    0  501  503 -0.00000000000E+00 -0.00000000000E+00 -0.83363364843E+03  0.83363364843E+03  0.00000000000E+00 0.  1.
          6    2    1    2  501    0 -0.19484806219E+03  0.12578432448E+03 -0.41934652281E+03  0.50815541778E+03  0.16906495439E+03 0.  0.
         24    2    3    3    0    0 -0.14485711326E+03  0.10239723997E+03 -0.18994039789E+03  0.27215687785E+03  0.80766536372E+02 0.  0.
         -6    2    1    2    0  502  0.19484806219E+03 -0.12578432448E+03 -0.31347011238E+03  0.42629524387E+03  0.17226914979E+03 0.  0.
        -24    2    5    5    0    0  0.18601822335E+03 -0.51817664433E+02 -0.19101913848E+03  0.28288895440E+03  0.79056938277E+02 0.  0.
          5    1    3    3  501    0 -0.49990948931E+02  0.23387084511E+02 -0.22940612492E+03  0.23599853993E+03  0.47000000000E+01 0. -1.
        -11    1    4    4    0    0 -0.10353024188E+03  0.27508853892E+02 -0.84840303518E+02  0.13664964371E+03  0.00000000000E+00 0.  1.
         12    1    4    4    0    0 -0.41326871379E+02  0.74888386078E+02 -0.10510009437E+03  0.13550723414E+03  0.00000000000E+00 0. -1.
         -5    1    5    5    0  502  0.88298388420E+01 -0.73966660048E+02 -0.12245097390E+03  0.14340628948E+03  0.47000000000E+01 0.  1.
         11    1    6    6    0    0  0.86436833463E+01 -0.67749315650E+01 -0.51792566494E+02  0.52944148908E+02  0.00000000000E+00 0. -1.
        -12    1    6    6    0    0  0.17737454000E+03 -0.45042732868E+02 -0.13922657199E+03  0.22994480549E+03  0.00000000000E+00 0.  1.
</event>
<event>
12    1  0.8258923E-002  0.1816040E+03  0.7818608E-02  0.1171184E+00
         21   -1    0    0  503  502  0.00000000000E+00  0.00000000000E+00  0.56906872515E+02  0.56906872515E+02  0.00000000000E+00 0.  1.
         21   -1    0    0  501  503 -0.00000000000E+00 -0.00000000000E+00 -0.78073011618E+03  0.78073011618E+03  0.00000000000E+00 0.  1.
          6    2    1    2  501    0 -0.37602655980E+02 -0.45406605916E+02 -0.59042294843E+03  0.61230241942E+03  0.15112668595E+03 0.  0.
         24    2    3    3    0    0  0.14685842124E+02 -0.20640230400E+02 -0.47699336682E+03  0.48488256079E+03  0.83347061740E+02 0.  0.
         -6    2    1    2    0  502  0.37602655980E+02  0.45406605916E+02 -0.13340029524E+03  0.22533456928E+03  0.17176818606E+03 0.  0.
        -24    2    5    5    0    0 -0.12208314719E+02  0.70895599266E+00 -0.13555210187E+03  0.15820981242E+03  0.80662425326E+02 0.  0.
          5    1    3    3  501    0 -0.52288498104E+02 -0.24766375515E+02 -0.11342958161E+03  0.12741985863E+03  0.47000000000E+01 0. -1.
        -11    1    4    4    0    0  0.10027772817E+02 -0.17407829886E+02 -0.21766622709E+02  0.29620510346E+02  0.00000000000E+00 0.  1.
         12    1    4    4    0    0  0.46580693066E+01 -0.32324005140E+01 -0.45522674411E+03  0.45526205044E+03  0.00000000000E+00 0. -1.
         -5    1    5    5    0  502  0.49810970700E+02  0.44697649923E+02  0.21518066248E+01  0.67124756852E+02  0.47000000000E+01 0.  1.
         11    1    6    6    0    0  0.55061801570E+01  0.35886769067E+02 -0.94895435056E+02  0.10160374899E+03  0.00000000000E+00 0. -1.
        -12    1    6    6    0    0 -0.17714494876E+02 -0.35177813074E+02 -0.40656666812E+02  0.56606063436E+02  0.00000000000E+00 0.  1.
</event>
<event>
12    1  0.8258923E-002  0.1764354E+03  0.7818608E-02  0.1171445E+00
         21   -1    0    0  501  502  0.00000000000E+00  0.00000000000E+00  0.70457521063E+02  0.70457521063E+02  0.00000000000E+00 0.  1.
         21   -1    0    0  502  503 -0.00000000000E+00 -0.00000000000E+00 -0.10276948451E+04  0.10276948451E+04  0.00000000000E+00 0.  1.
         -6    2    1    2    0  503 -0.30453381765E+02  0.25414146414E+02 -0.89337184940E+03  0.91051370918E+03  0.17131452365E+03 0.  0.
        -24    2    3    3    0    0  0.46278259268E+02 -0.66392176992E+01 -0.50671318564E+03  0.51498599189E+03  0.79161624852E+02 0.  0.
          6    2    1    2  501    0  0.30453381765E+02 -0.25414146414E+02 -0.63865474644E+02  0.18763865699E+03  0.17191910727E+03 0.  0.
         24    2    5    5    0    0  0.73514660120E+02 -0.57208649938E+02 -0.49757400950E+02  0.13208425220E+03  0.79329791688E+02 0.  0.
          5    1    5    5  501    0 -0.43061278356E+02  0.31794503524E+02 -0.14108073695E+02  0.55554404788E+02  0.47000000000E+01 0. -1.
        -13    1    6    6    0    0  0.18332956794E+02 -0.12646706190E+02  0.21917321850E+02  0.31247487568E+02  0.00000000000E+00 0.  1.
         14    1    6    6    0    0  0.55181703327E+02 -0.44561943748E+02 -0.71674722800E+02  0.10083676463E+03  0.00000000000E+00 0. -1.
         -5    1    3    3    0  503 -0.76731641033E+02  0.32053364113E+02 -0.38665866376E+03  0.39552771730E+03  0.47000000000E+01 0. -1.
         13    1    4    4    0    0  0.57319379465E+02 -0.80500985456E+01 -0.20358239943E+03  0.21165091237E+03  0.00000000000E+00 0. -1.
        -14    1    4    4    0    0 -0.11041120197E+02  0.14108808464E+01 -0.30313078621E+03  0.30333507952E+03  0.00000000000E+00 0.  1.
</event>
<event>
12    1  0.8258923E-002  0.1790599E+03  0.7818608E-02  0.1168930E+00
         21   -1    0    0  503  502  0.00000000000E+00  0.00000000000E+00  0.81366135616E+02  0.81366135616E+02  0.00000000000E+00 0.  1.
         21   -1    0    0  501  503 -0.00000000000E+00 -0.00000000000E+00 -0.68608671407E+03  0.68608671407E+03  0.00000000000E+00 0.  1.
          6    2    1    2  501    0 -0.25756932446E+01  0.48516388053E+02 -0.55395928348E+03  0.58217980428E+03  0.17234257351E+03 0.  0.
         24    2    3    3    0    0  0.38929933654E+02  0.38226901326E+02 -0.51532284560E+03  0.52435718817E+03  0.80099874316E+02 0.  0.
         -6    2    1    2    0  502  0.25756932446E+01 -0.48516388053E+02 -0.50761294971E+02  0.18527304541E+03  0.17143196371E+03 0.  0.
        -24    2    5    5    0    0 -0.52294535798E+02 -0.29650023110E+02 -0.71749033754E+02  0.12339205527E+03  0.80397967104E+02 0.  0.
          5    1    3    3  501    0 -0.41505626898E+02  0.10289486727E+02 -0.38636437878E+02  0.57822616105E+02  0.47000000000E+01 0. -1.
        -13    1    4    4    0    0  0.26075671552E+02 -0.49007041976E+01 -0.39506286025E+03  0.39595280161E+03  0.00000000000E+00 0.  1.
         14    1    4    4    0    0  0.12854262102E+02  0.43127605524E+02 -0.12025998535E+03  0.12840438657E+03  0.00000000000E+00 0. -1.
         -5    1    5    5    0  502  0.54870229042E+02 -0.18866364943E+02  0.20987738783E+02  0.61880990138E+02  0.47000000000E+01 0.  1.
         11    1    6    6    0    0 -0.31977736854E+01 -0.25012798246E+02 -0.69603106639E+02  0.74030117428E+02  0.00000000000E+00 0. -1.
        -12    1    6    6    0    0 -0.49096762112E+02 -0.46372248639E+01 -0.21459271151E+01  0.49361937842E+02  0.00000000000E+00 0.  1.
</event>
<event>
12    1  0.8258923E-002  0.1752964E+03  0.7818608E-02  0.1172824E+00
         21   -1    0    0  501  502  0.00000000000E+00  0.00000000000E+00  0.43783844605E+03  0.43783844605E+03  0.00000000000E+00 0.  1.
         21   -1    0    0  502  503 -0.00000000000E+00 -0.00000000000E+00 -0.71088754304E+02  0.71088754304E+02  0.00000000000E+00 0.  1.
         -6    2    1    2    0  503 -0.47243328175E+01 -0.30280198033E+02  0.14690405925E+03  0.22871296814E+03  0.17259666700E+03 0.  0.
        -24    2    3    3    0    0 -0.59525325062E+01 -0.58585096899E+01  0.29405616878E+01  0.82611955256E+02  0.82136066799E+02 0.  0.
          6    2    1    2  501    0  0.47243328175E+01  0.30280198033E+02  0.21984563250E+03  0.28021423222E+03  0.17102252511E+03 0.  0.
         24    2    5    5    0    0  0.30129651743E+02 -0.57189970320E+01  0.22021430646E+03  0.23590172613E+03  0.78833880941E+02 0.  0.
          5    1    5    5  501    0 -0.25405318926E+02  0.35999195065E+02 -0.36867395216E+00  0.44312506085E+02  0.47000000000E+01 0. -1.
        -13    1    6    6    0    0 -0.14217559093E+02  0.14349709077E+02  0.14439956044E+03  0.14580564527E+03  0.00000000000E+00 0.  1.
         14    1    6    6    0    0  0.44347210836E+02 -0.20068706109E+02  0.75814746017E+02  0.90096080866E+02  0.00000000000E+00 0. -1.
         -5    1    3    3    0  503  0.12281996886E+01 -0.24421688343E+02  0.14396349756E+03  0.14610101288E+03  0.47000000000E+01 0.  1.
         13    1    4    4    0    0 -0.60150641075E+01 -0.43950421804E+02 -0.51952714077E+00  0.44363165819E+02  0.00000000000E+00 0. -1.
        -14    1    4    4    0    0  0.62531601297E-01  0.38091912114E+02  0.34600888285E+01  0.38248789438E+02  0.00000000000E+00 0.  1.
</event>
<event>
12    1  0.8258923E-002  0.3278603E+03  0.7818608E-02  0.1072275E+00
         21   -1    0    0  501  502  0.00000000000E+00  0.00000000000E+00  0.16140153483E+03  0.16140153483E+03  0.00000000000E+00 0.  1.
         21   -1    0    0  502  503 -0.00000000000E+00 -0.00000000000E+00 -0.68853480469E+03  0.68853480469E+03  0.00000000000E+00 0.  1.
         -6    2    1    2    0  503  0.26214072031E+03  0.91436100734E+02 -0.34540927676E+03  0.47508170545E+03  0.17122132059E+03 0.  0.
        -24    2    3    3    0    0  0.14486821235E+03 -0.13385119251E+02 -0.15111798339E+03  0.22505865459E+03  0.81540129610E+02 0.  0.
          6    2    1    2  501    0 -0.26214072031E+03 -0.91436100734E+02 -0.18172399311E+03  0.37485463407E+03  0.17439629940E+03 0.  0.
         24    2    5    5    0    0 -0.19305919113E+03  0.52095550409E+01 -0.11068669161E+03  0.23635904331E+03  0.79467370099E+02 0.  0.
          5    1    5    5  501    0 -0.69081529186E+02 -0.96645655775E+02 -0.71037301497E+02  0.13849559076E+03  0.47000000000E+01 0. -1.
        -11    1    6    6    0    0 -0.13777318642E+03 -0.65610398989E+01 -0.35736833692E+02  0.14248375143E+03  0.00000000000E+00 0.  1.
         12    1    6    6    0    0 -0.55286004711E+02  0.11770594940E+02 -0.74949857922E+02  0.93875291876E+02  0.00000000000E+00 0. -1.
         -5    1    3    3    0  503  0.11727250796E+03  0.10482121998E+03 -0.19429129337E+03  0.25002305086E+03  0.47000000000E+01 0.  1.
         11    1    4    4    0    0  0.13149130974E+03 -0.20020475414E+02 -0.15970174922E+03  0.20783510934E+03  0.00000000000E+00 0. -1.
        -12    1    4    4    0    0  0.13376902618E+02  0.66353561627E+01  0.85837658349E+01  0.17223545250E+02  0.00000000000E+00 0.  1.
</event>
<event>
12    1  0.8258923E-002  0.1769750E+03  0.7818608E-02  0.1171491E+00
         21   -1    0    0  501  502  0.00000000000E+00  0.00000000000E+00  0.35825880449E+02  0.35825880449E+02  0.00000000000E+00 0.  1.
         21   -1    0    0  502  503 -0.00000000000E+00 -0.00000000000E+00 -0.99763037098E+03  0.99763037098E+03  0.00000000000E+00 0.  1.
         -6    2    1    2    0  503  0.27838291932E+02  0.17226015732E+01 -0.67635304231E+03  0.69912343356E+03  0.17476326748E+03 0.  0.
        -24    2    3    3    0    0  0.13934936393E+02 -0.77464273394E+01 -0.67715666330E+03  0.68163910885E+03  0.76397241304E+02 0.  0.
          6    2    1    2  501    0 -0.27838291932E+02 -0.17226015732E+01 -0.28545144822E+03  0.33433281787E+03  0.17180793334E+03 0.  0.
         24    2    5    5    0    0 -0.67652132453E+02  0.37118878184E+02 -0.23286080485E+03  0.25764078297E+03  0.78740056329E+02 0.  0.
          5    1    5    5  501    0  0.39813840521E+02 -0.38841479757E+02 -0.52590643375E+02  0.76692034901E+02  0.47000000000E+01 0. -1.
        -13    1    6    6    0    0 -0.92668508660E+01 -0.10348784490E+02 -0.10589967979E+01  0.13931738571E+02  0.00000000000E+00 0.  1.
         14    1    6    6    0    0 -0.58385281587E+02  0.47467662673E+02 -0.23180180805E+03  0.24370904439E+03  0.00000000000E+00 0. -1.
         -5    1    3    3    0  503  0.13903355539E+02  0.94690289126E+01  0.80362098985E+00  0.17484324708E+02  0.47000000000E+01 0.  1.
         13    1    4    4    0    0  0.26440874709E+02 -0.15308494552E+02 -0.10651325872E+03  0.11080859238E+03  0.00000000000E+00 0. -1.
        -14    1    4    4    0    0 -0.12505938316E+02  0.75620672129E+01 -0.57064340458E+03  0.57083051648E+03  0.00000000000E+00 0.  1.
</event>
<event>
12    1  0.8258923E-002  0.2043649E+03  0.7818608E-02  0.1146132E+00
         21   -1    0    0  501  502  0.00000000000E+00  0.00000000000E+00  0.53301917147E+03  0.53301917147E+03  0.00000000000E+00 0.  1.
         21   -1    0    0  502  503 -0.00000000000E+00 -0.00000000000E+00 -0.14339786832E+03  0.14339786832E+03  0.00000000000E+00 0.  1.
         -6    2    1    2    0  503 -0.35733302244E+02 -0.10443562464E+03 -0.33014991783E+02  0.20701448076E+03  0.17199225849E+03 0.  0.
        -24    2    3    3    0    0 -0.43121060462E+02 -0.16064770322E+02 -0.64444363438E+02  0.11281319485E+03  0.80350720306E+02 0.  0.
          6    2    1    2  501    0  0.35733302244E+02  0.10443562464E+03  0.42263629493E+03  0.46940255903E+03  0.17185358898E+03 0.  0.
         24    2    5    5    0    0  0.30816009980E+02  0.13477041424E+03  0.40104742512E+03  0.43155353627E+03  0.79288879743E+02 0.  0.
          5    1    5    5  501    0  0.49172922643E+01 -0.30334789605E+02  0.21588869816E+02  0.37849022755E+02  0.47000000000E+01 0. -1.
        -13    1    6    6    0    0  0.12202827490E+02  0.97424840422E+01  0.59203975021E+01  0.16699583846E+02  0.00000000000E+00 0.  1.
         14    1    6    6    0    0  0.18613182490E+02  0.12502793020E+03  0.39512702761E+03  0.41485395243E+03  0.00000000000E+00 0. -1.
         -5    1    3    3    0  503  0.73877582177E+01 -0.88370854314E+02  0.31429371654E+02  0.94201285906E+02  0.47000000000E+01 0.  1.
         11    1    4    4    0    0 -0.39589221549E+02  0.13558577706E+02 -0.53136364370E-01  0.41846676281E+02  0.00000000000E+00 0. -1.
        -12    1    4    4    0    0 -0.35318389128E+01 -0.29623348028E+02 -0.64391227073E+02  0.70966518574E+02  0.00000000000E+00 0.  1.
</event>
<event>
12    1  0.8258923E-002  0.1757139E+03  0.7818608E-02  0.1172571E+00
         21   -1    0    0  501  502  0.00000000000E+00  0.00000000000E+00  0.41040217467E+03  0.41040217467E+03  0.00000000000E+00 0.  1.
         21   -1    0    0  502  503 -0.00000000000E+00 -0.00000000000E+00 -0.76633312928E+02  0.76633312928E+02  0.00000000000E+00 0.  1.
         -6    2    1    2    0  503  0.13162207769E+02  0.33410648386E+02  0.21047213103E+03  0.27417857394E+03  0.17200539912E+03 0.  0.
        -24    2    3    3    0    0 -0.61935622154E+02  0.28910572442E+02  0.12230850297E+03  0.15818353070E+03  0.73422183268E+02 0.  0.
          6    2    1    2  501    0 -0.13162207769E+02 -0.33410648386E+02  0.12329673072E+03  0.21285691367E+03  0.16975413618E+03 0.  0.
         24    2    5    5    0    0 -0.58770716306E+02 -0.62509743095E+02  0.70773813601E+02  0.13730798789E+03  0.80517611546E+02 0.  0.
          5    1    5    5  501    0  0.45608508536E+02  0.29099094710E+02  0.52522917117E+02  0.75548925779E+02  0.47000000000E+01 0. -1.
        -11    1    6    6    0    0 -0.81619971833E+01  0.12678527596E+02  0.38081498742E+02  0.40958073764E+02  0.00000000000E+00 0.  1.
         12    1    6    6    0    0 -0.50608719122E+02 -0.75188270691E+02  0.32692314859E+02  0.96349914123E+02  0.00000000000E+00 0. -1.
         -5    1    3    3    0  503  0.75097829923E+02  0.45000759434E+01  0.88163628058E+02  0.11599504323E+03  0.47000000000E+01 0.  1.
         11    1    4    4    0    0 -0.17052587891E+02  0.48393736807E+02  0.59584800939E+02  0.78632646012E+02  0.00000000000E+00 0. -1.
        -12    1    4    4    0    0 -0.44883034263E+02 -0.19483164365E+02  0.62723702031E+02  0.79550884689E+02  0.00000000000E+00 0.  1.
</event>
<event>
12    1  0.8258923E-002  0.2146495E+03  0.7818608E-02  0.1138576E+00
         21   -1    0    0  501  502  0.00000000000E+00  0.00000000000E+00  0.60140287238E+03  0.60140287238E+03  0.00000000000E+00 0.  1.
         21   -1    0    0  502  503 -0.00000000000E+00 -0.00000000000E+00 -0.33857519455E+03  0.33857519455E+03  0.00000000000E+00 0. -1.
         -6    2    1    2    0  503 -0.12569763300E+03 -0.26746037131E+02 -0.28269064379E+03  0.35494846961E+03  0.17192780622E+03 0.  0.
        -24    2    3    3    0    0 -0.12498751543E+03 -0.80461582672E+01 -0.29611689660E+03  0.33144221510E+03  0.80511526009E+02 0.  0.
          6    2    1    2  501    0  0.12569763300E+03  0.26746037131E+02  0.54551832161E+03  0.58502959731E+03  0.16779196963E+03 0.  0.
         24    2    5    5    0    0  0.91981931047E+02 -0.10229841307E+02  0.50773208264E+03  0.52214991856E+03  0.79267549577E+02 0.  0.
          5    1    5    5  501    0  0.33715701954E+02  0.36975878438E+02  0.37786238969E+02  0.62879678751E+02  0.47000000000E+01 0. -1.
        -13    1    6    6    0    0  0.15728698125E+02 -0.25829891418E+02  0.27695425297E+03  0.27860049080E+03  0.00000000000E+00 0.  1.
         14    1    6    6    0    0  0.76253232923E+02  0.15600050111E+02  0.23077782968E+03  0.24354942776E+03  0.00000000000E+00 0. -1.
         -5    1    3    3    0  503 -0.71011757134E+00 -0.18699878863E+02  0.13426252818E+02  0.23506254513E+02  0.47000000000E+01 0.  1.
         11    1    4    4    0    0 -0.50013399755E+02 -0.27516708377E+02 -0.20005665886E+03  0.20804128472E+03  0.00000000000E+00 0. -1.
        -12    1    4    4    0    0 -0.74974115675E+02  0.19470550109E+02 -0.96060237746E+02  0.12340093038E+03  0.00000000000E+00 0.  1.
</event>
<event>
12    1  0.8258923E-002  0.2472810E+03  0.7818608E-02  0.1117695E+00
         21   -1    0    0  503  502  0.00000000000E+00  0.00000000000E+00  0.56387980199E+03  0.56387980199E+03  0.00000000000E+00 0. -1.
         21   -1    0    0  501  503 -0.00000000000E+00 -0.00000000000E+00 -0.10282230291E+03  0.10282230291E+03  0.00000000000E+00 0.  1.
          6    2    1    2  501    0  0.30419415024E+01 -0.15451791180E+03  0.18559197020E+03  0.29652762917E+03  0.17204422973E+03 0.  0.
         24    2    3    3    0    0  0.33203668220E+02 -0.60229970684E+02  0.20799834160E+02  0.10422972565E+03  0.75505427989E+02 0.  0.
         -6    2    1    2    0  502 -0.30419415024E+01  0.15451791180E+03  0.27546552889E+03  0.37017447573E+03  0.19303586818E+03 0.  0.
        -24    2    5    5    0    0  0.23410362830E+02  0.97979365357E+02  0.27827802531E+03  0.30751402749E+03  0.83535720540E+02 0.  0.
          5    1    3    3  501    0 -0.30161726717E+02 -0.94287941112E+02  0.16479213604E+03  0.19229790352E+03  0.47000000000E+01 0. -1.
        -13    1    4    4    0    0  0.30112483489E+02 -0.69487796639E+02 -0.57429500655E+01  0.75949305586E+02  0.00000000000E+00 0.  1.
         14    1    4    4    0    0  0.30911847308E+01  0.92578259550E+01  0.26542784225E+02  0.28280420062E+02  0.00000000000E+00 0. -1.
         -5    1    5    5    0  502 -0.26452304333E+02  0.56538546439E+02 -0.28124964236E+01  0.62660448244E+02  0.47000000000E+01 0.  1.
         13    1    6    6    0    0  0.17418629147E+02  0.15733719603E+02  0.77845179036E+01  0.24729684448E+02  0.00000000000E+00 0. -1.
        -14    1    6    6    0    0  0.59917336833E+01  0.82245645754E+02  0.27049350741E+03  0.28278434304E+03  0.00000000000E+00 0.  1.
</event>
<event>
12    1  0.8258923E-002  0.1763115E+03  0.7818608E-02  0.1171664E+00
         21   -1    0    0  501  502  0.00000000000E+00  0.00000000000E+00  0.67760404277E+03  0.67760404277E+03  0.00000000000E+00 0. -1.
         21   -1    0    0  502  503 -0.00000000000E+00 -0.00000000000E+00 -0.46473834518E+02  0.46473834518E+02  0.00000000000E+00 0. -1.
         -6    2    1    2    0  503 -0.33103400135E+02 -0.57477840191E+01  0.26570959141E+03  0.31834646663E+03  0.17208722709E+03 0.  0.
        -24    2    3    3    0    0  0.12699370587E+02  0.37250805139E+01  0.25828600389E+03  0.27075625104E+03  0.80138239521E+02 0.  0.
          6    2    1    2  501    0  0.33103400135E+02  0.57477840191E+01  0.36542061685E+03  0.40573141066E+03  0.17308055424E+03 0.  0.
         24    2    5    5    0    0 -0.39275695494E+02 -0.13561289676E+02  0.12634151267E+03  0.15514712970E+03  0.79887202951E+02 0.  0.
          5    1    5    5  501    0  0.72379095629E+02  0.19309073695E+02  0.23907910417E+03  0.25058428096E+03  0.47000000000E+01 0. -1.
        -11    1    6    6    0    0 -0.15122134732E+02  0.33179340774E+02  0.40783899772E+02  0.54707166749E+02  0.00000000000E+00 0.  1.
         12    1    6    6    0    0 -0.24153560762E+02 -0.46740630450E+02  0.85557612901E+02  0.10043996295E+03  0.00000000000E+00 0. -1.
         -5    1    3    3    0  503 -0.45802770722E+02 -0.94728645330E+01  0.74235875156E+01  0.47590215589E+02  0.47000000000E+01 0.  1.
         13    1    4    4    0    0  0.13504082099E+02  0.35622581354E+02  0.69168057435E+02  0.78965490595E+02  0.00000000000E+00 0. -1.
        -14    1    4    4    0    0 -0.80471151220E+00 -0.31897500840E+02  0.18911794646E+03  0.19179076045E+03  0.00000000000E+00 0.  1.
</event>
<event>
12    1  0.8258923E-002  0.3881267E+03  0.7818608E-02  0.1048058E+00
         21   -1    0    0  503  502  0.00000000000E+00  0.00000000000E+00  0.84058708171E+03  0.84058708171E+03  0.00000000000E+00 0. -1.
         21   -1    0    0  501  503 -0.00000000000E+00 -0.00000000000E+00 -0.19287932025E+03  0.19287932025E+03  0.00000000000E+00 0.  1.
          6    2    1    2  501    0 -0.34733724062E+03 -0.25035228677E+02  0.18443023206E+03  0.42971719279E+03  0.17138387874E+03 0.  0.
         24    2    3    3    0    0 -0.23881653592E+03 -0.75916963402E+02  0.15951609436E+03  0.30720801545E+03  0.78324052717E+02 0.  0.
         -6    2    1    2    0  502  0.34733724062E+03  0.25035228677E+02  0.46327752940E+03  0.60374920917E+03  0.16916594495E+03 0.  0.
        -24    2    5    5    0    0  0.70422866737E+02 -0.47593966480E+01  0.94158064646E+02  0.14132023146E+03  0.78253655937E+02 0.  0.
          5    1    3    3  501    0 -0.10852070470E+03  0.50881734725E+02  0.24914137697E+02  0.12250917735E+03  0.47000000000E+01 0. -1.
        -11    1    4    4    0    0 -0.13767028770E+03 -0.48477095092E+02  0.46748347954E+02  0.15325973019E+03  0.00000000000E+00 0.  1.
         12    1    4    4    0    0 -0.10114624822E+03 -0.27439868310E+02  0.11276774641E+03  0.15394828525E+03  0.00000000000E+00 0. -1.
         -5    1    5    5    0  502  0.27691437388E+03  0.29794625325E+02  0.36911946476E+03  0.46242897771E+03  0.47000000000E+01 0.  1.
         11    1    6    6    0    0  0.25751107287E+02 -0.35688103289E+02  0.17501971998E+02  0.47361157785E+02  0.00000000000E+00 0. -1.
        -12    1    6    6    0    0  0.44671759450E+02  0.30928706641E+02  0.76656092648E+02  0.93959073680E+02  0.00000000000E+00 0.  1.
</event>
<event>
12    1  0.8258923E-002  0.1777481E+03  0.7818608E-02  0.1171281E+00
         21   -1    0    0  501  502  0.00000000000E+00  0.00000000000E+00  0.42709141701E+02  0.42709141701E+02  0.00000000000E+00 0. -1.
         21   -1    0    0  502  503 -0.00000000000E+00 -0.00000000000E+00 -0.13827656160E+04  0.13827656160E+04  0.00000000000E+00 0. -1.
         -6    2    1    2    0  503 -0.20476526217E+02  0.40664427299E+02 -0.11588763329E+04  0.11716625670E+04  0.16651105738E+03 0.  0.
        -24    2    3    3    0    0  0.38281556995E+02  0.80886639554E+01 -0.89075763008E+03  0.89521470304E+03  0.80182946410E+02 0.  0.
          6    2    1    2  501    0  0.20476526217E+02 -0.40664427299E+02 -0.18118014135E+03  0.25381219063E+03  0.17181821999E+03 0.  0.
         24    2    5    5    0    0 -0.35906639688E+02  0.13829425387E+02 -0.13696721870E+03  0.16367055814E+03  0.80916579416E+02 0.  0.
          5    1    5    5  501    0  0.56383165905E+02 -0.54493852687E+02 -0.44212922647E+02  0.90141632485E+02  0.47000000000E+01 0. -1.
        -13    1    6    6    0    0  0.21735551486E+02  0.15795225255E+02 -0.71711757502E+02  0.76580020261E+02  0.00000000000E+00 0.  1.
         14    1    6    6    0    0 -0.57642191174E+02 -0.19657998678E+01 -0.65255461199E+02  0.87090537883E+02  0.00000000000E+00 0. -1.
         -5    1    3    3    0  503 -0.58758083212E+02  0.32575763344E+02 -0.26811870283E+03  0.27644786400E+03  0.47000000000E+01 0.  1.
         11    1    4    4    0    0  0.30334476298E+02 -0.34178221471E+02 -0.41076708860E+03  0.41330126101E+03  0.00000000000E+00 0. -1.
        -12    1    4    4    0    0  0.79470806970E+01  0.42266885426E+02 -0.47999054148E+03  0.48191344203E+03  0.00000000000E+00 0.  1.
</event>
<event>
12    1  0.8258923E-002  0.2647665E+03  0.7818608E-02  0.1104392E+00
         21   -1    0    0  503  502  0.00000000000E+00  0.00000000000E+00  0.21439746272E+03  0.21439746272E+03  0.00000000000E+00 0.  1.
         21   -1    0    0  501  503 -0.00000000000E+00 -0.00000000000E+00 -0.36036328391E+03  0.36036328391E+03  0.00000000000E+00 0. -1.
          6    2    1    2  501    0 -0.10946621109E+03 -0.16888444271E+03 -0.16126438992E+03  0.30955266949E+03  0.17120702489E+03 0.  0.
         24    2    3    3    0    0 -0.94213904747E+02 -0.10027023541E+03 -0.32585626931E+02  0.16285278422E+03  0.80801152780E+02 0.  0.
         -6    2    1    2    0  502  0.10946621109E+03  0.16888444271E+03  0.15298568730E+02  0.26520807714E+03  0.17203625088E+03 0.  0.
        -24    2    5    5    0    0 -0.29512715546E+01  0.59289365146E+02  0.36532686330E+02  0.10670965702E+03  0.80798359562E+02 0.  0.
          5    1    3    3  501    0 -0.15252306345E+02 -0.68614207305E+02 -0.12867876298E+03  0.14669988526E+03  0.47000000000E+01 0. -1.
        -13    1    4    4    0    0 -0.35983027638E+01 -0.37649082066E+02  0.17713875741E+02  0.41763411702E+02  0.00000000000E+00 0.  1.
         14    1    4    4    0    0 -0.90615601983E+02 -0.62621153340E+02 -0.50299502673E+02  0.12108937252E+03  0.00000000000E+00 0. -1.
         -5    1    5    5    0  502  0.11241748265E+03  0.10959507757E+03 -0.21234117600E+02  0.15849842012E+03  0.47000000000E+01 0.  1.
         11    1    6    6    0    0 -0.19355260363E+02  0.22959391213E+02 -0.21052550738E+02  0.36673827741E+02  0.00000000000E+00 0. -1.
        -12    1    6    6    0    0  0.16403988808E+02  0.36329973933E+02  0.57585237068E+02  0.70035829280E+02  0.00000000000E+00 0.  1.
</event>
<event>
12    1  0.8258923E-002  0.1851449E+03  0.7818608E-02  0.1163664E+00
         21   -1    0    0  503  502  0.00000000000E+00  0.00000000000E+00  0.22705773239E+03  0.22705773239E+03  0.00000000000E+00 0. -1.
         21   -1    0    0  501  503 -0.00000000000E+00 -0.00000000000E+00 -0.14955801908E+03  0.14955801908E+03  0.00000000000E+00 0.  1.
          6    2    1    2  501    0 -0.25434837910E+01 -0.61381981357E+02  0.21743567619E+02  0.18325759365E+03  0.17127856244E+03 0.  0.
         24    2    3    3    0    0 -0.71653260075E+01  0.13460945212E+02 -0.35801042984E+02  0.88619877638E+02  0.79619275876E+02 0.  0.
         -6    2    1    2    0  502  0.25434837910E+01  0.61381981357E+02  0.55756145693E+02  0.19335815782E+03  0.17465512437E+03 0.  0.
        -24    2    5    5    0    0  0.62829075876E+02  0.53836453323E+02  0.63584932244E+02  0.13191983505E+03  0.80709000670E+02 0.  0.
          5    1    3    3  501    0  0.46218422165E+01 -0.74842926569E+02  0.57544610603E+02  0.94637716014E+02  0.47000000000E+01 0. -1.
        -13    1    4    4    0    0  0.23813074232E+02 -0.22029071305E+02 -0.23116547116E+02  0.39833619438E+02  0.00000000000E+00 0.  1.
         14    1    4    4    0    0 -0.30978400239E+02  0.35490016517E+02 -0.12684495868E+02  0.48786258200E+02  0.00000000000E+00 0. -1.
         -5    1    5    5    0  502 -0.60285592085E+02  0.75455280344E+01 -0.78287865509E+01  0.61438322773E+02  0.47000000000E+01 0.  1.
         11    1    6    6    0    0 -0.16733447113E+02  0.26238700479E+02  0.13359902833E+02  0.33866866682E+02  0.00000000000E+00 0. -1.
        -12    1    6    6    0    0  0.79562522989E+02  0.27597752843E+02  0.50225029411E+02  0.98052968367E+02  0.00000000000E+00 0.  1.
</event>
<event>
12    1  0.8258923E-002  0.2023918E+03  0.7818608E-02  0.1148553E+00
         21   -1    0    0  503  502  0.00000000000E+00  0.00000000000E+00  0.27984774052E+03  0.27984774052E+03  0.00000000000E+00 0. -1.
         21   -1    0    0  501  503 -0.00000000000E+00 -0.00000000000E+00 -0.14705976248E+03  0.14705976248E+03  0.00000000000E+00 0. -1.
          6    2    1    2  501    0 -0.26153614895E+02 -0.10272867103E+03  0.32911200795E+02  0.20121347359E+03  0.16782885149E+03 0.  0.
         24    2    3    3    0    0  0.38931597899E+02 -0.18490637978E+02  0.27141315953E+02  0.94501184196E+02  0.79600563911E+02 0.  0.
         -6    2    1    2    0  502  0.26153614895E+02  0.10272867103E+03  0.99876777250E+02  0.22569402941E+03  0.17241007178E+03 0.  0.
        -24    2    5    5    0    0 -0.33144626248E+02  0.96281964352E+02  0.11136211903E+03  0.16476912066E+03  0.66170678256E+02 0.  0.
          5    1    3    3  501    0 -0.65085212794E+02 -0.84238033056E+02  0.57698848416E+01  0.10671228940E+03  0.47000000000E+01 0. -1.
        -11    1    4    4    0    0  0.23324633352E+02  0.16784845795E+02 -0.18932093182E+02  0.34412115913E+02  0.00000000000E+00 0.  1.
         12    1    4    4    0    0  0.15606964547E+02 -0.35275483772E+02  0.46073409135E+02  0.60089068283E+02  0.00000000000E+00 0. -1.
         -5    1    5    5    0  502  0.59298241144E+02  0.64467066814E+01 -0.11485341780E+02  0.60924908745E+02  0.47000000000E+01 0.  1.
         11    1    6    6    0    0  0.69391577883E+01  0.84036533702E+01  0.48072447999E+02  0.49292327571E+02  0.00000000000E+00 0. -1.
        -12    1    6    6    0    0 -0.40083784037E+02  0.87878310981E+02  0.63289671031E+02  0.11547679309E+03  0.00000000000E+00 0.  1.
</event>
<event>
12    1  0.8258923E-002  0.2247472E+03  0.7818608E-02  0.1131365E+00
         21   -1    0    0  503  502  0.00000000000E+00  0.00000000000E+00  0.20181528214E+04  0.20181528214E+04  0.00000000000E+00 0. -1.
         21   -1    0    0  501  503 -0.00000000000E+00 -0.00000000000E+00 -0.74077267823E+02  0.74077267823E+02  0.00000000000E+00 0.  1.
          6    2    1    2  501    0  0.57013491525E+02 -0.13060967941E+03  0.11957052157E+03  0.25457493539E+03  0.17378682783E+03 0.  0.
         24    2    3    3    0    0  0.77455335175E+02 -0.20445982961E+02  0.37644040731E+02  0.11569388107E+03  0.74502571416E+02 0.  0.
         -6    2    1    2    0  502 -0.57013491525E+02  0.13060967941E+03  0.18245050320E+04  0.18376551538E+04  0.16687847678E+03 0.  0.
        -24    2    5    5    0    0 -0.78883456536E+02  0.35664648808E+02  0.11819906049E+04  0.11877784476E+04  0.78875114733E+02 0.  0.
          5    1    3    3  501    0 -0.20441843650E+02 -0.11016369645E+03  0.81926480835E+02  0.13888105432E+03  0.47000000000E+01 0. -1.
        -11    1    4    4    0    0 -0.10292523405E+02 -0.17892032076E+02  0.13447309377E+02  0.24635157384E+02  0.00000000000E+00 0.  1.
         12    1    4    4    0    0  0.87747858581E+02 -0.25539508852E+01  0.24196731353E+02  0.91058723683E+02  0.00000000000E+00 0. -1.
         -5    1    5    5    0  502  0.21869965011E+02  0.94945030602E+02  0.64251442712E+03  0.64987670620E+03  0.47000000000E+01 0.  1.
         11    1    6    6    0    0 -0.91310271674E+02  0.28882441449E+02  0.83062868911E+03  0.83613143723E+03  0.00000000000E+00 0. -1.
        -12    1    6    6    0    0  0.12426815138E+02  0.67822073587E+01  0.35136191575E+03  0.35164701038E+03  0.00000000000E+00 0.  1.
</event>
<event>
12    1  0.8258923E-002  0.1825045E+03  0.7818608E-02  0.1165422E+00
         21   -1    0    0  501  502  0.00000000000E+00  0.00000000000E+00  0.27701950707E+03  0.27701950707E+03  0.00000000000E+00 0. -1.
         21   -1    0    0  502  503 -0.00000000000E+00 -0.00000000000E+00 -0.12068201397E+03  0.12068201397E+03  0.00000000000E+00 0. -1.
         -6    2    1    2    0  503  0.14775681553E+01  0.61887048281E+02  0.65335483563E+02  0.19384688055E+03  0.17168487917E+03 0.  0.
        -24    2    3    3    0    0  0.15747624526E+02  0.65648322641E+02  0.10679614683E+03  0.14958788947E+03  0.80083891977E+02 0.  0.
          6    2    1    2  501    0 -0.14775681553E+01 -0.61887048281E+02  0.91002009538E+02  0.20385464049E+03  0.17159008933E+03 0.  0.
         24    2    5    5    0    0  0.84915600877E+01  0.13047252009E+02  0.96861678950E+02  0.12788781481E+03  0.82041275894E+02 0.  0.
          5    1    5    5  501    0 -0.99691282430E+01 -0.74934300289E+02 -0.58596694115E+01  0.75966825677E+02  0.47000000000E+01 0. -1.
        -13    1    6    6    0    0  0.20569480933E+02  0.33427384876E+02  0.13944312483E+02  0.41652580426E+02  0.00000000000E+00 0.  1.
         14    1    6    6    0    0 -0.12077920845E+02 -0.20380132867E+02  0.82917366466E+02  0.86235234385E+02  0.00000000000E+00 0. -1.
         -5    1    3    3    0  503 -0.14270056371E+02 -0.37612743600E+01 -0.41460663264E+02  0.44258991086E+02  0.47000000000E+01 0.  1.
         13    1    4    4    0    0  0.40303204430E+02  0.37826056606E+02  0.96279819421E+02  0.11101784754E+03  0.00000000000E+00 0. -1.
        -14    1    4    4    0    0 -0.24555579904E+02  0.27822266035E+02  0.10516327406E+02  0.38570041921E+02  0.00000000000E+00 0.  1.
</event>
<event>
12    1  0.8258923E-002  0.2346063E+03  0.7818608E-02  0.1124648E+00
         21   -1    0    0  501  502  0.00000000000E+00  0.00000000000E+00  0.43174006278E+03  0.43174006278E+03  0.00000000000E+00 0.  1.
         21   -1    0    0  502  503 -0.00000000000E+00 -0.00000000000E+00 -0.18159584788E+03  0.18159584788E+03  0.00000000000E+00 0.  1.
         -6    2    1    2    0  503 -0.16560206063E+01 -0.15891945613E+03 -0.49287730404E+02  0.23294188927E+03  0.16301689319E+03 0.  0.
        -24    2    3    3    0    0  0.40256879412E+01 -0.75050586366E+02  0.33355898462E+02  0.11496592341E+03  0.80347687619E+02 0.  0.
          6    2    1    2  501    0  0.16560206063E+01  0.15891945613E+03  0.29943194530E+03  0.38039402139E+03  0.17257458011E+03 0.  0.
         24    2    5    5    0    0  0.23822348810E+02  0.74586623116E+02  0.26194028593E+03  0.28536198809E+03  0.81780695785E+02 0.  0.
          5    1    5    5  501    0 -0.22166328204E+02  0.84332833015E+02  0.37491659371E+02  0.95032033298E+02  0.47000000000E+01 0. -1.
        -11    1    6    6    0    0  0.11135523696E+02  0.58408860605E+02  0.67981110817E+02  0.90316257192E+02  0.00000000000E+00 0.  1.
         12    1    6    6    0    0  0.12686825115E+02  0.16177762511E+02  0.19395917512E+03  0.19504573090E+03  0.00000000000E+00 0. -1.
         -5    1    3    3    0  503 -0.56817085474E+01 -0.83868869765E+02 -0.82643628866E+02  0.11797596586E+03  0.47000000000E+01 0.  1.
         13    1    4    4    0    0  0.10776243247E+02  0.15340028072E+02  0.11866452038E+01  0.18784355369E+02  0.00000000000E+00 0. -1.
        -14    1    4    4    0    0 -0.67505553059E+01 -0.90390614438E+02  0.32169253258E+02  0.96181568040E+02  0.00000000000E+00 0.  1.
</event>
<event>
12    1  0.8258923E-002  0.2116468E+03  0.7818608E-02  0.1140423E+00
         21   -1    0    0  503  502  0.00000000000E+00  0.00000000000E+00  0.40495736278E+03  0.40495736278E+03  0.00000000000E+00 0. -1.
         21   -1    0    0  501  503 -0.00000000000E+00 -0.00000000000E+00 -0.15108299533E+03  0.15108299533E+03  0.00000000000E+00 0.  1.
          6    2    1    2  501    0  0.43985494004E+02  0.11414517332E+03 -0.17853634797E+02  0.21161260309E+03  0.17174777215E+03 0.  0.
         24    2    3    3    0    0  0.55968486932E+02  0.25239617687E+01  0.57173776392E+00  0.97750970653E+02  0.80100458595E+02 0.  0.
         -6    2    1    2    0  502 -0.43985494004E+02 -0.11414517332E+03  0.27172800225E+03  0.34442775502E+03  0.17271516131E+03 0.  0.
        -24    2    5    5    0    0 -0.83957378429E+02 -0.49763058553E+02  0.21512425244E+03  0.24972356959E+03  0.80982799590E+02 0.  0.
          5    1    3    3  501    0 -0.11982992928E+02  0.11162121155E+03 -0.18425372561E+02  0.11386163244E+03  0.47000000000E+01 0. -1.
        -13    1    4    4    0    0  0.53071056970E+02 -0.76782101389E+01 -0.32715136287E+02  0.62815381405E+02  0.00000000000E+00 0.  1.
         14    1    4    4    0    0  0.28974299627E+01  0.10202171908E+02  0.33286874051E+02  0.34935589248E+02  0.00000000000E+00 0. -1.
         -5    1    5    5    0  502  0.39971884424E+02 -0.64382114768E+02  0.56603749807E+02  0.94704185434E+02  0.47000000000E+01 0.  1.
         13    1    6    6    0    0 -0.60166918988E+02 -0.70721446627E+02  0.13792824014E+03  0.16627020353E+03  0.00000000000E+00 0. -1.
        -14    1    6    6    0    0 -0.23790459441E+02  0.20958388074E+02  0.77196012302E+02  0.83453366058E+02  0.00000000000E+00 0.  1.
</event>
<event>
12    1  0.8258923E-002  0.2084240E+03  0.7818608E-02  0.1143841E+00
         21   -1    0    0  503  502  0.00000000000E+00  0.00000000000E+00  0.12788888462E+03  0.12788888462E+03  0.00000000000E+00 0. -1.
         21   -1    0    0  501  503 -0.00000000000E+00 -0.00000000000E+00 -0.33778521775E+03  0.33778521775E+03  0.00000000000E+00 0. -1.
          6    2    1    2  501    0 -0.62048717096E+02  0.94272511409E+02 -0.71952144345E+02  0.21573578554E+03  0.16919653775E+03 0.  0.
         24    2    3    3    0    0 -0.58981596159E+02 -0.62973552268E+00 -0.46596992239E+01  0.99261724589E+02  0.79699133742E+02 0.  0.
         -6    2    1    2    0  502  0.62048717096E+02 -0.94272511409E+02 -0.13794418878E+03  0.24993831683E+03  0.17522332408E+03 0.  0.
        -24    2    5    5    0    0  0.76344478624E+02 -0.12484015068E+03 -0.82351593690E+02  0.18473574022E+03  0.77019257935E+02 0.  0.
          5    1    3    3  501    0 -0.30671209374E+01  0.94902246932E+02 -0.67292445121E+02  0.11647406095E+03  0.47000000000E+01 0. -1.
        -13    1    4    4    0    0  0.79101987276E+00  0.22157992477E+02  0.20810389254E+02  0.30408463361E+02  0.00000000000E+00 0.  1.
         14    1    4    4    0    0 -0.59772616031E+02 -0.22787727999E+02 -0.25470088478E+02  0.68853261228E+02  0.00000000000E+00 0. -1.
         -5    1    5    5    0  502 -0.14295761528E+02  0.30567639270E+02 -0.55592595090E+02  0.65202576614E+02  0.47000000000E+01 0.  1.
         11    1    6    6    0    0  0.33232822722E+02 -0.97679157024E+02 -0.85045931186E+02  0.13371031611E+03  0.00000000000E+00 0. -1.
        -12    1    6    6    0    0  0.43111655901E+02 -0.27160993655E+02  0.26943374961E+01  0.51025424108E+02  0.00000000000E+00 0.  1.
</event>
<event>
12    1  0.8258923E-002  0.2896029E+03  0.7818608E-02  0.1090572E+00
         21   -1    0    0  501  502  0.00000000000E+00  0.00000000000E+00  0.66851972382E+02  0.66851972382E+02  0.00000000000E+00 0.  1.
         21   -1    0    0  502  503 -0.00000000000E+00 -0.00000000000E+00 -0.14806934967E+04  0.14806934967E+04  0.00000000000E+00 0.  1.
         -6    2    1    2    0  503  0.21623479675E+03  0.85752420994E+02 -0.10097710272E+04  0.10504795767E+04  0.17250753182E+03 0.  0.
        -24    2    3    3    0    0  0.16537460656E+03  0.46911562044E+01 -0.51970254504E+03  0.55113310895E+03  0.79285566214E+02 0.  0.
          6    2    1    2  501    0 -0.21623479675E+03 -0.85752420994E+02 -0.40407049713E+03  0.49706589246E+03  0.17230951732E+03 0.  0.
         24    2    5    5    0    0 -0.18245319554E+03 -0.74337767768E+02 -0.20683023311E+03  0.29657324262E+03  0.79760081666E+02 0.  0.
          5    1    5    5  501    0 -0.33781601207E+02 -0.11414653226E+02 -0.19724026402E+03  0.20049264984E+03  0.47000000000E+01 0. -1.
        -11    1    6    6    0    0 -0.55111627751E+02 -0.64334737009E+02 -0.77993068399E+02  0.11514846337E+03  0.00000000000E+00 0.  1.
         12    1    6    6    0    0 -0.12734156779E+03 -0.10003030759E+02 -0.12883716471E+03  0.18142477924E+03  0.00000000000E+00 0. -1.
         -5    1    3    3    0  503  0.50860190187E+02  0.81061264790E+02 -0.49006848218E+03  0.49934646772E+03  0.47000000000E+01 0.  1.
         11    1    4    4    0    0  0.29434058703E+02 -0.26222885806E+02 -0.17335290992E+03  0.17777861213E+03  0.00000000000E+00 0. -1.
        -12    1    4    4    0    0  0.13594054786E+03  0.30914042010E+02 -0.34634963512E+03  0.37335449682E+03  0.00000000000E+00 0.  1.
</event>
<event>
12    1  0.8258923E-002  0.1882239E+03  0.7818608E-02  0.1164010E+00
         21   -1    0    0  503  502  0.00000000000E+00  0.00000000000E+00  0.18719283478E+03  0.18719283478E+03  0.00000000000E+00 0. -1.
         21   -1    0    0  501  503 -0.00000000000E+00 -0.00000000000E+00 -0.32399923662E+03  0.32399923662E+03  0.00000000000E+00 0. -1.
          6    2    1    2  501    0 -0.41335674753E+02 -0.64587723061E+02 -0.24440189199E+03  0.30848097594E+03  0.17189536275E+03 0.  0.
         24    2    3    3    0    0 -0.78246387358E+02 -0.16856459604E+02 -0.21268826702E+03  0.24015442016E+03  0.77660860348E+02 0.  0.
         -6    2    1    2    0  502  0.41335674753E+02  0.64587723061E+02  0.10759549015E+03  0.20271109545E+03  0.15373609447E+03 0.  0.
        -24    2    5    5    0    0  0.17322593005E+02 -0.45079486879E+01  0.10491747229E+03  0.12936191871E+03  0.73528471978E+02 0.  0.
          5    1    3    3  501    0  0.36910712605E+02 -0.47731263457E+02 -0.31713624965E+02  0.68326555779E+02  0.47000000000E+01 0. -1.
        -13    1    4    4    0    0 -0.62995337822E+02 -0.31330621657E+02 -0.83154073371E+02  0.10892483812E+03  0.00000000000E+00 0.  1.
         14    1    4    4    0    0 -0.15251049537E+02  0.14474162053E+02 -0.12953419365E+03  0.13122958205E+03  0.00000000000E+00 0. -1.
         -5    1    5    5    0  502  0.24013081749E+02  0.69095671749E+02  0.26780178583E+01  0.73349176745E+02  0.47000000000E+01 0.  1.
         11    1    6    6    0    0  0.27202199299E+02  0.94392712502E+01  0.10819315065E+03  0.11195899846E+03  0.00000000000E+00 0. -1.
        -12    1    6    6    0    0 -0.98796062947E+01 -0.13947219938E+02 -0.32756783619E+01  0.17402920251E+02  0.00000000000E+00 0.  1.
</event>
<event>
12    1  0.8258923E-002  0.1745156E+03  0.7818608E-02  0.1173481E+00
         21   -1    0    0  503  502  0.00000000000E+00  0.00000000000E+00  0.10257368563E+04  0.10257368563E+04  0.00000000000E+00 0. -1.
         21   -1    0    0  501  503 -0.00000000000E+00 -0.00000000000E+00 -0.12215929802E+03  0.12215929802E+03  0.00000000000E+00 0. -1.
          6    2    1    2  501    0 -0.17765487345E+02 -0.19599584510E+02 -0.47709964169E+02  0.18091968896E+03  0.17249909252E+03 0.  0.
         24    2    3    3    0    0 -0.46734720993E+02 -0.58460063923E+02 -0.62423502372E+00  0.11318115305E+03  0.84899178540E+02 0.  0.
         -6    2    1    2    0  502  0.17765487345E+02  0.19599584510E+02  0.95128752250E+03  0.96697646540E+03  0.17145196973E+03 0.  0.
        -24    2    5    5    0    0  0.20224744174E+02 -0.37128730960E+02  0.30447573287E+03  0.31766010882E+03  0.80093007745E+02 0.  0.
          5    1    3    3  501    0  0.28969233648E+02  0.38860479413E+02 -0.47085729145E+02  0.67738535912E+02  0.47000000000E+01 0. -1.
        -11    1    4    4    0    0 -0.10337328225E+02 -0.70159824929E+02 -0.14729027903E+02  0.72430695509E+02  0.00000000000E+00 0.  1.
         12    1    4    4    0    0 -0.36397392768E+02  0.11699761006E+02  0.14104792879E+02  0.40750457544E+02  0.00000000000E+00 0. -1.
         -5    1    5    5    0  502 -0.24592568287E+01  0.56728315470E+02  0.64681178963E+03  0.64931635658E+03  0.47000000000E+01 0.  1.
         11    1    6    6    0    0  0.14732718401E+02 -0.18995141687E+02  0.29587917234E+03  0.29685409383E+03  0.00000000000E+00 0. -1.
        -12    1    6    6    0    0  0.54920257722E+01 -0.18133589273E+02  0.85965605375E+01  0.20806014998E+02  0.00000000000E+00 0.  1.
</event>
<event>
12    1  0.8258923E-002  0.2227474E+03  0.7818608E-02  0.1131885E+00
         21   -1    0    0  501  502  0.00000000000E+00  0.00000000000E+00  0.34813879721E+03  0.34813879721E+03  0.00000000000E+00 0. -1.
         21   -1    0    0  502  503 -0.00000000000E+00 -0.00000000000E+00 -0.32759001370E+03  0.32759001370E+03  0.00000000000E+00 0.  1.
         -6    2    1    2    0  503  0.13638736370E+03  0.39936699712E+02 -0.24375684147E+03  0.33007891755E+03  0.17128409467E+03 0.  0.
        -24    2    3    3    0    0  0.10287897525E+03  0.27038880724E+02 -0.65299748941E+02  0.14798501401E+03  0.79500456231E+02 0.  0.
          6    2    1    2  501    0 -0.13638736370E+03 -0.39936699712E+02  0.26430562498E+03  0.34564989337E+03  0.17152239629E+03 0.  0.
         24    2    5    5    0    0 -0.12946254583E+03 -0.20964294972E+02  0.10471279394E+03  0.18471553729E+03  0.77168698765E+02 0.  0.
          5    1    5    5  501    0 -0.69248178728E+01 -0.18972404740E+02  0.15959283104E+03  0.16093435607E+03  0.47000000000E+01 0. -1.
        -13    1    6    6    0    0 -0.51698105219E+02  0.18217890220E+02  0.74610529310E+02  0.92581405753E+02  0.00000000000E+00 0.  1.
         14    1    6    6    0    0 -0.77764440607E+02 -0.39182185193E+02  0.30102264625E+02  0.92134131541E+02  0.00000000000E+00 0. -1.
         -5    1    3    3    0  503  0.33508388446E+02  0.12897818988E+02 -0.17845709253E+03  0.18209390353E+03  0.47000000000E+01 0.  1.
         11    1    4    4    0    0  0.18803190744E+00  0.10128333804E+02  0.13902192150E+02  0.17201437388E+02  0.00000000000E+00 0. -1.
        -12    1    4    4    0    0  0.10269094335E+03  0.16910546920E+02 -0.79201941092E+02  0.13078357663E+03  0.00000000000E+00 0.  1.
</event>
<event>
12    1  0.8258923E-002  0.1955600E+03  0.7818608E-02  0.1153694E+00
         21   -1    0    0  503  502  0.00000000000E+00  0.00000000000E+00  0.69272920934E+03  0.69272920934E+03  0.00000000000E+00 0. -1.
         21   -1    0    0  501  503 -0.00000000000E+00 -0.00000000000E+00 -0.14290924615E+03  0.14290924615E+03  0.00000000000E+00 0.  1.
          6    2    1    2  501    0  0.78332489999E+02 -0.46271357805E+02 -0.52583129304E+02  0.20250607450E+03  0.17310894598E+03 0.  0.
         24    2    3    3    0    0  0.25866678586E+02 -0.59511516192E+02 -0.82969945403E+02  0.14026933491E+03  0.92632439546E+02 0.  0.
         -6    2    1    2    0  502 -0.78332489999E+02  0.46271357805E+02  0.60240309250E+03  0.63313238100E+03  0.17230817880E+03 0.  0.
        -24    2    5    5    0    0 -0.29435719416E+02  0.82026494119E+02  0.50342595864E+03  0.51699501848E+03  0.79065453820E+02 0.  0.
          5    1    3    3  501    0  0.52465811413E+02  0.13240158386E+02  0.30386816099E+02  0.62236739583E+02  0.47000000000E+01 0. -1.
        -11    1    4    4    0    0  0.27971306811E+02  0.16894068801E+02 -0.89790758596E+01  0.33888454799E+02  0.00000000000E+00 0.  1.
         12    1    4    4    0    0 -0.21046282249E+01 -0.76405584993E+02 -0.73990869543E+02  0.10638088011E+03  0.00000000000E+00 0. -1.
         -5    1    5    5    0  502 -0.48896770582E+02 -0.35755136314E+02  0.98977133854E+02  0.11613736252E+03  0.47000000000E+01 0.  1.
         11    1    6    6    0    0 -0.16624467044E+02 -0.78534488772E+01  0.18403538992E+03  0.18495154583E+03  0.00000000000E+00 0. -1.
        -12    1    6    6    0    0 -0.12811252372E+02  0.89879942997E+02  0.31939056873E+03  0.33204347265E+03  0.00000000000E+00 0.  1.
</event>
<event>
12    1  0.8258923E-002  0.1950999E+03  0.7818608E-02  0.1154103E+00
         21   -1    0    0  503  502  0.00000000000E+00  0.00000000000E+00  0.31018907278E+03  0.31018907278E+03  0.00000000000E+00 0. -1.
         21   -1    0    0  501  503 -0.00000000000E+00 -0.00000000000E+00 -0.17253643163E+03  0.17253643163E+03  0.00000000000E+00 0. -1.
          6    2    1    2  501    0 -0.58658455414E+02 -0.72165661707E+02 -0.61576582380E+02  0.20387742051E+03  0.17066232735E+03 0.  0.
         24    2    3    3    0    0 -0.35815820015E+02  0.28286333895E+02 -0.25542491685E+02  0.94639445868E+02  0.78875320501E+02 0.  0.
         -6    2    1    2    0  502  0.58658455414E+02  0.72165661707E+02  0.19922922352E+03  0.27884808390E+03  0.17150881397E+03 0.  0.
        -24    2    5    5    0    0  0.17615412132E+02  0.55016801465E+02  0.28343734767E+02  0.10220563409E+03  0.79407009453E+02 0.  0.
          5    1    3    3  501    0 -0.22842635398E+02 -0.10045199560E+03 -0.36034090695E+02  0.10923797464E+03  0.47000000000E+01 0. -1.
        -11    1    4    4    0    0 -0.26824694981E+02  0.36613430494E+01  0.25542457998E+02  0.37220785246E+02  0.00000000000E+00 0.  1.
         12    1    4    4    0    0 -0.89911250346E+01  0.24624990845E+02 -0.51084949683E+02  0.57418660622E+02  0.00000000000E+00 0. -1.
         -5    1    5    5    0  502  0.41043043281E+02  0.17148860242E+02  0.17088548876E+03  0.17664244982E+03  0.47000000000E+01 0.  1.
         13    1    6    6    0    0  0.94638855681E+01  0.59701444797E+02  0.50096602592E+02  0.78507943752E+02  0.00000000000E+00 0. -1.
        -14    1    6    6    0    0  0.81515265644E+01 -0.46846433325E+01 -0.21752867826E+02  0.23697690333E+02  0.00000000000E+00 0.  1.
</event>
<event>
12    1  0.8258923E-002  0.1810169E+03  0.7818608E-02  0.1166969E+00
         21   -1    0    0  501  502  0.00000000000E+00  0.00000000000E+00  0.47521019766E+03  0.47521019766E+03  0.00000000000E+00 0. -1.
         21   -1    0    0  502  503 -0.00000000000E+00 -0.00000000000E+00 -0.31784989395E+03  0.31784989395E+03  0.00000000000E+00 0. -1.
         -6    2    1    2    0  503 -0.16321658604E+02  0.54878749726E+02 -0.27234740600E+03  0.32701717182E+03  0.17172375316E+03 0.  0.
        -24    2    3    3    0    0  0.51073852017E+02  0.86742891613E+01 -0.18153896496E+03  0.20476632318E+03  0.79303654763E+02 0.  0.
          6    2    1    2  501    0  0.16321658604E+02 -0.54878749726E+02  0.42970770970E+03  0.46604291980E+03  0.17108247603E+03 0.  0.
         24    2    5    5    0    0  0.67765671594E+02 -0.70559307848E+02  0.28670806732E+03  0.31319216220E+03  0.79479635304E+02 0.  0.
          5    1    5    5  501    0 -0.51444012990E+02  0.15680558123E+02  0.14299964239E+03  0.15285075760E+03  0.47000000000E+01 0. -1.
        -13    1    6    6    0    0  0.80383462492E+02 -0.50638871544E+02  0.17603872883E+03  0.20003857229E+03  0.00000000000E+00 0.  1.
         14    1    6    6    0    0 -0.12617790898E+02 -0.19920436304E+02  0.11066933848E+03  0.11315358991E+03  0.00000000000E+00 0. -1.
         -5    1    3    3    0  503 -0.67395510621E+02  0.46204460564E+02 -0.90808441037E+02  0.12225084863E+03  0.47000000000E+01 0.  1.
         11    1    4    4    0    0 -0.52244261794E+01  0.17967759672E+02 -0.11755645967E+03  0.11903636515E+03  0.00000000000E+00 0. -1.
        -12    1    4    4    0    0  0.56298278197E+02 -0.92934705105E+01 -0.63982505286E+02  0.85729958035E+02  0.00000000000E+00 0.  1.
</event>
<event>
12    1  0.8258923E-002  0.1783556E+03  0.7818608E-02  0.1169461E+00
         21   -1    0    0  501  502  0.00000000000E+00  0.00000000000E+00  0.11024342733E+03  0.11024342733E+03  0.00000000000E+00 0. -1.
         21   -1    0    0  502  503 -0.00000000000E+00 -0.00000000000E+00 -0.66469739322E+03  0.66469739322E+03  0.00000000000E+00 0. -1.
         -6    2    1    2    0  503  0.43670321285E+02  0.14207160026E+02 -0.56877213153E+03  0.59601144539E+03  0.17210161267E+03 0.  0.
        -24    2    3    3    0    0  0.49869305055E+02  0.43518172148E+02 -0.55120172499E+03  0.56096330682E+03  0.80471802999E+02 0.  0.
          6    2    1    2  501    0 -0.43670321285E+02 -0.14207160026E+02  0.14318165633E+02  0.17892937516E+03  0.17234201772E+03 0.  0.
         24    2    5    5    0    0 -0.71982204654E+02 -0.14073129990E+02 -0.42405814101E+02  0.11535830800E+03  0.78293009775E+02 0.  0.
          5    1    5    5  501    0  0.28311883369E+02 -0.13403003622E+00  0.56723979734E+02  0.63571067167E+02  0.47000000000E+01 0. -1.
        -13    1    6    6    0    0 -0.38445732872E+02  0.29070934854E+00 -0.62746054350E+02  0.73588220691E+02  0.00000000000E+00 0.  1.
         14    1    6    6    0    0 -0.33536471782E+02 -0.14363839338E+02  0.20340240248E+02  0.41770087305E+02  0.00000000000E+00 0. -1.
         -5    1    3    3    0  503 -0.61989837696E+01 -0.29311012122E+02 -0.17570406537E+02  0.35048138570E+02  0.47000000000E+01 0.  1.
         13    1    4    4    0    0  0.88640432024E+01 -0.22870446072E+02 -0.17877342401E+03  0.18044823551E+03  0.00000000000E+00 0. -1.
        -14    1    4    4    0    0  0.41005261852E+02  0.66388618220E+02 -0.37242830098E+03  0.38051507131E+03  0.00000000000E+00 0.  1.
</event>
<event>
12    1  0.8258923E-002  0.2808308E+03  0.7818608E-02  0.1095300E+00
         21   -1    0    0  503  502  0.00000000000E+00  0.00000000000E+00  0.70723659105E+03  0.70723659105E+03  0.00000000000E+00 0.  1.
         21   -1    0    0  501  503 -0.00000000000E+00 -0.00000000000E+00 -0.22867992375E+03  0.22867992375E+03  0.00000000000E+00 0. -1.
          6    2    1    2  501    0  0.21908765308E+03  0.31011842441E+02 -0.96047305868E+02  0.29635757525E+03  0.17216734110E+03 0.  0.
         24    2    3    3    0    0  0.74514763074E+02 -0.11845965977E+02  0.81166369233E+01  0.11302637429E+03  0.83763384989E+02 0.  0.
         -6    2    1    2    0  502 -0.21908765308E+03 -0.31011842441E+02  0.57460397316E+03  0.63955893955E+03  0.17292997738E+03 0.  0.
        -24    2    5    5    0    0 -0.18473725427E+03 -0.44368390005E+02  0.56493518782E+03  0.60116723899E+03  0.78446642081E+02 0.  0.
          5    1    3    3  501    0  0.14457289001E+03  0.42857808418E+02 -0.10416394279E+03  0.18333120096E+03  0.47000000000E+01 0. -1.
        -11    1    4    4    0    0  0.45491699537E+02  0.21438841686E+02  0.35050470731E+02  0.61299707651E+02  0.00000000000E+00 0.  1.
         12    1    4    4    0    0  0.29023063537E+02 -0.33284807663E+02 -0.26933833808E+02  0.51726666642E+02  0.00000000000E+00 0. -1.
         -5    1    5    5    0  502 -0.34350398812E+02  0.13356547564E+02  0.96687853412E+01  0.38391700553E+02  0.47000000000E+01 0.  1.
         11    1    6    6    0    0 -0.12191498700E+01 -0.20054295683E+02  0.45814872644E+02  0.50026629480E+02  0.00000000000E+00 0. -1.
        -12    1    6    6    0    0 -0.18351810440E+03 -0.24314094322E+02  0.51912031518E+03  0.55114060951E+03  0.00000000000E+00 0.  1.
</event>
<event>
12    1  0.8258923E-002  0.1756449E+03  0.7818608E-02  0.1172833E+00
         21   -1    0    0  503  502  0.00000000000E+00  0.00000000000E+00  0.31063812579E+03  0.31063812579E+03  0.00000000000E+00 0. -1.
         21   -1    0    0  501  503 -0.00000000000E+00 -0.00000000000E+00 -0.10402009167E+03  0.10402009167E+03  0.00000000000E+00 0.  1.
          6    2    1    2  501    0 -0.27156823668E+01 -0.36854512712E+02  0.52811531427E+02  0.18341262896E+03  0.17171343737E+03 0.  0.
         24    2    3    3    0    0  0.19392384803E+02  0.15874528660E+02 -0.20170728691E+02  0.90581498786E+02  0.84676350759E+02 0.  0.
         -6    2    1    2    0  502  0.27156823668E+01  0.36854512712E+02  0.15380650270E+03  0.23124558850E+03  0.16867854602E+03 0.  0.
        -24    2    5    5    0    0 -0.54801873110E+02  0.54347606760E+02  0.11488994317E+03  0.15947605365E+03  0.79221240756E+02 0.  0.
          5    1    3    3  501    0 -0.22108067170E+02 -0.52729041372E+02  0.72982260119E+02  0.92831130178E+02  0.47000000000E+01 0. -1.
        -11    1    4    4    0    0 -0.11320189112E+02  0.37585336597E+02  0.12044458271E+02  0.41059386061E+02  0.00000000000E+00 0.  1.
         12    1    4    4    0    0  0.30712573915E+02 -0.21710807936E+02 -0.32215186963E+02  0.49522112725E+02  0.00000000000E+00 0. -1.
         -5    1    5    5    0  502  0.57517555476E+02 -0.17493094049E+02  0.38916559523E+02  0.71769534849E+02  0.47000000000E+01 0.  1.
         13    1    6    6    0    0 -0.35299547458E+02  0.58130347866E+02  0.33717961083E+02  0.75908473133E+02  0.00000000000E+00 0. -1.
        -14    1    6    6    0    0 -0.19502325652E+02 -0.37827411058E+01  0.81171982092E+02  0.83567580513E+02  0.00000000000E+00 0.  1.
</event>
<event>
12    1  0.8258923E-002  0.1798752E+03  0.7818608E-02  0.1168738E+00
         21   -1    0    0  501  502  0.00000000000E+00  0.00000000000E+00  0.69980431664E+02  0.69980431664E+02  0.00000000000E+00 0. -1.
         21   -1    0    0  502  503 -0.00000000000E+00 -0.00000000000E+00 -0.48855793139E+03  0.48855793139E+03  0.00000000000E+00 0. -1.
         -6    2    1    2    0  503  0.25794674966E+02 -0.26433426160E+02 -0.28192761326E+03  0.33264400118E+03  0.17264055470E+03 0.  0.
        -24    2    3    3    0    0  0.26639731443E+02 -0.83743500852E+02 -0.18849250912E+03  0.22292906388E+03  0.80282577819E+02 0.  0.
          6    2    1    2  501    0 -0.25794674966E+02  0.26433426160E+02 -0.13664988647E+03  0.22589436188E+03  0.17604255162E+03 0.  0.
         24    2    5    5    0    0 -0.77596131413E+02 -0.11186470536E+02 -0.10785742971E+03  0.15553995133E+03  0.80082173930E+02 0.  0.
          5    1    5    5  501    0  0.51801456448E+02  0.37619896696E+02 -0.28792456757E+02  0.70354410548E+02  0.47000000000E+01 0. -1.
        -13    1    6    6    0    0  0.16774602101E+02 -0.27498104654E+01 -0.20875103683E+02  0.26920599678E+02  0.00000000000E+00 0.  1.
         14    1    6    6    0    0 -0.94370733514E+02 -0.84366600701E+01 -0.86982326030E+02  0.12861935165E+03  0.00000000000E+00 0. -1.
         -5    1    3    3    0  503 -0.84505647775E+00  0.57310074692E+02 -0.93435104144E+02  0.10971493731E+03  0.47000000000E+01 0.  1.
         13    1    4    4    0    0  0.29383309079E+02 -0.66412084050E+02 -0.19178625624E+03  0.20507538087E+03  0.00000000000E+00 0. -1.
        -14    1    4    4    0    0 -0.27435776360E+01 -0.17331416802E+02  0.32937471186E+01  0.17853683001E+02  0.00000000000E+00 0.  1.
</event>
<event>
12    1  0.8258923E-002  0.1895482E+03  0.7818608E-02  0.1158883E+00
         21   -1    0    0  503  502  0.00000000000E+00  0.00000000000E+00  0.30670607034E+02  0.30670607034E+02  0.00000000000E+00 0.  1.
         21   -1    0    0  501  503 -0.00000000000E+00 -0.00000000000E+00 -0.12964330746E+04  0.12964330746E+04  0.00000000000E+00 0.  1.
          6    2    1    2  501    0  0.68001124709E+02 -0.41138774909E+02 -0.83933212681E+03  0.86046902211E+03  0.17208128066E+03 0.  0.
         24    2    3    3    0    0  0.20386298504E+02 -0.69473619180E+02 -0.72828434213E+03  0.73627668919E+03  0.80393377337E+02 0.  0.
         -6    2    1    2    0  502 -0.68001124709E+02  0.41138774909E+02 -0.42643034079E+03  0.46663465955E+03  0.17201313378E+03 0.  0.
        -24    2    5    5    0    0 -0.46086360421E+02  0.30944038957E+02 -0.10076264996E+03  0.14003746976E+03  0.79849202535E+02 0.  0.
          5    1    3    3  501    0  0.47614826205E+02  0.28334844272E+02 -0.11104778468E+03  0.12419233292E+03  0.47000000000E+01 0. -1.
        -11    1    4    4    0    0  0.44670083099E+02 -0.53106143881E+02 -0.34709751176E+03  0.35396661074E+03  0.00000000000E+00 0.  1.
         12    1    4    4    0    0 -0.24283784596E+02 -0.16367475299E+02 -0.38118683037E+03  0.38231007845E+03  0.00000000000E+00 0. -1.
         -5    1    5    5    0  502 -0.21914764288E+02  0.10194735951E+02 -0.32566769083E+03  0.32659718980E+03  0.47000000000E+01 0.  1.
         11    1    6    6    0    0 -0.30274064183E+01 -0.97926730742E+01 -0.74505047359E+02  0.75206806324E+02  0.00000000000E+00 0. -1.
        -12    1    6    6    0    0 -0.43058954002E+02  0.40736712031E+02 -0.26257602602E+02  0.64830663434E+02  0.00000000000E+00 0.  1.
</event>
<event>
12    1  0.8258923E-002  0.2502973E+03  0.7818608E-02  0.1113131E+00
         21   -1    0    0  503  502  0.00000000000E+00  0.00000000000E+00  0.96750691713E+02  0.96750691713E+02  0.00000000000E+00 0. -1.
         21   -1    0    0  501  503 -0.00000000000E+00 -0.00000000000E+00 -0.70305777683E+03  0.70305777683E+03  0.00000000000E+00 0.  1.
          6    2    1    2  501    0 -0.13935537448E+03  0.11649495057E+03 -0.41572802791E+03  0.48521490188E+03  0.17208345044E+03 0.  0.
         24    2    3    3    0    0 -0.13129942260E+03  0.27106814493E+02 -0.22070630755E+03  0.27048088351E+03  0.80463136827E+02 0.  0.
         -6    2    1    2    0  502  0.13935537448E+03 -0.11649495057E+03 -0.19057905720E+03  0.31459356666E+03  0.17221423063E+03 0.  0.
        -24    2    5    5    0    0  0.87613626361E+02 -0.12897090649E+03 -0.82181400774E+02  0.19374241898E+03  0.80453092132E+02 0.  0.
          5    1    3    3  501    0 -0.80559518834E+01  0.89388136080E+02 -0.19502172036E+03  0.21473401837E+03  0.47000000000E+01 0. -1.
        -11    1    4    4    0    0 -0.13793285244E+02 -0.23701684922E+02 -0.50969976154E+02  0.57878865358E+02  0.00000000000E+00 0.  1.
         12    1    4    4    0    0 -0.11750613735E+03  0.50808499415E+02 -0.16973633139E+03  0.21260201815E+03  0.00000000000E+00 0. -1.
         -5    1    5    5    0  502  0.51741748121E+02  0.12475955920E+02 -0.10839765643E+03  0.12085114767E+03  0.47000000000E+01 0.  1.
         11    1    6    6    0    0  0.86241943410E+02 -0.12966734256E+03 -0.93950269987E+02  0.18187343335E+03  0.00000000000E+00 0. -1.
        -12    1    6    6    0    0  0.13716829514E+01  0.69643606263E+00  0.11768869213E+02  0.11868985629E+02  0.00000000000E+00 0.  1.
</event>
<event>
12    1  0.8258923E-002  0.1721698E+03  0.7818608E-02  0.1175697E+00
         21   -1    0    0  503  502  0.00000000000E+00  0.00000000000E+00  0.11410346437E+03  0.11410346437E+03  0.00000000000E+00 0. -1.
         21   -1    0    0  501  503 -0.00000000000E+00 -0.00000000000E+00 -0.61929167090E+03  0.61929167090E+03  0.00000000000E+00 0. -1.
          6    2    1    2  501    0  0.16317404336E+02 -0.46031443828E+01 -0.53208692552E+03  0.55913674717E+03  0.17096771361E+03 0.  0.
         24    2    3    3    0    0 -0.45016315115E+02 -0.16586833215E+02 -0.18229770835E+03  0.20377774504E+03  0.77403638431E+02 0.  0.
         -6    2    1    2    0  502 -0.16317404336E+02  0.46031443828E+01  0.26898718988E+02  0.17425838810E+03  0.17133300359E+03 0.  0.
        -24    2    5    5    0    0 -0.46649926207E+02  0.41257700834E+02 -0.25199430233E+02  0.10354823647E+03  0.78796018293E+02 0.  0.
          5    1    3    3  501    0  0.61333719450E+02  0.11983688833E+02 -0.34978921717E+03  0.35535900212E+03  0.47000000000E+01 0. -1.
        -13    1    4    4    0    0 -0.26590501172E+02  0.14470846631E+02 -0.17285839971E+02  0.34860585455E+02  0.00000000000E+00 0.  1.
         14    1    4    4    0    0 -0.18425813942E+02 -0.31057679846E+02 -0.16501186838E+03  0.16891715959E+03  0.00000000000E+00 0. -1.
         -5    1    5    5    0  502  0.30332521871E+02 -0.36654556452E+02  0.52098149220E+02  0.70710151633E+02  0.47000000000E+01 0.  1.
         11    1    6    6    0    0 -0.48488295282E+02  0.17701770136E+01  0.11217419070E+02  0.49800389523E+02  0.00000000000E+00 0. -1.
        -12    1    6    6    0    0  0.18383690754E+01  0.39487523821E+02 -0.36416849303E+02  0.53747846947E+02  0.00000000000E+00 0.  1.
</event>
<event>
12    1  0.8258923E-002  0.2042315E+03  0.7818608E-02  0.1146224E+00
         21   -1    0    0  501  502  0.00000000000E+00  0.00000000000E+00  0.98333077513E+03  0.98333077513E+03  0.00000000000E+00 0.  1.
         21   -1    0    0  502  503 -0.00000000000E+00 -0.00000000000E+00 -0.43439028556E+02  0.43439028556E+02  0.00000000000E+00 0.  1.
         -6    2    1    2    0  503 -0.36557218244E+02 -0.10365521595E+03  0.39098990565E+03  0.44111630501E+03  0.17213266463E+03 0.  0.
        -24    2    3    3    0    0 -0.82163490172E+02 -0.10680259700E+03  0.32538751349E+03  0.36101885248E+03  0.79372186949E+02 0.  0.
          6    2    1    2  501    0  0.36557218244E+02  0.10365521595E+03  0.54890184092E+03  0.58565349867E+03  0.17209286893E+03 0.  0.
         24    2    5    5    0    0  0.45565921996E+02  0.64189786655E+02  0.19999589242E+03  0.23437564888E+03  0.93471952183E+02 0.  0.
          5    1    5    5  501    0 -0.90087037520E+01  0.39465429293E+02  0.34890594850E+03  0.35127784979E+03  0.47000000000E+01 0. -1.
        -11    1    6    6    0    0  0.73008035412E+02  0.53148345275E+02  0.12903072693E+03  0.15749237547E+03  0.00000000000E+00 0.  1.
         12    1    6    6    0    0 -0.27442113417E+02  0.11041441380E+02  0.70965165498E+02  0.76883273413E+02  0.00000000000E+00 0. -1.
         -5    1    3    3    0  503  0.45606271928E+02  0.31473810564E+01  0.65602392153E+02  0.80097452537E+02  0.47000000000E+01 0.  1.
         13    1    4    4    0    0 -0.85013169481E+02 -0.66770549198E+02  0.28152808582E+03  0.30156857981E+03  0.00000000000E+00 0. -1.
        -14    1    4    4    0    0  0.28496793088E+01 -0.40032047806E+02  0.43859427674E+02  0.59450272662E+02  0.00000000000E+00 0.  1.
</event>
<event>
12    1  0.8258923E-002  0.3525171E+03  0.7818608E-02  0.1061617E+00
         21   -1    0    0  503  502  0.00000000000E+00  0.00000000000E+00  0.10333478702E+03  0.10333478702E+03  0.00000000000E+00 0. -1.
         21   -1    0    0  501  503 -0.00000000000E+00 -0.00000000000E+00 -0.12085459543E+04  0.12085459543E+04  0.00000000000E+00 0.  1.
          6    2    1    2  501    0 -0.45247346280E+02 -0.30486306336E+03 -0.50302147746E+03  0.61424661036E+03  0.17111248288E+03 0.  0.
         24    2    3    3    0    0  0.12761218518E+02 -0.25595463704E+03 -0.32966605942E+03  0.42495525102E+03  0.78940672124E+02 0.  0.
         -6    2    1    2    0  502  0.45247346280E+02  0.30486306336E+03 -0.60218968986E+03  0.69763413101E+03  0.17050556715E+03 0.  0.
        -24    2    5    5    0    0  0.31832914005E+02  0.72271205880E+02 -0.13212186297E+03  0.17297731838E+03  0.78920874211E+02 0.  0.
          5    1    3    3  501    0 -0.58008564798E+02 -0.48908426322E+02 -0.17335541804E+03  0.18929135934E+03  0.47000000000E+01 0. -1.
        -13    1    4    4    0    0  0.24028840170E+02 -0.17086035196E+03 -0.26998308981E+03  0.32040835478E+03  0.00000000000E+00 0.  1.
         14    1    4    4    0    0 -0.11267621652E+02 -0.85094285083E+02 -0.59682969612E+02  0.10454689624E+03  0.00000000000E+00 0. -1.
         -5    1    5    5    0  502  0.13414432275E+02  0.23259185748E+03 -0.47006782689E+03  0.52465681263E+03  0.47000000000E+01 0.  1.
         13    1    6    6    0    0  0.22043701055E+02  0.66942051751E+02 -0.41740133418E+02  0.81910938138E+02  0.00000000000E+00 0. -1.
        -14    1    6    6    0    0  0.97892129501E+01  0.53291541284E+01 -0.90381729549E+02  0.91066380240E+02  0.00000000000E+00 0.  1.
</event>
<event>
12    1  0.8258923E-002  0.1752777E+03  0.7818608E-02  0.1173186E+00
         21   -1    0    0  501  502  0.00000000000E+00  0.00000000000E+00  0.11670210210E+03  0.11670210210E+03  0.00000000000E+00 0. -1.
         21   -1    0    0  502  503 -0.00000000000E+00 -0.00000000000E+00 -0.30657829974E+03  0.30657829974E+03  0.00000000000E+00 0. -1.
         -6    2    1    2    0  503  0.14139173161E+02  0.10794648249E+02 -0.17771422234E+03  0.24758129275E+03  0.17145760715E+03 0.  0.
        -24    2    3    3    0    0  0.73293984857E+02 -0.24284312902E+01 -0.14142109558E+03  0.17677576592E+03  0.76627929940E+02 0.  0.
          6    2    1    2  501    0 -0.14139173161E+02 -0.10794648249E+02 -0.12161975300E+02  0.17569910909E+03  0.17437265451E+03 0.  0.
         24    2    5    5    0    0 -0.74388962347E+02 -0.19498765476E+02 -0.24759404487E+02  0.11335663580E+03  0.79515905294E+02 0.  0.
          5    1    5    5  501    0  0.60249789186E+02  0.87041172270E+01  0.12597429187E+02  0.62342473289E+02  0.47000000000E+01 0. -1.
        -11    1    6    6    0    0 -0.26648598909E+02 -0.36917794317E+02 -0.39677287308E+02  0.60393364612E+02  0.00000000000E+00 0.  1.
         12    1    6    6    0    0 -0.47740363438E+02  0.17419028840E+02  0.14917882820E+02  0.52963271186E+02  0.00000000000E+00 0. -1.
         -5    1    3    3    0  503 -0.59154811696E+02  0.13223079540E+02 -0.36293126754E+02  0.70805526824E+02  0.47000000000E+01 0.  1.
         13    1    4    4    0    0  0.50800194378E+01  0.20287791243E+02 -0.78486110205E+02  0.81224814965E+02  0.00000000000E+00 0. -1.
        -14    1    4    4    0    0  0.68213965419E+02 -0.22716222533E+02 -0.62934985379E+02  0.95550950958E+02  0.00000000000E+00 0.  1.
</event>
<event>
12    1  0.8258923E-002  0.2729941E+03  0.7818608E-02  0.1099691E+00
         21   -1    0    0  503  502  0.00000000000E+00  0.00000000000E+00  0.11954000762E+04  0.11954000762E+04  0.00000000000E+00 0. -1.
         21   -1    0    0  501  503 -0.00000000000E+00 -0.00000000000E+00 -0.15678357863E+03  0.15678357863E+03  0.00000000000E+00 0.  1.
          6    2    1    2  501    0  0.14889694835E+03 -0.15212158275E+03 -0.56218423727E+01  0.27305198533E+03  0.17092250997E+03 0.  0.
         24    2    3    3    0    0  0.13248677214E+03 -0.66051254989E+02 -0.49674097954E+02  0.17486804354E+03  0.78713426845E+02 0.  0.
         -6    2    1    2    0  502 -0.14889694835E+03  0.15212158275E+03  0.10442383399E+04  0.10791316695E+04  0.16964719963E+03 0.  0.
        -24    2    5    5    0    0 -0.12620138707E+02  0.88202795172E+02  0.52229200042E+03  0.53589410490E+03  0.80340257557E+02 0.  0.
          5    1    3    3  501    0  0.16410176214E+02 -0.86070327757E+02  0.44052255581E+02  0.98183941789E+02  0.47000000000E+01 0. -1.
        -11    1    4    4    0    0  0.93169491385E+02 -0.81569193996E+02 -0.47218231297E+02  0.13252791744E+03  0.00000000000E+00 0.  1.
         12    1    4    4    0    0  0.39317280753E+02  0.15517939007E+02 -0.24558666566E+01  0.42340126097E+02  0.00000000000E+00 0. -1.
         -5    1    5    5    0  502 -0.13627680965E+03  0.63918787574E+02  0.52194633953E+03  0.54323756460E+03  0.47000000000E+01 0.  1.
         13    1    6    6    0    0 -0.17143575761E+02  0.93410023322E+02  0.52003635522E+03  0.52863706397E+03  0.00000000000E+00 0. -1.
        -14    1    6    6    0    0  0.45234370547E+01 -0.52072281506E+01  0.22556451967E+01  0.72570409296E+01  0.00000000000E+00 0.  1.
</event>
<event>
12    1  0.8258923E-002  0.2298114E+03  0.7818608E-02  0.1126892E+00
         21   -1    0    0  501  502  0.00000000000E+00  0.00000000000E+00  0.23201341848E+03  0.23201341848E+03  0.00000000000E+00 0.  1.
         21   -1    0    0  502  503 -0.00000000000E+00 -0.00000000000E+00 -0.26122416451E+03  0.26122416451E+03  0.00000000000E+00 0. -1.
         -6    2    1    2    0  503 -0.13610336812E+03  0.65658666069E+02 -0.10390761019E+03  0.25159130964E+03  0.17223881208E+03 0.  0.
        -24    2    3    3    0    0 -0.34592947681E+01  0.29413291653E+01 -0.16540946740E+02  0.80761164682E+02  0.78918595173E+02 0.  0.
          6    2    1    2  501    0  0.13610336812E+03 -0.65658666069E+02  0.74696864166E+02  0.24164627334E+03  0.17314188593E+03 0.  0.
         24    2    5    5    0    0  0.12065631107E+02 -0.10643191630E+02  0.53292612632E+02  0.10419702957E+03  0.88079858243E+02 0.  0.
          5    1    5    5  501    0  0.12403773701E+03 -0.55015474439E+02  0.21404251534E+02  0.13744924377E+03  0.47000000000E+01 0. -1.
        -13    1    6    6    0    0 -0.25629340662E+02 -0.34990381870E+02  0.35017537206E+02  0.55744217979E+02  0.00000000000E+00 0.  1.
         14    1    6    6    0    0  0.37694971769E+02  0.24347190240E+02  0.18275075426E+02  0.48452811591E+02  0.00000000000E+00 0. -1.
         -5    1    3    3    0  503 -0.13264407335E+03  0.62717336903E+02 -0.87366663454E+02  0.17083014496E+03  0.47000000000E+01 0.  1.
         13    1    4    4    0    0 -0.15577711993E+02  0.51012958605E+01 -0.46000277997E+02  0.48833532600E+02  0.00000000000E+00 0. -1.
        -14    1    4    4    0    0  0.12118417225E+02 -0.21599666952E+01  0.29459331258E+02  0.31927632081E+02  0.00000000000E+00 0.  1.
</event>
<event>
12    1  0.8258923E-002  0.3189578E+03  0.7818608E-02  0.1077361E+00
         21   -1    0    0  501  502  0.00000000000E+00  0.00000000000E+00  0.12069004320E+04  0.12069004320E+04  0.00000000000E+00 0. -1.
         21   -1    0    0  502  503 -0.00000000000E+00 -0.00000000000E+00 -0.82628652755E+02  0.82628652755E+02  0.00000000000E+00 0. -1.
         -6    2    1    2    0  503  0.25024850027E+03  0.56545074899E+02  0.62655292620E+03  0.69837925044E+03  0.17129900973E+03 0.  0.
        -24    2    3    3    0    0  0.25736381779E+03  0.36952489966E+02  0.61819351075E+03  0.67543438273E+03  0.80291764334E+02 0.  0.
          6    2    1    2  501    0 -0.25024850027E+03 -0.56545074899E+02  0.49771885305E+03  0.59114983432E+03  0.18950570584E+03 0.  0.
         24    2    5    5    0    0 -0.71579605476E+02  0.34545670562E+02  0.13116806410E+03  0.17329618917E+03  0.80681254754E+02 0.  0.
          5    1    5    5  501    0 -0.17866889480E+03 -0.91090745461E+02  0.36655078896E+03  0.41785364515E+03  0.47000000000E+01 0. -1.
        -13    1    6    6    0    0 -0.50909151254E+02  0.31942475142E+02  0.13868521574E+03  0.15114778352E+03  0.00000000000E+00 0.  1.
         14    1    6    6    0    0 -0.20670454222E+02  0.26031954201E+01 -0.75171516402E+01  0.22148405652E+02  0.00000000000E+00 0. -1.
         -5    1    3    3    0  503 -0.71153175179E+01  0.19592584933E+02  0.83594154546E+01  0.22944867716E+02  0.47000000000E+01 0.  1.
         11    1    4    4    0    0  0.26071514367E+02  0.14238475381E+02  0.14786306356E+03  0.15081758388E+03  0.00000000000E+00 0. -1.
        -12    1    4    4    0    0  0.23129230342E+03  0.22714014585E+02  0.47033044719E+03  0.52461679885E+03  0.00000000000E+00 0.  1.
</event>
<event>
12    1  0.8258923E-002  0.2076662E+03  0.7818608E-02  0.1143526E+00
         21   -1    0    0  503  502  0.00000000000E+00  0.00000000000E+00  0.25484886815E+04  0.25484886815E+04  0.00000000000E+00 0.  1.
         21   -1    0    0  501  503 -0.00000000000E+00 -0.00000000000E+00 -0.26905064154E+02  0.26905064154E+02  0.00000000000E+00 0. -1.
          6    2    1    2  501    0 -0.69671623771E+02  0.93292095414E+02  0.47390845762E+03  0.51721523060E+03  0.17136165948E+03 0.  0.
         24    2    3    3    0    0 -0.35969417005E+02 -0.17823828535E+02  0.23202131979E+03  0.24886086648E+03  0.80537880562E+02 0.  0.
         -6    2    1    2    0  502  0.69671623771E+02 -0.93292095414E+02  0.20476751597E+04  0.20581785150E+04  0.17195258018E+03 0.  0.
        -24    2    5    5    0    0 -0.23077712672E+02 -0.63932148459E+02  0.12972455186E+04  0.13014545348E+04  0.79486290544E+02 0.  0.
          5    1    3    3  501    0 -0.33702206765E+02  0.11111592395E+03  0.24188713783E+03  0.26835436412E+03  0.47000000000E+01 0. -1.
        -13    1    4    4    0    0 -0.13067815270E+02  0.43918160640E+01 -0.85157812456E+00  0.13812350617E+02  0.00000000000E+00 0.  1.
         14    1    4    4    0    0 -0.22901601736E+02 -0.22215644599E+02  0.23287289791E+03  0.23504851586E+03  0.00000000000E+00 0. -1.
         -5    1    5    5    0  502  0.92749336442E+02 -0.29359946955E+02  0.75042964116E+03  0.75672398021E+03  0.47000000000E+01 0.  1.
         13    1    6    6    0    0 -0.44804036487E+02 -0.93733463517E+01  0.54231574552E+03  0.54424408967E+03  0.00000000000E+00 0. -1.
        -14    1    6    6    0    0  0.21726323815E+02 -0.54558802107E+02  0.75492977305E+03  0.75721044516E+03  0.00000000000E+00 0.  1.
</event>
<event>
12    1  0.8258923E-002  0.1930877E+03  0.7818608E-02  0.1155955E+00
         21   -1    0    0  503  502  0.00000000000E+00  0.00000000000E+00  0.59795151380E+02  0.59795151380E+02  0.00000000000E+00 0.  1.
         21   -1    0    0  501  503 -0.00000000000E+00 -0.00000000000E+00 -0.62126213716E+03  0.62126213716E+03  0.00000000000E+00 0.  1.
          6    2    1    2  501    0  0.32920870966E+02  0.79016839005E+02 -0.29762101362E+03  0.35476912651E+03  0.17307634380E+03 0.  0.
         24    2    3    3    0    0 -0.15088422586E+02  0.64645821245E+02 -0.27999496073E+03  0.30143821465E+03  0.89783498032E+02 0.  0.
         -6    2    1    2    0  502 -0.32920870966E+02 -0.79016839005E+02 -0.26384597215E+03  0.32628816203E+03  0.17181915803E+03 0.  0.
        -24    2    5    5    0    0 -0.64616982088E+02 -0.10309595946E+03 -0.16160179724E+03  0.21646826945E+03  0.77066462067E+02 0.  0.
          5    1    3    3  501    0  0.48009293552E+02  0.14371017760E+02 -0.17626052894E+02  0.53330911857E+02  0.47000000000E+01 0. -1.
        -13    1    4    4    0    0  0.24315603669E+02  0.67854491338E+02 -0.18489024600E+03  0.19844365357E+03  0.00000000000E+00 0.  1.
         14    1    4    4    0    0 -0.39404026254E+02 -0.32086700928E+01 -0.95104714731E+02  0.10299456108E+03  0.00000000000E+00 0. -1.
         -5    1    5    5    0  502  0.31696111122E+02  0.24079120457E+02 -0.10224417491E+03  0.10981989258E+03  0.47000000000E+01 0.  1.
         11    1    6    6    0    0 -0.15644619425E+02 -0.76428676416E+02 -0.13201484838E+03  0.15334280840E+03  0.00000000000E+00 0. -1.
        -12    1    6    6    0    0 -0.48972362663E+02 -0.26667283046E+02 -0.29586948864E+02  0.63125461051E+02  0.00000000000E+00 0.  1.
</event>
<event>
12    1  0.8258923E-002  0.2572231E+03  0.7818608E-02  0.1109039E+00
         21   -1    0    0  501  502  0.00000000000E+00  0.00000000000E+00  0.49799881226E+03  0.49799881226E+03  0.00000000000E+00 0. -1.
         21   -1    0    0  502  503 -0.00000000000E+00 -0.00000000000E+00 -0.13239287596E+03  0.13239287596E+03  0.00000000000E+00 0.  1.
         -6    2    1    2    0  503 -0.74790891103E+02  0.17636710605E+03  0.16822409587E+03  0.30616444274E+03  0.16952370359E+03 0.  0.
        -24    2    3    3    0    0 -0.26612083963E+02  0.17282961960E+03  0.84891711078E+02  0.20972748082E+03  0.78744734296E+02 0.  0.
          6    2    1    2  501    0  0.74790891103E+02 -0.17636710605E+03  0.19738184043E+03  0.32422724548E+03  0.17165279576E+03 0.  0.
         24    2    5    5    0    0  0.31457724471E+02 -0.10086315744E+03  0.19683995582E+03  0.23704357026E+03  0.79251000226E+02 0.  0.
          5    1    5    5  501    0  0.43333166632E+02 -0.75503948601E+02  0.54188460913E+00  0.87183675213E+02  0.47000000000E+01 0. -1.
        -11    1    6    6    0    0  0.53040100197E+01  0.12954251217E+02  0.32963933816E+02  0.35812931736E+02  0.00000000000E+00 0.  1.
         12    1    6    6    0    0  0.26153714451E+02 -0.11381740866E+03  0.16387602201E+03  0.20123063853E+03  0.00000000000E+00 0. -1.
         -5    1    3    3    0  503 -0.48178807140E+02  0.35374864458E+01  0.83332384793E+02  0.96436961913E+02  0.47000000000E+01 0.  1.
         13    1    4    4    0    0 -0.23398517500E+02  0.16711798505E+03  0.97950910160E+02  0.19511609967E+03  0.00000000000E+00 0. -1.
        -14    1    4    4    0    0 -0.32135664631E+01  0.57116345482E+01 -0.13059199082E+02  0.14611381156E+02  0.00000000000E+00 0.  1.
</event>
<event>
12    1  0.8258923E-002  0.1846127E+03  0.7818608E-02  0.1165208E+00
         21   -1    0    0  503  502  0.00000000000E+00  0.00000000000E+00  0.23915968848E+03  0.23915968848E+03  0.00000000000E+00 0. -1.
         21   -1    0    0  501  503 -0.00000000000E+00 -0.00000000000E+00 -0.15118391231E+03  0.15118391231E+03  0.00000000000E+00 0. -1.
          6    2    1    2  501    0 -0.43107675883E+02  0.45701947156E+01 -0.15428104411E+02  0.18525625705E+03  0.17945109632E+03 0.  0.
         24    2    3    3    0    0 -0.92185916126E+02  0.21722686508E+02  0.15862841482E+02  0.12439498089E+03  0.79071886854E+02 0.  0.
         -6    2    1    2    0  502  0.43107675883E+02 -0.45701947156E+01  0.10340388058E+03  0.20508734375E+03  0.17172448179E+03 0.  0.
        -24    2    5    5    0    0  0.40806687586E+02  0.46015347691E+02  0.11469632752E+03  0.15299318855E+03  0.80430530414E+02 0.  0.
          5    1    3    3  501    0  0.49078240243E+02 -0.17152491792E+02 -0.31290945893E+02  0.60861276152E+02  0.47000000000E+01 0. -1.
        -11    1    4    4    0    0 -0.34334854595E+02  0.48589732341E+02  0.51867305464E+01  0.59722244623E+02  0.00000000000E+00 0.  1.
         12    1    4    4    0    0 -0.57851061530E+02 -0.26867045833E+02  0.10676110935E+02  0.64672736271E+02  0.00000000000E+00 0. -1.
         -5    1    5    5    0  502  0.23009882970E+01 -0.50585542406E+02 -0.11292446937E+02  0.52094155195E+02  0.47000000000E+01 0.  1.
         11    1    6    6    0    0 -0.21303239738E+02  0.75366002285E+00  0.42510955033E+02  0.47556044038E+02  0.00000000000E+00 0. -1.
        -12    1    6    6    0    0  0.62109927323E+02  0.45261687668E+02  0.72185372485E+02  0.10543714451E+03  0.00000000000E+00 0.  1.
</event>
<event>
12    1  0.8258923E-002  0.1965904E+03  0.7818608E-02  0.1152999E+00
         21   -1    0    0  501  502  0.00000000000E+00  0.00000000000E+00  0.22374519709E+03  0.22374519709E+03  0.00000000000E+00 0. -1.
         21   -1    0    0  502  503 -0.00000000000E+00 -0.00000000000E+00 -0.24291072802E+03  0.24291072802E+03  0.00000000000E+00 0. -1.
         -6    2    1    2    0  503 -0.90832321220E+02 -0.27639557242E+02 -0.13623047279E+03  0.23785033356E+03  0.17029264152E+03 0.  0.
        -24    2    3    3    0    0 -0.64665346052E+02 -0.25898698933E+02 -0.16658675524E+03  0.19746054449E+03  0.79919772417E+02 0.  0.
          6    2    1    2  501    0  0.90832321220E+02  0.27639557242E+02  0.11706494186E+03  0.22880559155E+03  0.17214337748E+03 0.  0.
         24    2    5    5    0    0  0.80042343442E+02  0.30669364041E+02  0.39457715567E+01  0.11503547227E+03  0.76617257414E+02 0.  0.
          5    1    5    5  501    0  0.10789977778E+02 -0.30298067990E+01  0.11311917031E+03  0.11377011928E+03  0.47000000000E+01 0. -1.
        -11    1    6    6    0    0 -0.12778710346E+02  0.67365890351E+01 -0.10819403557E+02  0.18048173405E+02  0.00000000000E+00 0.  1.
         12    1    6    6    0    0  0.92821053787E+02  0.23932775006E+02  0.14765175114E+02  0.96987298869E+02  0.00000000000E+00 0. -1.
         -5    1    3    3    0  503 -0.26166975168E+02 -0.17408583090E+01  0.30356282449E+02  0.40389789071E+02  0.47000000000E+01 0.  1.
         11    1    4    4    0    0 -0.50872732309E+02 -0.49654440043E+02 -0.81997014107E+02  0.10852238769E+03  0.00000000000E+00 0. -1.
        -12    1    4    4    0    0 -0.13792613743E+02  0.23755741109E+02 -0.84589741133E+02  0.88938156797E+02  0.00000000000E+00 0.  1.
</event>
<event>
12    1  0.8258923E-002  0.1766162E+03  0.7818608E-02  0.1172106E+00
         21   -1    0    0  503  502  0.00000000000E+00  0.00000000000E+00  0.23616078368E+03  0.23616078368E+03  0.00000000000E+00 0. -1.
         21   -1    0    0  501  503 -0.00000000000E+00 -0.00000000000E+00 -0.18381742685E+03  0.18381742685E+03  0.00000000000E+00 0. -1.
          6    2    1    2  501    0  0.17888400959E+02  0.48378549272E+01 -0.88536912526E+02  0.19405669043E+03  0.17168521920E+03 0.  0.
         24    2    3    3    0    0  0.41840651224E+01 -0.49340270266E+02 -0.10020995980E+03  0.13677293966E+03  0.78821521862E+02 0.  0.
         -6    2    1    2    0  502 -0.17888400959E+02 -0.48378549272E+01  0.14088026936E+03  0.22592152009E+03  0.17564134826E+03 0.  0.
        -24    2    5    5    0    0  0.30215270844E+02 -0.55022084690E+02  0.54132407685E+02  0.11465741239E+03  0.79218762036E+02 0.  0.
          5    1    3    3  501    0  0.13704335837E+02  0.54178125193E+02  0.11673047273E+02  0.57283750775E+02  0.47000000000E+01 0. -1.
        -11    1    4    4    0    0  0.31937604323E+02 -0.50391863808E+02 -0.44181431687E+02  0.74238463170E+02  0.00000000000E+00 0.  1.
         12    1    4    4    0    0 -0.27753539200E+02  0.10515935418E+01 -0.56028528113E+02  0.62534476488E+02  0.00000000000E+00 0. -1.
         -5    1    5    5    0  502 -0.48103671803E+02  0.50184229763E+02  0.86747861674E+02  0.11126410770E+03  0.47000000000E+01 0.  1.
         11    1    6    6    0    0 -0.19886240132E+02 -0.39260684716E+02  0.41821622240E+02  0.60711712196E+02  0.00000000000E+00 0. -1.
        -12    1    6    6    0    0  0.50101510976E+02 -0.15761399974E+02  0.12310785445E+02  0.53945700194E+02  0.00000000000E+00 0.  1.
</event>
<event>
12    1  0.8258923E-002  0.1739331E+03  0.7818608E-02  0.1173922E+00
         21   -1    0    0  503  502  0.00000000000E+00  0.00000000000E+00  0.64604679327E+02  0.64604679327E+02  0.00000000000E+00 0. -1.
         21   -1    0    0  501  503 -0.00000000000E+00 -0.00000000000E+00 -0.10640742304E+04  0.10640742304E+04  0.00000000000E+00 0. -1.
          6    2    1    2  501    0  0.21086316142E+02 -0.78054991494E+01 -0.92273744215E+03  0.93898728258E+03  0.17247368247E+03 0.  0.
         24    2    3    3    0    0 -0.14322451832E+02 -0.26735538672E+02 -0.22195527221E+03  0.23704008588E+03  0.77485081121E+02 0.  0.
         -6    2    1    2    0  502 -0.21086316142E+02  0.78054991494E+01 -0.76732108918E+02  0.18969162715E+03  0.17201609903E+03 0.  0.
        -24    2    5    5    0    0 -0.24223876978E+02 -0.54085583023E+02 -0.13249406826E+02  0.10085191865E+03  0.80520284452E+02 0.  0.
          5    1    3    3  501    0  0.35408767974E+02  0.18930039523E+02 -0.70078216994E+03  0.70194719670E+03  0.47000000000E+01 0. -1.
        -13    1    4    4    0    0 -0.93407970438E+01 -0.59279292250E+01  0.26841946355E+01  0.11384012261E+02  0.00000000000E+00 0.  1.
         14    1    4    4    0    0 -0.49816547880E+01 -0.20807609447E+02 -0.22463946685E+03  0.22565607362E+03  0.00000000000E+00 0. -1.
         -5    1    5    5    0  502  0.31375608353E+01  0.61891082172E+02 -0.63482702092E+02  0.88839708494E+02  0.47000000000E+01 0.  1.
         13    1    6    6    0    0 -0.18612100910E+02  0.19044476027E+02 -0.39168433097E+01  0.26915497932E+02  0.00000000000E+00 0. -1.
        -14    1    6    6    0    0 -0.56117760677E+01 -0.73130059050E+02 -0.93325635167E+01  0.73936420722E+02  0.00000000000E+00 0.  1.
</event>
<event>
12    1  0.8258923E-002  0.1763592E+03  0.7818608E-02  0.1171377E+00
         21   -1    0    0  503  502  0.00000000000E+00  0.00000000000E+00  0.10814194778E+03  0.10814194778E+03  0.00000000000E+00 0.  1.
         21   -1    0    0  501  503 -0.00000000000E+00 -0.00000000000E+00 -0.12762880345E+04  0.12762880345E+04  0.00000000000E+00 0.  1.
          6    2    1    2  501    0  0.35954632627E+02  0.23331428523E+02 -0.11933232234E+04  0.12062826681E+04  0.17105691646E+03 0.  0.
         24    2    3    3    0    0  0.26887966644E+02  0.60933385413E+02 -0.11042624379E+04  0.11090714285E+04  0.78791252676E+02 0.  0.
         -6    2    1    2    0  502 -0.35954632627E+02 -0.23331428523E+02  0.25177136671E+02  0.17814731419E+03  0.17107158203E+03 0.  0.
        -24    2    5    5    0    0 -0.78242272980E+02  0.15803896047E+02  0.46633776034E+02  0.11648455778E+03  0.70868376033E+02 0.  0.
          5    1    3    3  501    0  0.90666659825E+01 -0.37601956890E+02 -0.89060785525E+02  0.97211239640E+02  0.47000000000E+01 0. -1.
        -13    1    4    4    0    0 -0.11067028631E+01 -0.11608820594E+02 -0.45794720703E+03  0.45809566024E+03  0.00000000000E+00 0.  1.
         14    1    4    4    0    0  0.27994669507E+02  0.72542206006E+02 -0.64631523089E+03  0.65097576825E+03  0.00000000000E+00 0. -1.
         -5    1    5    5    0  502  0.42287640354E+02 -0.39135324570E+02 -0.21456639363E+02  0.61662756415E+02  0.47000000000E+01 0.  1.
         11    1    6    6    0    0 -0.65521667234E+02  0.34840841264E+02  0.12306912619E+02  0.75222557755E+02  0.00000000000E+00 0. -1.
        -12    1    6    6    0    0 -0.12720605747E+02 -0.19036945217E+02  0.34326863415E+02  0.41262000020E+02  0.00000000000E+00 0.  1.
</event>
<event>
12    1  0.8258923E-002  0.1971491E+03  0.7818608E-02  0.1152624E+00
         21   -1    0    0  501  502  0.00000000000E+00  0.00000000000E+00  0.17549779195E+03  0.17549779195E+03  0.00000000000E+00 0.  1.
         21   -1    0    0  502  503 -0.00000000000E+00 -0.00000000000E+00 -0.24667411313E+03  0.24667411313E+03  0.00000000000E+00 0.  1.
         -6    2    1    2    0  503  0.85768430947E+02 -0.42411595370E+02  0.34814378726E+02  0.20019943719E+03  0.17237403086E+03 0.  0.
        -24    2    3    3    0    0 -0.68431936552E+01  0.18601031526E+02  0.37277797522E+02  0.89169657018E+02  0.78541491400E+02 0.  0.
          6    2    1    2  501    0 -0.85768430947E+02  0.42411595370E+02 -0.10599069991E+03  0.22197246790E+03  0.16994934795E+03 0.  0.
         24    2    5    5    0    0 -0.89356352101E+02  0.14961135696E+02 -0.13527383487E+03  0.18140162975E+03  0.79994672534E+02 0.  0.
          5    1    5    5  501    0  0.35879211540E+01  0.27450459674E+02  0.29283134962E+02  0.40570838144E+02  0.47000000000E+01 0. -1.
        -13    1    6    6    0    0 -0.12246866802E+01 -0.17790401991E+02 -0.54852484350E+02  0.57678360759E+02  0.00000000000E+00 0.  1.
         14    1    6    6    0    0 -0.88131665421E+02  0.32751537687E+02 -0.80421350522E+02  0.12372326899E+03  0.00000000000E+00 0. -1.
         -5    1    3    3    0  503  0.92611624603E+02 -0.61012626896E+02 -0.24634187954E+01  0.11102978017E+03  0.47000000000E+01 0.  1.
         11    1    4    4    0    0 -0.26796947015E+02 -0.15081718286E+02 -0.54386406058E+01  0.31226805911E+02  0.00000000000E+00 0. -1.
        -12    1    4    4    0    0  0.19953753360E+02  0.33682749812E+02  0.42716438128E+02  0.57942851106E+02  0.00000000000E+00 0.  1.
</event>
<event>
12    1  0.8258923E-002  0.1768155E+03  0.7818608E-02  0.1171002E+00
         21   -1    0    0  501  502  0.00000000000E+00  0.00000000000E+00  0.13410866272E+04  0.13410866272E+04  0.00000000000E+00 0. -1.
         21   -1    0    0  502  503 -0.00000000000E+00 -0.00000000000E+00 -0.39402787275E+02  0.39402787275E+02  0.00000000000E+00 0. -1.
         -6    2    1    2    0  503 -0.89369808983E+01  0.41130961392E+02  0.20880652713E+03  0.27340110273E+03  0.17139536630E+03 0.  0.
        -24    2    3    3    0    0  0.13377641485E+02 -0.14653928113E+02  0.19455657542E+03  0.21147334326E+03  0.80467477704E+02 0.  0.
          6    2    1    2  501    0  0.89369808983E+01 -0.41130961392E+02  0.10928773128E+04  0.11070883117E+04  0.17173259322E+03 0.  0.
         24    2    5    5    0    0  0.15015245876E+02 -0.67610799915E+02  0.39287177385E+03  0.40653997530E+03  0.78293313576E+02 0.  0.
          5    1    5    5  501    0 -0.60782649776E+01  0.26479838523E+02  0.70000553892E+03  0.70054833643E+03  0.47000000000E+01 0. -1.
        -13    1    6    6    0    0  0.38453226371E+02 -0.68664066177E+01  0.13134759563E+03  0.13703280277E+03  0.00000000000E+00 0.  1.
         14    1    6    6    0    0 -0.23437980495E+02 -0.60744393297E+02  0.26152417823E+03  0.26950717253E+03  0.00000000000E+00 0. -1.
         -5    1    3    3    0  503 -0.22314622384E+02  0.55784889506E+02  0.14249951710E+02  0.61927759470E+02  0.47000000000E+01 0.  1.
         13    1    4    4    0    0 -0.19428935608E+02  0.13251298265E+02  0.14001775351E+03  0.14197905388E+03  0.00000000000E+00 0. -1.
        -14    1    4    4    0    0  0.32806577093E+02 -0.27905226378E+02  0.54538821915E+02  0.69494289374E+02  0.00000000000E+00 0.  1.
</event>
<event>
12    1  0.8258923E-002  0.2678675E+03  0.7818608E-02  0.1102739E+00
         21   -1    0    0  501  502  0.00000000000E+00  0.00000000000E+00  0.43684905458E+03  0.43684905458E+03  0.00000000000E+00 0. -1.
         21   -1    0    0  502  503 -0.00000000000E+00 -0.00000000000E+00 -0.16351171430E+03  0.16351171430E+03  0.00000000000E+00 0.  1.
         -6    2    1    2    0  503  0.67062988893E+02  0.19474003053E+03  0.12553882017E+03  0.29582591940E+03  0.17126545257E+03 0.  0.
        -24    2    3    3    0    0 -0.31116508381E+01  0.17773013952E+03  0.92912508667E+02  0.21645096959E+03  0.81367088600E+02 0.  0.
          6    2    1    2  501    0 -0.67062988893E+02 -0.19474003053E+03  0.14779852010E+03  0.30453484948E+03  0.16874817935E+03 0.  0.
         24    2    5    5    0    0 -0.21854130175E+01 -0.11894472884E+03  0.14468933633E+03  0.20460595159E+03  0.82316261029E+02 0.  0.
          5    1    5    5  501    0 -0.64877575875E+02 -0.75795301697E+02  0.31091837762E+01  0.99928897895E+02  0.47000000000E+01 0. -1.
        -13    1    6    6    0    0 -0.16848304764E+02  0.65594575432E+01  0.14465825014E+02  0.23154955193E+02  0.00000000000E+00 0.  1.
         14    1    6    6    0    0  0.14662891747E+02 -0.12550418638E+03  0.13022351131E+03  0.18145099639E+03  0.00000000000E+00 0. -1.
         -5    1    3    3    0  503  0.70174639731E+02  0.17009891018E+02  0.32626311507E+02  0.79374949804E+02  0.47000000000E+01 0.  1.
         11    1    4    4    0    0 -0.11732914303E+02  0.17184244780E+02  0.43551816679E+02  0.48267176039E+02  0.00000000000E+00 0. -1.
        -12    1    4    4    0    0  0.86212634653E+01  0.16054589474E+03  0.49360691988E+02  0.16818379355E+03  0.00000000000E+00 0.  1.
</event>
<event>
12    1  0.8258923E-002  0.2193439E+03  0.7818608E-02  0.1134373E+00
         21   -1    0    0  501  502  0.00000000000E+00  0.00000000000E+00  0.11505890485E+03  0.11505890485E+03  0.00000000000E+00 0. -1.
         21   -1    0    0  502  503 -0.00000000000E+00 -0.00000000000E+00 -0.42363551605E+03  0.42363551605E+03  0.00000000000E+00 0.  1.
         -6    2    1    2    0  503  0.76554195787E+02  0.11035166699E+03 -0.18494261171E+03  0.28690658383E+03  0.17341736625E+03 0.  0.
        -24    2    3    3    0    0  0.11414153524E+02  0.52244077014E+02 -0.17314422880E+02  0.97853636722E+02  0.80098804587E+02 0.  0.
          6    2    1    2  501    0 -0.76554195787E+02 -0.11035166699E+03 -0.12363399949E+03  0.25178783707E+03  0.17341774351E+03 0.  0.
         24    2    5    5    0    0 -0.58673276633E+02 -0.21322132114E+02 -0.12468871131E+03  0.16085276260E+03  0.80181979275E+02 0.  0.
          5    1    5    5  501    0 -0.17880919154E+02 -0.89029534876E+02  0.10547118198E+01  0.90935074461E+02  0.47000000000E+01 0. -1.
        -13    1    6    6    0    0 -0.55641407033E+01 -0.35422606307E+02 -0.16419265870E+02  0.39437456701E+02  0.00000000000E+00 0.  1.
         14    1    6    6    0    0 -0.53109135929E+02  0.14100474192E+02 -0.10826944544E+03  0.12141530590E+03  0.00000000000E+00 0. -1.
         -5    1    3    3    0  503  0.65140042263E+02  0.58107589977E+02 -0.16762818883E+03  0.18905294711E+03  0.47000000000E+01 0.  1.
         13    1    4    4    0    0  0.14493287181E+02 -0.19601771664E+02 -0.35209166698E+01  0.24630909034E+02  0.00000000000E+00 0. -1.
        -14    1    4    4    0    0 -0.30791336569E+01  0.71845848678E+02 -0.13793506211E+02  0.73222727687E+02  0.00000000000E+00 0.  1.
</event>
<event>
12    1  0.8258923E-002  0.3267210E+03  0.7818608E-02  0.1073251E+00
         21   -1    0    0  503  502  0.00000000000E+00  0.00000000000E+00  0.73343831662E+02  0.73343831662E+02  0.00000000000E+00 0.  1.
         21   -1    0    0  501  503 -0.00000000000E+00 -0.00000000000E+00 -0.14320369001E+04  0.14320369001E+04  0.00000000000E+00 0.  1.
          6    2    1    2  501    0  0.86040171393E+02 -0.25456416206E+03 -0.71536677015E+03  0.78644532083E+03  0.18585156206E+03 0.  0.
         24    2    3    3    0    0  0.40359977116E+02 -0.25856789441E+03 -0.54185974361E+03  0.60691958930E+03  0.79076686560E+02 0.  0.
         -6    2    1    2    0  502 -0.86040171393E+02  0.25456416206E+03 -0.64332629831E+03  0.71893541096E+03  0.17548098282E+03 0.  0.
        -24    2    5    5    0    0  0.13616572232E+02  0.67231016427E+02 -0.26467573003E+03  0.28485763352E+03  0.79907500903E+02 0.  0.
          5    1    3    3  501    0  0.45680194277E+02  0.40037323561E+01 -0.17350702654E+03  0.17952573153E+03  0.47000000000E+01 0. -1.
        -11    1    4    4    0    0  0.27780994836E+02 -0.24583203364E+03 -0.53145100518E+03  0.58621271168E+03  0.00000000000E+00 0.  1.
         12    1    4    4    0    0  0.12578982280E+02 -0.12735860777E+02 -0.10408738437E+02  0.20706877621E+02  0.00000000000E+00 0. -1.
         -5    1    5    5    0  502 -0.99656743624E+02  0.18733314563E+03 -0.37865056828E+03  0.43407777743E+03  0.47000000000E+01 0.  1.
         13    1    6    6    0    0  0.16892317340E+02 -0.99522647197E+01 -0.11250213778E+03  0.11419776252E+03  0.00000000000E+00 0. -1.
        -14    1    6    6    0    0 -0.32757451087E+01  0.77183281147E+02 -0.15217359225E+03  0.17065987101E+03  0.00000000000E+00 0.  1.
</event>
<event>
12    1  0.8258923E-002  0.2476876E+03  0.7818608E-02  0.1115480E+00
         21   -1    0    0  503  502  0.00000000000E+00  0.00000000000E+00  0.13162274060E+03  0.13162274060E+03  0.00000000000E+00 0.  1.
         21   -1    0    0  501  503 -0.00000000000E+00 -0.00000000000E+00 -0.47171491182E+03  0.47171491182E+03  0.00000000000E+00 0.  1.
          6    2    1    2  501    0 -0.12227294112E+03  0.12108943521E+03 -0.22017098069E+03  0.32814637866E+03  0.17202168945E+03 0.  0.
         24    2    3    3    0    0 -0.88331772968E+02  0.15064660824E+03 -0.19933756538E+03  0.27832920725E+03  0.85057509648E+02 0.  0.
         -6    2    1    2    0  502  0.12227294112E+03 -0.12108943521E+03 -0.11992119053E+03  0.27519127377E+03  0.17814550730E+03 0.  0.
        -24    2    5    5    0    0  0.54941871361E+02 -0.25678281310E+01 -0.10508013999E+03  0.13799363866E+03  0.70535136777E+02 0.  0.
          5    1    3    3  501    0 -0.33941168150E+02 -0.29557173036E+02 -0.20833415306E+02  0.49817171402E+02  0.47000000000E+01 0. -1.
        -11    1    4    4    0    0 -0.48408880095E+02  0.10879614660E+03 -0.73763378522E+02  0.14007518409E+03  0.00000000000E+00 0.  1.
         12    1    4    4    0    0 -0.39922892873E+02  0.41850461641E+02 -0.12557418686E+03  0.13825402316E+03  0.00000000000E+00 0. -1.
         -5    1    5    5    0  502  0.67331069757E+02 -0.11852160708E+03 -0.14841050546E+02  0.13719763511E+03  0.47000000000E+01 0.  1.
         13    1    6    6    0    0  0.69069381847E+02 -0.14607921648E+02 -0.87489730026E+02  0.11242074428E+03  0.00000000000E+00 0. -1.
        -14    1    6    6    0    0 -0.14127510486E+02  0.12040093517E+02 -0.17590409963E+02  0.25572894382E+02  0.00000000000E+00 0.  1.
</event>
<event>
12    1  0.8258923E-002  0.2873967E+03  0.7818608E-02  0.1092211E+00
         21   -1    0    0  503  502  0.00000000000E+00  0.00000000000E+00  0.74618971192E+03  0.74618971192E+03  0.00000000000E+00 0.  1.
         21   -1    0    0  501  503 -0.00000000000E+00 -0.00000000000E+00 -0.16234925932E+03  0.16234925932E+03  0.00000000000E+00 0.  1.
          6    2    1    2  501    0 -0.99443816863E+02 -0.20228269710E+03  0.33438012360E+02  0.28933534398E+03  0.17829604131E+03 0.  0.
         24    2    3    3    0    0 -0.46048392524E+02 -0.13076309966E+03 -0.49579336866E+02  0.16735135146E+03  0.79554519078E+02 0.  0.
         -6    2    1    2    0  502  0.99443816863E+02  0.20228269710E+03  0.55040244023E+03  0.61920362726E+03  0.17222927608E+03 0.  0.
        -24    2    5    5    0    0  0.13656128645E+02  0.31542130388E+02  0.23149627102E+03  0.24740381105E+03  0.80229211563E+02 0.  0.
          5    1    3    3  501    0 -0.53395424338E+02 -0.71519597443E+02  0.83017349226E+02  0.12198399252E+03  0.47000000000E+01 0. -1.
        -13    1    4    4    0    0 -0.37288117198E+02 -0.11577974721E+02 -0.21569984925E+02  0.44606248805E+02  0.00000000000E+00 0.  1.
         14    1    4    4    0    0 -0.87602753260E+01 -0.11918512494E+03 -0.28009351941E+02  0.12274510266E+03  0.00000000000E+00 0. -1.
         -5    1    5    5    0  502  0.85787688218E+02  0.17074056671E+03  0.31890616921E+03  0.37179981621E+03  0.47000000000E+01 0.  1.
         13    1    6    6    0    0 -0.32498779560E+02  0.18272746609E+02  0.75866647547E+02  0.84532905732E+02  0.00000000000E+00 0. -1.
        -14    1    6    6    0    0  0.46154908205E+02  0.13269383779E+02  0.15562962347E+03  0.16287090532E+03  0.00000000000E+00 0.  1.
</event>
<event>
12    1  0.8258923E-002  0.2420893E+03  0.7818608E-02  0.1118555E+00
         21   -1    0    0  501  502  0.00000000000E+00  0.00000000000E+00  0.17521764772E+03  0.17521764772E+03  0.00000000000E+00 0.  1.
         21   -1    0    0  502  503 -0.00000000000E+00 -0.00000000000E+00 -0.55278630866E+03  0.55278630866E+03  0.00000000000E+00 0. -1.
         -6    2    1    2    0  503  0.34455985998E+02 -0.16559682717E+03 -0.41838241699E+03  0.48337465256E+03  0.17319839419E+03 0.  0.
        -24    2    3    3    0    0  0.76694847536E+02 -0.82917322338E+02 -0.31590856543E+03  0.34501641393E+03  0.80502932785E+02 0.  0.
          6    2    1    2  501    0 -0.34455985998E+02  0.16559682717E+03  0.40813756047E+02  0.24462930382E+03  0.17195409115E+03 0.  0.
         24    2    5    5    0    0  0.40817401244E+01  0.16030282053E+02  0.40862765985E+02  0.90106165891E+02  0.78585780791E+02 0.  0.
          5    1    5    5  501    0 -0.38537726122E+02  0.14956654512E+03 -0.49009937683E-01  0.15452313793E+03  0.47000000000E+01 0. -1.
        -11    1    6    6    0    0 -0.24109842865E+02  0.36862942897E+02  0.30417442802E+02  0.53529262172E+02  0.00000000000E+00 0.  1.
         12    1    6    6    0    0  0.28191582990E+02 -0.20832660844E+02  0.10445323183E+02  0.36576903720E+02  0.00000000000E+00 0. -1.
         -5    1    3    3    0  503 -0.42238861538E+02 -0.82679504832E+02 -0.10247385156E+03  0.13835823863E+03  0.47000000000E+01 0.  1.
         13    1    4    4    0    0  0.32961734884E+02 -0.43621626768E+01 -0.17308867131E+03  0.17625320583E+03  0.00000000000E+00 0. -1.
        -14    1    4    4    0    0  0.43733112651E+02 -0.78555159661E+02 -0.14281989412E+03  0.16876320810E+03  0.00000000000E+00 0.  1.
</event>
<event>
12    1  0.8258923E-002  0.1960626E+03  0.7818608E-02  0.1153310E+00
         21   -1    0    0  501  502  0.00000000000E+00  0.00000000000E+00  0.72661283370E+03  0.72661283370E+03  0.00000000000E+00 0. -1.
         21   -1    0    0  502  503 -0.00000000000E+00 -0.00000000000E+00 -0.90770623996E+02  0.90770623996E+02  0.00000000000E+00 0. -1.
         -6    2    1    2    0  503  0.92443939369E+02  0.10782428329E+02  0.58322437508E+03  0.61529767156E+03  0.17256422066E+03 0.  0.
        -24    2    3    3    0    0  0.10975263035E+03 -0.38529089132E+02  0.37242095097E+03  0.39806187766E+03  0.78903505244E+02 0.  0.
          6    2    1    2  501    0 -0.92443939369E+02 -0.10782428329E+02  0.52617834624E+02  0.20208578614E+03  0.17148727577E+03 0.  0.
         24    2    5    5    0    0 -0.12876286594E+03 -0.29438894344E+02  0.46073416700E+02  0.16046791069E+03  0.78617214966E+02 0.  0.
          5    1    5    5  501    0  0.36318926567E+02  0.18656466015E+02  0.65444179239E+01  0.41617875452E+02  0.47000000000E+01 0. -1.
        -11    1    6    6    0    0 -0.10653903229E+03 -0.25241451855E+02  0.68066048179E+02  0.12892122869E+03  0.00000000000E+00 0.  1.
         12    1    6    6    0    0 -0.22223833649E+02 -0.41974424882E+01 -0.21992631479E+02  0.31546681994E+02  0.00000000000E+00 0. -1.
         -5    1    3    3    0  503 -0.17308690983E+02  0.49311517460E+02  0.21080342411E+03  0.21723579390E+03  0.47000000000E+01 0.  1.
         11    1    4    4    0    0 -0.21407759272E+01 -0.26447666293E+01  0.11543531848E+03  0.11548545564E+03  0.00000000000E+00 0. -1.
        -12    1    4    4    0    0  0.11189340628E+03 -0.35884322502E+02  0.25698563250E+03  0.28257642202E+03  0.00000000000E+00 0.  1.
</event>
<event>
12    1  0.8258923E-002  0.2140423E+03  0.7818608E-02  0.1139767E+00
         21   -1    0    0  501  502  0.00000000000E+00  0.00000000000E+00  0.11973136313E+03  0.11973136313E+03  0.00000000000E+00 0.  1.
         21   -1    0    0  502  503 -0.00000000000E+00 -0.00000000000E+00 -0.74885322022E+03  0.74885322022E+03  0.00000000000E+00 0.  1.
         -6    2    1    2    0  503  0.83177756184E+02 -0.76076401934E+02 -0.62073870114E+03  0.65437819759E+03  0.17374732324E+03 0.  0.
        -24    2    3    3    0    0  0.62762969164E+01 -0.29128363742E+02 -0.12906982519E+03  0.15449988610E+03  0.79519441341E+02 0.  0.
          6    2    1    2  501    0 -0.83177756184E+02  0.76076401934E+02 -0.83831559544E+01  0.21420638577E+03  0.18195587472E+03 0.  0.
         24    2    5    5    0    0 -0.66790553455E+02 -0.12034155477E+02 -0.52272163969E+02  0.11430470528E+03  0.75679505774E+02 0.  0.
          5    1    5    5  501    0 -0.16387202730E+02  0.88110557411E+02  0.43889008015E+02  0.99901680492E+02  0.47000000000E+01 0. -1.
        -13    1    6    6    0    0 -0.15633759324E+02  0.14362682586E+02  0.14827856791E+02  0.25895297231E+02  0.00000000000E+00 0.  1.
         14    1    6    6    0    0 -0.51156794130E+02 -0.26396838063E+02 -0.67100020760E+02  0.88409408049E+02  0.00000000000E+00 0. -1.
         -5    1    3    3    0  503  0.76901459268E+02 -0.46948038192E+02 -0.49166887594E+03  0.49987831149E+03  0.47000000000E+01 0.  1.
         11    1    4    4    0    0 -0.56061377489E+01 -0.27742672759E+02 -0.36811411128E+01  0.28541819707E+02  0.00000000000E+00 0. -1.
        -12    1    4    4    0    0  0.11882434665E+02 -0.13856909827E+01 -0.12538868408E+03  0.12595806639E+03  0.00000000000E+00 0.  1.
</event>
<event>
12    1  0.8258923E-002  0.2351245E+03  0.7818608E-02  0.1123567E+00
         21   -1    0    0  501  502  0.00000000000E+00  0.00000000000E+00  0.14312126005E+03  0.14312126005E+03  0.00000000000E+00 0. -1.
         21   -1    0    0  502  503 -0.00000000000E+00 -0.00000000000E+00 -0.44939774650E+03  0.44939774650E+03  0.00000000000E+00 0. -1.
         -6    2    1    2    0  503  0.87538720839E+02 -0.13284234608E+03 -0.37353391652E+02  0.23530312836E+03  0.16929905430E+03 0.  0.
        -24    2    3    3    0    0 -0.17606022749E+02 -0.71622845352E+02 -0.52601002219E+01  0.10938524349E+03  0.80608056831E+02 0.  0.
          6    2    1    2  501    0 -0.87538720839E+02  0.13284234608E+03 -0.26892309480E+03  0.35721587820E+03  0.17312838059E+03 0.  0.
         24    2    5    5    0    0  0.62575849146E+01  0.83889923908E+02 -0.79981564714E+02  0.14061698993E+03  0.79368825497E+02 0.  0.
          5    1    5    5  501    0 -0.93796305754E+02  0.48952422175E+02 -0.18894153008E+03  0.21659888827E+03  0.47000000000E+01 0. -1.
        -13    1    6    6    0    0  0.12798179997E+02  0.98643300242E+02 -0.70179696187E+02  0.12173530240E+03  0.00000000000E+00 0.  1.
         14    1    6    6    0    0 -0.65405950828E+01 -0.14753376335E+02 -0.98018685268E+01  0.18881687529E+02  0.00000000000E+00 0. -1.
         -5    1    3    3    0  503  0.10514474359E+03 -0.61219500730E+02 -0.32093291430E+02  0.12591788486E+03  0.47000000000E+01 0.  1.
         13    1    4    4    0    0  0.10288976278E+02 -0.23285991993E+02  0.33031455207E+02  0.41703446969E+02  0.00000000000E+00 0. -1.
        -14    1    4    4    0    0 -0.27894999028E+02 -0.48336853359E+02 -0.38291555429E+02  0.67681796523E+02  0.00000000000E+00 0.  1.
</event>
<event>
12    1  0.8258923E-002  0.2614185E+03  0.7818608E-02  0.1106595E+00
         21   -1    0    0  503  502  0.00000000000E+00  0.00000000000E+00  0.78212671570E+03  0.78212671570E+03  0.00000000000E+00 0. -1.
         21   -1    0    0  501  503 -0.00000000000E+00 -0.00000000000E+00 -0.13784441063E+03  0.13784441063E+03  0.00000000000E+00 0.  1.
          6    2    1    2  501    0  0.18896875225E+03  0.53708155749E+02  0.41186587687E+02  0.26265532584E+03  0.16940404324E+03 0.  0.
         24    2    3    3    0    0  0.19825022916E+03  0.82452753469E+02  0.33437335763E+02  0.23111901951E+03  0.78716807853E+02 0.  0.
         -6    2    1    2    0  502 -0.18896875225E+03 -0.53708155749E+02  0.60309571739E+03  0.65731580049E+03  0.17246988700E+03 0.  0.
        -24    2    5    5    0    0 -0.21983841684E+02 -0.37757364095E+02  0.16643615698E+03  0.18952092043E+03  0.79424663002E+02 0.  0.
          5    1    3    3  501    0 -0.92814769128E+01 -0.28744597720E+02  0.77492519234E+01  0.31536306333E+02  0.47000000000E+01 0. -1.
        -13    1    4    4    0    0  0.22717200654E+02 -0.51972637006E+01 -0.16632858523E+02  0.28631010079E+02  0.00000000000E+00 0.  1.
         14    1    4    4    0    0  0.17553302851E+03  0.87650017170E+02  0.50070194286E+02  0.20248800943E+03  0.00000000000E+00 0. -1.
         -5    1    5    5    0  502 -0.16698491057E+03 -0.15950791654E+02  0.43665956041E+03  0.46779488006E+03  0.47000000000E+01 0.  1.
         11    1    6    6    0    0 -0.21420616935E+02 -0.61718956905E+02  0.13512242700E+03  0.15008711720E+03  0.00000000000E+00 0. -1.
        -12    1    6    6    0    0 -0.56322474957E+00  0.23961592809E+02  0.31313729977E+02  0.39433803230E+02  0.00000000000E+00 0.  1.
</event>
<event>
12    1  0.8258923E-002  0.1802542E+03  0.7818608E-02  0.1167718E+00
         21   -1    0    0  501  502  0.00000000000E+00  0.00000000000E+00  0.20243493541E+04  0.20243493541E+04  0.00000000000E+00 0.  1.
         21   -1    0    0  502  503 -0.00000000000E+00 -0.00000000000E+00 -0.19730340531E+02  0.19730340531E+02  0.00000000000E+00 0.  1.
         -6    2    1    2    0  503 -0.34683809860E+02  0.42424851349E+02  0.55889588525E+03  0.58724456715E+03  0.17172284767E+03 0.  0.
        -24    2    3    3    0    0  0.40504237201E+02  0.55854256081E+00  0.26463716148E+03  0.28062376428E+03  0.84118753219E+02 0.  0.
          6    2    1    2  501    0  0.34683809860E+02 -0.42424851349E+02  0.14457231283E+04  0.14568351275E+04  0.17102745465E+03 0.  0.
         24    2    5    5    0    0  0.63671786541E+02  0.17081469920E+02  0.64976612845E+03  0.65811681625E+03  0.81091609526E+02 0.  0.
          5    1    5    5  501    0 -0.28987976681E+02 -0.59506321268E+02  0.79595699986E+03  0.79871831123E+03  0.47000000000E+01 0. -1.
        -11    1    6    6    0    0  0.35867815260E+01  0.36923118210E+02  0.15800676239E+03  0.16230316886E+03  0.00000000000E+00 0.  1.
         12    1    6    6    0    0  0.60085005015E+02 -0.19841648290E+02  0.49175936606E+03  0.49581364739E+03  0.00000000000E+00 0. -1.
         -5    1    3    3    0  503 -0.75188047061E+02  0.41866308788E+02  0.29425872378E+03  0.30662080287E+03  0.47000000000E+01 0.  1.
         11    1    4    4    0    0  0.65766648470E+01  0.34809477990E+02  0.54311626632E+02  0.64843697195E+02  0.00000000000E+00 0. -1.
        -12    1    4    4    0    0  0.33927572354E+02 -0.34250935429E+02  0.21032553484E+03  0.21578006708E+03  0.00000000000E+00 0.  1.
</event>
<event>
12    1  0.8258923E-002  0.1950647E+03  0.7818608E-02  0.1154087E+00
         21   -1    0    0  503  502  0.00000000000E+00  0.00000000000E+00  0.65378831945E+02  0.65378831945E+02  0.00000000000E+00 0. -1.
         21   -1    0    0  501  503 -0.00000000000E+00 -0.00000000000E+00 -0.76139541619E+03  0.76139541619E+03  0.00000000000E+00 0. -1.
          6    2    1    2  501    0 -0.89101255888E+02 -0.19850308297E+02 -0.54992009078E+03  0.58349151384E+03  0.17238669306E+03 0.  0.
         24    2    3    3    0    0 -0.12189639640E+03 -0.44234656515E+02 -0.46393548894E+03  0.48817331289E+03  0.79130330650E+02 0.  0.
         -6    2    1    2    0  502  0.89101255888E+02  0.19850308297E+02 -0.14609649347E+03  0.24328273430E+03  0.17178252199E+03 0.  0.
        -24    2    5    5    0    0  0.10350073045E+03 -0.36733557958E+02 -0.10990288582E+03  0.17442675400E+03  0.79273530995E+02 0.  0.
          5    1    3    3  501    0  0.32795140510E+02  0.24384348218E+02 -0.85984601833E+02  0.95318200946E+02  0.47000000000E+01 0. -1.
        -11    1    4    4    0    0 -0.65823535357E+02  0.14725499809E+02 -0.16234168083E+03  0.17579647177E+03  0.00000000000E+00 0.  1.
         12    1    4    4    0    0 -0.56072861042E+02 -0.58960156324E+02 -0.30159380811E+03  0.31237684112E+03  0.00000000000E+00 0. -1.
         -5    1    5    5    0  502 -0.14399474558E+02  0.56583866255E+02 -0.36193607654E+02  0.68855980299E+02  0.47000000000E+01 0.  1.
         13    1    6    6    0    0  0.15895279891E+02 -0.27591726578E+02 -0.71631686219E+02  0.78390444373E+02  0.00000000000E+00 0. -1.
        -14    1    6    6    0    0  0.87605450556E+02 -0.91418313799E+01 -0.38271199600E+02  0.96036309628E+02  0.00000000000E+00 0.  1.
</event>
<event>
12    1  0.8258923E-002  0.1870822E+03  0.7818608E-02  0.1161304E+00
         21   -1    0    0  503  502  0.00000000000E+00  0.00000000000E+00  0.59095749435E+02  0.59095749435E+02  0.00000000000E+00 0.  1.
         21   -1    0    0  501  503 -0.00000000000E+00 -0.00000000000E+00 -0.59560566286E+03  0.59560566286E+03  0.00000000000E+00 0.  1.
          6    2    1    2  501    0 -0.70950501534E+02 -0.14666661007E+02 -0.30136602338E+03  0.35471287150E+03  0.17248378633E+03 0.  0.
         24    2    3    3    0    0  0.27826755679E+02 -0.85179335897E+01 -0.10808882205E+03  0.13751959365E+03  0.79884677252E+02 0.  0.
         -6    2    1    2    0  502  0.70950501534E+02  0.14666661007E+02 -0.23514389005E+03  0.29998854080E+03  0.17161407568E+03 0.  0.
        -24    2    5    5    0    0  0.79007528069E+02 -0.75938897204E+01 -0.24842776631E+03  0.27243860135E+03  0.78781849324E+02 0.  0.
          5    1    3    3  501    0 -0.98777257213E+02 -0.61487274170E+01 -0.19327720133E+03  0.21719327785E+03  0.47000000000E+01 0. -1.
        -11    1    4    4    0    0 -0.25610679996E+02 -0.18948797151E+01 -0.14355381645E+02  0.29420647192E+02  0.00000000000E+00 0.  1.
         12    1    4    4    0    0  0.53437435675E+02 -0.66230538746E+01 -0.93733440406E+02  0.10809894645E+03  0.00000000000E+00 0. -1.
         -5    1    5    5    0  502 -0.80570265348E+01  0.22260550727E+02  0.13283876255E+02  0.27549939449E+02  0.47000000000E+01 0.  1.
         11    1    6    6    0    0 -0.11435818269E+02  0.13663346572E+02 -0.55801944202E+02  0.58577486766E+02  0.00000000000E+00 0. -1.
        -12    1    6    6    0    0  0.90443346338E+02 -0.21257236292E+02 -0.19262582210E+03  0.21386111459E+03  0.00000000000E+00 0.  1.
</event>
<event>
12    1  0.8258923E-002  0.1796761E+03  0.7818608E-02  0.1168453E+00
         21   -1    0    0  501  502  0.00000000000E+00  0.00000000000E+00  0.77476808255E+02  0.77476808255E+02  0.00000000000E+00 0. -1.
         21   -1    0    0  502  503 -0.00000000000E+00 -0.00000000000E+00 -0.60405988984E+03  0.60405988984E+03  0.00000000000E+00 0. -1.
         -6    2    1    2    0  503  0.39692306870E+02  0.25117805197E+02 -0.45399577799E+03  0.48775226749E+03  0.17199919957E+03 0.  0.
        -24    2    3    3    0    0  0.20303441647E+01 -0.31382329603E+02 -0.12248281879E+03  0.14932410557E+03  0.79414574838E+02 0.  0.
          6    2    1    2  501    0 -0.39692306870E+02 -0.25117805197E+02 -0.72587303601E+02  0.19378443061E+03  0.17342752244E+03 0.  0.
         24    2    5    5    0    0 -0.39022481253E+02 -0.55068463185E+02 -0.10579011794E+03  0.14881769334E+03  0.79999169476E+02 0.  0.
          5    1    5    5  501    0 -0.66982561608E+00  0.29950657988E+02  0.33202814338E+02  0.44966737265E+02  0.47000000000E+01 0. -1.
        -13    1    6    6    0    0  0.17980027813E+02 -0.18014231210E+02 -0.30703641049E+01  0.25636323098E+02  0.00000000000E+00 0.  1.
         14    1    6    6    0    0 -0.57002509066E+02 -0.37054231976E+02 -0.10271975383E+03  0.12318137024E+03  0.00000000000E+00 0. -1.
         -5    1    3    3    0  503  0.37661962705E+02  0.56500134801E+02 -0.33151295920E+03  0.33842816193E+03  0.47000000000E+01 0.  1.
         11    1    4    4    0    0 -0.97092903241E+01 -0.28213495722E+02 -0.13107939971E+03  0.13443243912E+03  0.00000000000E+00 0. -1.
        -12    1    4    4    0    0  0.11739634489E+02 -0.31688338813E+01  0.85965809208E+01  0.14891666449E+02  0.00000000000E+00 0.  1.
</event>
<event>
12    1  0.8258923E-002  0.1887856E+03  0.7818608E-02  0.1160084E+00
         21   -1    0    0  503  502  0.00000000000E+00  0.00000000000E+00  0.62534497244E+03  0.62534497244E+03  0.00000000000E+00 0. -1.
         21   -1    0    0  501  503 -0.00000000000E+00 -0.00000000000E+00 -0.56578363837E+02  0.56578363837E+02  0.00000000000E+00 0. -1.
          6    2    1    2  501    0  0.22577449537E+02 -0.70177929149E+02  0.30978765861E+03  0.36277873639E+03  0.17379682156E+03 0.  0.
         24    2    3    3    0    0  0.99074756952E+01 -0.90305204198E+02  0.31528691583E+03  0.33791978894E+03  0.80813095982E+02 0.  0.
         -6    2    1    2    0  502 -0.22577449537E+02  0.70177929149E+02  0.25897895000E+03  0.31914459989E+03  0.17131402783E+03 0.  0.
        -24    2    5    5    0    0 -0.42932312331E+02  0.83807577558E+02  0.10087161391E+03  0.15908177635E+03  0.79151977711E+02 0.  0.
          5    1    3    3  501    0  0.12669973842E+02  0.20127275049E+02 -0.54992572279E+01  0.24858947446E+02  0.47000000000E+01 0. -1.
        -13    1    4    4    0    0  0.23223912896E+02  0.29659332006E+01  0.34064752295E+02  0.41334661470E+02  0.00000000000E+00 0.  1.
         14    1    4    4    0    0 -0.13316437201E+02 -0.93271137399E+02  0.28122216354E+03  0.29658512747E+03  0.00000000000E+00 0. -1.
         -5    1    5    5    0  502  0.20354862794E+02 -0.13629648409E+02  0.15810733609E+03  0.16006282354E+03  0.47000000000E+01 0.  1.
         13    1    6    6    0    0 -0.45563537685E+02  0.14110353623E+02  0.65078666395E+02  0.80686869226E+02  0.00000000000E+00 0. -1.
        -14    1    6    6    0    0  0.26312253540E+01  0.69697223935E+02  0.35792947514E+02  0.78394907123E+02  0.00000000000E+00 0.  1.
</event>
<event>
12    1  0.8258923E-002  0.2316526E+03  0.7818608E-02  0.1125493E+00
         21   -1    0    0  503  502  0.00000000000E+00  0.00000000000E+00  0.13624051938E+03  0.13624051938E+03  0.00000000000E+00 0.  1.
         21   -1    0    0  501  503 -0.00000000000E+00 -0.00000000000E+00 -0.43602667922E+03  0.43602667922E+03  0.00000000000E+00 0. -1.
          6    2    1    2  501    0 -0.71697857622E+02 -0.13789141458E+03 -0.23894058976E+03  0.33275705674E+03  0.17169749088E+03 0.  0.
         24    2    3    3    0    0 -0.54669373349E+02 -0.10552256872E+03 -0.25447124279E+03  0.29274452567E+03  0.82583236889E+02 0.  0.
         -6    2    1    2    0  502  0.71697857622E+02  0.13789141458E+03 -0.60845570073E+02  0.23951014186E+03  0.17177979990E+03 0.  0.
        -24    2    5    5    0    0  0.75774716847E+02  0.16806351643E+03 -0.45368122352E+02  0.20503380360E+03  0.77417316062E+02 0.  0.
          5    1    3    3  501    0 -0.17028484274E+02 -0.32368845863E+02  0.15530653026E+02  0.40012531069E+02  0.47000000000E+01 0. -1.
        -13    1    4    4    0    0 -0.22701250879E+02 -0.62805271034E+02 -0.55776004172E+02  0.87010410311E+02  0.00000000000E+00 0.  1.
         14    1    4    4    0    0 -0.31968122470E+02 -0.42717297682E+02 -0.19869523861E+03  0.20573411536E+03  0.00000000000E+00 0. -1.
         -5    1    5    5    0  502 -0.40768592249E+01 -0.30172101852E+02 -0.15477447721E+02  0.34476338252E+02  0.47000000000E+01 0.  1.
         11    1    6    6    0    0  0.16054651321E+02  0.24193035651E+02 -0.39664954836E+02  0.49156519865E+02  0.00000000000E+00 0. -1.
        -12    1    6    6    0    0  0.59720065527E+02  0.14387048078E+03 -0.57031675158E+01  0.15587728374E+03  0.00000000000E+00 0.  1.
</event>
<event>
12    1  0.8258923E-002  0.2136249E+03  0.7818608E-02  0.1138842E+00
         21   -1    0    0  501  502  0.00000000000E+00  0.00000000000E+00  0.20377963279E+03  0.20377963279E+03  0.00000000000E+00 0.  1.
         21   -1    0    0  502  503 -0.00000000000E+00 -0.00000000000E+00 -0.24898766998E+03  0.24898766998E+03  0.00000000000E+00 0.  1.
         -6    2    1    2    0  503  0.84245261902E+02 -0.93894372691E+02 -0.95251134162E+02  0.23335919297E+03  0.17166920810E+03 0.  0.
        -24    2    3    3    0    0  0.10070084200E+03 -0.69276429011E+02 -0.12712473320E+02  0.14554376266E+03  0.77983951382E+02 0.  0.
          6    2    1    2  501    0 -0.84245261902E+02  0.93894372691E+02  0.50043096974E+02  0.21940810981E+03  0.17240124628E+03 0.  0.
         24    2    5    5    0    0  0.10319685082E+02  0.45632419053E+02 -0.15428047024E+02  0.94587013583E+02  0.80745680595E+02 0.  0.
          5    1    5    5  501    0 -0.94564946984E+02  0.48261953637E+02  0.65471143998E+02  0.12482109623E+03  0.47000000000E+01 0. -1.
        -13    1    6    6    0    0  0.16380476462E+02  0.65491186052E+02 -0.24649891913E+02  0.71868161455E+02  0.00000000000E+00 0.  1.
         14    1    6    6    0    0 -0.60607913801E+01 -0.19858766999E+02  0.92218448882E+01  0.22718852128E+02  0.00000000000E+00 0. -1.
         -5    1    3    3    0  503 -0.16455580102E+02 -0.24617943680E+02 -0.82538660842E+02  0.87815430314E+02  0.47000000000E+01 0.  1.
         11    1    4    4    0    0 -0.81265995212E+00  0.13297384207E+02  0.32621944331E+01  0.13715784902E+02  0.00000000000E+00 0. -1.
        -12    1    4    4    0    0  0.10151350196E+03 -0.82573813218E+02 -0.15974667753E+02  0.13182797775E+03  0.00000000000E+00 0.  1.
</event>
<event>
12    1  0.8258923E-002  0.3480546E+03  0.7818608E-02  0.1063530E+00
         21   -1    0    0  501  502  0.00000000000E+00  0.00000000000E+00  0.20905242274E+03  0.20905242274E+03  0.00000000000E+00 0. -1.
         21   -1    0    0  502  503 -0.00000000000E+00 -0.00000000000E+00 -0.73767657790E+03  0.73767657790E+03  0.00000000000E+00 0.  1.
         -6    2    1    2    0  503 -0.30304786216E+03  0.14885950033E+01 -0.48511348810E+03  0.59705703042E+03  0.17117762282E+03 0.  0.
        -24    2    3    3    0    0 -0.15087232681E+03  0.47372906406E+02 -0.17925494110E+03  0.25233351168E+03  0.80828311570E+02 0.  0.
          6    2    1    2  501    0  0.30304786216E+03 -0.14885950033E+01 -0.43510667052E+02  0.34967197023E+03  0.16892923352E+03 0.  0.
         24    2    5    5    0    0  0.76082709623E+02 -0.35412406259E+02 -0.19790834277E+02  0.11891511572E+03  0.81893286682E+02 0.  0.
          5    1    5    5  501    0  0.22696515254E+03  0.33923811256E+02 -0.23719832775E+02  0.23075685451E+03  0.47000000000E+01 0. -1.
        -13    1    6    6    0    0  0.78687967167E+02 -0.11501427784E+02 -0.38585139806E+02  0.88390565287E+02  0.00000000000E+00 0.  1.
         14    1    6    6    0    0 -0.26052575443E+01 -0.23910978475E+02  0.18794305529E+02  0.30524550428E+02  0.00000000000E+00 0. -1.
         -5    1    3    3    0  503 -0.15217553535E+03 -0.45884311403E+02 -0.30585854700E+03  0.34472351873E+03  0.47000000000E+01 0.  1.
         11    1    4    4    0    0 -0.67188262360E+02  0.58402196079E+02 -0.11905348990E+03  0.14865669364E+03  0.00000000000E+00 0. -1.
        -12    1    4    4    0    0 -0.83684064449E+02 -0.11029289673E+02 -0.60201451198E+02  0.10367681804E+03  0.00000000000E+00 0.  1.
</event>
<event>
12    1  0.8258923E-002  0.2429563E+03  0.7818608E-02  0.1118723E+00
         21   -1    0    0  501  502  0.00000000000E+00  0.00000000000E+00  0.53277659651E+02  0.53277659651E+02  0.00000000000E+00 0. -1.
         21   -1    0    0  502  503 -0.00000000000E+00 -0.00000000000E+00 -0.18842583278E+04  0.18842583278E+04  0.00000000000E+00 0.  1.
         -6    2    1    2    0  503  0.13182015644E+03 -0.97654073651E+02 -0.15410653236E+04  0.15592785477E+04  0.17191389118E+03 0.  0.
        -24    2    3    3    0    0  0.65172931051E+02 -0.62392932025E+02 -0.46267183335E+03  0.47824209569E+03  0.80683875773E+02 0.  0.
          6    2    1    2  501    0 -0.13182015644E+03  0.97654073651E+02 -0.28991534454E+03  0.37825743973E+03  0.17920633909E+03 0.  0.
         24    2    5    5    0    0 -0.16539247761E+02  0.98083505939E+02 -0.15043957406E+03  0.19724513941E+03  0.79872765841E+02 0.  0.
          5    1    5    5  501    0 -0.11528090868E+03 -0.42943228794E+00 -0.13947577048E+03  0.18101230033E+03  0.47000000000E+01 0. -1.
        -13    1    6    6    0    0 -0.72808247221E+01  0.72119998253E+02 -0.15325895111E+03  0.16953645818E+03  0.00000000000E+00 0.  1.
         14    1    6    6    0    0 -0.92584230385E+01  0.25963507685E+02  0.28193770506E+01  0.27708681229E+02  0.00000000000E+00 0. -1.
         -5    1    3    3    0  503  0.66647225393E+02 -0.35261141626E+02 -0.10783934902E+04  0.10810364520E+04  0.47000000000E+01 0.  1.
         13    1    4    4    0    0  0.80539792610E+02 -0.51932671331E+02 -0.43093458978E+03  0.44146152858E+03  0.00000000000E+00 0. -1.
        -14    1    4    4    0    0 -0.15366861558E+02 -0.10460260694E+02 -0.31737243566E+02  0.36780567112E+02  0.00000000000E+00 0.  1.
</event>
<event>
12    1  0.8258923E-002  0.1726640E+03  0.7818608E-02  0.1175116E+00
         21   -1    0    0  501  502  0.00000000000E+00  0.00000000000E+00  0.83433305409E+02  0.83433305409E+02  0.00000000000E+00 0. -1.
         21   -1    0    0  502  503 -0.00000000000E+00 -0.00000000000E+00 -0.50418303271E+03  0.50418303271E+03  0.00000000000E+00 0. -1.
         -6    2    1    2    0  503  0.11868429027E+02  0.14705567786E+01 -0.36899270466E+03  0.40736191567E+03  0.17217750173E+03 0.  0.
        -24    2    3    3    0    0 -0.35019831051E+02 -0.52325727272E+01 -0.95793679480E+02  0.13004758456E+03  0.80511967050E+02 0.  0.
          6    2    1    2  501    0 -0.11868429027E+02 -0.14705567786E+01 -0.51757022637E+02  0.18025442244E+03  0.17224936944E+03 0.  0.
         24    2    5    5    0    0 -0.41262975386E+02 -0.10296909588E+02 -0.92046297252E+02  0.12938931153E+03  0.80376698209E+02 0.  0.
          5    1    5    5  501    0  0.29394546359E+02  0.88263528098E+01  0.40289274614E+02  0.50865110916E+02  0.47000000000E+01 0. -1.
        -11    1    6    6    0    0 -0.64636284185E+02  0.17066073272E+01 -0.65312951230E+02  0.91905077880E+02  0.00000000000E+00 0.  1.
         12    1    6    6    0    0  0.23373308799E+02 -0.12003516916E+02 -0.26733346022E+02  0.37484233647E+02  0.00000000000E+00 0. -1.
         -5    1    3    3    0  503  0.46888260078E+02  0.67031295057E+01 -0.27319902518E+03  0.27731433111E+03  0.47000000000E+01 0.  1.
         11    1    4    4    0    0 -0.26672562956E+02  0.94689572547E+01  0.42189063670E+01  0.28616183132E+02  0.00000000000E+00 0. -1.
        -12    1    4    4    0    0 -0.83472680951E+01 -0.14701529982E+02 -0.10001258585E+03  0.10143140143E+03  0.00000000000E+00 0.  1.
</event>
<event>
12    1  0.8258923E-002  0.2885327E+03  0.7818608E-02  0.1091180E+00
         21   -1    0    0  503  502  0.00000000000E+00  0.00000000000E+00  0.37399559788E+03  0.37399559788E+03  0.00000000000E+00 0.  1.
         21   -1    0    0  501  503 -0.00000000000E+00 -0.00000000000E+00 -0.22971971854E+03  0.22971971854E+03  0.00000000000E+00 0. -1.
          6    2    1    2  501    0  0.22798621709E+03  0.42064287942E+02  0.12657246644E+03  0.31464002154E+03  0.17096968852E+03 0.  0.
         24    2    3    3    0    0  0.74644048451E+02 -0.26292106881E+02  0.16460321723E+02  0.11380876947E+03  0.80115447715E+02 0.  0.
         -6    2    1    2    0  502 -0.22798621709E+03 -0.42064287942E+02  0.17703412909E+02  0.28907529489E+03  0.17176727216E+03 0.  0.
        -24    2    5    5    0    0 -0.24198370039E+03 -0.31905378888E+02 -0.88697704014E+01  0.25702288401E+03  0.80050144420E+02 0.  0.
          5    1    3    3  501    0  0.15334216864E+03  0.68356394823E+02  0.11011214471E+03  0.20083125207E+03  0.47000000000E+01 0. -1.
        -11    1    4    4    0    0  0.84969821681E+02 -0.69611937524E+00  0.13713134663E+02  0.86072093277E+02  0.00000000000E+00 0.  1.
         12    1    4    4    0    0 -0.10325773231E+02 -0.25595987506E+02  0.27471870600E+01  0.27736676188E+02  0.00000000000E+00 0. -1.
         -5    1    5    5    0  502  0.13997483300E+02 -0.10158909054E+02  0.26573183311E+02  0.32052410879E+02  0.47000000000E+01 0.  1.
         13    1    6    6    0    0 -0.13964578412E+02 -0.24441541808E+02  0.44219405916E+01  0.28494771008E+02  0.00000000000E+00 0. -1.
        -14    1    6    6    0    0 -0.22801912197E+03 -0.74638370792E+01 -0.13291710993E+02  0.22852811300E+03  0.00000000000E+00 0.  1.
</event>
<event>
12    1  0.8258923E-002  0.1947427E+03  0.7818608E-02  0.1154752E+00
         21   -1    0    0  503  502  0.00000000000E+00  0.00000000000E+00  0.52231835279E+03  0.52231835279E+03  0.00000000000E+00 0. -1.
         21   -1    0    0  501  503 -0.00000000000E+00 -0.00000000000E+00 -0.10704382900E+03  0.10704382900E+03  0.00000000000E+00 0. -1.
          6    2    1    2  501    0 -0.41831196154E+02  0.77587650501E+02  0.27796579450E+02  0.19671648531E+03  0.17365204658E+03 0.  0.
         24    2    3    3    0    0 -0.46352455545E+02 -0.20221323342E+02  0.10608278886E+02  0.97194805119E+02  0.82321579846E+02 0.  0.
         -6    2    1    2    0  502  0.41831196154E+02 -0.77587650501E+02  0.38747794434E+03  0.43264569649E+03  0.17109485341E+03 0.  0.
        -24    2    5    5    0    0 -0.27737793460E+02 -0.36685716810E+01  0.22720698261E+03  0.24287545198E+03  0.81133400169E+02 0.  0.
          5    1    3    3  501    0  0.45212593914E+01  0.97808973844E+02  0.17188300565E+02  0.99521680186E+02  0.47000000000E+01 0. -1.
        -11    1    4    4    0    0  0.10866004821E+02 -0.81631212067E+01  0.32128932256E+02  0.34885167285E+02  0.00000000000E+00 0.  1.
         12    1    4    4    0    0 -0.57218460366E+02 -0.12058202136E+02 -0.21520653371E+02  0.62309637834E+02  0.00000000000E+00 0. -1.
         -5    1    5    5    0  502  0.69568989615E+02 -0.73919078820E+02  0.16027096173E+03  0.18977024451E+03  0.47000000000E+01 0.  1.
         13    1    6    6    0    0  0.12959903463E+02  0.29971770901E+02  0.76138464301E+02  0.82845228558E+02  0.00000000000E+00 0. -1.
        -14    1    6    6    0    0 -0.40697696924E+02 -0.33640342582E+02  0.15106851831E+03  0.16003022342E+03  0.00000000000E+00 0.  1.
</event>
<event>
12    1  0.8258923E-002  0.1920481E+03  0.7818608E-02  0.1157384E+00
         21   -1    0    0  503  502  0.00000000000E+00  0.00000000000E+00  0.71634220364E+02  0.71634220364E+02  0.00000000000E+00 0. -1.
         21   -1    0    0  501  503 -0.00000000000E+00 -0.00000000000E+00 -0.55723835086E+03  0.55723835086E+03  0.00000000000E+00 0.  1.
          6    2    1    2  501    0 -0.54512771930E+02 -0.55480271280E+02 -0.33631454572E+03  0.38562404316E+03  0.17189742929E+03 0.  0.
         24    2    3    3    0    0 -0.17166508501E+01 -0.17456149196E+02 -0.59122206656E+02  0.10085932081E+03  0.79809167639E+02 0.  0.
         -6    2    1    2    0  502  0.54512771930E+02  0.55480271280E+02 -0.14928958477E+03  0.24324852806E+03  0.17559260655E+03 0.  0.
        -24    2    5    5    0    0  0.58457954864E+02 -0.44594307013E+01 -0.15490595641E+03  0.18273434813E+03  0.77193054387E+02 0.  0.
          5    1    3    3  501    0 -0.52796121080E+02 -0.38024122084E+02 -0.27719233907E+03  0.28476472236E+03  0.47000000000E+01 0. -1.
        -13    1    4    4    0    0  0.14933175020E+02 -0.24801331747E+02 -0.72635795463E+02  0.78192484006E+02  0.00000000000E+00 0.  1.
         14    1    4    4    0    0 -0.16649825870E+02  0.73451825510E+01  0.13513588807E+02  0.22666836803E+02  0.00000000000E+00 0. -1.
         -5    1    5    5    0  502 -0.39451829346E+01  0.59939701981E+02  0.56163716400E+01  0.60514179928E+02  0.47000000000E+01 0.  1.
         11    1    6    6    0    0  0.45223914938E+02 -0.63812933564E+01 -0.24853864224E+02  0.51996518673E+02  0.00000000000E+00 0. -1.
        -12    1    6    6    0    0  0.13234039927E+02  0.19218626551E+01 -0.13005209219E+03  0.13073782946E+03  0.00000000000E+00 0.  1.
</event>
<event>
12    1  0.8258923E-002  0.2106612E+03  0.7818608E-02  0.1141626E+00
         21   -1    0    0  503  502  0.00000000000E+00  0.00000000000E+00  0.95332008198E+03  0.95332008198E+03  0.00000000000E+00 0.  1.
         21   -1    0    0  501  503 -0.00000000000E+00 -0.00000000000E+00 -0.12122140338E+03  0.12122140338E+03  0.00000000000E+00 0.  1.
          6    2    1    2  501    0 -0.16240509659E+02 -0.12272877553E+03 -0.63364959412E+01  0.21075651699E+03  0.17044662442E+03 0.  0.
         24    2    3    3    0    0 -0.10891710118E+02 -0.73318150736E+02  0.49113619981E+02  0.13614535928E+03  0.10309816007E+03 0.  0.
         -6    2    1    2    0  502  0.16240509659E+02  0.12272877553E+03  0.83843517453E+03  0.86378496837E+03  0.16680774317E+03 0.  0.
        -24    2    5    5    0    0 -0.90648946668E+01  0.11380356613E+03  0.38405052657E+03  0.40858443985E+03  0.80081293414E+02 0.  0.
          5    1    3    3  501    0 -0.53487995405E+01 -0.49410624795E+02 -0.55450115923E+02  0.74611157711E+02  0.47000000000E+01 0. -1.
        -13    1    4    4    0    0  0.35373276162E+02 -0.60130075512E+02  0.53388656267E+02  0.87847841553E+02  0.00000000000E+00 0.  1.
         14    1    4    4    0    0 -0.46264986280E+02 -0.13188075224E+02 -0.42750362857E+01  0.48297517730E+02  0.00000000000E+00 0. -1.
         -5    1    5    5    0  502  0.25305404325E+02  0.89252094044E+01  0.45438464797E+03  0.45520052851E+03  0.47000000000E+01 0.  1.
         13    1    6    6    0    0  0.28722002647E+02  0.16120637307E+02  0.66546651755E+02  0.74251499938E+02  0.00000000000E+00 0. -1.
        -14    1    6    6    0    0 -0.37786897314E+02  0.97682928820E+02  0.31750387481E+03  0.33433293991E+03  0.00000000000E+00 0.  1.
</event>
<event>
12    1  0.8258923E-002  0.1821233E+03  0.7818608E-02  0.1166088E+00
         21   -1    0    0  503  502  0.00000000000E+00  0.00000000000E+00  0.39560376707E+03  0.39560376707E+03  0.00000000000E+00 0. -1.
         21   -1    0    0  501  503 -0.00000000000E+00 -0.00000000000E+00 -0.11489131614E+03  0.11489131614E+03  0.00000000000E+00 0. -1.
          6    2    1    2  501    0  0.56390567140E+02  0.85318675412E+01  0.59645161502E+01  0.18086600733E+03  0.17153497698E+03 0.  0.
         24    2    3    3    0    0 -0.12238341036E+02  0.34450358691E+02  0.43332542962E+02  0.98402957129E+02  0.80429027640E+02 0.  0.
         -6    2    1    2    0  502 -0.56390567140E+02 -0.85318675412E+01  0.27474793478E+03  0.32962907588E+03  0.17296303414E+03 0.  0.
        -24    2    5    5    0    0 -0.10369243607E+03  0.11549034120E+02  0.19046314261E+03  0.23080233048E+03  0.78153730416E+02 0.  0.
          5    1    3    3  501    0  0.68628908176E+02 -0.25918491149E+02 -0.37368026812E+02  0.82463050202E+02  0.47000000000E+01 0. -1.
        -13    1    4    4    0    0  0.11669328285E+02  0.54541051356E+02  0.35808874593E+02  0.66281030508E+02  0.00000000000E+00 0.  1.
         14    1    4    4    0    0 -0.23907669321E+02 -0.20090692665E+02  0.75236683687E+01  0.32121926621E+02  0.00000000000E+00 0. -1.
         -5    1    5    5    0  502  0.47301868927E+02 -0.20080901661E+02  0.84284792168E+02  0.98826745400E+02  0.47000000000E+01 0.  1.
         13    1    6    6    0    0 -0.54318932453E+02 -0.14107071472E+02  0.36129867660E+02  0.66745211255E+02  0.00000000000E+00 0. -1.
        -14    1    6    6    0    0 -0.49373503614E+02  0.25656105592E+02  0.15433327495E+03  0.16405711923E+03  0.00000000000E+00 0.  1.
</event>
<event>
12    1  0.8258923E-002  0.2614012E+03  0.7818608E-02  0.1106383E+00
         21   -1    0    0  501  502  0.00000000000E+00  0.00000000000E+00  0.83575689903E+03  0.83575689903E+03  0.00000000000E+00 0. -1.
         21   -1    0    0  502  503 -0.00000000000E+00 -0.00000000000E+00 -0.13850275421E+03  0.13850275421E+03  0.00000000000E+00 0. -1.
         -6    2    1    2    0  503  0.11464449466E+03 -0.15813016418E+03  0.36170739675E+02  0.26337157900E+03  0.17293859382E+03 0.  0.
        -24    2    3    3    0    0 -0.10337660354E+02 -0.61480257437E+02  0.16560518327E+02  0.10409699117E+03  0.81702163538E+02 0.  0.
          6    2    1    2  501    0 -0.11464449466E+03  0.15813016418E+03  0.66108340515E+03  0.71088807425E+03  0.17372989545E+03 0.  0.
         24    2    5    5    0    0 -0.11719742284E+03  0.16781200147E+03  0.46230732745E+03  0.51180448759E+03  0.79496319036E+02 0.  0.
          5    1    5    5  501    0  0.25529281768E+01 -0.96818372929E+01  0.19877607769E+03  0.19908358666E+03  0.47000000000E+01 0. -1.
        -13    1    6    6    0    0 -0.11299770785E+02  0.68090336622E+02  0.20395260923E+03  0.21531522373E+03  0.00000000000E+00 0.  1.
         14    1    6    6    0    0 -0.10589765206E+03  0.99721664852E+02  0.25835471823E+03  0.29648926386E+03  0.00000000000E+00 0. -1.
         -5    1    3    3    0  503  0.12498215502E+03 -0.96649906744E+02  0.19610221348E+02  0.15927458783E+03  0.47000000000E+01 0.  1.
         11    1    4    4    0    0  0.16223961296E+02 -0.72244465519E+02  0.10240559160E+02  0.74748570355E+02  0.00000000000E+00 0. -1.
        -12    1    4    4    0    0 -0.26561621650E+02  0.10764208082E+02  0.63199591668E+01  0.29348420812E+02  0.00000000000E+00 0.  1.
</event>
<event>
12    1  0.8258923E-002  0.1913466E+03  0.7818608E-02  0.1157979E+00
         21   -1    0    0  501  502  0.00000000000E+00  0.00000000000E+00  0.10788717640E+03  0.10788717640E+03  0.00000000000E+00 0.  1.
         21   -1    0    0  502  503 -0.00000000000E+00 -0.00000000000E+00 -0.33367638811E+03  0.33367638811E+03  0.00000000000E+00 0.  1.
         -6    2    1    2    0  503 -0.21313001808E+02  0.74353780258E+02 -0.11317815685E+03  0.22231241891E+03  0.17501653558E+03 0.  0.
        -24    2    3    3    0    0 -0.48267007753E+02  0.95130040171E+02 -0.38608602843E+02  0.14020955783E+03  0.82393369347E+02 0.  0.
          6    2    1    2  501    0  0.21313001808E+02 -0.74353780258E+02 -0.11261105486E+03  0.21925114560E+03  0.17148494536E+03 0.  0.
         24    2    5    5    0    0  0.46719326970E+01 -0.15452933797E+01  0.15424904552E+01  0.82755274415E+02  0.82594438553E+02 0.  0.
          5    1    5    5  501    0  0.16641069111E+02 -0.72808486878E+02 -0.11415354532E+03  0.13649587119E+03  0.47000000000E+01 0. -1.
        -13    1    6    6    0    0 -0.38650131924E+02  0.47810659505E+01  0.15028369762E+01  0.38973706629E+02  0.00000000000E+00 0.  1.
         14    1    6    6    0    0  0.43322064621E+02 -0.63263593301E+01  0.39653479073E-01  0.43781567786E+02  0.00000000000E+00 0. -1.
         -5    1    3    3    0  503  0.26954005945E+02 -0.20776259913E+02 -0.74569554009E+02  0.82102861080E+02  0.47000000000E+01 0.  1.
         11    1    4    4    0    0 -0.28752175808E+02  0.79167815611E+02 -0.62960045484E+02  0.10515796674E+03  0.00000000000E+00 0. -1.
        -12    1    4    4    0    0 -0.19514831945E+02  0.15962224560E+02  0.24351442642E+02  0.35051591083E+02  0.00000000000E+00 0.  1.
</event>
<event>
12    1  0.8258923E-002  0.2590768E+03  0.7818608E-02  0.1108200E+00
         21   -1    0    0  501  502  0.00000000000E+00  0.00000000000E+00  0.94745722171E+03  0.94745722171E+03  0.00000000000E+00 0. -1.
         21   -1    0    0  502  503 -0.00000000000E+00 -0.00000000000E+00 -0.77720632017E+02  0.77720632017E+02  0.00000000000E+00 0. -1.
         -6    2    1    2    0  503 -0.12040555374E+03  0.14620236211E+03  0.59951547856E+03  0.65309997308E+03  0.17677142798E+03 0.  0.
        -24    2    3    3    0    0 -0.28703735072E+02  0.86930829811E+02  0.16737696034E+03  0.20735550927E+03  0.81242764566E+02 0.  0.
          6    2    1    2  501    0  0.12040555374E+03 -0.14620236211E+03  0.27022111113E+03  0.37207788064E+03  0.17190076296E+03 0.  0.
         24    2    5    5    0    0  0.11544525858E+03 -0.51139523234E+02  0.21436528928E+03  0.26160837944E+03  0.80892573072E+02 0.  0.
          5    1    5    5  501    0  0.49602951575E+01 -0.95062838872E+02  0.55855821851E+02  0.11046950121E+03  0.47000000000E+01 0. -1.
        -13    1    6    6    0    0  0.11055725326E+02  0.10899353395E+02  0.75753949369E+02  0.77328428226E+02  0.00000000000E+00 0.  1.
         14    1    6    6    0    0  0.10438953325E+03 -0.62038876629E+02  0.13861133991E+03  0.18427995121E+03  0.00000000000E+00 0. -1.
         -5    1    3    3    0  503 -0.91701818665E+02  0.59271532295E+02  0.43213851822E+03  0.44574446381E+03  0.47000000000E+01 0.  1.
         13    1    4    4    0    0  0.24492035998E+02  0.17005335856E+02  0.70639986033E+02  0.76674956156E+02  0.00000000000E+00 0. -1.
        -14    1    4    4    0    0 -0.53195771069E+02  0.69925493955E+02  0.96736974307E+02  0.13068055312E+03  0.00000000000E+00 0.  1.
</event>
<event>
12    1  0.8258923E-002  0.2087076E+03  0.7818608E-02  0.1142942E+00
         21   -1    0    0  501  502  0.00000000000E+00  0.00000000000E+00  0.10392564310E+03  0.10392564310E+03  0.00000000000E+00 0.  1.
         21   -1    0    0  502  503 -0.00000000000E+00 -0.00000000000E+00 -0.43446514866E+03  0.43446514866E+03  0.00000000000E+00 0.  1.
         -6    2    1    2    0  503  0.11868877801E+03  0.89576923519E+01 -0.10991605435E+03  0.23588213674E+03  0.17143971871E+03 0.  0.
        -24    2    3    3    0    0  0.13300773460E+03 -0.11958397313E+02 -0.13009021495E+03  0.20314680292E+03  0.80691379853E+02 0.  0.
          6    2    1    2  501    0 -0.11868877801E+03 -0.89576923519E+01 -0.22062345120E+03  0.30250865502E+03  0.16932073962E+03 0.  0.
         24    2    5    5    0    0 -0.14246175751E+03 -0.24130615802E+02 -0.18302514689E+03  0.25527419041E+03  0.10387044298E+03 0.  0.
          5    1    5    5  501    0  0.23772979497E+02  0.15172923450E+02 -0.37598304311E+02  0.47234464613E+02  0.47000000000E+01 0. -1.
        -13    1    6    6    0    0 -0.73637538839E+02  0.11408048248E+01 -0.16362294114E+03  0.17943315031E+03  0.00000000000E+00 0.  1.
         14    1    6    6    0    0 -0.68824218667E+02 -0.25271420627E+02 -0.19402205749E+02  0.75841040100E+02  0.00000000000E+00 0. -1.
         -5    1    3    3    0  503 -0.14318956587E+02  0.20916089665E+02  0.20174160597E+02  0.32735333821E+02  0.47000000000E+01 0.  1.
         11    1    4    4    0    0  0.10427897852E+03  0.26904383218E+02 -0.88906460879E+02  0.13965067126E+03  0.00000000000E+00 0. -1.
        -12    1    4    4    0    0  0.28728756071E+02 -0.38862780531E+02 -0.41183754066E+02  0.63496131653E+02  0.00000000000E+00 0.  1.
</event>
<event>
12    1  0.8258923E-002  0.1895287E+03  0.7818608E-02  0.1159482E+00
         21   -1    0    0  503  502  0.00000000000E+00  0.00000000000E+00  0.25682913347E+04  0.25682913347E+04  0.00000000000E+00 0.  1.
         21   -1    0    0  501  503 -0.00000000000E+00 -0.00000000000E+00 -0.18441831058E+02  0.18441831058E+02  0.00000000000E+00 0.  1.
          6    2    1    2  501    0  0.55244104933E+02 -0.49646069794E+02  0.63227518530E+03  0.66007047286E+03  0.17436879254E+03 0.  0.
         24    2    3    3    0    0  0.92527722554E+02 -0.33378417653E+02  0.30277698895E+03  0.32803755875E+03  0.79115338005E+02 0.  0.
         -6    2    1    2    0  502 -0.55244104933E+02  0.49646069794E+02  0.19175743183E+04  0.19266626929E+04  0.17152615686E+03 0.  0.
        -24    2    5    5    0    0 -0.41157462325E+02 -0.35216288907E+02  0.88477817303E+03  0.89027954889E+03  0.82650686581E+02 0.  0.
          5    1    3    3  501    0 -0.37283617621E+02 -0.16267652141E+02  0.32949819635E+03  0.33203291410E+03  0.47000000000E+01 0. -1.
        -13    1    4    4    0    0  0.68900069864E+02 -0.29522322002E+02  0.29255676025E+03  0.30200702821E+03  0.00000000000E+00 0.  1.
         14    1    4    4    0    0  0.23627652690E+02 -0.38560956511E+01  0.10220228701E+02  0.26030530537E+02  0.00000000000E+00 0. -1.
         -5    1    5    5    0  502 -0.14086642608E+02  0.84862358702E+02  0.10327961453E+04  0.10363831440E+04  0.47000000000E+01 0.  1.
         13    1    6    6    0    0 -0.51213196295E+01 -0.39581373343E+02  0.73803466161E+03  0.73911303247E+03  0.00000000000E+00 0. -1.
        -14    1    6    6    0    0 -0.36036142696E+02  0.43650844356E+01  0.14674351142E+03  0.15116651642E+03  0.00000000000E+00 0.  1.
</event>
<event>
12    1  0.8258923E-002  0.2279772E+03  0.7818608E-02  0.1128355E+00
         21   -1    0    0  503  502  0.00000000000E+00  0.00000000000E+00  0.10443070823E+03  0.10443070823E+03  0.00000000000E+00 0. -1.
         21   -1    0    0  501  503 -0.00000000000E+00 -0.00000000000E+00 -0.10648988176E+04  0.10648988176E+04  0.00000000000E+00 0.  1.
          6    2    1    2  501    0  0.11084826273E+03  0.10059431117E+03 -0.90745650832E+03  0.93527006740E+03  0.16984178429E+03 0.  0.
         24    2    3    3    0    0  0.96147578260E+02  0.41874013492E+02 -0.34305804520E+03  0.36761533197E+03  0.80339405722E+02 0.  0.
         -6    2    1    2    0  502 -0.11084826273E+03 -0.10059431117E+03 -0.53011601045E+02  0.23405945842E+03  0.17195071224E+03 0.  0.
        -24    2    5    5    0    0 -0.39909389208E+02  0.14917209505E+02 -0.14067943832E+02  0.92942720845E+02  0.81395084791E+02 0.  0.
          5    1    3    3  501    0  0.14700684469E+02  0.58720297678E+02 -0.56439846312E+03  0.56765473543E+03  0.47000000000E+01 0. -1.
        -13    1    4    4    0    0  0.73852840782E+02  0.25983841128E+02 -0.32619950819E+03  0.33546314438E+03  0.00000000000E+00 0.  1.
         14    1    4    4    0    0  0.22294737478E+02  0.15890172364E+02 -0.16858537010E+02  0.32152187594E+02  0.00000000000E+00 0. -1.
         -5    1    5    5    0  502 -0.70938873521E+02 -0.11551152068E+03 -0.38943657213E+02  0.14111673757E+03  0.47000000000E+01 0.  1.
         11    1    6    6    0    0 -0.51203385614E+02  0.38139456599E+02 -0.19082324860E+02  0.66637376674E+02  0.00000000000E+00 0. -1.
        -12    1    6    6    0    0  0.11293996406E+02 -0.23222247093E+02  0.50143810282E+01  0.26305344171E+02  0.00000000000E+00 0.  1.
</event>
<event>
12    1  0.8258923E-002  0.1951222E+03  0.7818608E-02  0.1154481E+00
         21   -1    0    0  501  502  0.00000000000E+00  0.00000000000E+00  0.82962032859E+02  0.82962032859E+02  0.00000000000E+00 0. -1.
         21   -1    0    0  502  503 -0.00000000000E+00 -0.00000000000E+00 -0.52267524749E+03  0.52267524749E+03  0.00000000000E+00 0. -1.
         -6    2    1    2    0  503  0.33244426366E+02 -0.80291683923E+02 -0.33172869966E+03  0.38485921776E+03  0.17470186296E+03 0.  0.
        -24    2    3    3    0    0  0.46295942612E+02 -0.93059446455E+02 -0.13217058502E+03  0.18441249427E+03  0.75733279489E+02 0.  0.
          6    2    1    2  501    0 -0.33244426366E+02  0.80291683923E+02 -0.10798451497E+03  0.22077806260E+03  0.17184397300E+03 0.  0.
         24    2    5    5    0    0 -0.34056286513E+02  0.42228229211E+02 -0.14052194333E+03  0.17047637330E+03  0.79829338616E+02 0.  0.
          5    1    5    5  501    0  0.81186014689E+00  0.38063454712E+02  0.32537428358E+02  0.50301689293E+02  0.47000000000E+01 0. -1.
        -13    1    6    6    0    0  0.25788403867E+02  0.19504707692E+02 -0.42452022490E+02  0.53363373297E+02  0.00000000000E+00 0.  1.
         14    1    6    6    0    0 -0.59844690380E+02  0.22723521519E+02 -0.98069920839E+02  0.11711300001E+03  0.00000000000E+00 0. -1.
         -5    1    3    3    0  503 -0.13051516245E+02  0.12767762532E+02 -0.19955811464E+03  0.20044672348E+03  0.47000000000E+01 0.  1.
         13    1    4    4    0    0  0.54370499657E+02 -0.73129661279E+02 -0.13483905840E+03  0.16274418657E+03  0.00000000000E+00 0. -1.
        -14    1    4    4    0    0 -0.80745570450E+01 -0.19929785176E+02  0.26684733775E+01  0.21668307705E+02  0.00000000000E+00 0.  1.
</event>
<event>
12    1  0.8258923E-002  0.3502876E+03  0.7818608E-02  0.1062515E+00
         21   -1    0    0  503  502  0.00000000000E+00  0.00000000000E+00  0.12408370063E+04  0.12408370063E+04  0.00000000000E+00 0.  1.
         21   -1    0    0  501  503 -0.00000000000E+00 -0.00000000000E+00 -0.12136063458E+03  0.12136063458E+03  0.00000000000E+00 0.  1.
          6    2    1    2  501    0  0.10947111757E+03  0.28456912779E+03  0.26643154877E+03  0.44009904658E+03  0.17244676440E+03 0.  0.
         24    2    3    3    0    0  0.73838091876E+02  0.29315939289E+03  0.24487126986E+03  0.39731539548E+03  0.80641746187E+02 0.  0.
         -6    2    1    2    0  502 -0.10947111757E+03 -0.28456912779E+03  0.85304482299E+03  0.92209859432E+03  0.17209541992E+03 0.  0.
        -24    2    5    5    0    0 -0.45511711511E+02 -0.74499581579E+02  0.19476521634E+03  0.22814315599E+03  0.80587260707E+02 0.  0.
          5    1    3    3  501    0  0.35633025698E+02 -0.85902651071E+01  0.21560278903E+02  0.42783651100E+02  0.47000000000E+01 0. -1.
        -11    1    4    4    0    0  0.74464329374E+02  0.14654491642E+03  0.10756923900E+03  0.19644716862E+03  0.00000000000E+00 0.  1.
         12    1    4    4    0    0 -0.62623749773E+00  0.14661447647E+03  0.13730203087E+03  0.20086822687E+03  0.00000000000E+00 0. -1.
         -5    1    5    5    0  502 -0.63959406063E+02 -0.21006954621E+03  0.65827960664E+03  0.69395543833E+03  0.47000000000E+01 0.  1.
         13    1    6    6    0    0 -0.28700757612E+02 -0.51170442479E+01  0.12489082046E+03  0.12824833201E+03  0.00000000000E+00 0. -1.
        -14    1    6    6    0    0 -0.16810953900E+02 -0.69382537331E+02  0.69874395886E+02  0.99894823980E+02  0.00000000000E+00 0.  1.
</event>
<event>
12    1  0.8258923E-002  0.1912627E+03  0.7818608E-02  0.1157519E+00
         21   -1    0    0  501  502  0.00000000000E+00  0.00000000000E+00  0.45774248800E+03  0.45774248800E+03  0.00000000000E+00 0. -1.
         21   -1    0    0  502  503 -0.00000000000E+00 -0.00000000000E+00 -0.10939079257E+03  0.10939079257E+03  0.00000000000E+00 0. -1.
         -6    2    1    2    0  503  0.51189080562E+02  0.65220097060E+02  0.26378634792E+02  0.19307322559E+03  0.17235850730E+03 0.  0.
        -24    2    3    3    0    0  0.56676129099E+02  0.41505856396E+02  0.84450279763E+02  0.12993148930E+03  0.69393244883E+02 0.  0.
          6    2    1    2  501    0 -0.51189080562E+02 -0.65220097060E+02  0.32197306063E+03  0.37406005498E+03  0.17140679663E+03 0.  0.
         24    2    5    5    0    0  0.36400144467E+02 -0.24463192100E+02  0.12850944302E+03  0.15776567461E+03  0.80323800040E+02 0.  0.
          5    1    5    5  501    0 -0.87589225029E+02 -0.40756904961E+02  0.19346361761E+03  0.21629438037E+03  0.47000000000E+01 0. -1.
        -11    1    6    6    0    0  0.24919240188E+02  0.28176574788E+02  0.51039919750E+02  0.63403164799E+02  0.00000000000E+00 0.  1.
         12    1    6    6    0    0  0.11480904278E+02 -0.52639766888E+02  0.77469523273E+02  0.94362509808E+02  0.00000000000E+00 0. -1.
         -5    1    3    3    0  503 -0.54870485366E+01  0.23714240664E+02 -0.58071644971E+02  0.63141736288E+02  0.47000000000E+01 0.  1.
         11    1    4    4    0    0  0.58502945587E+02  0.85607757636E+01  0.30093133925E+02  0.66343637475E+02  0.00000000000E+00 0. -1.
        -12    1    4    4    0    0 -0.18268164877E+01  0.32945080633E+02  0.54357145837E+02  0.63587851827E+02  0.00000000000E+00 0.  1.
</event>
<event>
12    1  0.8258923E-002  0.1746716E+03  0.7818608E-02  0.1173514E+00
         21   -1    0    0  503  502  0.00000000000E+00  0.00000000000E+00  0.19701868590E+03  0.19701868590E+03  0.00000000000E+00 0. -1.
         21   -1    0    0  501  503 -0.00000000000E+00 -0.00000000000E+00 -0.28384846949E+03  0.28384846949E+03  0.00000000000E+00 0. -1.
          6    2    1    2  501    0  0.10398212601E+02  0.12013779345E+02 -0.20636254968E+03  0.26921120957E+03  0.17215318682E+03 0.  0.
         24    2    3    3    0    0 -0.11275444425E+02  0.49240568252E+02 -0.59928348499E+02  0.11650021948E+03  0.86192371915E+02 0.  0.
         -6    2    1    2    0  502 -0.10398212601E+02 -0.12013779345E+02  0.11953276609E+03  0.21165594582E+03  0.17394741594E+03 0.  0.
        -24    2    5    5    0    0  0.13382694037E+01 -0.56988656459E+02  0.43127730475E+02  0.12209979557E+03  0.98989196439E+02 0.  0.
          5    1    3    3  501    0  0.21673657025E+02 -0.37226788907E+02 -0.14643420118E+03  0.15271099009E+03  0.47000000000E+01 0. -1.
        -13    1    4    4    0    0 -0.57501515161E+01 -0.23693090506E+02 -0.26720843268E+02  0.36172230303E+02  0.00000000000E+00 0.  1.
         14    1    4    4    0    0 -0.55252929084E+01  0.72933658757E+02 -0.33207505231E+02  0.80327989176E+02  0.00000000000E+00 0. -1.
         -5    1    5    5    0  502 -0.11736482005E+02  0.44974877114E+02  0.76405035613E+02  0.89556150254E+02  0.47000000000E+01 0.  1.
         11    1    6    6    0    0 -0.51562626532E+00 -0.81800850999E+02  0.50517839503E+02  0.96144148042E+02  0.00000000000E+00 0. -1.
        -12    1    6    6    0    0  0.18538956690E+01  0.24812194540E+02 -0.73901090281E+01  0.25955647526E+02  0.00000000000E+00 0.  1.
</event>
<event>
12    1  0.8258923E-002  0.2071662E+03  0.7818608E-02  0.1143969E+00
         21   -1    0    0  503  502  0.00000000000E+00  0.00000000000E+00  0.55990761649E+03  0.55990761649E+03  0.00000000000E+00 0. -1.
         21   -1    0    0  501  503 -0.00000000000E+00 -0.00000000000E+00 -0.15491514109E+03  0.15491514109E+03  0.00000000000E+00 0. -1.
          6    2    1    2  501    0  0.12234477704E+02  0.11411209494E+03 -0.51790637017E+02  0.21354184716E+03  0.17247202019E+03 0.  0.
         24    2    3    3    0    0 -0.40369516181E+02  0.12381912343E+03 -0.29441351208E+02  0.15537839514E+03  0.79465585948E+02 0.  0.
         -6    2    1    2    0  502 -0.12234477704E+02 -0.11411209494E+03  0.45678311242E+03  0.50128091042E+03  0.17164057418E+03 0.  0.
        -24    2    5    5    0    0 -0.49981432945E+02 -0.17497005986E+02  0.29632520678E+03  0.31015755359E+03  0.74731459378E+02 0.  0.
          5    1    3    3  501    0  0.52603993886E+02 -0.97070284961E+01 -0.22349285809E+02  0.58163452022E+02  0.47000000000E+01 0. -1.
        -11    1    4    4    0    0  0.43219230252E+01  0.10328129815E+03 -0.19238754102E+02  0.10514673188E+03  0.00000000000E+00 0.  1.
         12    1    4    4    0    0 -0.44691439206E+02  0.20537825284E+02 -0.10202597106E+02  0.50231663256E+02  0.00000000000E+00 0. -1.
         -5    1    5    5    0  502  0.37746955241E+02 -0.96615088951E+02  0.16045790565E+03  0.19112335683E+03  0.47000000000E+01 0.  1.
         11    1    6    6    0    0 -0.10870825096E+02 -0.43360621223E+02  0.14513589474E+03  0.15186423625E+03  0.00000000000E+00 0. -1.
        -12    1    6    6    0    0 -0.39110607850E+02  0.25863615237E+02  0.15118931204E+03  0.15829331734E+03  0.00000000000E+00 0.  1.
</event>
<event>
12    1  0.8258923E-002  0.1849912E+03  0.7818608E-02  0.1164041E+00
         21   -1    0    0  503  502  0.00000000000E+00  0.00000000000E+00  0.61511598282E+03  0.61511598282E+03  0.00000000000E+00 0.  1.
         21   -1    0    0  501  503 -0.00000000000E+00 -0.00000000000E+00 -0.12289678737E+03  0.12289678737E+03  0.00000000000E+00 0.  1.
          6    2    1    2  501    0  0.97916594740E+01 -0.61977416643E+02 -0.30624192110E+02  0.18340756162E+03  0.16959780585E+03 0.  0.
         24    2    3    3    0    0 -0.35809606610E+02 -0.20323308696E+02 -0.60057192363E+02  0.11482963747E+03  0.88789720604E+02 0.  0.
         -6    2    1    2    0  502 -0.97916594740E+01  0.61977416643E+02  0.52284338756E+03  0.55460520857E+03  0.17402486229E+03 0.  0.
        -24    2    5    5    0    0  0.25013465443E+02 -0.15785397538E+02  0.14965112296E+03  0.17178278453E+03  0.78987430842E+02 0.  0.
          5    1    3    3  501    0  0.45601266084E+02 -0.41654107947E+02  0.29433000254E+02  0.68577924154E+02  0.47000000000E+01 0. -1.
        -11    1    4    4    0    0 -0.17744676905E+02 -0.45682695805E+02 -0.66920254383E+02  0.82946384497E+02  0.00000000000E+00 0.  1.
         12    1    4    4    0    0 -0.18064929705E+02  0.25359387109E+02  0.68630620197E+01  0.31883252972E+02  0.00000000000E+00 0. -1.
         -5    1    5    5    0  502 -0.34805124917E+02  0.77762814181E+02  0.37319226460E+03  0.38282242404E+03  0.47000000000E+01 0.  1.
         13    1    6    6    0    0  0.42286809794E+02  0.17433797347E+02  0.67943831421E+02  0.81905285548E+02  0.00000000000E+00 0. -1.
        -14    1    6    6    0    0 -0.17273344350E+02 -0.33219194885E+02  0.81707291535E+02  0.89877498985E+02  0.00000000000E+00 0.  1.
</event>
<event>
12    1  0.8258923E-002  0.2249325E+03  0.7818608E-02  0.1130327E+00
         21   -1    0    0  501  502  0.00000000000E+00  0.00000000000E+00  0.81843570427E+02  0.81843570427E+02  0.00000000000E+00 0.  1.
         21   -1    0    0  502  503 -0.00000000000E+00 -0.00000000000E+00 -0.69233940162E+03  0.69233940162E+03  0.00000000000E+00 0.  1.
         -6    2    1    2    0  503  0.67308590025E+02  0.12869257472E+03 -0.17791069570E+03  0.28678708225E+03  0.17176259727E+03 0.  0.
        -24    2    3    3    0    0  0.81744547989E+02  0.27305602098E+02 -0.12575230970E+03  0.17176403095E+03  0.79129462920E+02 0.  0.
          6    2    1    2  501    0 -0.67308590025E+02 -0.12869257472E+03 -0.43258513550E+03  0.48739588980E+03  0.17126771108E+03 0.  0.
         24    2    5    5    0    0 -0.62108983459E+02 -0.81467965032E+02 -0.14699990759E+03  0.19784760010E+03  0.83905571215E+02 0.  0.
          5    1    5    5  501    0 -0.51996065660E+01 -0.47224609688E+02 -0.28558522791E+03  0.28954828970E+03  0.47000000000E+01 0. -1.
        -13    1    6    6    0    0 -0.13701582481E+02 -0.61111420983E+02 -0.12709556471E+03  0.14168846709E+03  0.00000000000E+00 0.  1.
         14    1    6    6    0    0 -0.48407400978E+02 -0.20356544049E+02 -0.19904342881E+02  0.56159133012E+02  0.00000000000E+00 0. -1.
         -5    1    3    3    0  503 -0.14435957964E+02  0.10138697262E+03 -0.52158385995E+02  0.11502305130E+03  0.47000000000E+01 0.  1.
         11    1    4    4    0    0  0.11327714993E+02 -0.14608483649E+02  0.34115272450E+01  0.18797963709E+02  0.00000000000E+00 0. -1.
        -12    1    4    4    0    0  0.70416832996E+02  0.41914085746E+02 -0.12916383695E+03  0.15296606725E+03  0.00000000000E+00 0.  1.
</event>
<event>
12    1  0.8258923E-002  0.1798787E+03  0.7818608E-02  0.1168033E+00
         21   -1    0    0  503  502  0.00000000000E+00  0.00000000000E+00  0.10502883580E+04  0.10502883580E+04  0.00000000000E+00 0. -1.
         21   -1    0    0  501  503 -0.00000000000E+00 -0.00000000000E+00 -0.47952618435E+02  0.47952618435E+02  0.00000000000E+00 0. -1.
          6    2    1    2  501    0  0.46596734489E+02 -0.18962470120E+02  0.17164320410E+03  0.24829601735E+03  0.17221699039E+03 0.  0.
         24    2    3    3    0    0  0.54198568172E+02  0.36875286325E+02  0.71190316571E+02  0.13302019363E+03  0.91263569988E+02 0.  0.
         -6    2    1    2    0  502 -0.46596734489E+02  0.18962470120E+02  0.83069253548E+03  0.84994495910E+03  0.17270064871E+03 0.  0.
        -24    2    5    5    0    0 -0.49061193583E+02 -0.16235952831E+02  0.19302914110E+03  0.21128879412E+03  0.68644725413E+02 0.  0.
          5    1    3    3  501    0 -0.76018336832E+01 -0.55837756445E+02  0.10045288753E+03  0.11527582372E+03  0.47000000000E+01 0. -1.
        -13    1    4    4    0    0 -0.11346734376E+02  0.38479772574E+02  0.50023392085E+02  0.64123170805E+02  0.00000000000E+00 0.  1.
         14    1    4    4    0    0  0.65545302548E+02 -0.16044862491E+01  0.21166924486E+02  0.68897022827E+02  0.00000000000E+00 0. -1.
         -5    1    5    5    0  502  0.24644590945E+01  0.35198422952E+02  0.63766339438E+03  0.63865616498E+03  0.47000000000E+01 0.  1.
         11    1    6    6    0    0 -0.52344176016E+02  0.10535543406E+02  0.88710337524E+02  0.10353953072E+03  0.00000000000E+00 0. -1.
        -12    1    6    6    0    0  0.32829824324E+01 -0.26771496238E+02  0.10431880357E+03  0.10774926340E+03  0.00000000000E+00 0.  1.
</event>
<event>
12    1  0.8258923E-002  0.2017687E+03  0.7818608E-02  0.1148467E+00
         21   -1    0    0  503  502  0.00000000000E+00  0.00000000000E+00  0.33621355642E+03  0.33621355642E+03  0.00000000000E+00 0. -1.
         21   -1    0    0  501  503 -0.00000000000E+00 -0.00000000000E+00 -0.28588869240E+03  0.28588869240E+03  0.00000000000E+00 0. -1.
          6    2    1    2  501    0  0.66978041493E+02  0.79141917533E+02 -0.21146304797E+03  0.29158216759E+03  0.17191288097E+03 0.  0.
         24    2    3    3    0    0  0.82137613007E+02  0.43363973158E+02 -0.64443224313E+02  0.13944146803E+03  0.81633156304E+02 0.  0.
         -6    2    1    2    0  502 -0.66978041493E+02 -0.79141917533E+02  0.26178791199E+03  0.33052008123E+03  0.17309278460E+03 0.  0.
        -24    2    5    5    0    0 -0.80768960072E+02 -0.11646199634E+03  0.20746544946E+03  0.26302195050E+03  0.77792109001E+02 0.  0.
          5    1    3    3  501    0 -0.15159571513E+02  0.35777944375E+02 -0.14701982366E+03  0.15214069955E+03  0.47000000000E+01 0. -1.
        -13    1    4    4    0    0 -0.97195092719E+01 -0.11138788384E+02 -0.16901541606E+00  0.14784114223E+02  0.00000000000E+00 0.  1.
         14    1    4    4    0    0  0.91857122279E+02  0.54502761542E+02 -0.64274208897E+02  0.12465735381E+03  0.00000000000E+00 0. -1.
         -5    1    5    5    0  502  0.13790918579E+02  0.37320078806E+02  0.54322462533E+02  0.67498130737E+02  0.47000000000E+01 0.  1.
         13    1    6    6    0    0 -0.19284056563E+01 -0.16951896719E+02  0.84753832428E+02  0.86454020508E+02  0.00000000000E+00 0. -1.
        -14    1    6    6    0    0 -0.78840554415E+02 -0.99510099620E+02  0.12271161703E+03  0.17656792999E+03  0.00000000000E+00 0.  1.
</event>
<event>
12    1  0.8258923E-002  0.1848105E+03  0.7818608E-02  0.1164110E+00
         21   -1    0    0  503  502  0.00000000000E+00  0.00000000000E+00  0.22786395738E+03  0.22786395738E+03  0.00000000000E+00 0. -1.
         21   -1    0    0  501  503 -0.00000000000E+00 -0.00000000000E+00 -0.31995212773E+03  0.31995212773E+03  0.00000000000E+00 0. -1.
          6    2    1    2  501    0 -0.56722088352E+02  0.11594487435E+02 -0.24727959004E+03  0.30648792751E+03  0.17156872272E+03 0.  0.
         24    2    3    3    0    0 -0.99333493254E+02 -0.19536503355E+02 -0.19177349312E+03  0.22975535809E+03  0.75905428404E+02 0.  0.
         -6    2    1    2    0  502  0.56722088352E+02 -0.11594487435E+02  0.15519141968E+03  0.24132815761E+03  0.17550804957E+03 0.  0.
        -24    2    5    5    0    0  0.27179435525E+02 -0.47376687347E+02  0.16779522386E+03  0.19301583986E+03  0.78208727549E+02 0.  0.
          5    1    3    3  501    0  0.42611404901E+02  0.31130990790E+02 -0.55506096917E+02  0.76732569422E+02  0.47000000000E+01 0. -1.
        -13    1    4    4    0    0  0.12833894899E+02 -0.24879101287E+01 -0.20373217290E+02  0.24206745709E+02  0.00000000000E+00 0.  1.
         14    1    4    4    0    0 -0.11216738815E+03 -0.17048593226E+02 -0.17140027583E+03  0.20554861238E+03  0.00000000000E+00 0. -1.
         -5    1    5    5    0  502  0.29542652827E+02  0.35782199912E+02 -0.12603804178E+02  0.48312317750E+02  0.47000000000E+01 0.  1.
         11    1    6    6    0    0 -0.15399002663E+02 -0.39232262610E+02  0.40146453608E+02  0.58206850541E+02  0.00000000000E+00 0. -1.
        -12    1    6    6    0    0  0.42578438188E+02 -0.81444247367E+01  0.12764877025E+03  0.13480898932E+03  0.00000000000E+00 0.  1.
</event>
<event>
12    1  0.8258923E-002  0.1999800E+03  0.7818608E-02  0.1149825E+00
         21   -1    0    0  501  502  0.00000000000E+00  0.00000000000E+00  0.57936282502E+03  0.57936282502E+03  0.00000000000E+00 0.  1.
         21   -1    0    0  502  503 -0.00000000000E+00 -0.00000000000E+00 -0.71017094857E+02  0.71017094857E+02  0.00000000000E+00 0. -1.
         -6    2    1    2    0  503  0.86603395723E+02  0.55437907888E+02  0.19802981801E+03  0.28120794437E+03  0.17113909364E+03 0.  0.
        -24    2    3    3    0    0  0.12053397158E+03  0.23540925134E+02  0.11529345415E+03  0.18614955498E+03  0.79224130107E+02 0.  0.
          6    2    1    2  501    0 -0.86603395723E+02 -0.55437907888E+02  0.31031591216E+03  0.36917197551E+03  0.17151814011E+03 0.  0.
         24    2    5    5    0    0 -0.93859141475E+02 -0.81726966964E+02  0.30922913392E+03  0.34147664088E+03  0.74126941369E+02 0.  0.
          5    1    5    5  501    0  0.72557457529E+01  0.26289059076E+02  0.10867782391E+01  0.27695334634E+02  0.47000000000E+01 0. -1.
        -11    1    6    6    0    0  0.63252790462E+00 -0.41865545713E+02  0.10199352763E+03  0.11025336135E+03  0.00000000000E+00 0.  1.
         12    1    6    6    0    0 -0.94491669380E+02 -0.39861421251E+02  0.20723560628E+03  0.23122327953E+03  0.00000000000E+00 0. -1.
         -5    1    3    3    0  503 -0.33930575854E+02  0.31896982754E+02  0.82736363863E+02  0.95058389382E+02  0.47000000000E+01 0.  1.
         13    1    4    4    0    0  0.25659222857E+02  0.31173000068E+02  0.53478856833E+01  0.40727773474E+02  0.00000000000E+00 0. -1.
        -14    1    4    4    0    0  0.94874748720E+02 -0.76320749343E+01  0.10994556847E+03  0.14542178151E+03  0.00000000000E+00 0.  1.
</event>
<event>
12    1  0.8258923E-002  0.1817294E+03  0.7818608E-02  0.1166303E+00
         21   -1    0    0  501  502  0.00000000000E+00  0.00000000000E+00  0.31685739919E+03  0.31685739919E+03  0.00000000000E+00 0.  1.
         21   -1    0    0  502  503 -0.00000000000E+00 -0.00000000000E+00 -0.24643229133E+03  0.24643229133E+03  0.00000000000E+00 0.  1.
         -6    2    1    2    0  503 -0.52728531323E+02 -0.22880836500E+02 -0.17905671304E+03  0.25463657050E+03  0.17168181575E+03 0.  0.
        -24    2    3    3    0    0  0.21119540052E+01 -0.54553381887E+02 -0.44163723175E+02  0.10554318474E+03  0.78793385360E+02 0.  0.
          6    2    1    2  501    0  0.52728531323E+02  0.22880836500E+02  0.24948182090E+03  0.30865312002E+03  0.17239993864E+03 0.  0.
         24    2    5    5    0    0  0.85518780231E+02  0.51835818885E+02  0.13562194628E+03  0.18658857777E+03  0.80134706255E+02 0.  0.
          5    1    5    5  501    0 -0.32790248909E+02 -0.28954982385E+02  0.11385987461E+03  0.12206454225E+03  0.47000000000E+01 0. -1.
        -13    1    6    6    0    0  0.16386691969E+02 -0.35702490768E+01  0.80537477069E+02  0.82265154013E+02  0.00000000000E+00 0.  1.
         14    1    6    6    0    0  0.69132088262E+02  0.55406067962E+02  0.55084469215E+02  0.10432342375E+03  0.00000000000E+00 0. -1.
         -5    1    3    3    0  503 -0.54840485328E+02  0.31672545387E+02 -0.13489298987E+03  0.14909338576E+03  0.47000000000E+01 0.  1.
         13    1    4    4    0    0 -0.17360027494E+02 -0.28379767308E+02  0.16143315516E+02  0.36978214977E+02  0.00000000000E+00 0. -1.
        -14    1    4    4    0    0  0.19471981499E+02 -0.26173614579E+02 -0.60307038691E+02  0.68564969768E+02  0.00000000000E+00 0.  1.
</event>
<event>
12    1  0.8258923E-002  0.3779082E+03  0.7818608E-02  0.1051753E+00
         21   -1    0    0  501  502  0.00000000000E+00  0.00000000000E+00  0.31329563271E+03  0.31329563271E+03  0.00000000000E+00 0. -1.
         21   -1    0    0  502  503 -0.00000000000E+00 -0.00000000000E+00 -0.52958716639E+03  0.52958716639E+03  0.00000000000E+00 0.  1.
         -6    2    1    2    0  503 -0.33599202666E+03 -0.51540246835E+01 -0.26606411008E+03  0.46217391725E+03  0.17290868446E+03 0.  0.
        -24    2    3    3    0    0 -0.11842353709E+03  0.24286307314E+02 -0.16548531564E+03  0.22063517357E+03  0.81734516993E+02 0.  0.
          6    2    1    2  501    0  0.33599202666E+03  0.51540246835E+01  0.49772576401E+02  0.38070888185E+03  0.17188582667E+03 0.  0.
         24    2    5    5    0    0  0.24903507375E+03  0.50736700348E+02  0.79643961175E+02  0.27797776870E+03  0.79597730006E+02 0.  0.
          5    1    5    5  501    0  0.86956952916E+02 -0.45582675665E+02 -0.29871384774E+02  0.10273111315E+03  0.47000000000E+01 0. -1.
        -11    1    6    6    0    0  0.64154989937E+02  0.62198318837E+01  0.57776935473E+02  0.86560518224E+02  0.00000000000E+00 0.  1.
         12    1    6    6    0    0  0.18488008381E+03  0.44516868465E+02  0.21867025702E+02  0.19141725048E+03  0.00000000000E+00 0. -1.
         -5    1    3    3    0  503 -0.21756848958E+03 -0.29440331998E+02 -0.10057879445E+03  0.24153874368E+03  0.47000000000E+01 0.  1.
         13    1    4    4    0    0 -0.20011150713E+02  0.38377042479E+02 -0.72921300884E+02  0.84798347065E+02  0.00000000000E+00 0. -1.
        -14    1    4    4    0    0 -0.98412386373E+02 -0.14090735165E+02 -0.92564014751E+02  0.13583682651E+03  0.00000000000E+00 0.  1.
</event>
<event>
12    1  0.8258923E-002  0.1985121E+03  0.7818608E-02  0.1151128E+00
         21   -1    0    0  503  502  0.00000000000E+00  0.00000000000E+00  0.76798852290E+03  0.76798852290E+03  0.00000000000E+00 0. -1.
         21   -1    0    0  501  503 -0.00000000000E+00 -0.00000000000E+00 -0.58426693534E+02  0.58426693534E+02  0.00000000000E+00 0. -1.
          6    2    1    2  501    0  0.94178454612E+02 -0.34069140595E+02  0.20950322983E+03  0.28861509780E+03  0.17139656856E+03 0.  0.
         24    2    3    3    0    0  0.11780595163E+03  0.12940987749E+01  0.18802622738E+03  0.24073849654E+03  0.93387604112E+02 0.  0.
         -6    2    1    2    0  502 -0.94178454612E+02  0.34069140595E+02  0.50005859954E+03  0.53780011864E+03  0.17070464839E+03 0.  0.
        -24    2    5    5    0    0 -0.16014751123E+01  0.21873576201E+02  0.36039063110E+03  0.36972733580E+03  0.79598227324E+02 0.  0.
          5    1    3    3  501    0 -0.23627497014E+02 -0.35363239370E+02  0.21477002444E+02  0.47876601256E+02  0.47000000000E+01 0. -1.
        -13    1    4    4    0    0  0.65269307793E+01  0.33643109043E+02  0.47992711372E+02  0.58972535610E+02  0.00000000000E+00 0.  1.
         14    1    4    4    0    0  0.11127902085E+03 -0.32349010268E+02  0.14003351601E+03  0.18176596093E+03  0.00000000000E+00 0. -1.
         -5    1    5    5    0  502 -0.92576979500E+02  0.12195564394E+02  0.13966796843E+03  0.16807278284E+03  0.47000000000E+01 0.  1.
         11    1    6    6    0    0 -0.19406000720E+02  0.47344262833E+02  0.23966218189E+03  0.24506332552E+03  0.00000000000E+00 0. -1.
        -12    1    6    6    0    0  0.17804525608E+02 -0.25470686633E+02  0.12072844921E+03  0.12466401028E+03  0.00000000000E+00 0.  1.
</event>
<event>
12    1  0.8258923E-002  0.2883555E+03  0.7818608E-02  0.1091232E+00
         21   -1    0    0  503  502  0.00000000000E+00  0.00000000000E+00  0.22484758384E+03  0.22484758384E+03  0.00000000000E+00 0. -1.
         21   -1    0    0  501  503 -0.00000000000E+00 -0.00000000000E+00 -0.51270410258E+03  0.51270410258E+03  0.00000000000E+00 0. -1.
          6    2    1    2  501    0 -0.22172533370E+03  0.64928521687E+02 -0.33879003144E+03  0.44489050124E+03  0.17254285310E+03 0.  0.
         24    2    3    3    0    0 -0.14266360143E+03  0.42652036998E+02 -0.31652000051E+03  0.35965527637E+03  0.83635564611E+02 0.  0.
         -6    2    1    2    0  502  0.22172533370E+03 -0.64928521687E+02  0.50933512708E+02  0.29266118518E+03  0.17227451948E+03 0.  0.
        -24    2    5    5    0    0  0.24042454049E+03 -0.76791855402E+02  0.51816995607E+02  0.27000573190E+03  0.80728839335E+02 0.  0.
          5    1    3    3  501    0 -0.79061732272E+02  0.22276484689E+02 -0.22270030930E+02  0.85235224864E+02  0.47000000000E+01 0. -1.
        -11    1    4    4    0    0 -0.50478734454E+01 -0.16877125840E+02 -0.15957254013E+02  0.23768726482E+02  0.00000000000E+00 0.  1.
         12    1    4    4    0    0 -0.13761572798E+03  0.59529162838E+02 -0.30056274650E+03  0.33588654989E+03  0.00000000000E+00 0. -1.
         -5    1    5    5    0  502 -0.18699206790E+02  0.11863333714E+02 -0.88348289874E+00  0.22655453282E+02  0.47000000000E+01 0.  1.
         13    1    6    6    0    0  0.16191997840E+03 -0.11015872368E+02  0.37743391842E+02  0.16662530563E+03  0.00000000000E+00 0. -1.
        -14    1    6    6    0    0  0.78504562091E+02 -0.65775983034E+02  0.14073603765E+02  0.10338042627E+03  0.00000000000E+00 0.  1.
</event>
<event>
12    1  0.8258923E-002  0.1753826E+03  0.7818608E-02  0.1172401E+00
         21   -1    0    0  501  502  0.00000000000E+00  0.00000000000E+00  0.94423047035E+03  0.94423047035E+03  0.00000000000E+00 0. -1.
         21   -1    0    0  502  503 -0.00000000000E+00 -0.00000000000E+00 -0.96160402233E+02  0.96160402233E+02  0.00000000000E+00 0. -1.
         -6    2    1    2    0  503  0.27858643976E+02  0.20652665336E+02  0.98719521678E+00  0.17538539783E+03  0.17191982604E+03 0.  0.
        -24    2    3    3    0    0  0.27616887609E+02  0.63986064991E+01 -0.63189194896E+02  0.10947685751E+03  0.84786044439E+02 0.  0.
          6    2    1    2  501    0 -0.27858643976E+02 -0.20652665336E+02  0.84708287290E+03  0.86500547475E+03  0.17170451702E+03 0.  0.
         24    2    5    5    0    0  0.46693194693E+02 -0.22131924301E+02  0.52160090934E+03  0.53105822824E+03  0.85353714890E+02 0.  0.
          5    1    5    5  501    0 -0.74551838669E+02  0.14792589654E+01  0.32548196356E+03  0.33394724652E+03  0.47000000000E+01 0. -1.
        -13    1    6    6    0    0 -0.36732542169E+01  0.19667533268E+02  0.37053162247E+02  0.42109874067E+02  0.00000000000E+00 0.  1.
         14    1    6    6    0    0  0.50366448910E+02 -0.41799457570E+02  0.48454774710E+03  0.48894835417E+03  0.00000000000E+00 0. -1.
         -5    1    3    3    0  503  0.24175636662E+00  0.14254058837E+02  0.64176390113E+02  0.65908540322E+02  0.47000000000E+01 0.  1.
         13    1    4    4    0    0  0.57534282578E+02  0.69874530049E+01 -0.50875992739E+02  0.77119289470E+02  0.00000000000E+00 0. -1.
        -14    1    4    4    0    0 -0.29917394968E+02 -0.58884650577E+00 -0.12313202157E+02  0.32357568037E+02  0.00000000000E+00 0.  1.
</event>
<event>
12    1  0.8258923E-002  0.3375943E+03  0.7818608E-02  0.1067932E+00
         21   -1    0    0  503  502  0.00000000000E+00  0.00000000000E+00  0.26323784007E+04  0.26323784007E+04  0.00000000000E+00 0.  1.
         21   -1    0    0  501  503 -0.00000000000E+00 -0.00000000000E+00 -0.12143531847E+03  0.12143531847E+03  0.00000000000E+00 0. -1.
          6    2    1    2  501    0 -0.10917424742E+03 -0.26817392007E+03  0.14940422745E+03  0.36826647020E+03  0.17164586272E+03 0.  0.
         24    2    3    3    0    0 -0.14002996236E+02 -0.17028223750E+03  0.38489005064E+02  0.19229878815E+03  0.79405894639E+02 0.  0.
         -6    2    1    2    0  502  0.10917424742E+03  0.26817392007E+03  0.23615388548E+04  0.23855472490E+04  0.17359045681E+03 0.  0.
        -24    2    5    5    0    0  0.44483838025E+00  0.63384732643E+02  0.62065902834E+03  0.62928833987E+03  0.82270061495E+02 0.  0.
          5    1    3    3  501    0 -0.95171251184E+02 -0.97891682567E+02  0.11091522238E+03  0.17596768204E+03  0.47000000000E+01 0. -1.
        -11    1    4    4    0    0  0.15178749772E+02 -0.53205316229E+02  0.45213651063E+02  0.71452602206E+02  0.00000000000E+00 0.  1.
         12    1    4    4    0    0 -0.29181746008E+02 -0.11707692127E+03 -0.67246459992E+01  0.12084618595E+03  0.00000000000E+00 0. -1.
         -5    1    5    5    0  502  0.10872940904E+03  0.20478918742E+03  0.17408798265E+04  0.17562589091E+04  0.47000000000E+01 0.  1.
         13    1    6    6    0    0 -0.35911814053E+02  0.42943437965E+02  0.24464342965E+03  0.25096654145E+03  0.00000000000E+00 0. -1.
        -14    1    6    6    0    0  0.36356652433E+02  0.20441294678E+02  0.37601559869E+03  0.37832179842E+03  0.00000000000E+00 0.  1.
</event>
<event>
12    1  0.8258923E-002  0.2011917E+03  0.7818608E-02  0.1150133E+00
         21   -1    0    0  501  502  0.00000000000E+00  0.00000000000E+00  0.78312331152E+03  0.78312331152E+03  0.00000000000E+00 0. -1.
         21   -1    0    0  502  503 -0.00000000000E+00 -0.00000000000E+00 -0.58311833427E+02  0.58311833427E+02  0.00000000000E+00 0. -1.
         -6    2    1    2    0  503 -0.72655001101E+02  0.56806386409E+02  0.20890978970E+03  0.29003689822E+03  0.17880824191E+03 0.  0.
        -24    2    3    3    0    0 -0.11791288804E+03  0.22130672190E+02  0.14814848927E+03  0.20658207741E+03  0.79592487185E+02 0.  0.
          6    2    1    2  501    0  0.72655001101E+02 -0.56806386409E+02  0.51590168839E+03  0.55139824672E+03  0.17140524987E+03 0.  0.
         24    2    5    5    0    0  0.52754621748E+02 -0.98883613586E+02  0.29115859832E+03  0.32183765629E+03  0.79026125294E+02 0.  0.
          5    1    5    5  501    0  0.19900379353E+02  0.42077227177E+02  0.22474309007E+03  0.22956059043E+03  0.47000000000E+01 0. -1.
        -13    1    6    6    0    0 -0.18540436668E+02 -0.11718013325E+02  0.74506159901E+02  0.77667415892E+02  0.00000000000E+00 0.  1.
         14    1    6    6    0    0  0.71295058415E+02 -0.87165600261E+02  0.21665243842E+03  0.24417024040E+03  0.00000000000E+00 0. -1.
         -5    1    3    3    0  503  0.45257886939E+02  0.34675714219E+02  0.60761300433E+02  0.83454820814E+02  0.47000000000E+01 0.  1.
         13    1    4    4    0    0 -0.10476067149E+03  0.12892198435E+00  0.74361923982E+02  0.12846988227E+03  0.00000000000E+00 0. -1.
        -14    1    4    4    0    0 -0.13152216546E+02  0.22001750206E+02  0.73786565286E+02  0.78112195135E+02  0.00000000000E+00 0.  1.
</event>
<event>
12    1  0.8258923E-002  0.1791547E+03  0.7818608E-02  0.1168848E+00
         21   -1    0    0  501  502  0.00000000000E+00  0.00000000000E+00  0.19767345041E+03  0.19767345041E+03  0.00000000000E+00 0.  1.
         21   -1    0    0  502  503 -0.00000000000E+00 -0.00000000000E+00 -0.31603323214E+03  0.31603323214E+03  0.00000000000E+00 0.  1.
         -6    2    1    2    0  503  0.42212373657E+02  0.26082747248E+02 -0.23868794468E+03  0.29789365630E+03  0.17119141723E+03 0.  0.
        -24    2    3    3    0    0  0.39231606303E+02 -0.80936402586E-01 -0.34285442249E+02  0.91748328156E+02  0.75519127943E+02 0.  0.
          6    2    1    2  501    0 -0.42212373657E+02 -0.26082747248E+02  0.12032816295E+03  0.21581302625E+03  0.17214587218E+03 0.  0.
         24    2    5    5    0    0 -0.74759611450E+02 -0.10486016423E+02  0.24896775816E+02  0.11367674303E+03  0.81262515440E+02 0.  0.
          5    1    5    5  501    0  0.32547237793E+02 -0.15596730825E+02  0.95431387130E+02  0.10213628322E+03  0.47000000000E+01 0. -1.
        -11    1    6    6    0    0 -0.10054832597E+02  0.57791650853E+01  0.43008155635E+02  0.44544358327E+02  0.00000000000E+00 0.  1.
         12    1    6    6    0    0 -0.64704778853E+02 -0.16265181508E+02 -0.18111379819E+02  0.69132384704E+02  0.00000000000E+00 0. -1.
         -5    1    3    3    0  503  0.29807673540E+01  0.26163683650E+02 -0.20440250243E+03  0.20614532814E+03  0.47000000000E+01 0.  1.
         13    1    4    4    0    0 -0.27774553090E+01  0.27335339669E+02 -0.31077671843E+02  0.41482005014E+02  0.00000000000E+00 0. -1.
        -14    1    4    4    0    0  0.42009061612E+02 -0.27416276072E+02 -0.32077704062E+01  0.50266323141E+02  0.00000000000E+00 0.  1.
</event>
<event>
12    1  0.8258923E-002  0.1853408E+03  0.7818608E-02  0.1162986E+00
         21   -1    0    0  501  502  0.00000000000E+00  0.00000000000E+00  0.43862356775E+03  0.43862356775E+03  0.00000000000E+00 0. -1.
         21   -1    0    0  502  503 -0.00000000000E+00 -0.00000000000E+00 -0.19041426976E+03  0.19041426976E+03  0.00000000000E+00 0. -1.
         -6    2    1    2    0  503 -0.49706786561E+02  0.48942784978E+02 -0.11756037259E+03  0.21948044728E+03  0.17171215653E+03 0.  0.
        -24    2    3    3    0    0 -0.83932913696E+02  0.45490487028E+02 -0.34715200265E+02  0.12965417764E+03  0.80566384043E+02 0.  0.
          6    2    1    2  501    0  0.49706786561E+02 -0.48942784978E+02  0.36576967058E+03  0.40955739023E+03  0.17053927155E+03 0.  0.
         24    2    5    5    0    0  0.21785704776E+02 -0.36128105478E+02  0.81447060316E+02  0.12354123766E+03  0.82758424533E+02 0.  0.
          5    1    5    5  501    0  0.27921081785E+02 -0.12814679500E+02  0.28432261027E+03  0.28601615256E+03  0.47000000000E+01 0. -1.
        -11    1    6    6    0    0  0.46653846864E+02  0.26601020658E+01  0.43672163189E+02  0.63960264288E+02  0.00000000000E+00 0.  1.
         12    1    6    6    0    0 -0.24868142088E+02 -0.38788207543E+02  0.37774897127E+02  0.59580973375E+02  0.00000000000E+00 0. -1.
         -5    1    3    3    0  503  0.34226127135E+02  0.34522979498E+01 -0.82845172326E+02  0.89826269640E+02  0.47000000000E+01 0.  1.
         11    1    4    4    0    0 -0.46845068938E+02 -0.67238849816E+00 -0.49977563165E+02  0.68503061319E+02  0.00000000000E+00 0. -1.
        -12    1    4    4    0    0 -0.37087844758E+02  0.46162875526E+02  0.15262362901E+02  0.61151116318E+02  0.00000000000E+00 0.  1.
</event>
<event>
12    1  0.8258923E-002  0.2276266E+03  0.7818608E-02  0.1129151E+00
         21   -1    0    0  501  502  0.00000000000E+00  0.00000000000E+00  0.39159922127E+03  0.39159922127E+03  0.00000000000E+00 0. -1.
         21   -1    0    0  502  503 -0.00000000000E+00 -0.00000000000E+00 -0.13331842328E+03  0.13331842328E+03  0.00000000000E+00 0.  1.
         -6    2    1    2    0  503  0.44895079003E+02 -0.13799094336E+03  0.84339891959E+02  0.23844021594E+03  0.16936189250E+03 0.  0.
        -24    2    3    3    0    0  0.42460137723E+02 -0.14004534460E+03  0.11794080252E+03  0.20436294060E+03  0.80240991728E+02 0.  0.
          6    2    1    2  501    0 -0.44895079003E+02  0.13799094336E+03  0.17394090603E+03  0.28647742861E+03  0.17537619492E+03 0.  0.
         24    2    5    5    0    0 -0.56523177669E+02  0.66590126121E+02  0.25797929161E+02  0.12154798619E+03  0.80493883545E+02 0.  0.
          5    1    5    5  501    0  0.11628098665E+02  0.71400817244E+02  0.14814297687E+03  0.16492944242E+03  0.47000000000E+01 0. -1.
        -13    1    6    6    0    0  0.19600594088E+02  0.59361480844E+01 -0.12763967481E+01  0.20519510992E+02  0.00000000000E+00 0.  1.
         14    1    6    6    0    0 -0.76123771757E+02  0.60653978037E+02  0.27074325909E+02  0.10102847520E+03  0.00000000000E+00 0. -1.
         -5    1    3    3    0  503  0.24349412800E+01  0.20544012326E+01 -0.33600910562E+02  0.34077275332E+02  0.47000000000E+01 0.  1.
         11    1    4    4    0    0  0.15981040214E+02 -0.24669022291E+02  0.71316308282E+02  0.77136049510E+02  0.00000000000E+00 0. -1.
        -12    1    4    4    0    0  0.26479097510E+02 -0.11537632231E+03  0.46624494239E+02  0.12722689109E+03  0.00000000000E+00 0.  1.
</event>
<event>
12    1  0.8258923E-002  0.1950755E+03  0.7818608E-02  0.1154484E+00
         21   -1    0    0  501  502  0.00000000000E+00  0.00000000000E+00  0.18932812664E+03  0.18932812664E+03  0.00000000000E+00 0. -1.
         21   -1    0    0  502  503 -0.00000000000E+00 -0.00000000000E+00 -0.20416555090E+03  0.20416555090E+03  0.00000000000E+00 0.  1.
         -6    2    1    2    0  503  0.31175591701E+02 -0.82122986608E+02  0.25252819558E+02  0.19434129503E+03  0.17150723486E+03 0.  0.
        -24    2    3    3    0    0  0.38222964897E+02 -0.11201265432E+03  0.50047500912E+02  0.15459303810E+03  0.85944315165E+02 0.  0.
          6    2    1    2  501    0 -0.31175591701E+02  0.82122986608E+02 -0.40090243822E+02  0.19915238251E+03  0.17417904972E+03 0.  0.
         24    2    5    5    0    0  0.21016179866E+02  0.98686462820E+02 -0.58285364488E+02  0.14126039533E+03  0.79853727626E+02 0.  0.
          5    1    5    5  501    0 -0.52191771566E+02 -0.16563476212E+02  0.18195120666E+02  0.57891987179E+02  0.47000000000E+01 0. -1.
        -13    1    6    6    0    0 -0.86253992217E+01  0.79557740269E+02 -0.88265974068E+01  0.80509256425E+02  0.00000000000E+00 0.  1.
         14    1    6    6    0    0  0.29641579087E+02  0.19128722551E+02 -0.49458767081E+02  0.60751138906E+02  0.00000000000E+00 0. -1.
         -5    1    3    3    0  503 -0.70473731963E+01  0.29889667712E+02 -0.24794681355E+02  0.39748256922E+02  0.47000000000E+01 0.  1.
         11    1    4    4    0    0  0.12135691029E+02  0.11507476615E+02 -0.41103666921E+01  0.17221850340E+02  0.00000000000E+00 0. -1.
        -12    1    4    4    0    0  0.26087273867E+02 -0.12352013093E+03  0.54157867604E+02  0.13737118776E+03  0.00000000000E+00 0.  1.
</event>
<event>
12    1  0.8258923E-002  0.2167372E+03  0.7818608E-02  0.1136441E+00
         21   -1    0    0  503  502  0.00000000000E+00  0.00000000000E+00  0.35023909289E+02  0.35023909289E+02  0.00000000000E+00 0.  1.
         21   -1    0    0  501  503 -0.00000000000E+00 -0.00000000000E+00 -0.19297031898E+04  0.19297031898E+04  0.00000000000E+00 0.  1.
          6    2    1    2  501    0  0.12289537608E+03 -0.47678299075E+02 -0.14905419460E+04  0.15061401504E+04  0.17136617531E+03 0.  0.
         24    2    3    3    0    0  0.14514411944E+03 -0.11718174113E+02 -0.13203818058E+04  0.13307414602E+04  0.79123890103E+02 0.  0.
         -6    2    1    2    0  502 -0.12289537608E+03  0.47678299075E+02 -0.40413733452E+03  0.45858694875E+03  0.17204217723E+03 0.  0.
        -24    2    5    5    0    0 -0.10372554778E+03 -0.18150007671E+02 -0.17293070890E+03  0.21738279867E+03  0.79131782713E+02 0.  0.
          5    1    3    3  501    0 -0.22248743355E+02 -0.35960124962E+02 -0.17016014024E+03  0.17539869012E+03  0.47000000000E+01 0. -1.
        -11    1    4    4    0    0  0.11074102637E+03 -0.33343451702E+02 -0.74465468009E+03  0.75358208132E+03  0.00000000000E+00 0.  1.
         12    1    4    4    0    0  0.34403093063E+02  0.21625277589E+02 -0.57572712566E+03  0.57715937891E+03  0.00000000000E+00 0. -1.
         -5    1    5    5    0  502 -0.19169828300E+02  0.65828306746E+02 -0.23120662562E+03  0.24120415008E+03  0.47000000000E+01 0.  1.
         11    1    6    6    0    0 -0.37506847598E+02 -0.44115469340E+02 -0.99699324845E+02  0.11529481179E+03  0.00000000000E+00 0. -1.
        -12    1    6    6    0    0 -0.66218700183E+02  0.25965461669E+02 -0.73231384051E+02  0.10208798687E+03  0.00000000000E+00 0.  1.
</event>
<event>
12    1  0.8258923E-002  0.1829330E+03  0.7818608E-02  0.1166212E+00
         21   -1    0    0  501  502  0.00000000000E+00  0.00000000000E+00  0.71711639776E+03  0.71711639776E+03  0.00000000000E+00 0. -1.
         21   -1    0    0  502  503 -0.00000000000E+00 -0.00000000000E+00 -0.78234024855E+02  0.78234024855E+02  0.00000000000E+00 0. -1.
         -6    2    1    2    0  503  0.50867891455E+02  0.27007887376E+02  0.64360533448E+02  0.19392463944E+03  0.17363040965E+03 0.  0.
        -24    2    3    3    0    0  0.58031417785E+02  0.18147485231E+02  0.10975996852E+03  0.14688187655E+03  0.76354818445E+02 0.  0.
          6    2    1    2  501    0 -0.50867891455E+02 -0.27007887376E+02  0.57452183945E+03  0.60142578317E+03  0.16828743354E+03 0.  0.
         24    2    5    5    0    0 -0.82330475858E+02  0.15180954789E+02  0.28172906621E+03  0.30390353075E+03  0.77313133500E+02 0.  0.
          5    1    5    5  501    0  0.31462584402E+02 -0.42188842166E+02  0.29279277324E+03  0.29752225241E+03  0.47000000000E+01 0. -1.
        -13    1    6    6    0    0 -0.20185733663E+01 -0.14590279884E+02  0.73402357067E+01  0.16456912400E+02  0.00000000000E+00 0.  1.
         14    1    6    6    0    0 -0.80311902491E+02  0.29771234673E+02  0.27438883051E+03  0.28744661835E+03  0.00000000000E+00 0. -1.
         -5    1    3    3    0  503 -0.71635263297E+01  0.88604021454E+01 -0.45399435072E+02  0.47042762892E+02  0.47000000000E+01 0.  1.
         11    1    4    4    0    0  0.38825164460E+02  0.46982840921E+02  0.83647786495E+02  0.10349750201E+03  0.00000000000E+00 0. -1.
        -12    1    4    4    0    0  0.19206253325E+02 -0.28835355690E+02  0.26112182025E+02  0.43384374545E+02  0.00000000000E+00 0.  1.
</event>
<event>
12    1  0.8258923E-002  0.1949426E+03  0.7818608E-02  0.1154125E+00
         21   -1    0    0  501  502  0.00000000000E+00  0.00000000000E+00  0.19448972691E+03  0.19448972691E+03  0.00000000000E+00 0. -1.
         21   -1    0    0  502  503 -0.00000000000E+00 -0.00000000000E+00 -0.26070649146E+03  0.26070649146E+03  0.00000000000E+00 0. -1.
         -6    2    1    2    0  503 -0.56514422503E+02 -0.71541233078E+02 -0.14719916005E+03  0.24410200149E+03  0.17206442523E+03 0.  0.
        -24    2    3    3    0    0  0.10059411338E+02 -0.82134395453E+02 -0.49512819747E+02  0.12532068342E+03  0.80040637803E+02 0.  0.
          6    2    1    2  501    0  0.56514422503E+02  0.71541233078E+02  0.80982395501E+02  0.21109421689E+03  0.17230958197E+03 0.  0.
         24    2    5    5    0    0 -0.21415358248E+02 -0.16843839955E+01 -0.28867104755E+01  0.75112017091E+02  0.71916808159E+02 0.  0.
          5    1    5    5  501    0  0.77929780751E+02  0.73225617074E+02  0.83869105976E+02  0.13598219979E+03  0.47000000000E+01 0. -1.
        -11    1    6    6    0    0 -0.32316107346E+02 -0.16331409389E+02 -0.26783996893E+02  0.45038075183E+02  0.00000000000E+00 0.  1.
         12    1    6    6    0    0  0.10900749098E+02  0.14647025393E+02  0.23897286417E+02  0.30073941908E+02  0.00000000000E+00 0. -1.
         -5    1    3    3    0  503 -0.66573833841E+02  0.10593162375E+02 -0.97686340304E+02  0.11878131807E+03  0.47000000000E+01 0.  1.
         11    1    4    4    0    0 -0.29544999003E+02 -0.82651184909E+01 -0.19196463236E+02  0.36190100173E+02  0.00000000000E+00 0. -1.
        -12    1    4    4    0    0  0.39604410341E+02 -0.73869276962E+02 -0.30316356511E+02  0.89130583245E+02  0.00000000000E+00 0.  1.
</event>
<event>
12    1  0.8258923E-002  0.1794748E+03  0.7818608E-02  0.1168554E+00
         21   -1    0    0  503  502  0.00000000000E+00  0.00000000000E+00  0.73353222671E+02  0.73353222671E+02  0.00000000000E+00 0. -1.
         21   -1    0    0  501  503 -0.00000000000E+00 -0.00000000000E+00 -0.11363018479E+04  0.11363018479E+04  0.00000000000E+00 0. -1.
          6    2    1    2  501    0  0.34136659025E+02 -0.33249968860E+02 -0.10066212160E+04  0.10224957110E+04  0.17303275576E+03 0.  0.
         24    2    3    3    0    0 -0.78964301139E+01  0.18783989081E+02 -0.27835849495E+03  0.29115243028E+03  0.82892062909E+02 0.  0.
         -6    2    1    2    0  502 -0.34136659025E+02  0.33249968860E+02 -0.56327409288E+02  0.18715935964E+03  0.17200283994E+03 0.  0.
        -24    2    5    5    0    0 -0.78751597896E+02  0.16133714630E+02 -0.74606781001E+02  0.13578150099E+03  0.80052066317E+02 0.  0.
          5    1    3    3  501    0  0.42033089139E+02 -0.52033957941E+02 -0.72826272103E+03  0.73134328068E+03  0.47000000000E+01 0. -1.
        -11    1    4    4    0    0 -0.34026617929E+02 -0.18460874997E+02 -0.15201508565E+03  0.15686682536E+03  0.00000000000E+00 0.  1.
         12    1    4    4    0    0  0.26130187815E+02  0.37244864078E+02 -0.12634340930E+03  0.13428560492E+03  0.00000000000E+00 0. -1.
         -5    1    5    5    0  502  0.44614938871E+02  0.17116254231E+02  0.18279371713E+02  0.51377858651E+02  0.47000000000E+01 0.  1.
         11    1    6    6    0    0 -0.31924231736E+02 -0.16331128516E+02  0.67167252058E+01  0.36482553749E+02  0.00000000000E+00 0. -1.
        -12    1    6    6    0    0 -0.46827366160E+02  0.32464843146E+02 -0.81323506207E+02  0.99298947244E+02  0.00000000000E+00 0.  1.
</event>
<event>
12    1  0.8258923E-002  0.2008229E+03  0.7818608E-02  0.1149087E+00
         21   -1    0    0  501  502  0.00000000000E+00  0.00000000000E+00  0.16038411599E+04  0.16038411599E+04  0.00000000000E+00 0.  1.
         21   -1    0    0  502  503 -0.00000000000E+00 -0.00000000000E+00 -0.66720675335E+02  0.66720675335E+02  0.00000000000E+00 0.  1.
         -6    2    1    2    0  503 -0.74454886727E+02  0.72206968971E+02  0.10915504433E+03  0.22857091602E+03  0.17196646016E+03 0.  0.
        -24    2    3    3    0    0 -0.35569706894E+02 -0.17813752350E+02  0.93409049611E+02  0.12914348606E+03  0.79813881135E+02 0.  0.
          6    2    1    2  501    0  0.74454886727E+02 -0.72206968971E+02  0.14279654402E+04  0.14419909192E+04  0.17174148039E+03 0.  0.
         24    2    5    5    0    0  0.10494714752E+03 -0.31278852497E+02  0.12314101691E+04  0.12388629958E+04  0.80113964228E+02 0.  0.
          5    1    5    5  501    0 -0.30492260797E+02 -0.40928116474E+02  0.19655527109E+03  0.20312792344E+03  0.47000000000E+01 0. -1.
        -11    1    6    6    0    0  0.77206260080E+02 -0.23330224023E+02  0.11434328189E+04  0.11462738404E+04  0.00000000000E+00 0.  1.
         12    1    6    6    0    0  0.27740887444E+02 -0.79486284733E+01  0.87977350266E+02  0.92589155362E+02  0.00000000000E+00 0. -1.
         -5    1    3    3    0  503 -0.38885179833E+02  0.90020721321E+02  0.15745994724E+02  0.99427429956E+02  0.47000000000E+01 0.  1.
         11    1    4    4    0    0  0.15759361438E+02 -0.43585343170E+01  0.68682330813E+02  0.70601819101E+02  0.00000000000E+00 0. -1.
        -12    1    4    4    0    0 -0.51329068333E+02 -0.13455218033E+02  0.24726718798E+02  0.58541666962E+02  0.00000000000E+00 0.  1.
</event>
<event>
12    1  0.8258923E-002  0.2085489E+03  0.7818608E-02  0.1142798E+00
         21   -1    0    0  501  502  0.00000000000E+00  0.00000000000E+00  0.86253926730E+03  0.86253926730E+03  0.00000000000E+00 0. -1.
         21   -1    0    0  502  503 -0.00000000000E+00 -0.00000000000E+00 -0.11284888157E+03  0.11284888157E+03  0.00000000000E+00 0. -1.
         -6    2    1    2    0  503  0.76057290747E+02  0.89345143857E+02  0.12003465404E+02  0.20889400982E+03  0.17241043457E+03 0.  0.
        -24    2    3    3    0    0  0.10310106584E+03  0.10458045097E+03 -0.14032963634E+02  0.16810839972E+03  0.80601547658E+02 0.  0.
          6    2    1    2  501    0 -0.76057290747E+02 -0.89345143857E+02  0.73768692032E+03  0.76649413905E+03  0.17194186976E+03 0.  0.
         24    2    5    5    0    0 -0.25326908745E+02 -0.87856896979E+02  0.26567456754E+03  0.29173784608E+03  0.78534758827E+02 0.  0.
          5    1    5    5  501    0 -0.50730382002E+02 -0.14882468782E+01  0.47201235278E+03  0.47475629297E+03  0.47000000000E+01 0. -1.
        -13    1    6    6    0    0 -0.14460890900E+02  0.83964036246E+01  0.13151048092E+02  0.21273622761E+02  0.00000000000E+00 0.  1.
         14    1    6    6    0    0 -0.10866017845E+02 -0.96253300604E+02  0.25252351945E+03  0.27046422332E+03  0.00000000000E+00 0. -1.
         -5    1    3    3    0  503 -0.27043775097E+02 -0.15235307109E+02  0.26036429039E+02  0.40785610101E+02  0.47000000000E+01 0.  1.
         13    1    4    4    0    0  0.12172841235E+02  0.70390899331E+01 -0.30655097708E+02  0.33726278572E+02  0.00000000000E+00 0. -1.
        -14    1    4    4    0    0  0.90928224608E+02  0.97541361033E+02  0.16622134073E+02  0.13438212115E+03  0.00000000000E+00 0.  1.
</event>
<event>
12    1  0.8258923E-002  0.1754434E+03  0.7818608E-02  0.1172802E+00
         21   -1    0    0  503  502  0.00000000000E+00  0.00000000000E+00  0.28755410331E+03  0.28755410331E+03  0.00000000000E+00 0. -1.
         21   -1    0    0  501  503 -0.00000000000E+00 -0.00000000000E+00 -0.13635124493E+03  0.13635124493E+03  0.00000000000E+00 0. -1.
          6    2    1    2  501    0 -0.21662501717E+02  0.58384831255E+01 -0.25070853428E+02  0.17520308218E+03  0.17194249169E+03 0.  0.
         24    2    3    3    0    0 -0.17415098262E+02 -0.25393682867E+01  0.52959332974E+02  0.96469170681E+02  0.78688473768E+02 0.  0.
         -6    2    1    2    0  502  0.21662501717E+02 -0.58384831255E+01  0.17627371181E+03  0.24870226606E+03  0.17400299940E+03 0.  0.
        -24    2    5    5    0    0  0.53914474790E+02  0.15129599945E+02  0.18204379725E+03  0.20952020179E+03  0.87310339891E+02 0.  0.
          5    1    3    3  501    0 -0.42474034550E+01  0.83778514122E+01 -0.78030186403E+02  0.78733911502E+02  0.47000000000E+01 0. -1.
        -11    1    4    4    0    0  0.12116956688E+02  0.26148602594E+02 -0.70765462633E+00  0.28828299153E+02  0.00000000000E+00 0.  1.
         12    1    4    4    0    0 -0.29532054950E+02 -0.28687970881E+02  0.53666987601E+02  0.67640871527E+02  0.00000000000E+00 0. -1.
         -5    1    5    5    0  502 -0.32251973073E+02 -0.20968083070E+02 -0.57700854413E+01  0.39182064273E+02  0.47000000000E+01 0.  1.
         13    1    6    6    0    0  0.81421193591E+01  0.40806823085E+02  0.12620826680E+03  0.13289099866E+03  0.00000000000E+00 0. -1.
        -14    1    6    6    0    0  0.45772355431E+02 -0.25677223140E+02  0.55835530455E+02  0.76629203121E+02  0.00000000000E+00 0.  1.
</event>
<event>
12    1  0.8258923E-002  0.3474020E+03  0.7818608E-02  0.1063705E+00
         21   -1    0    0  503  502  0.00000000000E+00  0.00000000000E+00  0.11780750589E+04  0.11780750589E+04  0.00000000000E+00 0. -1.
         21   -1    0    0  501  503 -0.00000000000E+00 -0.00000000000E+00 -0.10251210158E+03  0.10251210158E+03  0.00000000000E+00 0.  1.
          6    2    1    2  501    0  0.88425586951E+02  0.28850286907E+03  0.51579692114E+03  0.62178053178E+03  0.17178933596E+03 0.  0.
         24    2    3    3    0    0  0.43253660228E+02  0.63425255545E+02  0.22928298065E+03  0.25461195582E+03  0.79767917539E+02 0.  0.
         -6    2    1    2    0  502 -0.88425586951E+02 -0.28850286907E+03  0.55976603617E+03  0.65880662868E+03  0.17214868243E+03 0.  0.
        -24    2    5    5    0    0 -0.82387725620E+02 -0.21537220665E+03  0.52324378067E+03  0.57670599103E+03  0.75052124267E+02 0.  0.
          5    1    3    3  501    0  0.45171926724E+02  0.22507761352E+03  0.28651394049E+03  0.36716857596E+03  0.47000000000E+01 0. -1.
        -13    1    4    4    0    0  0.15919043570E+02 -0.17819553385E+02  0.36438124469E+02  0.43573952608E+02  0.00000000000E+00 0.  1.
         14    1    4    4    0    0  0.27334616658E+02  0.81244808931E+02  0.19284485618E+03  0.21103800321E+03  0.00000000000E+00 0. -1.
         -5    1    5    5    0  502 -0.60378613311E+01 -0.73130662421E+02  0.36522255496E+02  0.82100637647E+02  0.47000000000E+01 0.  1.
         13    1    6    6    0    0  0.56460643457E+01 -0.78871744957E+02  0.19662055307E+03  0.21192515680E+03  0.00000000000E+00 0. -1.
        -14    1    6    6    0    0 -0.88033789966E+02 -0.13650046169E+03  0.32662322760E+03  0.36478083423E+03  0.00000000000E+00 0.  1.
</event>
<event>
12    1  0.8258923E-002  0.2667194E+03  0.7818608E-02  0.1103352E+00
         21   -1    0    0  501  502  0.00000000000E+00  0.00000000000E+00  0.14440892944E+03  0.14440892944E+03  0.00000000000E+00 0.  1.
         21   -1    0    0  502  503 -0.00000000000E+00 -0.00000000000E+00 -0.76175465524E+03  0.76175465524E+03  0.00000000000E+00 0. -1.
         -6    2    1    2    0  503  0.82239826780E+02  0.18710654426E+03 -0.57957939486E+03  0.63800590201E+03  0.17136804848E+03 0.  0.
        -24    2    3    3    0    0 -0.27445806772E+01  0.14832254884E+03 -0.42856274600E+03  0.46036957115E+03  0.79164408392E+02 0.  0.
          6    2    1    2  501    0 -0.82239826780E+02 -0.18710654426E+03 -0.37766330934E+02  0.26815768266E+03  0.16944025202E+03 0.  0.
         24    2    5    5    0    0 -0.67857316633E+02 -0.20770007702E+03 -0.55170290507E+02  0.23723943565E+03  0.74127265279E+02 0.  0.
          5    1    5    5  501    0 -0.14382510147E+02  0.20593532757E+02  0.17403959572E+02  0.30918247013E+02  0.47000000000E+01 0. -1.
        -11    1    6    6    0    0 -0.69131677790E+02 -0.95412227259E+02 -0.19588903500E+02  0.11944206598E+03  0.00000000000E+00 0.  1.
         12    1    6    6    0    0  0.12743611568E+01 -0.11228784976E+03 -0.35581387007E+02  0.11779736967E+03  0.00000000000E+00 0. -1.
         -5    1    3    3    0  503  0.84984407458E+02  0.38783995417E+02 -0.15101664886E+03  0.17763633087E+03  0.47000000000E+01 0.  1.
         13    1    4    4    0    0 -0.25539173675E+02  0.12578986869E+03 -0.27476434860E+03  0.30326685892E+03  0.00000000000E+00 0. -1.
        -14    1    4    4    0    0  0.22794592998E+02  0.22532680151E+02 -0.15379839740E+03  0.15710271222E+03  0.00000000000E+00 0.  1.
</event>
<event>
12    1  0.8258923E-002  0.2007104E+03  0.7818608E-02  0.1149412E+00
         21   -1    0    0  503  502  0.00000000000E+00  0.00000000000E+00  0.16370616273E+03  0.16370616273E+03  0.00000000000E+00 0.  1.
         21   -1    0    0  501  503 -0.00000000000E+00 -0.00000000000E+00 -0.26339516340E+03  0.26339516340E+03  0.00000000000E+00 0. -1.
          6    2    1    2  501    0 -0.82148361188E+02 -0.62344183209E+02 -0.10688891981E+03  0.22626187515E+03  0.17068697825E+03 0.  0.
         24    2    3    3    0    0 -0.47241221622E+02  0.61306047187E+01  0.15016487615E+01  0.93303572177E+02  0.80212120639E+02 0.  0.
         -6    2    1    2    0  502  0.82148361188E+02  0.62344183209E+02  0.71999191508E+01  0.20083945097E+03  0.17219028952E+03 0.  0.
        -24    2    5    5    0    0 -0.16197493825E+02  0.58877121030E+02 -0.12450351304E+02  0.10037975335E+03  0.78690593130E+02 0.  0.
          5    1    3    3  501    0 -0.34907139566E+02 -0.68474787928E+02 -0.10839056858E+03  0.13295830298E+03  0.47000000000E+01 0. -1.
        -13    1    4    4    0    0 -0.18735292637E+02 -0.24932963785E+02 -0.27946349490E+02  0.41876751582E+02  0.00000000000E+00 0.  1.
         14    1    4    4    0    0 -0.28505928985E+02  0.31063568504E+02  0.29447998251E+02  0.51426820595E+02  0.00000000000E+00 0. -1.
         -5    1    5    5    0  502  0.98345855013E+02  0.34670621795E+01  0.19650270455E+02  0.10045969763E+03  0.47000000000E+01 0.  1.
         11    1    6    6    0    0  0.16540602031E+02  0.43730174411E+02  0.20936961043E+02  0.51227687897E+02  0.00000000000E+00 0. -1.
        -12    1    6    6    0    0 -0.32738095856E+02  0.15146946619E+02 -0.33387312347E+02  0.49152065449E+02  0.00000000000E+00 0.  1.
</event>
<event>
12    1  0.8258923E-002  0.2307539E+03  0.7818608E-02  0.1128063E+00
         21   -1    0    0  503  502  0.00000000000E+00  0.00000000000E+00  0.38537229402E+02  0.38537229402E+02  0.00000000000E+00 0. -1.
         21   -1    0    0  501  503 -0.00000000000E+00 -0.00000000000E+00 -0.36413207782E+04  0.36413207782E+04  0.00000000000E+00 0.  1.
          6    2    1    2  501    0 -0.15134419747E+03 -0.20426199962E+02 -0.32553972891E+04  0.32628153569E+04  0.15820950557E+03 0.  0.
         24    2    3    3    0    0 -0.17309156176E+03 -0.16991939080E+02 -0.25916099754E+04  0.25986463800E+04  0.79191724179E+02 0.  0.
         -6    2    1    2    0  502  0.15134419747E+03  0.20426199962E+02 -0.34738625971E+03  0.41704265071E+03  0.17298862193E+03 0.  0.
        -24    2    5    5    0    0  0.66683076766E+02 -0.54996533647E+02 -0.15229343335E+03  0.19134507650E+03  0.77125851822E+02 0.  0.
          5    1    3    3  501    0  0.21747364288E+02 -0.34342608829E+01 -0.66378731372E+03  0.66416897688E+03  0.47000000000E+01 0. -1.
        -13    1    4    4    0    0 -0.16012782520E+03 -0.29405886747E+01 -0.24966220550E+04  0.25017536356E+04  0.00000000000E+00 0.  1.
         14    1    4    4    0    0 -0.12963736565E+02 -0.14051350405E+02 -0.94987920322E+02  0.96892744419E+02  0.00000000000E+00 0. -1.
         -5    1    5    5    0  502  0.84661120707E+02  0.75422733610E+02 -0.19509282636E+03  0.22569757421E+03  0.47000000000E+01 0.  1.
         11    1    6    6    0    0 -0.80120716209E+01 -0.12187896378E+02  0.19361735769E+01  0.14713493056E+02  0.00000000000E+00 0. -1.
        -12    1    6    6    0    0  0.74695148387E+02 -0.42808637269E+02 -0.15422960692E+03  0.17663158344E+03  0.00000000000E+00 0.  1.
</event>
<event>
12    1  0.8258923E-002  0.1875023E+03  0.7818608E-02  0.1163043E+00
         21   -1    0    0  501  502  0.00000000000E+00  0.00000000000E+00  0.23800267704E+02  0.23800267704E+02  0.00000000000E+00 0. -1.
         21   -1    0    0  502  503 -0.00000000000E+00 -0.00000000000E+00 -0.14364937039E+04  0.14364937039E+04  0.00000000000E+00 0. -1.
         -6    2    1    2    0  503 -0.24997843052E+02 -0.72788672126E+02 -0.80244053121E+03  0.82188523210E+03  0.16019190263E+03 0.  0.
        -24    2    3    3    0    0  0.36669902359E+02 -0.21800383142E+02 -0.31485589068E+03  0.32775611120E+03  0.80435676725E+02 0.  0.
          6    2    1    2  501    0  0.24997843052E+02  0.72788672126E+02 -0.61025290494E+03  0.63840873946E+03  0.17097961189E+03 0.  0.
         24    2    5    5    0    0  0.49524573075E+02 -0.45503760327E+01 -0.42733324072E+03  0.43824734854E+03  0.83508386521E+02 0.  0.
          5    1    5    5  501    0 -0.24526730023E+02  0.77339048158E+02 -0.18291966422E+03  0.20016139092E+03  0.47000000000E+01 0. -1.
        -13    1    6    6    0    0  0.53588583070E+02  0.19035225840E+02 -0.15927918401E+03  0.16912697750E+03  0.00000000000E+00 0.  1.
         14    1    6    6    0    0 -0.40640099944E+01 -0.23585601873E+02 -0.26805405671E+03  0.26912037104E+03  0.00000000000E+00 0. -1.
         -5    1    3    3    0  503 -0.61667745411E+02 -0.50988288984E+02 -0.48758464053E+03  0.49412912090E+03  0.47000000000E+01 0.  1.
         11    1    4    4    0    0  0.59294071914E+01 -0.23194820151E+02 -0.28095007797E+03  0.28196826747E+03  0.00000000000E+00 0. -1.
        -12    1    4    4    0    0  0.30740495167E+02  0.13944370090E+01 -0.33905812712E+02  0.45787843729E+02  0.00000000000E+00 0.  1.
</event>
<event>
12    1  0.8258923E-002  0.2116219E+03  0.7818608E-02  0.1140358E+00
         21   -1    0    0  503  502  0.00000000000E+00  0.00000000000E+00  0.61130614839E+03  0.61130614839E+03  0.00000000000E+00 0. -1.
         21   -1    0    0  501  503 -0.00000000000E+00 -0.00000000000E+00 -0.16410107652E+03  0.16410107652E+03  0.00000000000E+00 0. -1.
          6    2    1    2  501    0  0.10224656620E+03  0.71537790370E+02 -0.64969795509E+02  0.22137053581E+03  0.17091466890E+03 0.  0.
         24    2    3    3    0    0  0.10874538057E+03  0.10953856957E+03 -0.54436074626E+02  0.18112947365E+03  0.77590875667E+02 0.  0.
         -6    2    1    2    0  502 -0.10224656620E+03 -0.71537790370E+02  0.51217486737E+03  0.55403668909E+03  0.17047446243E+03 0.  0.
        -24    2    5    5    0    0 -0.78250365796E+02 -0.79275066365E+02  0.20947863675E+03  0.25025587813E+03  0.79618147371E+02 0.  0.
          5    1    3    3  501    0 -0.64988143616E+01 -0.38000779204E+02 -0.10533720883E+02  0.40241062161E+02  0.47000000000E+01 0. -1.
        -13    1    4    4    0    0 -0.12233355491E+02  0.68589577503E+01 -0.56505626017E+01  0.15120487615E+02  0.00000000000E+00 0.  1.
         14    1    4    4    0    0  0.12097873606E+03  0.10267961182E+03 -0.48785512024E+02  0.16600898604E+03  0.00000000000E+00 0. -1.
         -5    1    5    5    0  502 -0.23996200409E+02  0.77372759949E+01  0.30269623063E+03  0.30378081096E+03  0.47000000000E+01 0.  1.
         13    1    6    6    0    0  0.35359782826E+01 -0.22304778127E+02  0.98642393416E+02  0.10119450602E+03  0.00000000000E+00 0. -1.
        -14    1    6    6    0    0 -0.81786344079E+02 -0.56970288238E+02  0.11083624333E+03  0.14906137211E+03  0.00000000000E+00 0.  1.
</event>
<event>
12    1  0.8258923E-002  0.2022524E+03  0.7818608E-02  0.1149412E+00
         21   -1    0    0  501  502  0.00000000000E+00  0.00000000000E+00  0.33896650165E+03  0.33896650165E+03  0.00000000000E+00 0.  1.
         21   -1    0    0  502  503 -0.00000000000E+00 -0.00000000000E+00 -0.16921669864E+03  0.16921669864E+03  0.00000000000E+00 0.  1.
         -6    2    1    2    0  503 -0.91535804133E+02  0.48066997166E+01 -0.58239016669E+02  0.20341291575E+03  0.17199745181E+03 0.  0.
        -24    2    3    3    0    0 -0.39576802353E+02 -0.53496882405E+02  0.16744540002E+01  0.10486972967E+03  0.81034663531E+02 0.  0.
          6    2    1    2  501    0  0.91535804133E+02 -0.48066997166E+01  0.22798881968E+03  0.30477028454E+03  0.18028898091E+03 0.  0.
         24    2    5    5    0    0  0.13155136325E+03  0.17876077218E+02  0.18612640983E+03  0.24239797739E+03  0.80550752296E+02 0.  0.
          5    1    5    5  501    0 -0.40015559117E+02 -0.22682776935E+02  0.41862409848E+02  0.62372307150E+02  0.47000000000E+01 0. -1.
        -11    1    6    6    0    0  0.23974197527E+02 -0.15157741356E+02  0.44778735554E+01  0.28715337742E+02  0.00000000000E+00 0.  1.
         12    1    6    6    0    0  0.10757716572E+03  0.33033818574E+02  0.18164853628E+03  0.21368263965E+03  0.00000000000E+00 0. -1.
         -5    1    3    3    0  503 -0.51959001780E+02  0.58303582122E+02 -0.59913470670E+02  0.98543186076E+02  0.47000000000E+01 0.  1.
         11    1    4    4    0    0  0.17841924408E+02 -0.98153722139E+01  0.21937999164E+02  0.29932450711E+02  0.00000000000E+00 0. -1.
        -12    1    4    4    0    0 -0.57418726761E+02 -0.43681510191E+02 -0.20263545163E+02  0.74937278960E+02  0.00000000000E+00 0.  1.
</event>
<event>
12    1  0.8258923E-002  0.3006793E+03  0.7818608E-02  0.1085153E+00
         21   -1    0    0  501  502  0.00000000000E+00  0.00000000000E+00  0.21190943101E+03  0.21190943101E+03  0.00000000000E+00 0.  1.
         21   -1    0    0  502  503 -0.00000000000E+00 -0.00000000000E+00 -0.53155896667E+03  0.53155896667E+03  0.00000000000E+00 0.  1.
         -6    2    1    2    0  503  0.21966742712E+03 -0.10577904345E+03 -0.32677897477E+03  0.44270457443E+03  0.17251045562E+03 0.  0.
        -24    2    3    3    0    0  0.92570208139E+02 -0.13904839776E+02 -0.63132331529E+02  0.13590461539E+03  0.75642482751E+02 0.  0.
          6    2    1    2  501    0 -0.21966742712E+03  0.10577904345E+03  0.71294391056E+01  0.30076382324E+03  0.17596892878E+03 0.  0.
         24    2    5    5    0    0 -0.16087553843E+03  0.70812601343E+02 -0.65461548072E+02  0.20091053252E+03  0.72003225103E+02 0.  0.
          5    1    5    5  501    0 -0.58791888689E+02  0.34966442109E+02  0.72590987177E+02  0.99853290726E+02  0.47000000000E+01 0. -1.
        -11    1    6    6    0    0 -0.45146687824E+02  0.56030453711E+02 -0.36578474307E+02  0.80719390156E+02  0.00000000000E+00 0.  1.
         12    1    6    6    0    0 -0.11572885061E+03  0.14782147632E+02 -0.28883073765E+02  0.12019114236E+03  0.00000000000E+00 0. -1.
         -5    1    3    3    0  503  0.12709721898E+03 -0.91874203676E+02 -0.26364664324E+03  0.30679995904E+03  0.47000000000E+01 0.  1.
         11    1    4    4    0    0  0.21523103893E+01  0.21575981870E+02 -0.35943715055E+01  0.21978965858E+02  0.00000000000E+00 0. -1.
        -12    1    4    4    0    0  0.90417897750E+02 -0.35480821647E+02 -0.59537960023E+02  0.11392564954E+03  0.00000000000E+00 0.  1.
</event>
<event>
12    1  0.8258923E-002  0.1959560E+03  0.7818608E-02  0.1153858E+00
         21   -1    0    0  501  502  0.00000000000E+00  0.00000000000E+00  0.37771399810E+02  0.37771399810E+02  0.00000000000E+00 0.  1.
         21   -1    0    0  502  503 -0.00000000000E+00 -0.00000000000E+00 -0.10961218952E+04  0.10961218952E+04  0.00000000000E+00 0.  1.
         -6    2    1    2    0  503  0.66230131618E+02 -0.57338467182E+02 -0.69998108258E+03  0.72689219791E+03  0.17528440105E+03 0.  0.
        -24    2    3    3    0    0  0.97723388492E+02 -0.35687998276E+02 -0.65302207601E+03  0.66616488667E+03  0.80711403093E+02 0.  0.
          6    2    1    2  501    0 -0.66230131618E+02  0.57338467182E+02 -0.35836941280E+03  0.40700109709E+03  0.17189277720E+03 0.  0.
         24    2    5    5    0    0 -0.44870973262E+02  0.10052231170E+03 -0.30989837011E+03  0.33849861501E+03  0.80163415424E+02 0.  0.
          5    1    5    5  501    0 -0.21359158356E+02 -0.43183844517E+02 -0.48471042682E+02  0.68502482083E+02  0.47000000000E+01 0. -1.
        -13    1    6    6    0    0 -0.20050844343E+02  0.68712980126E+02 -0.90319703335E+02  0.11524391007E+03  0.00000000000E+00 0.  1.
         14    1    6    6    0    0 -0.24820128919E+02  0.31809331573E+02 -0.21957866678E+03  0.22325470494E+03  0.00000000000E+00 0. -1.
         -5    1    3    3    0  503 -0.31493256875E+02 -0.21650468906E+02 -0.46959006572E+02  0.60727311242E+02  0.47000000000E+01 0.  1.
         11    1    4    4    0    0  0.88796773584E+02  0.59104741632E+01 -0.45565066878E+03  0.46425998391E+03  0.00000000000E+00 0. -1.
        -12    1    4    4    0    0  0.89266149080E+01 -0.41598472439E+02 -0.19737140723E+03  0.20190490276E+03  0.00000000000E+00 0.  1.
</event>
<event>
12    1  0.8258923E-002  0.1791483E+03  0.7818608E-02  0.1168643E+00
         21   -1    0    0  503  502  0.00000000000E+00  0.00000000000E+00  0.17503749486E+04  0.17503749486E+04  0.00000000000E+00 0.  1.
         21   -1    0    0  501  503 -0.00000000000E+00 -0.00000000000E+00 -0.25667782318E+02  0.25667782318E+02  0.00000000000E+00 0.  1.
          6    2    1    2  501    0  0.23242685442E+02 -0.38859310362E+02  0.38747158499E+03  0.42686034726E+03  0.17327798030E+03 0.  0.
         24    2    3    3    0    0 -0.12771176963E+02 -0.86008223252E+00  0.74401486979E+02  0.10940812110E+03  0.79187833634E+02 0.  0.
         -6    2    1    2    0  502 -0.23242685442E+02  0.38859310362E+02  0.13372355813E+04  0.13491823837E+04  0.17333157842E+03 0.  0.
        -24    2    5    5    0    0 -0.21568823173E+02  0.95251764064E+02  0.85428521049E+03  0.86292518700E+03  0.72791103852E+02 0.  0.
          5    1    3    3  501    0  0.36013862405E+02 -0.37999228130E+02  0.31307009801E+03  0.31745222615E+03  0.47000000000E+01 0. -1.
        -11    1    4    4    0    0  0.11792157100E+02  0.32519080629E+02  0.51556631219E+02  0.62085681092E+02  0.00000000000E+00 0.  1.
         12    1    4    4    0    0 -0.24563334064E+02 -0.33379162862E+02  0.22844855760E+02  0.47322440008E+02  0.00000000000E+00 0. -1.
         -5    1    5    5    0  502 -0.16738622692E+01 -0.56392453701E+02  0.48295037085E+03  0.48625719671E+03  0.47000000000E+01 0.  1.
         13    1    6    6    0    0 -0.12209741349E+02  0.24243394746E+01  0.20843499294E+02  0.24277698996E+02  0.00000000000E+00 0. -1.
        -14    1    6    6    0    0 -0.93590818240E+01  0.92827424589E+02  0.83344171119E+03  0.83864748800E+03  0.00000000000E+00 0.  1.
</event>
<event>
12    1  0.8258923E-002  0.1762059E+03  0.7818608E-02  0.1171681E+00
         21   -1    0    0  503  502  0.00000000000E+00  0.00000000000E+00  0.65070551542E+03  0.65070551542E+03  0.00000000000E+00 0. -1.
         21   -1    0    0  501  503 -0.00000000000E+00 -0.00000000000E+00 -0.19178268492E+03  0.19178268492E+03  0.00000000000E+00 0. -1.
          6    2    1    2  501    0  0.17392857275E+02 -0.19996717367E+02 -0.13575084500E+03  0.22243381760E+03  0.17420140959E+03 0.  0.
         24    2    3    3    0    0 -0.35644080671E+02 -0.46482307050E+02 -0.12884835481E+03  0.16256615004E+03  0.79967176061E+02 0.  0.
         -6    2    1    2    0  502 -0.17392857275E+02  0.19996717367E+02  0.59467367550E+03  0.62005438275E+03  0.17357498969E+03 0.  0.
        -24    2    5    5    0    0 -0.37398963208E+02  0.61969777124E+02  0.52597531503E+03  0.53696685811E+03  0.80277263024E+02 0.  0.
          5    1    3    3  501    0  0.53036937945E+02  0.26485589682E+02 -0.69024901902E+01  0.59867667553E+02  0.47000000000E+01 0. -1.
        -11    1    4    4    0    0 -0.44734410164E+02 -0.21579874084E+01 -0.30146282990E+02  0.53987246091E+02  0.00000000000E+00 0.  1.
         12    1    4    4    0    0  0.90903294937E+01 -0.44324319641E+02 -0.98702071819E+02  0.10857890395E+03  0.00000000000E+00 0. -1.
         -5    1    5    5    0  502  0.20006105933E+02 -0.41973059757E+02  0.68698360471E+02  0.83087524644E+02  0.47000000000E+01 0.  1.
         11    1    6    6    0    0 -0.27814936902E+02 -0.98222472936E-01  0.53145791350E+02  0.59984627204E+02  0.00000000000E+00 0. -1.
        -12    1    6    6    0    0 -0.95840263059E+01  0.62067999597E+02  0.47282952368E+03  0.47698223090E+03  0.00000000000E+00 0.  1.
</event>
<event>
12    1  0.8258923E-002  0.2154147E+03  0.7818608E-02  0.1137398E+00
         21   -1    0    0  501  502  0.00000000000E+00  0.00000000000E+00  0.63484931038E+02  0.63484931038E+02  0.00000000000E+00 0. -1.
         21   -1    0    0  502  503 -0.00000000000E+00 -0.00000000000E+00 -0.96031185242E+03  0.96031185242E+03  0.00000000000E+00 0. -1.
         -6    2    1    2    0  503 -0.13014042789E+03 -0.10764045719E+02 -0.69886763468E+03  0.73123677466E+03  0.17099372550E+03 0.  0.
        -24    2    3    3    0    0 -0.13204647277E+03 -0.53429075119E+02 -0.45318574416E+03  0.48182623144E+03  0.80549745827E+02 0.  0.
          6    2    1    2  501    0  0.13014042789E+03  0.10764045719E+02 -0.19795928671E+03  0.29256000880E+03  0.17132158039E+03 0.  0.
         24    2    5    5    0    0  0.10118378267E+03  0.70224649348E+02 -0.15444353792E+03  0.21325199484E+03  0.80336465237E+02 0.  0.
          5    1    5    5  501    0  0.28956645224E+02 -0.59460603628E+02 -0.43515748784E+02  0.79308013963E+02  0.47000000000E+01 0. -1.
        -13    1    6    6    0    0 -0.12319487158E+02  0.16078774823E+02 -0.13403614176E+02  0.24288961209E+02  0.00000000000E+00 0.  1.
         14    1    6    6    0    0  0.11350326982E+03  0.54145874525E+02 -0.14103992375E+03  0.18896303363E+03  0.00000000000E+00 0. -1.
         -5    1    3    3    0  503  0.19060448775E+01  0.42665029400E+02 -0.24568189052E+03  0.24941054322E+03  0.47000000000E+01 0.  1.
         13    1    4    4    0    0 -0.12716922703E+03 -0.38807947215E+02 -0.30346431317E+03  0.33131353495E+03  0.00000000000E+00 0. -1.
        -14    1    4    4    0    0 -0.48772457339E+01 -0.14621127904E+02 -0.14972143099E+03  0.15051269649E+03  0.00000000000E+00 0.  1.
</event>
<event>
12    1  0.8258923E-002  0.2403231E+03  0.7818608E-02  0.1120236E+00
         21   -1    0    0  503  502  0.00000000000E+00  0.00000000000E+00  0.71596443668E+02  0.71596443668E+02  0.00000000000E+00 0. -1.
         21   -1    0    0  501  503 -0.00000000000E+00 -0.00000000000E+00 -0.91470841863E+03  0.91470841863E+03  0.00000000000E+00 0.  1.
          6    2    1    2  501    0  0.60958909748E+02  0.15045077965E+03 -0.24509989072E+03  0.34326251124E+03  0.17721108717E+03 0.  0.
         24    2    3    3    0    0  0.96368972157E+02  0.11957129797E+03 -0.12370660232E+03  0.21300954438E+03  0.80532406178E+02 0.  0.
         -6    2    1    2    0  502 -0.60958909748E+02 -0.15045077965E+03 -0.59801208424E+03  0.64304235105E+03  0.17185338687E+03 0.  0.
        -24    2    5    5    0    0 -0.93719931460E+01 -0.45632992799E+02 -0.42039311960E+03  0.43039577807E+03  0.79623780888E+02 0.  0.
          5    1    3    3  501    0 -0.35410062409E+02  0.30879481680E+02 -0.12139328840E+03  0.13025296686E+03  0.47000000000E+01 0. -1.
        -11    1    4    4    0    0 -0.10802019880E+02  0.45266611340E+01 -0.24345409030E+02  0.27016166185E+02  0.00000000000E+00 0.  1.
         12    1    4    4    0    0  0.10717099204E+03  0.11504463683E+03 -0.99361193293E+02  0.18599337819E+03  0.00000000000E+00 0. -1.
         -5    1    5    5    0  502 -0.51586916602E+02 -0.10481778685E+03 -0.17761896464E+03  0.21264657299E+03  0.47000000000E+01 0.  1.
         11    1    6    6    0    0  0.26438034072E+01  0.22578765702E+02 -0.11829129105E+03  0.12045588361E+03  0.00000000000E+00 0. -1.
        -12    1    6    6    0    0 -0.12015796553E+02 -0.68211758501E+02 -0.30210182855E+03  0.30993989446E+03  0.00000000000E+00 0.  1.
</event>
<event>
12    1  0.8258923E-002  0.1757538E+03  0.7818608E-02  0.1172338E+00
         21   -1    0    0  503  502  0.00000000000E+00  0.00000000000E+00  0.12105572346E+03  0.12105572346E+03  0.00000000000E+00 0.  1.
         21   -1    0    0  501  503 -0.00000000000E+00 -0.00000000000E+00 -0.30099446872E+03  0.30099446872E+03  0.00000000000E+00 0.  1.
          6    2    1    2  501    0 -0.57820135322E+01 -0.36651355090E+02 -0.17447570701E+03  0.24765129064E+03  0.17179242098E+03 0.  0.
         24    2    3    3    0    0 -0.67598057057E+02 -0.12301275231E+02 -0.79132281180E+02  0.13134734197E+03  0.79179464682E+02 0.  0.
         -6    2    1    2    0  502  0.57820135322E+01  0.36651355090E+02 -0.54630382457E+01  0.17439890154E+03  0.17031846219E+03 0.  0.
        -24    2    5    5    0    0 -0.82166835059E+00  0.61130609843E+02  0.51097193860E+02  0.11223788174E+03  0.79049302826E+02 0.  0.
          5    1    3    3  501    0  0.61816043524E+02 -0.24350079859E+02 -0.95343425832E+02  0.11630394867E+03  0.47000000000E+01 0. -1.
        -11    1    4    4    0    0 -0.34337030025E+02  0.68761638102E+01  0.81844234167E+01  0.35962453286E+02  0.00000000000E+00 0.  1.
         12    1    4    4    0    0 -0.33261027031E+02 -0.19177439041E+02 -0.87316704597E+02  0.95384888682E+02  0.00000000000E+00 0. -1.
         -5    1    5    5    0  502  0.66036818828E+01 -0.24479254753E+02 -0.56560232106E+02  0.62161019807E+02  0.47000000000E+01 0.  1.
         11    1    6    6    0    0  0.10933021581E+01 -0.46427390698E+01  0.45992270034E+02  0.46238936391E+02  0.00000000000E+00 0. -1.
        -12    1    6    6    0    0 -0.19149705087E+01  0.65773348913E+02  0.51049238259E+01  0.65998945344E+02  0.00000000000E+00 0.  1.
</event>
<event>
12    1  0.8258923E-002  0.2097077E+03  0.7818608E-02  0.1142867E+00
         21   -1    0    0  501  502  0.00000000000E+00  0.00000000000E+00  0.78058837497E+03  0.78058837497E+03  0.00000000000E+00 0.  1.
         21   -1    0    0  502  503 -0.00000000000E+00 -0.00000000000E+00 -0.11740476714E+03  0.11740476714E+03  0.00000000000E+00 0.  1.
         -6    2    1    2    0  503 -0.11694240885E+03 -0.25834676334E+02  0.20550766586E+01  0.20440230350E+03  0.16562946854E+03 0.  0.
        -24    2    3    3    0    0 -0.43666668977E+01  0.26863550424E+00  0.31599329794E+02  0.85030474921E+02  0.78819566587E+02 0.  0.
          6    2    1    2  501    0  0.11694240885E+03  0.25834676334E+02  0.66112853117E+03  0.69359083861E+03  0.17214633075E+03 0.  0.
         24    2    5    5    0    0  0.11812742238E+03 -0.86495358907E+01  0.31829764968E+03  0.34899590474E+03  0.80348275290E+02 0.  0.
          5    1    5    5  501    0 -0.11850135293E+01  0.34484212224E+02  0.34283088148E+03  0.34459493387E+03  0.47000000000E+01 0. -1.
        -11    1    6    6    0    0  0.53808916076E+02 -0.15951780922E+02  0.24437679335E+03  0.25073866054E+03  0.00000000000E+00 0.  1.
         12    1    6    6    0    0  0.64318506306E+02  0.73022450312E+01  0.73920856334E+02  0.98257244196E+02  0.00000000000E+00 0. -1.
         -5    1    3    3    0  503 -0.11257574195E+03 -0.26103311838E+02 -0.29544253135E+02  0.11937182858E+03  0.47000000000E+01 0.  1.
         13    1    4    4    0    0  0.16135854701E+02  0.10985448586E+02 -0.20328002812E+02  0.28182859789E+02  0.00000000000E+00 0. -1.
        -14    1    4    4    0    0 -0.20502521599E+02 -0.10716813081E+02  0.51927332606E+02  0.56847615131E+02  0.00000000000E+00 0.  1.
</event>
<event>
12    1  0.8258923E-002  0.1769199E+03  0.7818608E-02  0.1171048E+00
         21   -1    0    0  501  502  0.00000000000E+00  0.00000000000E+00  0.87736174012E+03  0.87736174012E+03  0.00000000000E+00 0. -1.
         21   -1    0    0  502  503 -0.00000000000E+00 -0.00000000000E+00 -0.38630243397E+02  0.38630243397E+02  0.00000000000E+00 0. -1.
         -6    2    1    2    0  503  0.29080741647E+02  0.10419530187E+02  0.28774807598E+03  0.33730089535E+03  0.17325900447E+03 0.  0.
        -24    2    3    3    0    0  0.40554402422E+01 -0.57837446349E+02  0.19733155921E+03  0.22118665393E+03  0.81376746186E+02 0.  0.
          6    2    1    2  501    0 -0.29080741647E+02 -0.10419530187E+02  0.55098342074E+03  0.57869108817E+03  0.17420215110E+03 0.  0.
         24    2    5    5    0    0  0.44664631956E+02 -0.35992693436E+02  0.29683277725E+03  0.31278319736E+03  0.80207403469E+02 0.  0.
          5    1    5    5  501    0 -0.73745373603E+02  0.25573163249E+02  0.25415064349E+03  0.26590789080E+03  0.47000000000E+01 0. -1.
        -11    1    6    6    0    0  0.28807084602E+02 -0.27051917853E+02  0.43394218732E+02  0.58691674044E+02  0.00000000000E+00 0.  1.
         12    1    6    6    0    0  0.15857547354E+02 -0.89407755835E+01  0.25343855852E+03  0.25409152332E+03  0.00000000000E+00 0. -1.
         -5    1    3    3    0  503  0.25025301405E+02  0.68256976536E+02  0.90416516771E+02  0.11611424142E+03  0.47000000000E+01 0.  1.
         11    1    4    4    0    0  0.25551772927E+02  0.41011328637E+01  0.21891205735E+02  0.33895977328E+02  0.00000000000E+00 0. -1.
        -12    1    4    4    0    0 -0.21496332685E+02 -0.61938579213E+02  0.17544035347E+03  0.18729067660E+03  0.00000000000E+00 0.  1.
</event>
<event>
12    1  0.8258923E-002  0.2668803E+03  0.7818608E-02  0.1103239E+00
         21   -1    0    0  503  502  0.00000000000E+00  0.00000000000E+00  0.13624413026E+03  0.13624413026E+03  0.00000000000E+00 0. -1.
         21   -1    0    0  501  503 -0.00000000000E+00 -0.00000000000E+00 -0.52668115988E+03  0.52668115988E+03  0.00000000000E+00 0.  1.
          6    2    1    2  501    0 -0.65864408877E+02 -0.19258035121E+03 -0.23037981301E+03  0.35172853634E+03  0.17091750351E+03 0.  0.
         24    2    3    3    0    0 -0.22080076588E+01 -0.18426540953E+03 -0.15795784042E+03  0.25483525595E+03  0.77664096462E+02 0.  0.
         -6    2    1    2    0  502  0.65864408877E+02  0.19258035121E+03 -0.16005721662E+03  0.31119675381E+03  0.17262617114E+03 0.  0.
        -24    2    5    5    0    0 -0.12611053569E+02  0.93565962472E+02 -0.25641851449E+02  0.12666538039E+03  0.80454869574E+02 0.  0.
          5    1    3    3  501    0 -0.63656401219E+02 -0.83149416793E+01 -0.72421972589E+02  0.96893280391E+02  0.47000000000E+01 0. -1.
        -13    1    4    4    0    0  0.30784189276E+02 -0.39433423057E+02 -0.53474965131E+02  0.73227269915E+02  0.00000000000E+00 0.  1.
         14    1    4    4    0    0 -0.32992196935E+02 -0.14483198647E+03 -0.10448287528E+03  0.18160798603E+03  0.00000000000E+00 0. -1.
         -5    1    5    5    0  502  0.78475462447E+02  0.99014388735E+02 -0.13441536517E+03  0.18453137342E+03  0.47000000000E+01 0.  1.
         13    1    6    6    0    0 -0.12080211375E+01  0.97766784517E+02  0.56742877829E+00  0.97775893988E+02  0.00000000000E+00 0. -1.
        -14    1    6    6    0    0 -0.11403032432E+02 -0.42008220449E+01 -0.26209280228E+02  0.28889486402E+02  0.00000000000E+00 0.  1.
</event>
<event>
12    1  0.8258923E-002  0.1797088E+03  0.7818608E-02  0.1168287E+00
         21   -1    0    0  503  502  0.00000000000E+00  0.00000000000E+00  0.67858449446E+02  0.67858449446E+02  0.00000000000E+00 0.  1.
         21   -1    0    0  501  503 -0.00000000000E+00 -0.00000000000E+00 -0.59690983468E+03  0.59690983468E+03  0.00000000000E+00 0.  1.
          6    2    1    2  501    0  0.49794675715E+02 -0.34276778021E+02 -0.41503671355E+03  0.45194298040E+03  0.16835253694E+03 0.  0.
         24    2    3    3    0    0  0.84326110550E+02  0.95875308983E+01 -0.20818077126E+03  0.23763486471E+03  0.76995335796E+02 0.  0.
         -6    2    1    2    0  502 -0.49794675715E+02  0.34276778021E+02 -0.11401467168E+03  0.21282530373E+03  0.16923609930E+03 0.  0.
        -24    2    5    5    0    0  0.17944195221E+02  0.24463485582E+02 -0.30932055099E+01  0.82400930997E+02  0.76549913389E+02 0.  0.
          5    1    3    3  501    0 -0.34531434835E+02 -0.43864308920E+02 -0.20685594229E+03  0.21430811569E+03  0.47000000000E+01 0. -1.
        -13    1    4    4    0    0  0.42655162612E+02 -0.28852358150E+02 -0.13874988143E+03  0.14799814548E+03  0.00000000000E+00 0.  1.
         14    1    4    4    0    0  0.41670947938E+02  0.38439889048E+02 -0.69430889830E+02  0.89636719232E+02  0.00000000000E+00 0. -1.
         -5    1    5    5    0  502 -0.67738870936E+02  0.98132924397E+01 -0.11092146617E+03  0.13042437273E+03  0.47000000000E+01 0.  1.
         13    1    6    6    0    0 -0.20022024368E+02 -0.14247351823E+01 -0.24528572465E+02  0.31694829188E+02  0.00000000000E+00 0. -1.
        -14    1    6    6    0    0  0.37966219588E+02  0.25888220764E+02  0.21435366955E+02  0.50706101809E+02  0.00000000000E+00 0.  1.
</event>
<event>
12    1  0.8258923E-002  0.1853976E+03  0.7818608E-02  0.1162823E+00
         21   -1    0    0  503  502  0.00000000000E+00  0.00000000000E+00  0.12430900442E+03  0.12430900442E+03  0.00000000000E+00 0.  1.
         21   -1    0    0  501  503 -0.00000000000E+00 -0.00000000000E+00 -0.27656584953E+03  0.27656584953E+03  0.00000000000E+00 0.  1.
          6    2    1    2  501    0 -0.68367174526E+02  0.76344356813E+01 -0.88179102460E+02  0.20529933607E+03  0.17216244689E+03 0.  0.
         24    2    3    3    0    0 -0.42140688109E+02  0.36877695850E+02 -0.11999621860E+03  0.15453108088E+03  0.79655259921E+02 0.  0.
         -6    2    1    2    0  502  0.68367174526E+02 -0.76344356813E+01 -0.64077742647E+02  0.19557551788E+03  0.17149772865E+03 0.  0.
        -24    2    5    5    0    0 -0.20362801772E+02  0.15889903983E+02  0.47637993257E+00  0.83255760083E+02  0.79146458573E+02 0.  0.
          5    1    3    3  501    0 -0.26226486417E+02 -0.29243260169E+02  0.31817116144E+02  0.50768255188E+02  0.47000000000E+01 0. -1.
        -13    1    4    4    0    0 -0.69279681762E+01  0.20722650099E+02  0.60444203988E+01  0.22670685656E+02  0.00000000000E+00 0.  1.
         14    1    4    4    0    0 -0.35212719933E+02  0.16155045752E+02 -0.12604063900E+03  0.13186039522E+03  0.00000000000E+00 0. -1.
         -5    1    5    5    0  502  0.88729976298E+02 -0.23524339664E+02 -0.64554122580E+02  0.11231975780E+03  0.47000000000E+01 0.  1.
         11    1    6    6    0    0 -0.19924885130E+02  0.22073283219E+02  0.36285868494E+02  0.46913698766E+02  0.00000000000E+00 0. -1.
        -12    1    6    6    0    0 -0.43791664166E+00 -0.61833792363E+01 -0.35809488562E+02  0.36342061317E+02  0.00000000000E+00 0.  1.
</event>
<event>
12    1  0.8258923E-002  0.2156846E+03  0.7818608E-02  0.1140733E+00
         21   -1    0    0  501  502  0.00000000000E+00  0.00000000000E+00  0.10579564625E+04  0.10579564625E+04  0.00000000000E+00 0.  1.
         21   -1    0    0  502  503 -0.00000000000E+00 -0.00000000000E+00 -0.83251915172E+02  0.83251915172E+02  0.00000000000E+00 0.  1.
         -6    2    1    2    0  503  0.80053581874E+02 -0.10055973187E+03  0.67867369441E+02  0.20907451994E+03  0.15028419547E+03 0.  0.
        -24    2    3    3    0    0  0.23991700798E+02 -0.71045769238E+02  0.89437788638E+02  0.14198218443E+03  0.80849982221E+02 0.  0.
          6    2    1    2  501    0 -0.80053581874E+02  0.10055973187E+03  0.90683717784E+03  0.93213385769E+03  0.17320226871E+03 0.  0.
         24    2    5    5    0    0  0.76757018753E+01  0.90833424670E+02  0.39527704743E+03  0.41299333211E+03  0.77523678308E+02 0.  0.
          5    1    5    5  501    0 -0.87729283749E+02  0.97263071989E+01  0.51156013041E+03  0.51914052558E+03  0.47000000000E+01 0. -1.
        -13    1    6    6    0    0  0.26786481414E+02  0.50910398356E+01  0.52740172384E+02  0.59371374047E+02  0.00000000000E+00 0.  1.
         14    1    6    6    0    0 -0.19110779538E+02  0.85742384835E+02  0.34253687505E+03  0.35362195806E+03  0.00000000000E+00 0. -1.
         -5    1    3    3    0  503  0.56061881075E+02 -0.29513962631E+02 -0.21570419197E+02  0.67092335510E+02  0.47000000000E+01 0.  1.
         11    1    4    4    0    0  0.11375525034E+02 -0.26693962606E+02  0.91333414661E+02  0.95831951056E+02  0.00000000000E+00 0. -1.
        -12    1    4    4    0    0  0.12616175764E+02 -0.44351806632E+02 -0.18956260236E+01  0.46150233374E+02  0.00000000000E+00 0.  1.
</event>
<event>
12    1  0.8258923E-002  0.2547423E+03  0.7818608E-02  0.1110588E+00
         21   -1    0    0  501  502  0.00000000000E+00  0.00000000000E+00  0.23148523821E+03  0.23148523821E+03  0.00000000000E+00 0. -1.
         21   -1    0    0  502  503 -0.00000000000E+00 -0.00000000000E+00 -0.28136221257E+03  0.28136221257E+03  0.00000000000E+00 0.  1.
         -6    2    1    2    0  503  0.11091150220E+02 -0.18685697457E+03 -0.50396655219E+02  0.25967952429E+03  0.17278625501E+03 0.  0.
        -24    2    3    3    0    0  0.10413873659E+02 -0.12770352211E+03  0.35595304700E+02  0.15519844077E+03  0.80018072823E+02 0.  0.
          6    2    1    2  501    0 -0.11091150220E+02  0.18685697457E+03  0.51968086031E+00  0.25316792649E+03  0.17045581943E+03 0.  0.
         24    2    5    5    0    0 -0.39771985892E+02  0.18843287968E+03 -0.31068194689E+02  0.21021495578E+03  0.78334755412E+02 0.  0.
          5    1    5    5  501    0  0.28680835672E+02 -0.15759051053E+01  0.31587875550E+02  0.42952970718E+02  0.47000000000E+01 0. -1.
        -13    1    6    6    0    0 -0.28360793998E+02  0.66951614991E+02 -0.47860650631E+02  0.87048809670E+02  0.00000000000E+00 0.  1.
         14    1    6    6    0    0 -0.11411191894E+02  0.12148126469E+03  0.16792455941E+02  0.12316614611E+03  0.00000000000E+00 0. -1.
         -5    1    3    3    0  503  0.67727656071E+00 -0.59153452461E+02 -0.85991959920E+02  0.10448108351E+03  0.47000000000E+01 0.  1.
         13    1    4    4    0    0  0.39474164194E+02 -0.41639413870E+02 -0.69249428626E+00  0.57380571403E+02  0.00000000000E+00 0. -1.
        -14    1    4    4    0    0 -0.29060290535E+02 -0.86064108241E+02  0.36287798986E+02  0.97817869372E+02  0.00000000000E+00 0.  1.
</event>
<event>
12    1  0.8258923E-002  0.1966422E+03  0.7818608E-02  0.1153014E+00
         21   -1    0    0  503  502  0.00000000000E+00  0.00000000000E+00  0.19805343009E+03  0.19805343009E+03  0.00000000000E+00 0.  1.
         21   -1    0    0  501  503 -0.00000000000E+00 -0.00000000000E+00 -0.20132135077E+03  0.20132135077E+03  0.00000000000E+00 0.  1.
          6    2    1    2  501    0  0.60587973499E+02  0.69707835279E+02  0.38055901142E+02  0.20029080728E+03  0.17360319996E+03 0.  0.
         24    2    3    3    0    0  0.22166787712E+02 -0.28461156655E+02 -0.13488105367E+01  0.87649075236E+02  0.79869500964E+02 0.  0.
         -6    2    1    2    0  502 -0.60587973499E+02 -0.69707835279E+02 -0.41323821825E+02  0.19908397359E+03  0.17145461632E+03 0.  0.
        -24    2    5    5    0    0 -0.26879921277E+02 -0.96337456056E+01  0.39227800454E+02  0.92990699123E+02  0.79329128148E+02 0.  0.
          5    1    3    3  501    0  0.38421185787E+02  0.98168991934E+02  0.39404711678E+02  0.11264173204E+03  0.47000000000E+01 0. -1.
        -13    1    4    4    0    0 -0.26741185490E+01  0.25381033811E+02 -0.10600325331E+02  0.27635388263E+02  0.00000000000E+00 0.  1.
         14    1    4    4    0    0  0.24840906261E+02 -0.53842190466E+02  0.92515147939E+01  0.60013686973E+02  0.00000000000E+00 0. -1.
         -5    1    5    5    0  502 -0.33708052222E+02 -0.60074089674E+02 -0.80551622279E+02  0.10609327446E+03  0.47000000000E+01 0.  1.
         11    1    6    6    0    0 -0.12246313550E+02  0.32723210277E+02  0.24636431978E+01  0.35026421801E+02  0.00000000000E+00 0. -1.
        -12    1    6    6    0    0 -0.14633607727E+02 -0.42356955882E+02  0.36764157256E+02  0.57964277322E+02  0.00000000000E+00 0.  1.
</event>
<event>
12    1  0.8258923E-002  0.1973926E+03  0.7818608E-02  0.1152417E+00
         21   -1    0    0  501  502  0.00000000000E+00  0.00000000000E+00  0.50536941543E+02  0.50536941543E+02  0.00000000000E+00 0. -1.
         21   -1    0    0  502  503 -0.00000000000E+00 -0.00000000000E+00 -0.10344196029E+04  0.10344196029E+04  0.00000000000E+00 0. -1.
         -6    2    1    2    0  503  0.70092785135E+02 -0.60633468360E+02 -0.77193130576E+03  0.79676959872E+03  0.17428263431E+03 0.  0.
        -24    2    3    3    0    0  0.54615111378E+02 -0.47263876553E+02 -0.76962466456E+03  0.77565763615E+03  0.64077763698E+02 0.  0.
          6    2    1    2  501    0 -0.70092785135E+02  0.60633468360E+02 -0.21195135558E+03  0.28818694571E+03  0.17186891089E+03 0.  0.
         24    2    5    5    0    0 -0.98030589824E+02  0.18782901997E+02 -0.19799221829E+03  0.23575662671E+03  0.80109141728E+02 0.  0.
          5    1    5    5  501    0  0.27937804688E+02  0.41850566363E+02 -0.13959137296E+02  0.52430318994E+02  0.47000000000E+01 0. -1.
        -13    1    6    6    0    0 -0.15133499880E+02  0.14322391425E+02 -0.12018252988E+03  0.12197538359E+03  0.00000000000E+00 0.  1.
         14    1    6    6    0    0 -0.82897089944E+02  0.44605105721E+01 -0.77809688408E+02  0.11378124312E+03  0.00000000000E+00 0. -1.
         -5    1    3    3    0  503  0.15477673757E+02 -0.13369591807E+02 -0.23066412008E+01  0.21111962572E+02  0.47000000000E+01 0.  1.
         13    1    4    4    0    0  0.28059850675E+02  0.11082099549E+02 -0.17431807498E+03  0.17690946672E+03  0.00000000000E+00 0. -1.
        -14    1    4    4    0    0  0.26555260703E+02 -0.58345976102E+02 -0.59530658958E+03  0.59874816943E+03  0.00000000000E+00 0.  1.
</event>
<event>
12    1  0.8258923E-002  0.1843649E+03  0.7818608E-02  0.1166586E+00
         21   -1    0    0  501  502  0.00000000000E+00  0.00000000000E+00  0.30504799960E+02  0.30504799960E+02  0.00000000000E+00 0. -1.
         21   -1    0    0  502  503 -0.00000000000E+00 -0.00000000000E+00 -0.10425684447E+04  0.10425684447E+04  0.00000000000E+00 0. -1.
         -6    2    1    2    0  503 -0.20584970628E+01  0.22503832524E+02 -0.49639243268E+03  0.52543538519E+03  0.17078125455E+03 0.  0.
        -24    2    3    3    0    0 -0.41087750684E+02 -0.40403378772E+02 -0.31593825631E+03  0.33032926115E+03  0.77329184008E+02 0.  0.
          6    2    1    2  501    0  0.20584970628E+01 -0.22503832524E+02 -0.51567121209E+03  0.54763785949E+03  0.18297476952E+03 0.  0.
         24    2    5    5    0    0  0.62281613148E+02 -0.14998010657E+02 -0.17261375127E+03  0.19922191195E+03  0.76091546284E+02 0.  0.
          5    1    5    5  501    0 -0.60223116085E+02 -0.75058218664E+01 -0.34305746082E+03  0.34841594753E+03  0.47000000000E+01 0. -1.
        -13    1    6    6    0    0 -0.14953952263E+02  0.10271434850E+02 -0.28854856976E+02  0.34084099420E+02  0.00000000000E+00 0.  1.
         14    1    6    6    0    0  0.77235565411E+02 -0.25269445508E+02 -0.14375889429E+03  0.16513781253E+03  0.00000000000E+00 0. -1.
         -5    1    3    3    0  503  0.39029253621E+02  0.62907211296E+02 -0.18045417637E+03  0.19510612404E+03  0.47000000000E+01 0.  1.
         13    1    4    4    0    0 -0.85038059579E+01 -0.29573110474E+02 -0.32267137160E+02  0.44587573598E+02  0.00000000000E+00 0. -1.
        -14    1    4    4    0    0 -0.32583944726E+02 -0.10830268298E+02 -0.28367111915E+03  0.28574168755E+03  0.00000000000E+00 0.  1.
</event>
<event>
12    1  0.8258923E-002  0.2161026E+03  0.7818608E-02  0.1137121E+00
         21   -1    0    0  501  502  0.00000000000E+00  0.00000000000E+00  0.42824066809E+02  0.42824066809E+02  0.00000000000E+00 0.  1.
         21   -1    0    0  502  503 -0.00000000000E+00 -0.00000000000E+00 -0.12997514095E+04  0.12997514095E+04  0.00000000000E+00 0.  1.
         -6    2    1    2    0  503 -0.10201362820E+03  0.78321087262E+02 -0.90091353708E+03  0.92610679241E+03  0.17171958714E+03 0.  0.
        -24    2    3    3    0    0 -0.17988598380E+02 -0.61566643008E+01 -0.22010621635E+03  0.23493576140E+03  0.79916026695E+02 0.  0.
          6    2    1    2  501    0  0.10201362820E+03 -0.78321087262E+02 -0.35601380566E+03  0.41646868395E+03  0.17366450945E+03 0.  0.
         24    2    5    5    0    0  0.10793457404E+03 -0.37207295012E+02 -0.14395177152E+03  0.20032568074E+03  0.79837402037E+02 0.  0.
          5    1    5    5  501    0 -0.59209458439E+01 -0.41113792250E+02 -0.21206203415E+03  0.21614300321E+03  0.47000000000E+01 0. -1.
        -13    1    6    6    0    0  0.43768150395E+02 -0.46026864463E+02 -0.11043658443E+03  0.12739843964E+03  0.00000000000E+00 0.  1.
         14    1    6    6    0    0  0.64166423646E+02  0.88195694509E+01 -0.33515187086E+02  0.72927241098E+02  0.00000000000E+00 0. -1.
         -5    1    3    3    0  503 -0.84025029817E+02  0.84477751563E+02 -0.68080732073E+03  0.69117103100E+03  0.47000000000E+01 0.  1.
         11    1    4    4    0    0  0.21449937968E+02 -0.12686800121E+02 -0.16491902407E+03  0.16679130444E+03  0.00000000000E+00 0. -1.
        -12    1    4    4    0    0 -0.39438536348E+02  0.65301358200E+01 -0.55187192279E+02  0.68144456963E+02  0.00000000000E+00 0.  1.
</event>
<event>
12    1  0.8258923E-002  0.1858752E+03  0.7818608E-02  0.1162257E+00
         21   -1    0    0  501  502  0.00000000000E+00  0.00000000000E+00  0.47076515920E+03  0.47076515920E+03  0.00000000000E+00 0. -1.
         21   -1    0    0  502  503 -0.00000000000E+00 -0.00000000000E+00 -0.12295693011E+03  0.12295693011E+03  0.00000000000E+00 0. -1.
         -6    2    1    2    0  503 -0.57635531531E+02  0.38890585956E+02 -0.14675996389E+02  0.18635934911E+03  0.17227910482E+03 0.  0.
        -24    2    3    3    0    0 -0.91250284182E+01  0.56808872993E+02  0.44823610866E+02  0.10738702999E+03  0.78818170023E+02 0.  0.
          6    2    1    2  501    0  0.57635531531E+02 -0.38890585956E+02  0.36248422548E+03  0.40736274020E+03  0.17238113647E+03 0.  0.
         24    2    5    5    0    0  0.27489441114E+02 -0.90042495259E+02  0.20736491691E+03  0.24120199127E+03  0.79466165781E+02 0.  0.
          5    1    5    5  501    0  0.30146090417E+02  0.51151909303E+02  0.15511930857E+03  0.16616074893E+03  0.47000000000E+01 0. -1.
        -13    1    6    6    0    0 -0.64335459338E+01  0.78937803825E+01  0.95068604812E+00  0.10227711668E+02  0.00000000000E+00 0.  1.
         14    1    6    6    0    0  0.33922987048E+02 -0.97936275642E+02  0.20641423086E+03  0.23097427960E+03  0.00000000000E+00 0. -1.
         -5    1    3    3    0  503 -0.48510503113E+02 -0.17918287037E+02 -0.59499607254E+02  0.78972319113E+02  0.47000000000E+01 0.  1.
         11    1    4    4    0    0 -0.10670826717E+02 -0.69220458328E+01 -0.15204641206E+02  0.19823278627E+02  0.00000000000E+00 0. -1.
        -12    1    4    4    0    0  0.15457982985E+01  0.63730918826E+02  0.60028252072E+02  0.87563751368E+02  0.00000000000E+00 0.  1.
</event>
<event>
12    1  0.8258923E-002  0.1796965E+03  0.7818608E-02  0.1168224E+00
         21   -1    0    0  501  502  0.00000000000E+00  0.00000000000E+00  0.74106942663E+02  0.74106942663E+02  0.00000000000E+00 0.  1.
         21   -1    0    0  502  503 -0.00000000000E+00 -0.00000000000E+00 -0.52456507311E+03  0.52456507311E+03  0.00000000000E+00 0.  1.
         -6    2    1    2    0  503  0.48440784199E+02 -0.56954618867E+01 -0.34955644524E+03  0.39304010761E+03  0.17295048401E+03 0.  0.
        -24    2    3    3    0    0  0.10904127353E+02 -0.52433906306E+02 -0.30009952897E+03  0.31518409075E+03  0.80081641166E+02 0.  0.
          6    2    1    2  501    0 -0.48440784199E+02  0.56954618867E+01 -0.10090168520E+03  0.20563190816E+03  0.17240760922E+03 0.  0.
         24    2    5    5    0    0  0.35537548901E+02 -0.22696999982E+02 -0.50491311645E+02  0.10354474891E+03  0.79962936949E+02 0.  0.
          5    1    5    5  501    0 -0.83978333100E+02  0.28392461869E+02 -0.50410373560E+02  0.10208715925E+03  0.47000000000E+01 0. -1.
        -11    1    6    6    0    0 -0.80866071038E+01  0.49679852610E+01  0.16448917237E+02  0.18990549499E+02  0.00000000000E+00 0.  1.
         12    1    6    6    0    0  0.43624156005E+02 -0.27664985243E+02 -0.66940228881E+02  0.84554199413E+02  0.00000000000E+00 0. -1.
         -5    1    3    3    0  503  0.37536656846E+02  0.46738444419E+02 -0.49456916273E+02  0.77856016859E+02  0.47000000000E+01 0.  1.
         11    1    4    4    0    0  0.13835203823E+02 -0.70899798893E+02 -0.18549258294E+03  0.19906203222E+03  0.00000000000E+00 0. -1.
        -12    1    4    4    0    0 -0.29310764700E+01  0.18465892587E+02 -0.11460694603E+03  0.11612205853E+03  0.00000000000E+00 0.  1.
</event>
<event>
12    1  0.8258923E-002  0.1901189E+03  0.7818608E-02  0.1158370E+00
         21   -1    0    0  501  502  0.00000000000E+00  0.00000000000E+00  0.87027188447E+02  0.87027188447E+02  0.00000000000E+00 0. -1.
         21   -1    0    0  502  503 -0.00000000000E+00 -0.00000000000E+00 -0.81940497991E+03  0.81940497991E+03  0.00000000000E+00 0. -1.
         -6    2    1    2    0  503  0.91676356252E+01  0.79444852654E+02 -0.68447839993E+03  0.71037211068E+03  0.17240164010E+03 0.  0.
        -24    2    3    3    0    0  0.71419914598E+02  0.66714415152E+02 -0.47681093668E+03  0.49315039085E+03  0.79353772834E+02 0.  0.
          6    2    1    2  501    0 -0.91676356252E+01 -0.79444852654E+02 -0.47899391537E+02  0.19606005768E+03  0.17248091011E+03 0.  0.
         24    2    5    5    0    0 -0.78520987839E+01  0.25927487406E+02 -0.17245146599E+02  0.86210918313E+02  0.80006482842E+02 0.  0.
          5    1    5    5  501    0 -0.13155368413E+01 -0.10537234006E+03 -0.30654244939E+02  0.10984913937E+03  0.47000000000E+01 0. -1.
        -13    1    6    6    0    0 -0.40573829825E+02  0.31365034267E+02 -0.96907346424E+01  0.52191104407E+02  0.00000000000E+00 0.  1.
         14    1    6    6    0    0  0.32721731041E+02 -0.54375468613E+01 -0.75544119562E+01  0.34019813906E+02  0.00000000000E+00 0. -1.
         -5    1    3    3    0  503 -0.62252278973E+02  0.12730437502E+02 -0.20766746325E+03  0.21722171983E+03  0.47000000000E+01 0.  1.
         11    1    4    4    0    0  0.24790264120E+02  0.73744932266E+02 -0.32509151634E+03  0.33427139606E+03  0.00000000000E+00 0. -1.
        -12    1    4    4    0    0  0.46629650478E+02 -0.70305171135E+01 -0.15171942034E+03  0.15887899478E+03  0.00000000000E+00 0.  1.
</event>
<event>
12    1  0.8258923E-002  0.1897208E+03  0.7818608E-02  0.1159438E+00
         21   -1    0    0  503  502  0.00000000000E+00  0.00000000000E+00  0.16814765290E+03  0.16814765290E+03  0.00000000000E+00 0. -1.
         21   -1    0    0  501  503 -0.00000000000E+00 -0.00000000000E+00 -0.10267244560E+04  0.10267244560E+04  0.00000000000E+00 0. -1.
          6    2    1    2  501    0  0.15768481073E+02 -0.76981113308E+02 -0.96271407362E+03  0.98123002286E+03  0.17268246415E+03 0.  0.
         24    2    3    3    0    0 -0.55576442766E+02 -0.42036373475E+02 -0.69834666541E+03  0.70514407696E+03  0.68441993729E+02 0.  0.
         -6    2    1    2    0  502 -0.15768481073E+02  0.76981113308E+02  0.10413727050E+03  0.21364208604E+03  0.16918520331E+03 0.  0.
        -24    2    5    5    0    0  0.20892670241E+02  0.30399926607E+02 -0.57229485330E+01  0.88721292348E+02  0.80486373807E+02 0.  0.
          5    1    3    3  501    0  0.71344923839E+02 -0.34944739833E+02 -0.26436740821E+03  0.27608594590E+03  0.47000000000E+01 0. -1.
        -13    1    4    4    0    0 -0.38003213687E+02 -0.20769663968E+02 -0.15061019317E+03  0.15671328430E+03  0.00000000000E+00 0.  1.
         14    1    4    4    0    0 -0.17573229079E+02 -0.21266709507E+02 -0.54773647224E+03  0.54843079266E+03  0.00000000000E+00 0. -1.
         -5    1    5    5    0  502 -0.36661151314E+02  0.46581186701E+02  0.10986021904E+03  0.12492079369E+03  0.47000000000E+01 0.  1.
         13    1    6    6    0    0  0.21741716746E+02 -0.21058645071E+02 -0.18785439741E+02  0.35623889816E+02  0.00000000000E+00 0. -1.
        -14    1    6    6    0    0 -0.84904650533E+00  0.51458571678E+02  0.13062491208E+02  0.53097402533E+02  0.00000000000E+00 0.  1.
</event>
<event>
12    1  0.8258923E-002  0.2150335E+03  0.7818608E-02  0.1137731E+00
         21   -1    0    0  501  502  0.00000000000E+00  0.00000000000E+00  0.17973914836E+03  0.17973914836E+03  0.00000000000E+00 0. -1.
         21   -1    0    0  502  503 -0.00000000000E+00 -0.00000000000E+00 -0.26256841266E+03  0.26256841266E+03  0.00000000000E+00 0.  1.
         -6    2    1    2    0  503 -0.88544318823E+02 -0.93118113609E+02 -0.74523534056E+02  0.22758114066E+03  0.17241907950E+03 0.  0.
        -24    2    3    3    0    0 -0.75346479016E+02  0.47263144960E+01 -0.89392058943E+01  0.10895943443E+03  0.78056511589E+02 0.  0.
          6    2    1    2  501    0  0.88544318823E+02  0.93118113609E+02 -0.83057302379E+01  0.21472642036E+03  0.17183530187E+03 0.  0.
         24    2    5    5    0    0  0.95363125952E+02  0.11846464341E+03 -0.36805176922E+02  0.17569756994E+03  0.79918818232E+02 0.  0.
          5    1    5    5  501    0 -0.68188071289E+01 -0.25346529797E+02  0.28499446684E+02  0.39028850415E+02  0.47000000000E+01 0. -1.
        -13    1    6    6    0    0  0.61409675801E+02  0.79090366548E+02  0.16218074637E+02  0.10143697702E+03  0.00000000000E+00 0.  1.
         14    1    6    6    0    0  0.33953450151E+02  0.39374276859E+02 -0.53023251558E+02  0.74260592922E+02  0.00000000000E+00 0. -1.
         -5    1    3    3    0  503 -0.13197839807E+02 -0.97844428105E+02 -0.65584328162E+02  0.11862170622E+03  0.47000000000E+01 0.  1.
         11    1    4    4    0    0 -0.50753141404E+02  0.99000694588E+01  0.32080812858E+02  0.60852865925E+02  0.00000000000E+00 0. -1.
        -12    1    4    4    0    0 -0.24593337612E+02 -0.51737549628E+01 -0.41020018752E+02  0.48106568509E+02  0.00000000000E+00 0.  1.
</event>
<event>
12    1  0.8258923E-002  0.2227696E+03  0.7818608E-02  0.1132054E+00
         21   -1    0    0  501  502  0.00000000000E+00  0.00000000000E+00  0.41317651711E+02  0.41317651711E+02  0.00000000000E+00 0. -1.
         21   -1    0    0  502  503 -0.00000000000E+00 -0.00000000000E+00 -0.12529398693E+04  0.12529398693E+04  0.00000000000E+00 0. -1.
         -6    2    1    2    0  503 -0.13276446714E+03 -0.49400472851E+02 -0.74689428793E+03  0.77940834339E+03  0.17192870021E+03 0.  0.
        -24    2    3    3    0    0 -0.33054068923E+02  0.14881628035E+02 -0.46557420450E+03  0.47406029387E+03  0.81607524184E+02 0.  0.
          6    2    1    2  501    0  0.13276446714E+03  0.49400472851E+02 -0.46472792967E+03  0.51484917762E+03  0.17038432039E+03 0.  0.
         24    2    5    5    0    0  0.74021388174E+02  0.91763513443E+02 -0.36272757551E+03  0.38966316091E+03  0.79789577159E+02 0.  0.
          5    1    5    5  501    0  0.58743078964E+02 -0.42363040592E+02 -0.10200035415E+03  0.12518601672E+03  0.47000000000E+01 0. -1.
        -13    1    6    6    0    0  0.10311859951E+01 -0.37854863310E+01 -0.10707578481E+03  0.10714764086E+03  0.00000000000E+00 0.  1.
         14    1    6    6    0    0  0.72990202179E+02  0.95548999774E+02 -0.25565179071E+03  0.28251552004E+03  0.00000000000E+00 0. -1.
         -5    1    3    3    0  503 -0.99710398215E+02 -0.64282100886E+02 -0.28132008343E+03  0.30534804952E+03  0.47000000000E+01 0.  1.
         11    1    4    4    0    0 -0.34444637248E+02 -0.27689417125E+02 -0.18106706648E+03  0.18638245470E+03  0.00000000000E+00 0. -1.
        -12    1    4    4    0    0  0.13905683252E+01  0.42571045159E+02 -0.28450713802E+03  0.28767783918E+03  0.00000000000E+00 0.  1.
</event>
<event>
12    1  0.8258923E-002  0.1843319E+03  0.7818608E-02  0.1164448E+00
         21   -1    0    0  503  502  0.00000000000E+00  0.00000000000E+00  0.14219171628E+03  0.14219171628E+03  0.00000000000E+00 0. -1.
         21   -1    0    0  501  503 -0.00000000000E+00 -0.00000000000E+00 -0.41566620719E+03  0.41566620719E+03  0.00000000000E+00 0.  1.
          6    2    1    2  501    0  0.57101200914E+02 -0.25048480976E+02 -0.32143997550E+03  0.37054271613E+03  0.17346548096E+03 0.  0.
         24    2    3    3    0    0 -0.96912222020E+01 -0.53744780722E+02 -0.10360921160E+03  0.14085371530E+03  0.78246272383E+02 0.  0.
         -6    2    1    2    0  502 -0.57101200914E+02  0.25048480976E+02  0.47965484591E+02  0.18731520734E+03  0.16999507535E+03 0.  0.
        -24    2    5    5    0    0 -0.83605537378E+02  0.38858971342E+01 -0.13909491306E+02  0.11659790077E+03  0.79978812439E+02 0.  0.
          5    1    3    3  501    0  0.66792423116E+02  0.28696299746E+02 -0.21783076390E+03  0.22968900084E+03  0.47000000000E+01 0. -1.
        -13    1    4    4    0    0 -0.17041456452E+02 -0.45982121152E+02 -0.14544718611E+02  0.51149931995E+02  0.00000000000E+00 0.  1.
         14    1    4    4    0    0  0.73502342500E+01 -0.77626595698E+01 -0.89064492989E+02  0.89703783301E+02  0.00000000000E+00 0. -1.
         -5    1    5    5    0  502  0.26504336465E+02  0.21162583842E+02  0.61874975897E+02  0.70717306570E+02  0.47000000000E+01 0.  1.
         13    1    6    6    0    0 -0.64450105748E+02  0.19582063050E+02  0.23836992651E+02  0.71452610470E+02  0.00000000000E+00 0. -1.
        -14    1    6    6    0    0 -0.19155431630E+02 -0.15696165916E+02 -0.37746483957E+02  0.45145290303E+02  0.00000000000E+00 0.  1.
</event>
<event>
12    1  0.8258923E-002  0.3145312E+03  0.7818608E-02  0.1078203E+00
         21   -1    0    0  503  502  0.00000000000E+00  0.00000000000E+00  0.13965266284E+03  0.13965266284E+03  0.00000000000E+00 0.  1.
         21   -1    0    0  501  503 -0.00000000000E+00 -0.00000000000E+00 -0.70827171872E+03  0.70827171872E+03  0.00000000000E+00 0.  1.
          6    2    1    2  501    0  0.25715264280E+03  0.57056994594E+02 -0.28118695396E+03  0.42189567147E+03  0.17189203643E+03 0.  0.
         24    2    3    3    0    0  0.19180813824E+03  0.71016011292E+02 -0.12407442898E+03  0.25109990474E+03  0.76308993447E+02 0.  0.
         -6    2    1    2    0  502 -0.25715264280E+03 -0.57056994594E+02 -0.28743210192E+03  0.42602871010E+03  0.17175641555E+03 0.  0.
        -24    2    5    5    0    0 -0.48146268167E+02 -0.14201653603E+02 -0.44989629182E+02  0.10304157804E+03  0.77934266966E+02 0.  0.
          5    1    3    3  501    0  0.65344504568E+02 -0.13959016698E+02 -0.15711252498E+03  0.17079576672E+03  0.47000000000E+01 0. -1.
        -13    1    4    4    0    0  0.80970540848E+02  0.28993010439E+02 -0.99919166861E+01  0.86583263617E+02  0.00000000000E+00 0.  1.
         14    1    4    4    0    0  0.11083759739E+03  0.42023000852E+02 -0.11408251229E+03  0.16451664113E+03  0.00000000000E+00 0. -1.
         -5    1    5    5    0  502 -0.20900637464E+03 -0.42855340991E+02 -0.24244247274E+03  0.32298713206E+03  0.47000000000E+01 0.  1.
         13    1    6    6    0    0 -0.36856687135E+02  0.13718857126E+02 -0.58129707871E+02  0.70183227088E+02  0.00000000000E+00 0. -1.
        -14    1    6    6    0    0 -0.11289581033E+02 -0.27920510729E+02  0.13140078689E+02  0.32858350951E+02  0.00000000000E+00 0.  1.
</event>
<event>
12    1  0.8258923E-002  0.1871511E+03  0.7818608E-02  0.1162723E+00
         21   -1    0    0  501  502  0.00000000000E+00  0.00000000000E+00  0.21150012733E+04  0.21150012733E+04  0.00000000000E+00 0. -1.
         21   -1    0    0  502  503 -0.00000000000E+00 -0.00000000000E+00 -0.45616362391E+02  0.45616362391E+02  0.00000000000E+00 0. -1.
         -6    2    1    2    0  503 -0.54140849362E+02  0.17547598707E+02  0.17036273402E+03  0.25307901844E+03  0.17828734851E+03 0.  0.
        -24    2    3    3    0    0 -0.34185393708E+02  0.16567413985E+02  0.19910673004E+03  0.21775921833E+03  0.79576798586E+02 0.  0.
          6    2    1    2  501    0  0.54140849362E+02 -0.17547598707E+02  0.18990221769E+04  0.19075386172E+04  0.17081919746E+03 0.  0.
         24    2    5    5    0    0  0.31729051220E+02 -0.76783401579E+02  0.13176432546E+04  0.13227012806E+04  0.80327504148E+02 0.  0.
          5    1    5    5  501    0  0.22411798141E+02  0.59235802872E+02  0.58137892229E+03  0.58483733663E+03  0.47000000000E+01 0. -1.
        -13    1    6    6    0    0  0.12119397303E+02 -0.28261522562E+02  0.11876763662E+03  0.12268392298E+03  0.00000000000E+00 0.  1.
         14    1    6    6    0    0  0.19609653917E+02 -0.48521879018E+02  0.11988756180E+04  0.12000173576E+04  0.00000000000E+00 0. -1.
         -5    1    3    3    0  503 -0.19955455654E+02  0.98018472215E+00 -0.28743996015E+02  0.35319800104E+02  0.47000000000E+01 0.  1.
         13    1    4    4    0    0 -0.95067566893E+01 -0.23459180002E+02  0.19094552272E+02  0.31706678723E+02  0.00000000000E+00 0. -1.
        -14    1    4    4    0    0 -0.24678637018E+02  0.40026593987E+02  0.18001217777E+03  0.18605253961E+03  0.00000000000E+00 0.  1.
</event>
<event>
12    1  0.8258923E-002  0.2015428E+03  0.7818608E-02  0.1148708E+00
         21   -1    0    0  503  502  0.00000000000E+00  0.00000000000E+00  0.32139984306E+02  0.32139984306E+02  0.00000000000E+00 0. -1.
         21   -1    0    0  501  503 -0.00000000000E+00 -0.00000000000E+00 -0.14546539047E+04  0.14546539047E+04  0.00000000000E+00 0. -1.
          6    2    1    2  501    0 -0.39512452656E+02 -0.97217045125E+02 -0.98409342519E+03  0.10042671583E+04  0.17058800649E+03 0.  0.
         24    2    3    3    0    0 -0.27967404890E+02 -0.89943618626E+02 -0.37559109011E+03  0.39559370508E+03  0.80954816147E+02 0.  0.
         -6    2    1    2    0  502  0.39512452656E+02  0.97217045125E+02 -0.43842049518E+03  0.48252673068E+03  0.17206721783E+03 0.  0.
        -24    2    5    5    0    0  0.14997805595E+02 -0.16878823445E+02 -0.14862459262E+03  0.17008059087E+03  0.79550669416E+02 0.  0.
          5    1    3    3  501    0 -0.11545047766E+02 -0.72734264996E+01 -0.60850233508E+03  0.60867345322E+03  0.47000000000E+01 0. -1.
        -13    1    4    4    0    0 -0.40557750000E+02 -0.11073548723E+02 -0.95648602811E+02  0.10448066704E+03  0.00000000000E+00 0.  1.
         14    1    4    4    0    0  0.12590345109E+02 -0.78870069903E+02 -0.27994248730E+03  0.29111303803E+03  0.00000000000E+00 0. -1.
         -5    1    5    5    0  502  0.24514647061E+02  0.11409586857E+03 -0.28979590256E+03  0.31244613981E+03  0.47000000000E+01 0.  1.
         13    1    6    6    0    0  0.46068333719E+02 -0.22127364609E+02 -0.95435012731E+02  0.10825780938E+03  0.00000000000E+00 0. -1.
        -14    1    6    6    0    0 -0.31070528124E+02  0.52485411650E+01 -0.53189579888E+02  0.61822781488E+02  0.00000000000E+00 0.  1.
</event>
<event>
12    1  0.8258923E-002  0.1906341E+03  0.7818608E-02  0.1158230E+00
         21   -1    0    0  501  502  0.00000000000E+00  0.00000000000E+00  0.57578117396E+02  0.57578117396E+02  0.00000000000E+00 0. -1.
         21   -1    0    0  502  503 -0.00000000000E+00 -0.00000000000E+00 -0.76986000344E+03  0.76986000344E+03  0.00000000000E+00 0.  1.
         -6    2    1    2    0  503 -0.17357915574E+02  0.76969371406E+02 -0.53601262141E+03  0.56890324222E+03  0.17353900811E+03 0.  0.
        -24    2    3    3    0    0 -0.73350204705E+02  0.54113194361E+02 -0.27317497813E+03  0.29915658702E+03  0.81003731675E+02 0.  0.
          6    2    1    2  501    0  0.17357915574E+02 -0.76969371406E+02 -0.17626926463E+03  0.25853487861E+03  0.17188324070E+03 0.  0.
         24    2    5    5    0    0  0.59720839947E+02 -0.82010315752E+02 -0.17277433283E+03  0.21547291129E+03  0.79280103439E+02 0.  0.
          5    1    5    5  501    0 -0.42362924372E+02  0.50409443458E+01 -0.34949318069E+01  0.43061967321E+02  0.47000000000E+01 0. -1.
        -13    1    6    6    0    0 -0.57633615281E+01 -0.59082115224E+02 -0.78370939080E+02  0.98315394357E+02  0.00000000000E+00 0.  1.
         14    1    6    6    0    0  0.65484201475E+02 -0.22928200528E+02 -0.94403393747E+02  0.11715751693E+03  0.00000000000E+00 0. -1.
         -5    1    3    3    0  503  0.55992289130E+02  0.22856177045E+02 -0.26283764328E+03  0.26974665521E+03  0.47000000000E+01 0.  1.
         11    1    4    4    0    0  0.11874504598E+02  0.12321238386E+02 -0.11037024232E+02  0.20362531245E+02  0.00000000000E+00 0. -1.
        -12    1    4    4    0    0 -0.85224709303E+02  0.41791955976E+02 -0.26213795390E+03  0.27879405577E+03  0.00000000000E+00 0.  1.
</event>
<event>
12    1  0.8258923E-002  0.2049372E+03  0.7818608E-02  0.1145728E+00
         21   -1    0    0  501  502  0.00000000000E+00  0.00000000000E+00  0.46981384696E+03  0.46981384696E+03  0.00000000000E+00 0. -1.
         21   -1    0    0  502  503 -0.00000000000E+00 -0.00000000000E+00 -0.10095458779E+03  0.10095458779E+03  0.00000000000E+00 0. -1.
         -6    2    1    2    0  503  0.67550681884E+02  0.87572815164E+02  0.87247351122E+02  0.22273603058E+03  0.17253158106E+03 0.  0.
        -24    2    3    3    0    0 -0.23270383536E+02  0.75238617351E+02  0.64138445703E+02  0.12809613483E+03  0.78054591468E+02 0.  0.
          6    2    1    2  501    0 -0.67550681884E+02 -0.87572815164E+02  0.28161190805E+03  0.34803240417E+03  0.17201510113E+03 0.  0.
         24    2    5    5    0    0 -0.66645697909E+02 -0.53673010660E+02  0.28981012819E+03  0.31282847605E+03  0.80927769686E+02 0.  0.
          5    1    5    5  501    0 -0.90498397502E+00 -0.33899804503E+02 -0.81982201353E+01  0.35203928115E+02  0.47000000000E+01 0. -1.
        -11    1    6    6    0    0  0.62722534805E+01 -0.43395948225E+02  0.11900803315E+03  0.12682847251E+03  0.00000000000E+00 0.  1.
         12    1    6    6    0    0 -0.72917951389E+02 -0.10277062435E+02  0.17080209504E+03  0.18600000354E+03  0.00000000000E+00 0. -1.
         -5    1    3    3    0  503  0.90821065420E+02  0.12334197813E+02  0.23108905419E+02  0.94639895760E+02  0.47000000000E+01 0.  1.
         11    1    4    4    0    0 -0.10782082959E+02  0.59427588652E+02 -0.49012357384E+00  0.60399766780E+02  0.00000000000E+00 0. -1.
        -12    1    4    4    0    0 -0.12488300577E+02  0.15811028699E+02  0.64628569276E+02  0.67696368045E+02  0.00000000000E+00 0.  1.
</event>
<event>
12    1  0.8258923E-002  0.1728527E+03  0.7818608E-02  0.1175379E+00
         21   -1    0    0  503  502  0.00000000000E+00  0.00000000000E+00  0.25538911956E+03  0.25538911956E+03  0.00000000000E+00 0.  1.
         21   -1    0    0  501  503 -0.00000000000E+00 -0.00000000000E+00 -0.15666882250E+03  0.15666882250E+03  0.00000000000E+00 0.  1.
          6    2    1    2  501    0  0.68955371435E+01  0.15091646663E+02 -0.56133690223E+02  0.17998506574E+03  0.17020084160E+03 0.  0.
         24    2    3    3    0    0 -0.43389052410E+02  0.55411682418E+02 -0.32434122903E+02  0.11115189989E+03  0.79685055708E+02 0.  0.
         -6    2    1    2    0  502 -0.68955371435E+01 -0.15091646663E+02  0.15485398729E+03  0.23207287633E+03  0.17205451554E+03 0.  0.
        -24    2    5    5    0    0 -0.55590086082E+02  0.11375899566E+02  0.14558341256E+03  0.17568383789E+03  0.80315702843E+02 0.  0.
          5    1    3    3  501    0  0.50284589554E+02 -0.40320035755E+02 -0.23699567320E+02  0.68833165851E+02  0.47000000000E+01 0. -1.
        -13    1    4    4    0    0 -0.46189100185E+01  0.50175512924E+02 -0.47482727454E+02  0.69235293265E+02  0.00000000000E+00 0.  1.
         14    1    4    4    0    0 -0.38770142392E+02  0.52361694937E+01  0.15048604551E+02  0.41916606625E+02  0.00000000000E+00 0. -1.
         -5    1    5    5    0  502  0.48694548939E+02 -0.26467546229E+02  0.92705747302E+01  0.56389038434E+02  0.47000000000E+01 0.  1.
         13    1    6    6    0    0 -0.49866014447E+02 -0.24820284264E+02  0.56420694900E+02  0.79284050859E+02  0.00000000000E+00 0. -1.
        -14    1    6    6    0    0 -0.57240716355E+01  0.36196183829E+02  0.89162717657E+02  0.96399787032E+02  0.00000000000E+00 0.  1.
</event>
<event>
12    1  0.8258923E-002  0.1759033E+03  0.7818608E-02  0.1171879E+00
         21   -1    0    0  501  502  0.00000000000E+00  0.00000000000E+00  0.40055053329E+02  0.40055053329E+02  0.00000000000E+00 0.  1.
         21   -1    0    0  502  503 -0.00000000000E+00 -0.00000000000E+00 -0.12593221031E+04  0.12593221031E+04  0.00000000000E+00 0.  1.
         -6    2    1    2    0  503 -0.29364454544E+02  0.16189080734E+02 -0.10141794048E+04  0.10293210596E+04  0.17267779539E+03 0.  0.
        -24    2    3    3    0    0  0.21518413308E+02  0.40409368897E+02 -0.36798436811E+03  0.38065642815E+03  0.85970122238E+02 0.  0.
          6    2    1    2  501    0  0.29364454544E+02 -0.16189080734E+02 -0.20508764499E+03  0.27005609688E+03  0.17246737607E+03 0.  0.
         24    2    5    5    0    0  0.46799930925E+02  0.44205116984E+02 -0.16611128657E+03  0.19594333502E+03  0.81587407797E+02 0.  0.
          5    1    5    5  501    0 -0.17435476381E+02 -0.60394197718E+02 -0.38976358415E+02  0.74112761856E+02  0.47000000000E+01 0. -1.
        -13    1    6    6    0    0  0.61203933229E+01  0.59918138507E+02 -0.92340073485E+02  0.11024668570E+03  0.00000000000E+00 0.  1.
         14    1    6    6    0    0  0.40679537602E+02 -0.15713021523E+02 -0.73771213085E+02  0.85696649322E+02  0.00000000000E+00 0. -1.
         -5    1    3    3    0  503 -0.50882867852E+02 -0.24220288163E+02 -0.64619503669E+03  0.64866463141E+03  0.47000000000E+01 0.  1.
         13    1    4    4    0    0 -0.12834897043E+02  0.50060973937E+02 -0.12809027316E+03  0.13812296613E+03  0.00000000000E+00 0. -1.
        -14    1    4    4    0    0  0.34353310351E+02 -0.96516050399E+01 -0.23989409495E+03  0.24253346202E+03  0.00000000000E+00 0.  1.
</event>
<event>
12    1  0.8258923E-002  0.2047295E+03  0.7818608E-02  0.1146277E+00
         21   -1    0    0  503  502  0.00000000000E+00  0.00000000000E+00  0.12216619739E+03  0.12216619739E+03  0.00000000000E+00 0.  1.
         21   -1    0    0  501  503 -0.00000000000E+00 -0.00000000000E+00 -0.56916180454E+03  0.56916180454E+03  0.00000000000E+00 0. -1.
          6    2    1    2  501    0  0.63337462224E+02  0.90688029631E+02 -0.44242480323E+03  0.48654751417E+03  0.16956657746E+03 0.  0.
         24    2    3    3    0    0  0.94746685844E+02  0.63396534662E+02 -0.22059656242E+03  0.26080158741E+03  0.79740639322E+02 0.  0.
         -6    2    1    2    0  502 -0.63337462224E+02 -0.90688029631E+02 -0.45708039214E+01  0.20478048776E+03  0.17227362850E+03 0.  0.
        -24    2    5    5    0    0 -0.73077061527E+02 -0.10496377399E+03 -0.46879618889E+02  0.15883723476E+03  0.81694049399E+02 0.  0.
          5    1    3    3  501    0 -0.31409223620E+02  0.27291494969E+02 -0.22182824082E+03  0.22574592676E+03  0.47000000000E+01 0. -1.
        -13    1    4    4    0    0  0.55894834494E+02  0.48910672426E+02 -0.20225545976E+03  0.21546173072E+03  0.00000000000E+00 0.  1.
         14    1    4    4    0    0  0.38851851350E+02  0.14485862236E+02 -0.18341102652E+02  0.45339856689E+02  0.00000000000E+00 0. -1.
         -5    1    5    5    0  502  0.97395993030E+01  0.14275744363E+02  0.42308814968E+02  0.45943252994E+02  0.47000000000E+01 0.  1.
         11    1    6    6    0    0 -0.20901736971E+02  0.81495785972E+01 -0.22757591521E+02  0.31956317240E+02  0.00000000000E+00 0. -1.
        -12    1    6    6    0    0 -0.52175324556E+02 -0.11311335259E+03 -0.24122027368E+02  0.12688091752E+03  0.00000000000E+00 0.  1.
</event>
<event>
12    1  0.8258923E-002  0.2254591E+03  0.7818608E-02  0.1130190E+00
         21   -1    0    0  501  502  0.00000000000E+00  0.00000000000E+00  0.10785019842E+03  0.10785019842E+03  0.00000000000E+00 0.  1.
         21   -1    0    0  502  503 -0.00000000000E+00 -0.00000000000E+00 -0.10126052420E+04  0.10126052420E+04  0.00000000000E+00 0.  1.
         -6    2    1    2    0  503 -0.14000170739E+03 -0.34962868139E+02 -0.86413581070E+03  0.89306356290E+03  0.17323090895E+03 0.  0.
        -24    2    3    3    0    0 -0.87491758357E+02 -0.22033800837E+02 -0.80016330907E+03  0.80916465650E+03  0.79660680329E+02 0.  0.
          6    2    1    2  501    0  0.14000170739E+03  0.34962868139E+02 -0.40619232873E+02  0.22739187752E+03  0.17098030196E+03 0.  0.
         24    2    5    5    0    0  0.14615818662E+03  0.40122439794E+02 -0.78478179368E+02  0.18840581275E+03  0.79786590041E+02 0.  0.
          5    1    5    5  501    0 -0.61564792278E+01 -0.51595716549E+01  0.37858946495E+02  0.38986064765E+02  0.47000000000E+01 0. -1.
        -13    1    6    6    0    0  0.13793184140E+03  0.46215532284E+02 -0.43311339205E+02  0.15177924891E+03  0.00000000000E+00 0.  1.
         14    1    6    6    0    0  0.82263452224E+01 -0.60930924900E+01 -0.35166840163E+02  0.36626563842E+02  0.00000000000E+00 0. -1.
         -5    1    3    3    0  503 -0.52509949038E+02 -0.12929067303E+02 -0.63972501627E+02  0.83898906392E+02  0.47000000000E+01 0.  1.
         11    1    4    4    0    0  0.76385186336E+01 -0.23996813511E+02 -0.17420181806E+03  0.17601269113E+03  0.00000000000E+00 0. -1.
        -12    1    4    4    0    0 -0.95130276990E+02  0.19630126750E+01 -0.62596149102E+03  0.63315196537E+03  0.00000000000E+00 0.  1.
</event>
<event>
12    1  0.8258923E-002  0.1868939E+03  0.7818608E-02  0.1161518E+00
         21   -1    0    0  503  502  0.00000000000E+00  0.00000000000E+00  0.89815149189E+02  0.89815149189E+02  0.00000000000E+00 0. -1.
         21   -1    0    0  501  503 -0.00000000000E+00 -0.00000000000E+00 -0.40843975474E+03  0.40843975474E+03  0.00000000000E+00 0. -1.
          6    2    1    2  501    0  0.77997258898E+02 -0.13887511699E+02 -0.21695104448E+03  0.28635135980E+03  0.16927170520E+03 0.  0.
         24    2    3    3    0    0 -0.24173551432E+02 -0.86944138966E+00 -0.10584314349E+03  0.13477497542E+03  0.79852404221E+02 0.  0.
         -6    2    1    2    0  502 -0.77997258898E+02  0.13887511699E+02 -0.10167356108E+03  0.21190354413E+03  0.16819382752E+03 0.  0.
        -24    2    5    5    0    0 -0.10836565128E+03  0.37855635943E+02 -0.10386737986E+03  0.17287005753E+03  0.76938031158E+02 0.  0.
          5    1    3    3  501    0  0.10217081033E+03 -0.13018070310E+02 -0.11110790099E+03  0.15157638438E+03  0.47000000000E+01 0. -1.
        -13    1    4    4    0    0 -0.19392495330E+02  0.22243796133E+01  0.77772506690E+01  0.21011957732E+02  0.00000000000E+00 0.  1.
         14    1    4    4    0    0 -0.47810561019E+01 -0.30938210030E+01 -0.11362039416E+03  0.11376301769E+03  0.00000000000E+00 0. -1.
         -5    1    5    5    0  502  0.30368392385E+02 -0.23968124244E+02  0.21938187871E+01  0.39033486607E+02  0.47000000000E+01 0.  1.
         11    1    6    6    0    0 -0.11424784467E+03  0.36506591694E+02 -0.70842079090E+02  0.13929788735E+03  0.00000000000E+00 0. -1.
        -12    1    6    6    0    0  0.58821933874E+01  0.13490442491E+01 -0.33025300774E+02  0.33572170181E+02  0.00000000000E+00 0.  1.
</event>
<event>
12    1  0.8258923E-002  0.2134205E+03  0.7818608E-02  0.1139351E+00
         21   -1    0    0  503  502  0.00000000000E+00  0.00000000000E+00  0.23999151460E+03  0.23999151460E+03  0.00000000000E+00 0. -1.
         21   -1    0    0  501  503 -0.00000000000E+00 -0.00000000000E+00 -0.20796517866E+03  0.20796517866E+03  0.00000000000E+00 0. -1.
          6    2    1    2  501    0  0.36947131398E+01  0.12598522775E+03 -0.53864435698E+02  0.22011293240E+03  0.17222774765E+03 0.  0.
         24    2    3    3    0    0 -0.57565144432E+02  0.38921521327E+02 -0.15219644554E+02  0.10676228614E+03  0.79611038719E+02 0.  0.
         -6    2    1    2    0  502 -0.36947131398E+01 -0.12598522775E+03  0.85890771639E+02  0.22784376086E+03  0.16926200459E+03 0.  0.
        -24    2    5    5    0    0 -0.17217564744E+02 -0.15665687320E+03  0.65228243001E+02  0.18818714174E+03  0.79510101085E+02 0.  0.
          5    1    3    3  501    0  0.61259857571E+02  0.87063706420E+02 -0.38644791144E+02  0.11335064626E+03  0.47000000000E+01 0. -1.
        -11    1    4    4    0    0 -0.24731094040E+02  0.58731736884E+02  0.40319417777E+01  0.63853742915E+02  0.00000000000E+00 0.  1.
         12    1    4    4    0    0 -0.32834050391E+02 -0.19810215557E+02 -0.19251586331E+02  0.42908543226E+02  0.00000000000E+00 0. -1.
         -5    1    5    5    0  502  0.13522851604E+02  0.30671645456E+02  0.20662528637E+02  0.39656619122E+02  0.47000000000E+01 0.  1.
         11    1    6    6    0    0 -0.88513637058E+01 -0.14730722781E+03  0.29731139101E+02  0.15053805710E+03  0.00000000000E+00 0. -1.
        -12    1    6    6    0    0 -0.83662010385E+01 -0.93496453934E+01  0.35497103900E+02  0.37649084638E+02  0.00000000000E+00 0.  1.
</event>
<event>
12    1  0.8258923E-002  0.1882156E+03  0.7818608E-02  0.1160254E+00
         21   -1    0    0  501  502  0.00000000000E+00  0.00000000000E+00  0.57610536597E+03  0.57610536597E+03  0.00000000000E+00 0. -1.
         21   -1    0    0  502  503 -0.00000000000E+00 -0.00000000000E+00 -0.74719739914E+02  0.74719739914E+02  0.00000000000E+00 0. -1.
         -6    2    1    2    0  503  0.15242843026E+02 -0.72709441715E+02  0.38930523605E+03  0.43241609809E+03  0.17293382518E+03 0.  0.
        -24    2    3    3    0    0 -0.32700213515E+02 -0.10060952996E+03  0.25997237577E+03  0.29161116088E+03  0.79119223341E+02 0.  0.
          6    2    1    2  501    0 -0.15242843026E+02  0.72709441715E+02  0.11208039000E+03  0.21840900779E+03  0.17210890065E+03 0.  0.
         24    2    5    5    0    0  0.14578572953E+02  0.32826325744E+02  0.13670267135E+03  0.16265663986E+03  0.80495091075E+02 0.  0.
          5    1    5    5  501    0 -0.29821415979E+02  0.39883115971E+02 -0.24622281347E+02  0.55752367925E+02  0.47000000000E+01 0. -1.
        -13    1    6    6    0    0 -0.23310892610E+02  0.15857656913E+02  0.10978703715E+02  0.30255494250E+02  0.00000000000E+00 0.  1.
         14    1    6    6    0    0  0.37889465564E+02  0.16968668831E+02  0.12572396763E+03  0.13240114561E+03  0.00000000000E+00 0. -1.
         -5    1    3    3    0  503  0.47943056541E+02  0.27900088247E+02  0.12933286028E+03  0.14080493721E+03  0.47000000000E+01 0.  1.
         13    1    4    4    0    0  0.12665249957E+02 -0.80253968707E+02  0.17924919693E+03  0.19680290305E+03  0.00000000000E+00 0. -1.
        -14    1    4    4    0    0 -0.45365463472E+02 -0.20355561256E+02  0.80723178849E+02  0.94808257834E+02  0.00000000000E+00 0.  1.
</event>
<event>
12    1  0.8258923E-002  0.1927139E+03  0.7818608E-02  0.1157156E+00
         21   -1    0    0  503  502  0.00000000000E+00  0.00000000000E+00  0.22102160855E+03  0.22102160855E+03  0.00000000000E+00 0. -1.
         21   -1    0    0  501  503 -0.00000000000E+00 -0.00000000000E+00 -0.38304902005E+03  0.38304902005E+03  0.00000000000E+00 0.  1.
          6    2    1    2  501    0 -0.85671702390E+02 -0.21440296912E+02 -0.31001332724E+03  0.36503001491E+03  0.17128724937E+03 0.  0.
         24    2    3    3    0    0  0.11143053794E+02  0.36317730299E+01 -0.20524998100E+03  0.22011916500E+03  0.78660884031E+02 0.  0.
         -6    2    1    2    0  502  0.85671702390E+02  0.21440296912E+02  0.14798591574E+03  0.23904061369E+03  0.16565402746E+03 0.  0.
        -24    2    5    5    0    0  0.67320252047E+02  0.61630942772E+02  0.46442708678E+02  0.12820209762E+03  0.77126280874E+02 0.  0.
          5    1    3    3  501    0 -0.96814756183E+02 -0.25072069942E+02 -0.10476334624E+03  0.14491084991E+03  0.47000000000E+01 0. -1.
        -11    1    4    4    0    0  0.34597752865E+02 -0.15599513240E+02 -0.54904476871E+02  0.66744669428E+02  0.00000000000E+00 0.  1.
         12    1    4    4    0    0 -0.23454699071E+02  0.19231286270E+02 -0.15034550413E+03  0.15337449557E+03  0.00000000000E+00 0. -1.
         -5    1    5    5    0  502  0.18351450343E+02 -0.40190645860E+02  0.10154320706E+03  0.11083851607E+03  0.47000000000E+01 0.  1.
         11    1    6    6    0    0  0.21708476682E+02  0.35704791150E+02  0.60830334902E+02  0.73799862569E+02  0.00000000000E+00 0. -1.
        -12    1    6    6    0    0  0.45611775365E+02  0.25926151622E+02 -0.14387626224E+02  0.54402235048E+02  0.00000000000E+00 0.  1.
</event>
<event>
12    1  0.8258923E-002  0.1767766E+03  0.7818608E-02  0.1171025E+00
         21   -1    0    0  503  502  0.00000000000E+00  0.00000000000E+00  0.25684652920E+03  0.25684652920E+03  0.00000000000E+00 0. -1.
         21   -1    0    0  501  503 -0.00000000000E+00 -0.00000000000E+00 -0.26657034168E+03  0.26657034168E+03  0.00000000000E+00 0. -1.
          6    2    1    2  501    0 -0.32661626935E+02 -0.13447367783E+02 -0.19793361230E+03  0.26520594565E+03  0.17294179702E+03 0.  0.
         24    2    3    3    0    0 -0.75191647784E+02 -0.68613088055E+01 -0.68928841886E+02  0.12913060021E+03  0.78883871689E+02 0.  0.
         -6    2    1    2    0  502  0.32661626935E+02  0.13447367783E+02  0.18820979982E+03  0.25821092524E+03  0.17321183444E+03 0.  0.
        -24    2    5    5    0    0  0.32629179516E+02 -0.55997022409E+02  0.14597304060E+03  0.17679496727E+03  0.75815578848E+02 0.  0.
          5    1    3    3  501    0  0.42530020849E+02 -0.65860589774E+01 -0.12900477041E+03  0.13607534543E+03  0.47000000000E+01 0. -1.
        -13    1    4    4    0    0 -0.12917082472E+02  0.27455951385E+02 -0.35152523339E+00  0.30344750057E+02  0.00000000000E+00 0.  1.
         14    1    4    4    0    0 -0.62274565312E+02 -0.34317260190E+02 -0.68577316653E+02  0.98785850156E+02  0.00000000000E+00 0. -1.
         -5    1    5    5    0  502  0.32447419706E-01  0.69444390192E+02  0.42236759220E+02  0.81415957965E+02  0.47000000000E+01 0.  1.
         11    1    6    6    0    0 -0.61170775645E+01  0.16460821076E+02  0.26832096245E+02  0.32067719865E+02  0.00000000000E+00 0. -1.
        -12    1    6    6    0    0  0.38746257080E+02 -0.72457843485E+02  0.11914094435E+03  0.14472724741E+03  0.00000000000E+00 0.  1.
</event>
<event>
12    1  0.8258923E-002  0.2687059E+03  0.7818608E-02  0.1102062E+00
         21   -1    0    0  503  502  0.00000000000E+00  0.00000000000E+00  0.17602250380E+03  0.17602250380E+03  0.00000000000E+00 0. -1.
         21   -1    0    0  501  503 -0.00000000000E+00 -0.00000000000E+00 -0.48325735553E+03  0.48325735553E+03  0.00000000000E+00 0.  1.
          6    2    1    2  501    0  0.70625644433E+02 -0.19310175974E+03 -0.28222573493E+03  0.38968477436E+03  0.17299302483E+03 0.  0.
         24    2    3    3    0    0  0.93165684449E+02 -0.91899628834E+02 -0.22010514177E+03  0.26872617483E+03  0.81499061755E+02 0.  0.
         -6    2    1    2    0  502 -0.70625644433E+02  0.19310175974E+03 -0.25009116796E+02  0.26959508498E+03  0.17256819711E+03 0.  0.
        -24    2    5    5    0    0 -0.11401057823E+03  0.14892045646E+03 -0.45924767197E+02  0.20406803353E+03  0.66022448948E+02 0.  0.
          5    1    3    3  501    0 -0.22540040016E+02 -0.10120213091E+03 -0.62120593159E+02  0.12095859952E+03  0.47000000000E+01 0. -1.
        -11    1    4    4    0    0  0.61860314630E+02 -0.15225884103E+02 -0.55629341668E+02  0.84576295304E+02  0.00000000000E+00 0.  1.
         12    1    4    4    0    0  0.31305369818E+02 -0.76673744731E+02 -0.16447580011E+03  0.18414987953E+03  0.00000000000E+00 0. -1.
         -5    1    5    5    0  502  0.43384933797E+02  0.44181303278E+02  0.20915650401E+02  0.65527051450E+02  0.47000000000E+01 0.  1.
         11    1    6    6    0    0 -0.69311439232E+02  0.68596533365E+02  0.73998659332E+01  0.97797331323E+02  0.00000000000E+00 0. -1.
        -12    1    6    6    0    0 -0.44699138998E+02  0.80323923098E+02 -0.53324633130E+02  0.10627070221E+03  0.00000000000E+00 0.  1.
</event>
<event>
12    1  0.8258923E-002  0.3271708E+03  0.7818608E-02  0.1072816E+00
         21   -1    0    0  501  502  0.00000000000E+00  0.00000000000E+00  0.58123423150E+03  0.58123423150E+03  0.00000000000E+00 0. -1.
         21   -1    0    0  502  503 -0.00000000000E+00 -0.00000000000E+00 -0.21708114086E+03  0.21708114086E+03  0.00000000000E+00 0.  1.
         -6    2    1    2    0  503 -0.13378580701E+03  0.24354555846E+03  0.34326935284E+03  0.47420940706E+03  0.17270678021E+03 0.  0.
        -24    2    3    3    0    0 -0.63177622918E+02  0.97479862183E+02  0.24992452178E+03  0.28697679564E+03  0.79997994227E+02 0.  0.
          6    2    1    2  501    0  0.13378580701E+03 -0.24354555846E+03  0.20883737797E+02  0.32410596531E+03  0.16551575465E+03 0.  0.
         24    2    5    5    0    0  0.20475033856E+02 -0.14042276846E+03  0.40206732411E+02  0.16960965709E+03  0.83744095518E+02 0.  0.
          5    1    5    5  501    0  0.11331077316E+03 -0.10312279000E+03 -0.19322994614E+02  0.15449630822E+03  0.47000000000E+01 0. -1.
        -13    1    6    6    0    0 -0.27732314765E+02 -0.17957793721E+02  0.54425392247E+01  0.33484098775E+02  0.00000000000E+00 0.  1.
         14    1    6    6    0    0  0.48207348621E+02 -0.12246497474E+03  0.34764193186E+02  0.13612555832E+03  0.00000000000E+00 0. -1.
         -5    1    3    3    0  503 -0.70608184095E+02  0.14606569628E+03  0.93344831068E+02  0.18723261142E+03  0.47000000000E+01 0.  1.
         13    1    4    4    0    0 -0.54463564880E+02  0.10769792143E+03  0.24416798767E+03  0.27236579885E+03  0.00000000000E+00 0. -1.
        -14    1    4    4    0    0 -0.87140580386E+01 -0.10218059247E+02  0.57565341092E+01  0.14610996791E+02  0.00000000000E+00 0.  1.
</event>
<event>
12    1  0.8258923E-002  0.2677024E+03  0.7818608E-02  0.1102844E+00
         21   -1    0    0  503  502  0.00000000000E+00  0.00000000000E+00  0.99414471477E+02  0.99414471477E+02  0.00000000000E+00 0.  1.
         21   -1    0    0  501  503 -0.00000000000E+00 -0.00000000000E+00 -0.73550833417E+03  0.73550833417E+03  0.00000000000E+00 0. -1.
          6    2    1    2  501    0  0.15488968221E+03  0.13254397499E+03 -0.38440758393E+03  0.46748501329E+03  0.17092199421E+03 0.  0.
         24    2    3    3    0    0  0.78076630159E+02  0.16400732700E+02 -0.10539193070E+03  0.15561753752E+03  0.82124385641E+02 0.  0.
         -6    2    1    2    0  502 -0.15488968221E+03 -0.13254397499E+03 -0.25168627877E+03  0.36743779236E+03  0.17351031490E+03 0.  0.
        -24    2    5    5    0    0 -0.75480178843E+02 -0.35720290350E+02 -0.41641133174E+02  0.12285294345E+03  0.79910357285E+02 0.  0.
          5    1    3    3  501    0  0.76813052049E+02  0.11614324229E+03 -0.27901565323E+03  0.31186747577E+03  0.47000000000E+01 0. -1.
        -11    1    4    4    0    0 -0.18337502251E+01  0.32348960823E+02 -0.22984675190E+02  0.39725472934E+02  0.00000000000E+00 0.  1.
         12    1    4    4    0    0  0.79910380384E+02 -0.15948228123E+02 -0.82407255509E+02  0.11589206459E+03  0.00000000000E+00 0. -1.
         -5    1    5    5    0  502 -0.79409503364E+02 -0.96823684635E+02 -0.21004514559E+03  0.24458484891E+03  0.47000000000E+01 0.  1.
         11    1    6    6    0    0 -0.13785051206E+01 -0.82418954480E+01  0.20615513685E+02  0.22244741433E+02  0.00000000000E+00 0. -1.
        -12    1    6    6    0    0 -0.74101673723E+02 -0.27478394902E+02 -0.62256646859E+02  0.10060820202E+03  0.00000000000E+00 0.  1.
</event>
<event>
12    1  0.8258923E-002  0.2849686E+03  0.7818608E-02  0.1093409E+00
         21   -1    0    0  501  502  0.00000000000E+00  0.00000000000E+00  0.19323659349E+03  0.19323659349E+03  0.00000000000E+00 0.  1.
         21   -1    0    0  502  503 -0.00000000000E+00 -0.00000000000E+00 -0.48424775928E+03  0.48424775928E+03  0.00000000000E+00 0.  1.
         -6    2    1    2    0  503 -0.20802991000E+03 -0.78067353962E+02 -0.27216931228E+03  0.39189353849E+03  0.17358990684E+03 0.  0.
        -24    2    3    3    0    0 -0.13270217280E+03  0.25836316894E+01 -0.90277028818E+02  0.17908906894E+03  0.79412913709E+02 0.  0.
          6    2    1    2  501    0  0.20802991000E+03  0.78067353962E+02 -0.18841853512E+02  0.28559081428E+03  0.17842685489E+03 0.  0.
         24    2    5    5    0    0  0.51957664090E+02  0.47312536101E+02  0.39375154581E+02  0.11613369641E+03  0.83657382900E+02 0.  0.
          5    1    5    5  501    0  0.15607224591E+03  0.30754817861E+02 -0.58217008094E+02  0.16945711787E+03  0.47000000000E+01 0. -1.
        -13    1    6    6    0    0  0.66616131512E+02  0.28748054158E+02  0.28403427504E+01  0.72610103584E+02  0.00000000000E+00 0.  1.
         14    1    6    6    0    0 -0.14658467423E+02  0.18564481943E+02  0.36534811831E+02  0.43523592827E+02  0.00000000000E+00 0. -1.
         -5    1    3    3    0  503 -0.75327737192E+02 -0.80650985652E+02 -0.18189228346E+03  0.21280446955E+03  0.47000000000E+01 0.  1.
         13    1    4    4    0    0  0.98768121475E+00 -0.12687952264E+02  0.55615370851E+01  0.13888496736E+02  0.00000000000E+00 0. -1.
        -14    1    4    4    0    0 -0.13368985402E+03  0.15271583953E+02 -0.95838565903E+02  0.16520057221E+03  0.00000000000E+00 0.  1.
</event>
<event>
12    1  0.8258923E-002  0.2203915E+03  0.7818608E-02  0.1134883E+00
         21   -1    0    0  501  502  0.00000000000E+00  0.00000000000E+00  0.11630979151E+04  0.11630979151E+04  0.00000000000E+00 0. -1.
         21   -1    0    0  502  503 -0.00000000000E+00 -0.00000000000E+00 -0.51009117676E+02  0.51009117676E+02  0.00000000000E+00 0. -1.
         -6    2    1    2    0  503 -0.10793354773E+02  0.12549697078E+03  0.28717551742E+03  0.36199751326E+03  0.18084920687E+03 0.  0.
        -24    2    3    3    0    0 -0.65132120739E+02  0.92383176307E+02  0.12284626798E+03  0.18571530460E+03  0.81376436331E+02 0.  0.
          6    2    1    2  501    0  0.10793354773E+02 -0.12549697078E+03  0.82491328000E+03  0.85210951950E+03  0.17246079998E+03 0.  0.
         24    2    5    5    0    0 -0.28067037593E+02 -0.71023500114E+01  0.40163713052E+03  0.41084746013E+03  0.81517169429E+02 0.  0.
          5    1    5    5  501    0  0.38860392367E+02 -0.11839462076E+03  0.42327614948E+03  0.44126205937E+03  0.47000000000E+01 0. -1.
        -13    1    6    6    0    0 -0.42527480733E+02  0.40439577695E+01  0.10108307536E+03  0.10973936548E+03  0.00000000000E+00 0.  1.
         14    1    6    6    0    0  0.14460443140E+02 -0.11146307781E+02  0.30055405515E+03  0.30110809465E+03  0.00000000000E+00 0. -1.
         -5    1    3    3    0  503  0.54338765966E+02  0.33113794468E+02  0.16432924944E+03  0.17628220866E+03  0.47000000000E+01 0.  1.
         13    1    4    4    0    0 -0.53318087399E+02  0.17895568016E+02  0.23423352615E+02  0.60923913582E+02  0.00000000000E+00 0. -1.
        -14    1    4    4    0    0 -0.11814033340E+02  0.74487608292E+02  0.99422915365E+02  0.12479139102E+03  0.00000000000E+00 0.  1.
</event>
<event>
12    1  0.8258923E-002  0.2064916E+03  0.7818608E-02  0.1144682E+00
         21   -1    0    0  503  502  0.00000000000E+00  0.00000000000E+00  0.66926352147E+03  0.66926352147E+03  0.00000000000E+00 0. -1.
         21   -1    0    0  501  503 -0.00000000000E+00 -0.00000000000E+00 -0.21109837579E+03  0.21109837579E+03  0.00000000000E+00 0.  1.
          6    2    1    2  501    0  0.31862001044E+02 -0.10640899537E+03 -0.13905235023E+03  0.24894641986E+03  0.17407096957E+03 0.  0.
         24    2    3    3    0    0  0.30425444040E+02  0.11196445079E+02 -0.67917317267E+02  0.11141320120E+03  0.82152732085E+02 0.  0.
         -6    2    1    2    0  502 -0.31862001044E+02  0.10640899537E+03  0.59721749591E+03  0.63141547741E+03  0.17227508899E+03 0.  0.
        -24    2    5    5    0    0 -0.28769362245E+01  0.62606203745E+02  0.55542436491E+03  0.56412822501E+03  0.76266739845E+02 0.  0.
          5    1    3    3  501    0  0.14365570035E+01 -0.11760544045E+03 -0.71135032962E+02  0.13753321866E+03  0.47000000000E+01 0. -1.
        -13    1    4    4    0    0  0.15983536138E+02 -0.28097289052E+01 -0.84064375968E+02  0.85616513073E+02  0.00000000000E+00 0.  1.
         14    1    4    4    0    0  0.14441907902E+02  0.14006173985E+02  0.16147058700E+02  0.25796688125E+02  0.00000000000E+00 0. -1.
         -5    1    5    5    0  502 -0.28985064819E+02  0.43802791627E+02  0.41793131000E+02  0.67287252401E+02  0.47000000000E+01 0.  1.
         11    1    6    6    0    0 -0.36560965580E+02  0.28460635815E+02  0.18990592671E+03  0.19547627221E+03  0.00000000000E+00 0. -1.
        -12    1    6    6    0    0  0.33684029355E+02  0.34145567930E+02  0.36551843820E+03  0.36865195280E+03  0.00000000000E+00 0.  1.
</event>
<event>
12    1  0.8258923E-002  0.1885096E+03  0.7818608E-02  0.1159892E+00
         21   -1    0    0  501  502  0.00000000000E+00  0.00000000000E+00  0.30216949342E+03  0.30216949342E+03  0.00000000000E+00 0. -1.
         21   -1    0    0  502  503 -0.00000000000E+00 -0.00000000000E+00 -0.12342088804E+03  0.12342088804E+03  0.00000000000E+00 0. -1.
         -6    2    1    2    0  503  0.25986915623E+02  0.70182095175E+02  0.13635417463E+03  0.23237248014E+03  0.17263737231E+03 0.  0.
        -24    2    3    3    0    0 -0.21897930131E+02  0.17369204031E+02  0.74080268211E+01  0.84956880694E+02  0.79884817852E+02 0.  0.
          6    2    1    2  501    0 -0.25986915623E+02 -0.70182095175E+02  0.42394430746E+02  0.19321790132E+03  0.17301740769E+03 0.  0.
         24    2    5    5    0    0 -0.32690344559E+02 -0.11514444709E+03  0.32838593273E+02  0.14652793366E+03  0.77879135919E+02 0.  0.
          5    1    5    5  501    0  0.67034289367E+01  0.44962351919E+02  0.95558374730E+01  0.46689967653E+02  0.47000000000E+01 0. -1.
        -11    1    6    6    0    0 -0.13432738514E+02 -0.68077319366E+01  0.33240002249E+02  0.36492210506E+02  0.00000000000E+00 0.  1.
         12    1    6    6    0    0 -0.19257606045E+02 -0.10833671516E+03 -0.40140897526E+00  0.11003572316E+03  0.00000000000E+00 0. -1.
         -5    1    3    3    0  503  0.47884845753E+02  0.52812891144E+02  0.12894614781E+03  0.14741559944E+03  0.47000000000E+01 0.  1.
         13    1    4    4    0    0 -0.29772026036E+02 -0.25318854556E+02  0.13005371181E+02  0.41189289989E+02  0.00000000000E+00 0. -1.
        -14    1    4    4    0    0  0.78740959048E+01  0.42688058586E+02 -0.55973443600E+01  0.43767590704E+02  0.00000000000E+00 0.  1.
</event>
<event>
12    1  0.8258923E-002  0.1883109E+03  0.7818608E-02  0.1163823E+00
         21   -1    0    0  503  502  0.00000000000E+00  0.00000000000E+00  0.93829063837E+02  0.93829063837E+02  0.00000000000E+00 0.  1.
         21   -1    0    0  501  503 -0.00000000000E+00 -0.00000000000E+00 -0.12074080971E+04  0.12074080971E+04  0.00000000000E+00 0.  1.
          6    2    1    2  501    0 -0.27708263365E+02 -0.73499997130E+02 -0.10989320339E+04  0.11123574557E+04  0.15335415440E+03 0.  0.
         24    2    3    3    0    0  0.60592152235E+01 -0.37201915008E+02 -0.31568411984E+03  0.32752806133E+03  0.78724017120E+02 0.  0.
         -6    2    1    2    0  502  0.27708263365E+02  0.73499997130E+02 -0.14646999342E+02  0.18887970522E+03  0.17114616858E+03 0.  0.
        -24    2    5    5    0    0  0.27445442014E+02  0.10688601158E+03 -0.45002944545E+02  0.14351156172E+03  0.79952683334E+02 0.  0.
          5    1    3    3  501    0 -0.33767478589E+02 -0.36298082123E+02 -0.78324791408E+03  0.78482939438E+03  0.47000000000E+01 0. -1.
        -11    1    4    4    0    0  0.36215203272E+02 -0.38455601932E+02 -0.24567890390E+03  0.25129364912E+03  0.00000000000E+00 0.  1.
         12    1    4    4    0    0 -0.30155988049E+02  0.12536869243E+01 -0.70005215939E+02  0.76234412208E+02  0.00000000000E+00 0. -1.
         -5    1    5    5    0  502  0.26282135123E+00 -0.33386014445E+02  0.30355945202E+02  0.45368143501E+02  0.47000000000E+01 0.  1.
         11    1    6    6    0    0  0.27055881454E+02  0.53015948150E+02  0.16486147467E+02  0.61761675316E+02  0.00000000000E+00 0. -1.
        -12    1    6    6    0    0  0.38956055955E+00  0.53870063425E+02 -0.61489092012E+02  0.81749886405E+02  0.00000000000E+00 0.  1.
</event>
<event>
12    1  0.8258923E-002  0.1815124E+03  0.7818608E-02  0.1166731E+00
         21   -1    0    0  503  502  0.00000000000E+00  0.00000000000E+00  0.90285690709E+02  0.90285690709E+02  0.00000000000E+00 0.  1.
         21   -1    0    0  501  503 -0.00000000000E+00 -0.00000000000E+00 -0.10905143026E+04  0.10905143026E+04  0.00000000000E+00 0.  1.
          6    2    1    2  501    0 -0.12839215959E+02 -0.51984521078E+02 -0.98203269139E+03  0.99837779735E+03  0.17176374294E+03 0.  0.
         24    2    3    3    0    0  0.44333055493E+02 -0.70388373536E+02 -0.53179378508E+03  0.54412617858E+03  0.79678889423E+02 0.  0.
         -6    2    1    2    0  502  0.12839215959E+02  0.51984521078E+02 -0.18195920475E+02  0.18242219593E+03  0.17343451256E+03 0.  0.
        -24    2    5    5    0    0 -0.35804316487E+02 -0.19558798182E+02 -0.22843232084E+02  0.95656262035E+02  0.83449455055E+02 0.  0.
          5    1    3    3  501    0 -0.57172271451E+02  0.18403852458E+02 -0.45023890630E+03  0.45425161877E+03  0.47000000000E+01 0. -1.
        -13    1    4    4    0    0  0.51994625628E+01 -0.57810648072E+02 -0.43653608099E+03  0.44037808239E+03  0.00000000000E+00 0.  1.
         14    1    4    4    0    0  0.39133592930E+02 -0.12577725465E+02 -0.95257704092E+02  0.10374809619E+03  0.00000000000E+00 0. -1.
         -5    1    5    5    0  502  0.48643532446E+02  0.71543319260E+02  0.46473116093E+01  0.86765933896E+02  0.47000000000E+01 0.  1.
         11    1    6    6    0    0 -0.30658335184E+02  0.25804589047E+02 -0.29170734071E+02  0.49565532968E+02  0.00000000000E+00 0. -1.
        -12    1    6    6    0    0 -0.51459813028E+01 -0.45363387229E+02  0.63275019871E+01  0.46090729066E+02  0.00000000000E+00 0.  1.
</event>
<event>
12    1  0.8258923E-002  0.2063814E+03  0.7818608E-02  0.1144479E+00
         21   -1    0    0  503  502  0.00000000000E+00  0.00000000000E+00  0.48489315491E+03  0.48489315491E+03  0.00000000000E+00 0.  1.
         21   -1    0    0  501  503 -0.00000000000E+00 -0.00000000000E+00 -0.10902379268E+03  0.10902379268E+03  0.00000000000E+00 0. -1.
          6    2    1    2  501    0  0.58383183875E+02 -0.98492905185E+02  0.56911136590E+02  0.21401216007E+03  0.17161841002E+03 0.  0.
         24    2    3    3    0    0  0.75481403493E+02 -0.38654199879E+02  0.87797553209E+02  0.14437682063E+03  0.77101663691E+02 0.  0.
         -6    2    1    2    0  502 -0.58383183875E+02  0.98492905185E+02  0.31895822564E+03  0.37990478753E+03  0.17170861758E+03 0.  0.
        -24    2    5    5    0    0  0.41616499087E+01  0.11474826182E+03  0.23306681019E+03  0.27231520578E+03  0.81553359012E+02 0.  0.
          5    1    3    3  501    0 -0.17098219618E+02 -0.59838705307E+02 -0.30886416619E+02  0.69635339437E+02  0.47000000000E+01 0. -1.
        -13    1    4    4    0    0  0.19109309569E+02 -0.31463969834E+02  0.78620190230E+02  0.86811758545E+02  0.00000000000E+00 0.  1.
         14    1    4    4    0    0  0.56372093924E+02 -0.71902300451E+01  0.91773629794E+01  0.57565062084E+02  0.00000000000E+00 0. -1.
         -5    1    5    5    0  502 -0.62544833784E+02 -0.16255356638E+02  0.85891415452E+02  0.10758958175E+03  0.47000000000E+01 0.  1.
         13    1    6    6    0    0 -0.13454831585E+02  0.49174314503E+02  0.32239642577E+02  0.60320313770E+02  0.00000000000E+00 0. -1.
        -14    1    6    6    0    0  0.17616481494E+02  0.65573947320E+02  0.20082716761E+03  0.21199489201E+03  0.00000000000E+00 0.  1.
</event>
<event>
12    1  0.8258923E-002  0.2399204E+03  0.7818608E-02  0.1119904E+00
         21   -1    0    0  503  502  0.00000000000E+00  0.00000000000E+00  0.86928335362E+03  0.86928335362E+03  0.00000000000E+00 0.  1.
         21   -1    0    0  501  503 -0.00000000000E+00 -0.00000000000E+00 -0.25336994211E+03  0.25336994211E+03  0.00000000000E+00 0. -1.
          6    2    1    2  501    0  0.81302354849E+02  0.14658650470E+03 -0.17453998651E+03  0.29669177834E+03  0.17165118171E+03 0.  0.
         24    2    3    3    0    0  0.22165608572E+02  0.27385389017E+02 -0.14303561828E+02  0.88355841610E+02  0.79755182469E+02 0.  0.
         -6    2    1    2    0  502 -0.81302354849E+02 -0.14658650470E+03  0.79045339802E+03  0.82596151739E+03  0.17116710404E+03 0.  0.
        -24    2    5    5    0    0 -0.34019621707E+02 -0.15626942408E+02  0.42344397037E+03  0.43340060009E+03  0.84437835864E+02 0.  0.
          5    1    3    3  501    0  0.59136746278E+02  0.11920111568E+03 -0.16023642468E+03  0.20833593673E+03  0.47000000000E+01 0. -1.
        -13    1    4    4    0    0  0.47216764154E+02  0.34450035807E+02  0.42353378555E+00  0.58450039907E+02  0.00000000000E+00 0.  1.
         14    1    4    4    0    0 -0.25051155583E+02 -0.70646467898E+01 -0.14727095614E+02  0.29905801703E+02  0.00000000000E+00 0. -1.
         -5    1    5    5    0  502 -0.47282733142E+02 -0.13095956229E+03  0.36700942765E+03  0.39256091730E+03  0.47000000000E+01 0.  1.
         11    1    6    6    0    0 -0.52311233718E+02  0.14565197950E+02  0.30545371878E+03  0.31024278313E+03  0.00000000000E+00 0. -1.
        -12    1    6    6    0    0  0.18291612010E+02 -0.30192140358E+02  0.11799025158E+03  0.12315781696E+03  0.00000000000E+00 0.  1.
</event>
<event>
12    1  0.8258923E-002  0.2272636E+03  0.7818608E-02  0.1128614E+00
         21   -1    0    0  501  502  0.00000000000E+00  0.00000000000E+00  0.19063601554E+03  0.19063601554E+03  0.00000000000E+00 0. -1.
         21   -1    0    0  502  503 -0.00000000000E+00 -0.00000000000E+00 -0.32551473759E+03  0.32551473759E+03  0.00000000000E+00 0.  1.
         -6    2    1    2    0  503  0.14610089527E+03  0.28028165499E+02 -0.17335969570E+03  0.28583621920E+03  0.17180718977E+03 0.  0.
        -24    2    3    3    0    0  0.14515308173E+03 -0.21739861953E+02 -0.93279194151E+02  0.19142895447E+03  0.80012485356E+02 0.  0.
          6    2    1    2  501    0 -0.14610089527E+03 -0.28028165499E+02  0.38480973650E+02  0.23031453392E+03  0.17156033791E+03 0.  0.
         24    2    5    5    0    0 -0.10110488869E+03 -0.13081822649E+02  0.89869075453E+02  0.16023699986E+03  0.84888826131E+02 0.  0.
          5    1    5    5  501    0 -0.44996006584E+02 -0.14946342850E+02 -0.51388101803E+02  0.70077534061E+02  0.47000000000E+01 0. -1.
        -11    1    6    6    0    0  0.80786732734E+01 -0.21279502693E+02  0.20415366070E+02  0.30575633575E+02  0.00000000000E+00 0.  1.
         12    1    6    6    0    0 -0.10918356196E+03  0.81976800436E+01  0.69453709382E+02  0.12966136629E+03  0.00000000000E+00 0. -1.
         -5    1    3    3    0  503  0.94781353924E+00  0.49768027452E+02 -0.80080501545E+02  0.94407264734E+02  0.47000000000E+01 0.  1.
         13    1    4    4    0    0  0.80040049428E+02 -0.50593433292E+02 -0.64731643830E+02  0.11470087496E+03  0.00000000000E+00 0. -1.
        -14    1    4    4    0    0  0.65113032305E+02  0.28853571338E+02 -0.28547550320E+02  0.76728079503E+02  0.00000000000E+00 0.  1.
</event>
<event>
12    1  0.8258923E-002  0.1937422E+03  0.7818608E-02  0.1155205E+00
         21   -1    0    0  501  502  0.00000000000E+00  0.00000000000E+00  0.25786147475E+03  0.25786147475E+03  0.00000000000E+00 0. -1.
         21   -1    0    0  502  503 -0.00000000000E+00 -0.00000000000E+00 -0.41336265167E+03  0.41336265167E+03  0.00000000000E+00 0. -1.
         -6    2    1    2    0  503 -0.88407659830E+02  0.98615639100E+00 -0.34803631202E+03  0.39832814611E+03  0.17239243220E+03 0.  0.
        -24    2    3    3    0    0 -0.93689619807E+02  0.29901806558E+02 -0.14360590219E+03  0.19174185328E+03  0.80438922534E+02 0.  0.
          6    2    1    2  501    0  0.88407659830E+02 -0.98615639100E+00  0.19253513509E+03  0.27289598032E+03  0.17200450868E+03 0.  0.
         24    2    5    5    0    0  0.23587073641E+02 -0.28866987440E+02  0.18074266462E+03  0.20120078178E+03  0.80151049689E+02 0.  0.
          5    1    5    5  501    0  0.64820586188E+02  0.27880831049E+02  0.11792470472E+02  0.71695198539E+02  0.47000000000E+01 0. -1.
        -11    1    6    6    0    0 -0.28355668598E+02 -0.11111506878E+01  0.74586399569E+02  0.79802315744E+02  0.00000000000E+00 0.  1.
         12    1    6    6    0    0  0.51942742239E+02 -0.27755836752E+02  0.10615626505E+03  0.12139846603E+03  0.00000000000E+00 0. -1.
         -5    1    3    3    0  503  0.52819599771E+01 -0.28915650167E+02 -0.20443040982E+03  0.20658629283E+03  0.47000000000E+01 0.  1.
         11    1    4    4    0    0 -0.90823284566E+02  0.48531443760E+02 -0.13778595889E+03  0.17201494272E+03  0.00000000000E+00 0. -1.
        -12    1    4    4    0    0 -0.28663352409E+01 -0.18629637202E+02 -0.58199433039E+01  0.19726910555E+02  0.00000000000E+00 0.  1.
</event>
<event>
12    1  0.8258923E-002  0.2180352E+03  0.7818608E-02  0.1136093E+00
         21   -1    0    0  501  502  0.00000000000E+00  0.00000000000E+00  0.66062016456E+02  0.66062016456E+02  0.00000000000E+00 0. -1.
         21   -1    0    0  502  503 -0.00000000000E+00 -0.00000000000E+00 -0.20752508743E+04  0.20752508743E+04  0.00000000000E+00 0. -1.
         -6    2    1    2    0  503 -0.11618064349E+03 -0.53495744027E+02 -0.18770317921E+04  0.18896527935E+04  0.17657744717E+03 0.  0.
        -24    2    3    3    0    0 -0.12147812876E+03 -0.35352049509E+01 -0.16818834219E+04  0.16880861911E+04  0.78318007020E+02 0.  0.
          6    2    1    2  501    0  0.11618064349E+03  0.53495744027E+02 -0.13215706580E+03  0.25166009732E+03  0.17177769934E+03 0.  0.
         24    2    5    5    0    0  0.14327063596E+03  0.32171521115E+02 -0.72056697891E+02  0.18221418745E+03  0.80301684276E+02 0.  0.
          5    1    5    5  501    0 -0.27089992469E+02  0.21324222912E+02 -0.60100367913E+02  0.69445909873E+02  0.47000000000E+01 0. -1.
        -11    1    6    6    0    0  0.73211789647E+02 -0.17701975059E+01 -0.74312971004E+02  0.10433368297E+03  0.00000000000E+00 0.  1.
         12    1    6    6    0    0  0.70058846315E+02  0.33941718621E+02  0.22562731127E+01  0.77880504482E+02  0.00000000000E+00 0. -1.
         -5    1    3    3    0  503  0.52974852625E+01 -0.49960539076E+02 -0.19514837015E+03  0.20156660236E+03  0.47000000000E+01 0.  1.
         13    1    4    4    0    0 -0.97701262436E+02 -0.22383772107E+02 -0.15253262818E+04  0.15286159871E+04  0.00000000000E+00 0. -1.
        -14    1    4    4    0    0 -0.23776866319E+02  0.18848567157E+02 -0.15655714007E+03  0.15947020400E+03  0.00000000000E+00 0.  1.
</event>
<event>
12    1  0.8258923E-002  0.2212484E+03  0.7818608E-02  0.1134221E+00
         21   -1    0    0  501  502  0.00000000000E+00  0.00000000000E+00  0.13171452063E+04  0.13171452063E+04  0.00000000000E+00 0. -1.
         21   -1    0    0  502  503 -0.00000000000E+00 -0.00000000000E+00 -0.51801428414E+02  0.51801428414E+02  0.00000000000E+00 0.  1.
         -6    2    1    2    0  503 -0.12240482612E+03  0.36652741123E+02  0.10169503862E+04  0.10407396053E+04  0.18062246012E+03 0.  0.
        -24    2    3    3    0    0 -0.12010740166E+03 -0.20180399026E+02  0.88918219857E+03  0.90080360652E+03  0.77260072614E+02 0.  0.
          6    2    1    2  501    0  0.12240482612E+03 -0.36652741123E+02  0.24839339165E+03  0.32820702941E+03  0.17232008660E+03 0.  0.
         24    2    5    5    0    0  0.44223056631E+02 -0.33216912260E+02  0.38479359817E+02  0.10413073713E+03  0.79394630077E+02 0.  0.
          5    1    5    5  501    0  0.78181769492E+02 -0.34358288633E+01  0.20991403184E+03  0.22407629228E+03  0.47000000000E+01 0. -1.
        -11    1    6    6    0    0  0.56725965700E+02 -0.28475253568E+02  0.82289386688E-01  0.63471899467E+02  0.00000000000E+00 0.  1.
         12    1    6    6    0    0 -0.12502909069E+02 -0.47416586922E+01  0.38397070430E+02  0.40658837661E+02  0.00000000000E+00 0. -1.
         -5    1    3    3    0  503 -0.22974244624E+01  0.56833140150E+02  0.12776818767E+03  0.13993599879E+03  0.47000000000E+01 0.  1.
         11    1    4    4    0    0 -0.40175736776E+02 -0.12088282323E+02  0.57441923295E+03  0.57594936547E+03  0.00000000000E+00 0. -1.
        -12    1    4    4    0    0 -0.79931664884E+02 -0.80921167037E+01  0.31476296562E+03  0.32485424105E+03  0.00000000000E+00 0.  1.
</event>
<event>
12    1  0.8258923E-002  0.1873135E+03  0.7818608E-02  0.1160973E+00
         21   -1    0    0  501  502  0.00000000000E+00  0.00000000000E+00  0.53778193994E+02  0.53778193994E+02  0.00000000000E+00 0. -1.
         21   -1    0    0  502  503 -0.00000000000E+00 -0.00000000000E+00 -0.65956586067E+03  0.65956586067E+03  0.00000000000E+00 0. -1.
         -6    2    1    2    0  503  0.83154081852E+01 -0.73692799852E+02 -0.26305629481E+03  0.32276611850E+03  0.17169618007E+03 0.  0.
        -24    2    3    3    0    0 -0.29643563103E+02 -0.25984514956E+01 -0.61842495139E+02  0.10596119917E+03  0.80732823191E+02 0.  0.
          6    2    1    2  501    0 -0.83154081852E+01  0.73692799852E+02 -0.34273137186E+03  0.39057793616E+03  0.17200743063E+03 0.  0.
         24    2    5    5    0    0  0.87985329936E+01  0.42904115194E+02 -0.69425340293E+02  0.11497113839E+03  0.80500357167E+02 0.  0.
          5    1    5    5  501    0 -0.17113941179E+02  0.30788684659E+02 -0.27330603157E+03  0.27560679777E+03  0.47000000000E+01 0. -1.
        -11    1    6    6    0    0 -0.32406287452E+02  0.27816339226E+02 -0.15464967436E+02  0.45421155998E+02  0.00000000000E+00 0.  1.
         12    1    6    6    0    0  0.41204820446E+02  0.15087775967E+02 -0.53960372856E+02  0.69549982390E+02  0.00000000000E+00 0. -1.
         -5    1    3    3    0  503  0.37958971288E+02 -0.71094348357E+02 -0.20121379967E+03  0.21680491934E+03  0.47000000000E+01 0.  1.
         13    1    4    4    0    0 -0.45334232107E+02 -0.27650352127E+02 -0.53193821221E+02  0.75161939767E+02  0.00000000000E+00 0. -1.
        -14    1    4    4    0    0  0.15690669004E+02  0.25051900632E+02 -0.86486739180E+01  0.30799259400E+02  0.00000000000E+00 0.  1.
</event>
<event>
12    1  0.8258923E-002  0.1755880E+03  0.7818608E-02  0.1172403E+00
         21   -1    0    0  503  502  0.00000000000E+00  0.00000000000E+00  0.22269425904E+03  0.22269425904E+03  0.00000000000E+00 0. -1.
         21   -1    0    0  501  503 -0.00000000000E+00 -0.00000000000E+00 -0.25133861863E+03  0.25133861863E+03  0.00000000000E+00 0. -1.
          6    2    1    2  501    0 -0.12150191921E+02 -0.28418608086E+02 -0.17376653718E+03  0.24703433976E+03  0.17284649585E+03 0.  0.
         24    2    3    3    0    0 -0.37393404703E+02 -0.75105759616E+02 -0.81009937265E+02  0.14006337764E+03  0.77562864674E+02 0.  0.
         -6    2    1    2    0  502  0.12150191921E+02  0.28418608086E+02  0.14512217759E+03  0.22699853791E+03  0.17179244842E+03 0.  0.
        -24    2    5    5    0    0  0.69755383775E+02  0.47482911547E+02  0.10484704805E+03  0.15401921306E+03  0.74890413631E+02 0.  0.
          5    1    3    3  501    0  0.25243212782E+02  0.46687151530E+02 -0.92756599918E+02  0.10697096212E+03  0.47000000000E+01 0. -1.
        -11    1    4    4    0    0 -0.46874662280E+02 -0.10014325373E+02 -0.40977380174E+02  0.63060814794E+02  0.00000000000E+00 0.  1.
         12    1    4    4    0    0  0.94812575771E+01 -0.65091434243E+02 -0.40032557090E+02  0.77002562842E+02  0.00000000000E+00 0. -1.
         -5    1    5    5    0  502 -0.57605191854E+02 -0.19064303461E+02  0.40275129545E+02  0.72979324845E+02  0.47000000000E+01 0.  1.
         13    1    6    6    0    0  0.21635914039E+02  0.58054319330E+02  0.45390105668E+02  0.76802854516E+02  0.00000000000E+00 0. -1.
        -14    1    6    6    0    0  0.48119469736E+02 -0.10571407784E+02  0.59456942380E+02  0.77216358548E+02  0.00000000000E+00 0.  1.
</event>
<event>
12    1  0.8258923E-002  0.1864518E+03  0.7818608E-02  0.1162511E+00
         21   -1    0    0  503  502  0.00000000000E+00  0.00000000000E+00  0.11298214511E+04  0.11298214511E+04  0.00000000000E+00 0. -1.
         21   -1    0    0  501  503 -0.00000000000E+00 -0.00000000000E+00 -0.35557620053E+02  0.35557620053E+02  0.00000000000E+00 0. -1.
          6    2    1    2  501    0 -0.46162197861E+02  0.42224845669E+02  0.31659296433E+03  0.36566895782E+03  0.17195579533E+03 0.  0.
         24    2    3    3    0    0 -0.63784935643E+02  0.58507378246E+02  0.12281605372E+03  0.17035571495E+03  0.80284838183E+02 0.  0.
         -6    2    1    2    0  502  0.46162197861E+02 -0.42224845669E+02  0.77767086668E+03  0.79971011329E+03  0.17564282598E+03 0.  0.
        -24    2    5    5    0    0  0.32640368318E+02 -0.97632835252E+02  0.52448146098E+03  0.54013382327E+03  0.77885685235E+02 0.  0.
          5    1    3    3  501    0  0.17622737781E+02 -0.16282532577E+02  0.19377691061E+03  0.19531324287E+03  0.47000000000E+01 0. -1.
        -13    1    4    4    0    0 -0.19885932518E+02 -0.88615304269E+01  0.72036406946E+02  0.75254375017E+02  0.00000000000E+00 0.  1.
         14    1    4    4    0    0 -0.43899003125E+02  0.67368908673E+02  0.50779646770E+02  0.95101339934E+02  0.00000000000E+00 0. -1.
         -5    1    5    5    0  502  0.13521829543E+02  0.55407989583E+02  0.25318940570E+03  0.25957629002E+03  0.47000000000E+01 0.  1.
         13    1    6    6    0    0  0.30364453742E+01 -0.44469051928E+02  0.38984556046E+03  0.39238536873E+03  0.00000000000E+00 0. -1.
        -14    1    6    6    0    0  0.29603922944E+02 -0.53163783324E+02  0.13463590052E+03  0.14774845454E+03  0.00000000000E+00 0.  1.
</event>
<event>
12    1  0.8258923E-002  0.2000757E+03  0.7818608E-02  0.1149824E+00
         21   -1    0    0  501  502  0.00000000000E+00  0.00000000000E+00  0.31414628899E+03  0.31414628899E+03  0.00000000000E+00 0. -1.
         21   -1    0    0  502  503 -0.00000000000E+00 -0.00000000000E+00 -0.50010936316E+03  0.50010936316E+03  0.00000000000E+00 0. -1.
         -6    2    1    2    0  503  0.42488486633E+02  0.92177476486E+02 -0.44460508937E+03  0.48726024588E+03  0.17160099956E+03 0.  0.
        -24    2    3    3    0    0  0.16573948652E+02  0.79382476259E+02 -0.44347609360E+03  0.45795768727E+03  0.80485554127E+02 0.  0.
          6    2    1    2  501    0 -0.42488486633E+02 -0.92177476486E+02  0.25864201520E+03  0.32699540627E+03  0.17241909705E+03 0.  0.
         24    2    5    5    0    0 -0.65632834644E+02 -0.79140255184E+00  0.17337869413E+03  0.19979871106E+03  0.74505423025E+02 0.  0.
          5    1    5    5  501    0  0.23144348010E+02 -0.91386073934E+02  0.85263321071E+02  0.12719669522E+03  0.47000000000E+01 0. -1.
        -13    1    6    6    0    0 -0.17669423943E+02  0.21043965554E+02  0.11911460775E+02  0.29948955350E+02  0.00000000000E+00 0.  1.
         14    1    6    6    0    0 -0.47963410700E+02 -0.21835368106E+02  0.16146723336E+03  0.16984975571E+03  0.00000000000E+00 0. -1.
         -5    1    3    3    0  503  0.25914537981E+02  0.12795000227E+02 -0.11289957709E+01  0.29302558609E+02  0.47000000000E+01 0.  1.
         11    1    4    4    0    0  0.35476073400E+01  0.82401645051E+02 -0.23500433865E+03  0.24905753514E+03  0.00000000000E+00 0. -1.
        -12    1    4    4    0    0  0.13026341312E+02 -0.30191687922E+01 -0.20847175495E+03  0.20890015213E+03  0.00000000000E+00 0.  1.
</event>
<event>
12    1  0.8258923E-002  0.2514469E+03  0.7818608E-02  0.1113759E+00
         21   -1    0    0  501  502  0.00000000000E+00  0.00000000000E+00  0.51391042671E+02  0.51391042671E+02  0.00000000000E+00 0.  1.
         21   -1    0    0  502  503 -0.00000000000E+00 -0.00000000000E+00 -0.13190865899E+04  0.13190865899E+04  0.00000000000E+00 0. -1.
         -6    2    1    2    0  503 -0.69074424444E+02  0.16717432905E+03 -0.83927414605E+03  0.87371767850E+03  0.16212019334E+03 0.  0.
        -24    2    3    3    0    0  0.22270124130E+02  0.59156751686E+02 -0.32550212611E+03  0.34080548869E+03  0.78748125821E+02 0.  0.
          6    2    1    2  501    0  0.69074424444E+02 -0.16717432905E+03 -0.42842140114E+03  0.49675995403E+03  0.17466259636E+03 0.  0.
         24    2    5    5    0    0  0.11417395897E+03 -0.13295312010E+03 -0.35648829463E+03  0.40510014295E+03  0.79435486746E+02 0.  0.
          5    1    5    5  501    0 -0.45099534523E+02 -0.34221208951E+02 -0.71933106504E+02  0.91659811081E+02  0.47000000000E+01 0. -1.
        -13    1    6    6    0    0  0.19362674690E+02 -0.15632534026E+01 -0.84281685919E+01  0.21175243993E+02  0.00000000000E+00 0.  1.
         14    1    6    6    0    0  0.94811284276E+02 -0.13138986670E+03 -0.34806012604E+03  0.38392489896E+03  0.00000000000E+00 0. -1.
         -5    1    3    3    0  503 -0.91344548573E+02  0.10801757737E+03 -0.51377201994E+03  0.53291218981E+03  0.47000000000E+01 0.  1.
         11    1    4    4    0    0 -0.33014149441E+01  0.72179896915E+02 -0.23647832559E+03  0.24727077331E+03  0.00000000000E+00 0. -1.
        -12    1    4    4    0    0  0.25571539074E+02 -0.13023145229E+02 -0.89023800514E+02  0.93534715375E+02  0.00000000000E+00 0.  1.
</event>
<event>
12    1  0.8258923E-002  0.1983377E+03  0.7818608E-02  0.1151504E+00
         21   -1    0    0  501  502  0.00000000000E+00  0.00000000000E+00  0.53897029321E+03  0.53897029321E+03  0.00000000000E+00 0.  1.
         21   -1    0    0  502  503 -0.00000000000E+00 -0.00000000000E+00 -0.75716478506E+02  0.75716478506E+02  0.00000000000E+00 0.  1.
         -6    2    1    2    0  503  0.50476536328E+02  0.81600345799E+02  0.16802991966E+03  0.25994593362E+03  0.17358380497E+03 0.  0.
        -24    2    3    3    0    0 -0.33932045733E+02  0.60454199358E+02  0.11886377199E+03  0.15988910821E+03  0.81423809066E+02 0.  0.
          6    2    1    2  501    0 -0.50476536328E+02 -0.81600345799E+02  0.29522389504E+03  0.35474083810E+03  0.17168988572E+03 0.  0.
         24    2    5    5    0    0 -0.20106755707E+02 -0.11883383961E+03  0.18638228190E+03  0.23567260813E+03  0.79230424439E+02 0.  0.
          5    1    5    5  501    0 -0.30369780621E+02  0.37233493808E+02  0.10884161314E+03  0.11906822997E+03  0.47000000000E+01 0. -1.
        -11    1    6    6    0    0 -0.24928540870E+02 -0.79976403507E+01  0.70695921471E+02  0.75387715934E+02  0.00000000000E+00 0.  1.
         12    1    6    6    0    0  0.48217851622E+01 -0.11083619926E+03  0.11568636043E+03  0.16028489220E+03  0.00000000000E+00 0. -1.
         -5    1    3    3    0  503  0.84408582061E+02  0.21146146441E+02  0.49166147670E+02  0.10005682541E+03  0.47000000000E+01 0.  1.
         13    1    4    4    0    0 -0.17871041199E+02  0.50973823190E+02  0.17434939050E+02  0.56759861379E+02  0.00000000000E+00 0. -1.
        -14    1    4    4    0    0 -0.16061004534E+02  0.94803761687E+01  0.10142883294E+03  0.10312924683E+03  0.00000000000E+00 0.  1.
</event>
<event>
12    1  0.8258923E-002  0.1903084E+03  0.7818608E-02  0.1158308E+00
         21   -1    0    0  503  502  0.00000000000E+00  0.00000000000E+00  0.77276491243E+03  0.77276491243E+03  0.00000000000E+00 0.  1.
         21   -1    0    0  501  503 -0.00000000000E+00 -0.00000000000E+00 -0.46740961986E+02  0.46740961986E+02  0.00000000000E+00 0.  1.
          6    2    1    2  501    0  0.99003757177E+01  0.79023424470E+02  0.35755706778E+03  0.40504855242E+03  0.17284257011E+03 0.  0.
         24    2    3    3    0    0  0.44085933450E+02  0.24089790696E+02  0.90410895955E+02  0.13013852423E+03  0.78981123303E+02 0.  0.
         -6    2    1    2    0  502 -0.99003757177E+01 -0.79023424470E+02  0.36846688267E+03  0.41445732200E+03  0.17223329841E+03 0.  0.
        -24    2    5    5    0    0  0.61604901921E+02 -0.42171736339E+02  0.18419486109E+03  0.21333715995E+03  0.77533074718E+02 0.  0.
          5    1    3    3  501    0 -0.34185557732E+02  0.54933633774E+02  0.26714617182E+03  0.27491002818E+03  0.47000000000E+01 0. -1.
        -11    1    4    4    0    0 -0.21164122462E+02  0.12424173091E+02  0.11558520739E+02  0.27127100071E+02  0.00000000000E+00 0.  1.
         12    1    4    4    0    0  0.65250055912E+02  0.11665617605E+02  0.78852375216E+02  0.10301142416E+03  0.00000000000E+00 0. -1.
         -5    1    5    5    0  502 -0.71505277639E+02 -0.36851688131E+02  0.18427202157E+03  0.20112016205E+03  0.47000000000E+01 0.  1.
         13    1    6    6    0    0  0.22487283859E+02 -0.67415964580E+01  0.18964595166E+01  0.23552571343E+02  0.00000000000E+00 0. -1.
        -14    1    6    6    0    0  0.39117618062E+02 -0.35430139882E+02  0.18229840157E+03  0.18978458860E+03  0.00000000000E+00 0.  1.
</event>
<event>
12    1  0.8258923E-002  0.3310793E+03  0.7818608E-02  0.1070753E+00
         21   -1    0    0  503  502  0.00000000000E+00  0.00000000000E+00  0.51800132802E+03  0.51800132802E+03  0.00000000000E+00 0.  1.
         21   -1    0    0  501  503 -0.00000000000E+00 -0.00000000000E+00 -0.21119161678E+03  0.21119161678E+03  0.00000000000E+00 0. -1.
          6    2    1    2  501    0 -0.68338244851E+01  0.28261851457E+03  0.14496934213E+03  0.36142717203E+03  0.17231820736E+03 0.  0.
         24    2    3    3    0    0 -0.59059421921E+02  0.19013152162E+03  0.52379531839E+02  0.22044376924E+03  0.78827845398E+02 0.  0.
         -6    2    1    2    0  502  0.68338244851E+01 -0.28261851457E+03  0.16184036911E+03  0.36776577277E+03  0.17070276099E+03 0.  0.
        -24    2    5    5    0    0  0.32959124408E+02 -0.15639233735E+03  0.26835881810E+02  0.18104705195E+03  0.80703180878E+02 0.  0.
          5    1    3    3  501    0  0.52225597436E+02  0.92486992953E+02  0.92589810287E+02  0.14098340279E+03  0.47000000000E+01 0. -1.
        -13    1    4    4    0    0 -0.33375358161E+02  0.14169266952E+03  0.71754271975E+02  0.16229418558E+03  0.00000000000E+00 0.  1.
         14    1    4    4    0    0 -0.25684063760E+02  0.48438852104E+02 -0.19374740136E+02  0.58149583659E+02  0.00000000000E+00 0. -1.
         -5    1    5    5    0  502 -0.26125299923E+02 -0.12622617723E+03  0.13500448730E+03  0.18671872082E+03  0.47000000000E+01 0.  1.
         11    1    6    6    0    0 -0.20138545924E+02 -0.94389792406E+01 -0.13143473061E+01  0.22279651475E+02  0.00000000000E+00 0. -1.
        -12    1    6    6    0    0  0.53097670331E+02 -0.14695335811E+03  0.28150229116E+02  0.15876740047E+03  0.00000000000E+00 0.  1.
</event>
<event>
12    1  0.8258923E-002  0.1872727E+03  0.7818608E-02  0.1164840E+00
         21   -1    0    0  501  502  0.00000000000E+00  0.00000000000E+00  0.20285888234E+04  0.20285888234E+04  0.00000000000E+00 0. -1.
         21   -1    0    0  502  503 -0.00000000000E+00 -0.00000000000E+00 -0.35719774682E+02  0.35719774682E+02  0.00000000000E+00 0. -1.
         -6    2    1    2    0  503 -0.61839588284E+01  0.25310915457E+01  0.20664920046E+03  0.26829846112E+03  0.17098398878E+03 0.  0.
        -24    2    3    3    0    0  0.59245911272E+02  0.23669514533E+02  0.11912202193E+03  0.15689380319E+03  0.79720044215E+02 0.  0.
          6    2    1    2  501    0  0.61839588284E+01 -0.25310915457E+01  0.17862198483E+04  0.17960101370E+04  0.18715346106E+03 0.  0.
         24    2    5    5    0    0 -0.69873897142E+02  0.63712049845E+01  0.97632013303E+03  0.98248466897E+03  0.84570496354E+02 0.  0.
          5    1    5    5  501    0  0.76057855970E+02 -0.89022965302E+01  0.80989971526E+03  0.81352546802E+03  0.47000000000E+01 0. -1.
        -11    1    6    6    0    0 -0.22146650594E+02  0.36880139252E+02  0.63856967337E+03  0.64001706739E+03  0.00000000000E+00 0.  1.
         12    1    6    6    0    0 -0.47727246548E+02 -0.30508934268E+02  0.33775045966E+03  0.34246760158E+03  0.00000000000E+00 0. -1.
         -5    1    3    3    0  503 -0.65429870100E+02 -0.21138422988E+02  0.87527178529E+02  0.11140465793E+03  0.47000000000E+01 0.  1.
         13    1    4    4    0    0 -0.18009649376E+02  0.13923680419E+02  0.16701704808E+02  0.28234080303E+02  0.00000000000E+00 0. -1.
        -14    1    4    4    0    0  0.77255560648E+02  0.97458341141E+01  0.10242031713E+03  0.12865972289E+03  0.00000000000E+00 0.  1.
</event>
<event>
12    1  0.8258923E-002  0.1847872E+03  0.7818608E-02  0.1163468E+00
         21   -1    0    0  501  502  0.00000000000E+00  0.00000000000E+00  0.11362960592E+04  0.11362960592E+04  0.00000000000E+00 0. -1.
         21   -1    0    0  502  503 -0.00000000000E+00 -0.00000000000E+00 -0.80207794345E+02  0.80207794345E+02  0.00000000000E+00 0. -1.
         -6    2    1    2    0  503 -0.64553767285E+02  0.21600712767E+02  0.45818175729E+02  0.18947319432E+03  0.17078350763E+03 0.  0.
        -24    2    3    3    0    0 -0.98082347681E+02  0.19453626373E+02  0.70449272313E+02  0.14754997161E+03  0.82518504882E+02 0.  0.
          6    2    1    2  501    0  0.64553767285E+02 -0.21600712767E+02  0.10102700891E+04  0.10270306592E+04  0.17179214864E+03 0.  0.
         24    2    5    5    0    0  0.14905841026E+02  0.41999809671E+01  0.19683676145E+03  0.21166174826E+03  0.76263759964E+02 0.  0.
          5    1    5    5  501    0  0.49647926259E+02 -0.25800693734E+02  0.81343332767E+03  0.81536891095E+03  0.47000000000E+01 0. -1.
        -13    1    6    6    0    0  0.22440199528E+02  0.35216646834E+02  0.76402960649E+02  0.87070013007E+02  0.00000000000E+00 0.  1.
         14    1    6    6    0    0 -0.75343585012E+01 -0.31016665867E+02  0.12043380080E+03  0.12459173525E+03  0.00000000000E+00 0. -1.
         -5    1    3    3    0  503  0.33528580396E+02  0.21470863939E+01 -0.24631096584E+02  0.41923222709E+02  0.47000000000E+01 0.  1.
         13    1    4    4    0    0 -0.89913942829E+01 -0.17873669746E+02 -0.95115021211E+01  0.22153598217E+02  0.00000000000E+00 0. -1.
        -14    1    4    4    0    0 -0.89090953399E+02  0.37327296119E+02  0.79960774434E+02  0.12539637340E+03  0.00000000000E+00 0.  1.
</event>
<event>
12    1  0.8258923E-002  0.1807534E+03  0.7818608E-02  0.1167319E+00
         21   -1    0    0  501  502  0.00000000000E+00  0.00000000000E+00  0.51963143480E+03  0.51963143480E+03  0.00000000000E+00 0.  1.
         21   -1    0    0  502  503 -0.00000000000E+00 -0.00000000000E+00 -0.71083767597E+02  0.71083767597E+02  0.00000000000E+00 0.  1.
         -6    2    1    2    0  503 -0.52593471635E+02  0.86094110126E+00  0.12123932983E+03  0.21681340752E+03  0.17187863191E+03 0.  0.
        -24    2    3    3    0    0 -0.48641821748E+02  0.92232569216E+00 -0.36762297569E+00  0.95051507588E+02  0.81656453759E+02 0.  0.
          6    2    1    2  501    0  0.52593471635E+02 -0.86094110126E+00  0.32730833737E+03  0.37390179487E+03  0.17293059307E+03 0.  0.
         24    2    5    5    0    0 -0.10164444158E+02 -0.53378902031E+02  0.14464358425E+03  0.17368892254E+03  0.79331281607E+02 0.  0.
          5    1    5    5  501    0  0.62757915793E+02  0.52517960930E+02  0.18266475313E+03  0.20021287234E+03  0.47000000000E+01 0. -1.
        -11    1    6    6    0    0  0.90105943765E+01 -0.26543497325E+02  0.13699254936E+03  0.13983099313E+03  0.00000000000E+00 0.  1.
         12    1    6    6    0    0 -0.19175038535E+02 -0.26835404705E+02  0.76510348866E+01  0.33857929401E+02  0.00000000000E+00 0. -1.
         -5    1    3    3    0  503 -0.39516498874E+01 -0.61384590901E-01  0.12160695281E+03  0.12176189994E+03  0.47000000000E+01 0.  1.
         13    1    4    4    0    0 -0.74969345916E+01  0.28627814453E+02  0.25539695400E+02  0.39090047707E+02  0.00000000000E+00 0. -1.
        -14    1    4    4    0    0 -0.41144887156E+02 -0.27705488761E+02 -0.25907318376E+02  0.55961459881E+02  0.00000000000E+00 0.  1.
</event>
<event>
12    1  0.8258923E-002  0.1797869E+03  0.7818608E-02  0.1168534E+00
         21   -1    0    0  501  502  0.00000000000E+00  0.00000000000E+00  0.44969002069E+02  0.44969002069E+02  0.00000000000E+00 0.  1.
         21   -1    0    0  502  503 -0.00000000000E+00 -0.00000000000E+00 -0.23284243167E+04  0.23284243167E+04  0.00000000000E+00 0.  1.
         -6    2    1    2    0  503  0.49237349419E+02  0.19660731587E+02 -0.21289211175E+04  0.21363192095E+04  0.16953990521E+03 0.  0.
        -24    2    3    3    0    0  0.85576251455E+02  0.43678512746E+02 -0.12014801643E+04  0.12078440180E+04  0.78111966344E+02 0.  0.
          6    2    1    2  501    0 -0.49237349419E+02 -0.19660731587E+02 -0.15453419713E+03  0.23707410925E+03  0.17179189227E+03 0.  0.
         24    2    5    5    0    0 -0.24639406108E+02  0.10221438700E+02 -0.17446815157E+03  0.19328534978E+03  0.78794113919E+02 0.  0.
          5    1    5    5  501    0 -0.24597943310E+02 -0.29882170287E+02  0.19933954437E+02  0.43788759467E+02  0.47000000000E+01 0. -1.
        -13    1    6    6    0    0 -0.37396292546E+02 -0.13953533623E+02 -0.41667043351E+02  0.57700314543E+02  0.00000000000E+00 0.  1.
         14    1    6    6    0    0  0.12756886438E+02  0.24174972323E+02 -0.13280110821E+03  0.13558503524E+03  0.00000000000E+00 0. -1.
         -5    1    3    3    0  503 -0.36338902036E+02 -0.24017781159E+02 -0.92744095322E+03  0.92847519155E+03  0.47000000000E+01 0.  1.
         13    1    4    4    0    0  0.24482352633E+02  0.43054454044E+02 -0.28046953664E+03  0.28480911606E+03  0.00000000000E+00 0. -1.
        -14    1    4    4    0    0  0.61093898822E+02  0.62405870126E+00 -0.92101062763E+03  0.92303490190E+03  0.00000000000E+00 0.  1.
</event>
<event>
12    1  0.8258923E-002  0.2433273E+03  0.7818608E-02  0.1117786E+00
         21   -1    0    0  501  502  0.00000000000E+00  0.00000000000E+00  0.25000505652E+03  0.25000505652E+03  0.00000000000E+00 0.  1.
         21   -1    0    0  502  503 -0.00000000000E+00 -0.00000000000E+00 -0.38525990226E+03  0.38525990226E+03  0.00000000000E+00 0. -1.
         -6    2    1    2    0  503 -0.98503428489E+02 -0.13012593684E+03 -0.26543052571E+03  0.35930504527E+03  0.17891636794E+03 0.  0.
        -24    2    3    3    0    0 -0.52392895973E+02 -0.60201622903E+02 -0.24978271157E+03  0.27396727534E+03  0.79356247449E+02 0.  0.
          6    2    1    2  501    0  0.98503428489E+02  0.13012593684E+03  0.13017567997E+03  0.27595991351E+03  0.18047847889E+03 0.  0.
         24    2    5    5    0    0  0.13945021592E+03  0.86167361084E+02  0.89013644044E+02  0.20298458216E+03  0.80050827174E+02 0.  0.
          5    1    5    5  501    0 -0.40946787434E+02  0.43958575757E+02  0.41162035927E+02  0.72975331348E+02  0.47000000000E+01 0. -1.
        -13    1    6    6    0    0  0.12668375581E+03  0.65435259367E+02  0.39733482516E+02  0.14801789347E+03  0.00000000000E+00 0.  1.
         14    1    6    6    0    0  0.12766460115E+02  0.20732101717E+02  0.49280161527E+02  0.54966688691E+02  0.00000000000E+00 0. -1.
         -5    1    3    3    0  503 -0.46110532515E+02 -0.69924313939E+02 -0.15647814134E+02  0.85337769925E+02  0.47000000000E+01 0.  1.
         11    1    4    4    0    0 -0.24968833851E+02 -0.21854948700E+02 -0.18627268142E+02  0.38053338422E+02  0.00000000000E+00 0. -1.
        -12    1    4    4    0    0 -0.27424062122E+02 -0.38346674202E+02 -0.23115544343E+03  0.23591393692E+03  0.00000000000E+00 0.  1.
</event>
<event>
12    1  0.8258923E-002  0.2115449E+03  0.7818608E-02  0.1140368E+00
         21   -1    0    0  501  502  0.00000000000E+00  0.00000000000E+00  0.84179166059E+02  0.84179166059E+02  0.00000000000E+00 0. -1.
         21   -1    0    0  502  503 -0.00000000000E+00 -0.00000000000E+00 -0.79919449211E+03  0.79919449211E+03  0.00000000000E+00 0.  1.
         -6    2    1    2    0  503 -0.11713177899E+03 -0.35561833230E+02 -0.61314068611E+03  0.64857656724E+03  0.17241103495E+03 0.  0.
        -24    2    3    3    0    0 -0.14173050698E+02  0.33191700500E+02 -0.24430552643E+03  0.25948915656E+03  0.79667231529E+02 0.  0.
          6    2    1    2  501    0  0.11713177899E+03  0.35561833230E+02 -0.10187463994E+03  0.23479709093E+03  0.17253038577E+03 0.  0.
         24    2    5    5    0    0  0.35542414505E+02  0.68855773793E+02 -0.10026725805E+03  0.14653620179E+03  0.73586375003E+02 0.  0.
          5    1    5    5  501    0  0.81589364482E+02 -0.33293940563E+02 -0.16073818913E+01  0.88260889138E+02  0.47000000000E+01 0. -1.
        -11    1    6    6    0    0  0.23647269574E+01  0.12546911230E+02 -0.75614532817E+02  0.76684903912E+02  0.00000000000E+00 0.  1.
         12    1    6    6    0    0  0.33177687547E+02  0.56308862564E+02 -0.24652725229E+02  0.69851297880E+02  0.00000000000E+00 0. -1.
         -5    1    3    3    0  503 -0.10295872829E+03 -0.68753533730E+02 -0.36883515968E+03  0.38908741068E+03  0.47000000000E+01 0.  1.
         13    1    4    4    0    0 -0.14673650273E+02  0.51390377338E+02 -0.94372357231E+02  0.10845473113E+03  0.00000000000E+00 0. -1.
        -14    1    4    4    0    0  0.50059957503E+00 -0.18198676838E+02 -0.14993316919E+03  0.15103442542E+03  0.00000000000E+00 0.  1.
</event>
<event>
12    1  0.8258923E-002  0.1761079E+03  0.7818608E-02  0.1171915E+00
         21   -1    0    0  503  502  0.00000000000E+00  0.00000000000E+00  0.73235228173E+03  0.73235228173E+03  0.00000000000E+00 0.  1.
         21   -1    0    0  501  503 -0.00000000000E+00 -0.00000000000E+00 -0.55233751897E+02  0.55233751897E+02  0.00000000000E+00 0.  1.
          6    2    1    2  501    0  0.14320952559E+02 -0.28336200797E+02  0.14716324902E+03  0.22950169276E+03  0.17322232869E+03 0.  0.
         24    2    3    3    0    0  0.51962187145E+02  0.24391589045E+02  0.42877900161E+02  0.10664158389E+03  0.78986673460E+02 0.  0.
         -6    2    1    2    0  502 -0.14320952559E+02  0.28336200797E+02  0.52995528081E+03  0.55808434087E+03  0.17203924525E+03 0.  0.
        -24    2    5    5    0    0 -0.13762940978E+02  0.79576205238E+02  0.26522123777E+03  0.28839553321E+03  0.79422211163E+02 0.  0.
          5    1    3    3  501    0 -0.37641234586E+02 -0.52727789842E+02  0.10428534886E+03  0.12286010886E+03  0.47000000000E+01 0. -1.
        -13    1    4    4    0    0  0.11589611569E+02  0.48810111763E+02  0.17974616390E+02  0.53290082951E+02  0.00000000000E+00 0.  1.
         14    1    4    4    0    0  0.40372575576E+02 -0.24418522717E+02  0.24903283770E+02  0.53351500943E+02  0.00000000000E+00 0. -1.
         -5    1    5    5    0  502 -0.55801158136E+00 -0.51240004441E+02  0.26473404304E+03  0.26968880766E+03  0.47000000000E+01 0.  1.
         11    1    6    6    0    0  0.28746871581E+02  0.12328515692E+02  0.50415754888E+02  0.59330626710E+02  0.00000000000E+00 0. -1.
        -12    1    6    6    0    0 -0.42509812559E+02  0.67247689546E+02  0.21480548288E+03  0.22906490650E+03  0.00000000000E+00 0.  1.
</event>
<event>
12    1  0.8258923E-002  0.1864866E+03  0.7818608E-02  0.1161712E+00
         21   -1    0    0  503  502  0.00000000000E+00  0.00000000000E+00  0.31388323658E+03  0.31388323658E+03  0.00000000000E+00 0. -1.
         21   -1    0    0  501  503 -0.00000000000E+00 -0.00000000000E+00 -0.13447462218E+03  0.13447462218E+03  0.00000000000E+00 0. -1.
          6    2    1    2  501    0  0.73051748954E+02  0.65626409347E+01  0.18402877663E+03  0.26199973158E+03  0.17145740708E+03 0.  0.
         24    2    3    3    0    0  0.20589719859E+02  0.16693183983E+02  0.16744558055E+02  0.86326762170E+02  0.80432149586E+02 0.  0.
         -6    2    1    2    0  502 -0.73051748954E+02 -0.65626409347E+01 -0.46201622243E+01  0.18635812718E+03  0.17125530470E+03 0.  0.
        -24    2    5    5    0    0 -0.10079027613E+02  0.42190494480E+02 -0.42199893897E+02  0.98172198157E+02  0.77300225252E+02 0.  0.
          5    1    3    3  501    0  0.52462029095E+02 -0.10130543049E+02  0.16728421857E+03  0.17567296941E+03  0.47000000000E+01 0. -1.
        -11    1    4    4    0    0  0.31309757034E+02 -0.25264880787E+02  0.99004951367E+00  0.40244195665E+02  0.00000000000E+00 0.  1.
         12    1    4    4    0    0 -0.10720037175E+02  0.41958064770E+02  0.15754508541E+02  0.46082566505E+02  0.00000000000E+00 0. -1.
         -5    1    5    5    0  502 -0.62972721341E+02 -0.48753135415E+02  0.37579731673E+02  0.88185929027E+02  0.47000000000E+01 0.  1.
         11    1    6    6    0    0 -0.17020175935E+02 -0.13668390907E+02  0.75008129268E+01  0.23081886695E+02  0.00000000000E+00 0. -1.
        -12    1    6    6    0    0  0.69411483221E+01  0.55858885387E+02 -0.49700706824E+02  0.75090311462E+02  0.00000000000E+00 0.  1.
</event>
<event>
12    1  0.8258923E-002  0.2157138E+03  0.7818608E-02  0.1137206E+00
         21   -1    0    0  503  502  0.00000000000E+00  0.00000000000E+00  0.31524978766E+02  0.31524978766E+02  0.00000000000E+00 0. -1.
         21   -1    0    0  501  503 -0.00000000000E+00 -0.00000000000E+00 -0.15633253572E+04  0.15633253572E+04  0.00000000000E+00 0. -1.
          6    2    1    2  501    0  0.59908974046E+02  0.11607370503E+03 -0.95838468461E+03  0.98236126962E+03  0.17166907171E+03 0.  0.
         24    2    3    3    0    0  0.51499102266E+01  0.85252559006E+02 -0.84252468047E+03  0.85047446713E+03  0.78514085615E+02 0.  0.
         -6    2    1    2    0  502 -0.59908974046E+02 -0.11607370503E+03 -0.57341569381E+03  0.61248906633E+03  0.17109970280E+03 0.  0.
        -24    2    5    5    0    0 -0.77278931314E+02 -0.13469050803E+03 -0.39367638262E+03  0.43089443327E+03  0.81088545505E+02 0.  0.
          5    1    3    3  501    0  0.54759063820E+02  0.30821146023E+02 -0.11586000414E+03  0.13188680250E+03  0.47000000000E+01 0. -1.
        -13    1    4    4    0    0  0.27435246242E+02  0.12015702689E+02 -0.11150755621E+03  0.11545997116E+03  0.00000000000E+00 0.  1.
         14    1    4    4    0    0 -0.22285336016E+02  0.73236856317E+02 -0.73101712426E+03  0.73501449597E+03  0.00000000000E+00 0. -1.
         -5    1    5    5    0  502  0.17369957267E+02  0.18616803005E+02 -0.17973931120E+03  0.18159463307E+03  0.47000000000E+01 0.  1.
         13    1    6    6    0    0  0.11505868492E+02 -0.53207930846E+02 -0.11232768807E+03  0.12482378948E+03  0.00000000000E+00 0. -1.
        -14    1    6    6    0    0 -0.88784799806E+02 -0.81482577188E+02 -0.28134869455E+03  0.30607064378E+03  0.00000000000E+00 0.  1.
</event>
<event>
12    1  0.8258923E-002  0.2068648E+03  0.7818608E-02  0.1144106E+00
         21   -1    0    0  501  502  0.00000000000E+00  0.00000000000E+00  0.55199378864E+03  0.55199378864E+03  0.00000000000E+00 0.  1.
         21   -1    0    0  502  503 -0.00000000000E+00 -0.00000000000E+00 -0.84009203956E+02  0.84009203956E+02  0.00000000000E+00 0. -1.
         -6    2    1    2    0  503 -0.93218199035E+02 -0.63493740211E+02  0.32284546415E+03  0.38343480241E+03  0.17341270513E+03 0.  0.
        -24    2    3    3    0    0 -0.59298768242E+02 -0.10398975547E+03  0.17584888099E+03  0.22716407419E+03  0.79689864484E+02 0.  0.
          6    2    1    2  501    0  0.93218199035E+02  0.63493740211E+02  0.14513912054E+03  0.25256819019E+03  0.17321731642E+03 0.  0.
         24    2    5    5    0    0  0.10239821422E+03  0.80140897295E+02  0.16396120047E+03  0.22540643011E+03  0.83766495585E+02 0.  0.
          5    1    5    5  501    0 -0.91800151880E+01 -0.16647157084E+02 -0.18822079926E+02  0.27161760078E+02  0.47000000000E+01 0. -1.
        -13    1    6    6    0    0  0.49310709299E+02 -0.83918180296E+01  0.39696185515E+02  0.63857308163E+02  0.00000000000E+00 0.  1.
         14    1    6    6    0    0  0.53087504924E+02  0.88532715325E+02  0.12426501495E+03  0.16154912195E+03  0.00000000000E+00 0. -1.
         -5    1    3    3    0  503 -0.33919430793E+02  0.40496015257E+02  0.14699658315E+03  0.15627072821E+03  0.47000000000E+01 0.  1.
         11    1    4    4    0    0 -0.43573738143E+02 -0.29420175583E+02  0.25129108146E+02  0.58272544678E+02  0.00000000000E+00 0. -1.
        -12    1    4    4    0    0 -0.15725030099E+02 -0.74569579884E+02  0.15071977285E+03  0.16889152952E+03  0.00000000000E+00 0.  1.
</event>
<event>
12    1  0.8258923E-002  0.1933536E+03  0.7818608E-02  0.1155764E+00
         21   -1    0    0  501  502  0.00000000000E+00  0.00000000000E+00  0.55066648135E+02  0.55066648135E+02  0.00000000000E+00 0.  1.
         21   -1    0    0  502  503 -0.00000000000E+00 -0.00000000000E+00 -0.12358061614E+04  0.12358061614E+04  0.00000000000E+00 0.  1.
         -6    2    1    2    0  503 -0.74510037217E+02  0.45306940674E+02 -0.10243377608E+04  0.10421819736E+04  0.17108756057E+03 0.  0.
        -24    2    3    3    0    0 -0.37899114751E+02  0.88003543517E+02 -0.84265876620E+03  0.85193816525E+03  0.80894218489E+02 0.  0.
          6    2    1    2  501    0  0.74510037217E+02 -0.45306940674E+02 -0.15640175239E+03  0.24869083586E+03  0.17257218539E+03 0.  0.
         24    2    5    5    0    0  0.10747802603E+03 -0.68238380351E+02 -0.14357686992E+03  0.20627259895E+03  0.75670766293E+02 0.  0.
          5    1    5    5  501    0 -0.32967988808E+02  0.22931439677E+02 -0.12824882466E+02  0.42418236903E+02  0.47000000000E+01 0. -1.
        -11    1    6    6    0    0  0.83130439446E+02 -0.37949502927E+02 -0.14008266797E+03  0.16725426333E+03  0.00000000000E+00 0.  1.
         12    1    6    6    0    0  0.24347586579E+02 -0.30288877424E+02 -0.34942019501E+01  0.39018335627E+02  0.00000000000E+00 0. -1.
         -5    1    3    3    0  503 -0.36610922465E+02 -0.42696602843E+02 -0.18167899464E+03  0.19024380840E+03  0.47000000000E+01 0.  1.
         13    1    4    4    0    0  0.14863735769E+02  0.59189040331E+01 -0.35951232444E+02  0.39350415248E+02  0.00000000000E+00 0. -1.
        -14    1    4    4    0    0 -0.52762850520E+02  0.82084639483E+02 -0.80670753376E+03  0.81258775000E+03  0.00000000000E+00 0.  1.
</event>
<event>
12    1  0.8258923E-002  0.2412490E+03  0.7818608E-02  0.1119310E+00
         21   -1    0    0  501  502  0.00000000000E+00  0.00000000000E+00  0.22059815611E+03  0.22059815611E+03  0.00000000000E+00 0.  1.
         21   -1    0    0  502  503 -0.00000000000E+00 -0.00000000000E+00 -0.27213514037E+03  0.27213514037E+03  0.00000000000E+00 0.  1.
         -6    2    1    2    0  503  0.71446324311E+00  0.16615746345E+03 -0.74234967820E+02  0.25041890356E+03  0.17201739359E+03 0.  0.
        -24    2    3    3    0    0  0.15798936067E+02  0.36864292811E+02  0.17677911793E+02  0.91000169617E+02  0.79749230965E+02 0.  0.
          6    2    1    2  501    0 -0.71446324311E+00 -0.16615746345E+03  0.22697983555E+02  0.24231439292E+03  0.17490641338E+03 0.  0.
         24    2    5    5    0    0  0.68744652667E+02 -0.10781838890E+03  0.22326029805E+02  0.15148353499E+03  0.78090828607E+02 0.  0.
          5    1    5    5  501    0 -0.69459115910E+02 -0.58339074547E+02  0.37195375019E+00  0.90830857926E+02  0.47000000000E+01 0. -1.
        -13    1    6    6    0    0  0.61730518337E+02 -0.58746846754E+02  0.45679607033E+02  0.96687514170E+02  0.00000000000E+00 0.  1.
         14    1    6    6    0    0  0.70141343301E+01 -0.49071542145E+02 -0.23353577228E+02  0.54796020825E+02  0.00000000000E+00 0. -1.
         -5    1    3    3    0  503 -0.15084472824E+02  0.12929317063E+03 -0.91912879613E+02  0.15941873394E+03  0.47000000000E+01 0.  1.
         13    1    4    4    0    0  0.46469637622E+02  0.21292353124E+02 -0.24000110442E+01  0.51171784953E+02  0.00000000000E+00 0. -1.
        -14    1    4    4    0    0 -0.30670701555E+02  0.15571939687E+02  0.20077922837E+02  0.39828384664E+02  0.00000000000E+00 0.  1.
</event>
<event>
12    1  0.8258923E-002  0.1986206E+03  0.7818608E-02  0.1150919E+00
         21   -1    0    0  501  502  0.00000000000E+00  0.00000000000E+00  0.14215980649E+03  0.14215980649E+03  0.00000000000E+00 0.  1.
         21   -1    0    0  502  503 -0.00000000000E+00 -0.00000000000E+00 -0.96350783583E+03  0.96350783583E+03  0.00000000000E+00 0. -1.
         -6    2    1    2    0  503  0.46445937586E+01 -0.99580044212E+02 -0.87715960689E+03  0.89935461793E+03  0.17173233642E+03 0.  0.
        -24    2    3    3    0    0 -0.51241635253E+02 -0.85321963923E+02 -0.72708124224E+03  0.73850633854E+03  0.82697862927E+02 0.  0.
          6    2    1    2  501    0 -0.46445937586E+01  0.99580044212E+02  0.55811577546E+02  0.20631302439E+03  0.17179165984E+03 0.  0.
         24    2    5    5    0    0 -0.19089070155E+02  0.13629654917E+03  0.44626132961E+02  0.16503410962E+03  0.79395363096E+02 0.  0.
          5    1    5    5  501    0  0.14444476396E+02 -0.36716504953E+02  0.11185444585E+02  0.41278914774E+02  0.47000000000E+01 0. -1.
        -11    1    6    6    0    0 -0.40738697219E+02  0.47423310436E+02 -0.16118591105E+01  0.62539666721E+02  0.00000000000E+00 0.  1.
         12    1    6    6    0    0  0.21649627064E+02  0.88873238730E+02  0.46237992071E+02  0.10249444290E+03  0.00000000000E+00 0. -1.
         -5    1    3    3    0  503  0.55886229012E+02 -0.14258080289E+02 -0.15007836465E+03  0.16084827939E+03  0.47000000000E+01 0.  1.
         13    1    4    4    0    0 -0.24237698587E+02 -0.95638115808E+02 -0.50459497300E+03  0.51414998007E+03  0.00000000000E+00 0. -1.
        -14    1    4    4    0    0 -0.27003936666E+02  0.10316151885E+02 -0.22248626925E+03  0.22435635847E+03  0.00000000000E+00 0.  1.
</event>
<event>
12    1  0.8258923E-002  0.2038020E+03  0.7818608E-02  0.1147428E+00
         21   -1    0    0  503  502  0.00000000000E+00  0.00000000000E+00  0.19895345823E+03  0.19895345823E+03  0.00000000000E+00 0. -1.
         21   -1    0    0  501  503 -0.00000000000E+00 -0.00000000000E+00 -0.40141584843E+03  0.40141584843E+03  0.00000000000E+00 0. -1.
          6    2    1    2  501    0  0.97576699020E+02 -0.47779778056E+02 -0.31196566051E+03  0.37263633211E+03  0.17242721156E+03 0.  0.
         24    2    3    3    0    0  0.61985858896E+02  0.33289082600E+02 -0.22187895356E+03  0.24623786361E+03  0.80326867988E+02 0.  0.
         -6    2    1    2    0  502 -0.97576699020E+02  0.47779778056E+02  0.10950327031E+03  0.22773297455E+03  0.16753274935E+03 0.  0.
        -24    2    5    5    0    0 -0.80244967621E+02  0.56439771980E+02  0.14173177732E+03  0.18983639064E+03  0.79531476905E+02 0.  0.
          5    1    3    3  501    0  0.35590840124E+02 -0.81068860656E+02 -0.90086706959E+02  0.12639846850E+03  0.47000000000E+01 0. -1.
        -11    1    4    4    0    0  0.69168236797E+02 -0.28279150709E+01 -0.13064222705E+03  0.14785003745E+03  0.00000000000E+00 0.  1.
         12    1    4    4    0    0 -0.71823779011E+01  0.36116997671E+02 -0.91236726508E+02  0.98387826162E+02  0.00000000000E+00 0. -1.
         -5    1    5    5    0  502 -0.17331731399E+02 -0.86599939236E+01 -0.32228507011E+02  0.37896583912E+02  0.47000000000E+01 0.  1.
         11    1    6    6    0    0 -0.41954245266E+02  0.30190497068E+01  0.10945421440E+02  0.43463497414E+02  0.00000000000E+00 0. -1.
        -12    1    6    6    0    0 -0.38290722355E+02  0.53420722273E+02  0.13078635588E+03  0.14637289322E+03  0.00000000000E+00 0.  1.
</event>
<event>
12    1  0.8258923E-002  0.2743675E+03  0.7818608E-02  0.1098904E+00
         21   -1    0    0  503  502  0.00000000000E+00  0.00000000000E+00  0.60560552923E+02  0.60560552923E+02  0.00000000000E+00 0.  1.
         21   -1    0    0  501  503 -0.00000000000E+00 -0.00000000000E+00 -0.12405177647E+04  0.12405177647E+04  0.00000000000E+00 0.  1.
          6    2    1    2  501    0  0.19310187573E+03 -0.91960112264E+02 -0.60584943241E+03  0.66507974736E+03  0.17185033878E+03 0.  0.
         24    2    3    3    0    0  0.55211961336E+02 -0.78766231248E+02 -0.39008835479E+03  0.40863747392E+03  0.74586732696E+02 0.  0.
         -6    2    1    2    0  502 -0.19310187573E+03  0.91960112264E+02 -0.57410777938E+03  0.63599857028E+03  0.17073207780E+03 0.  0.
        -24    2    5    5    0    0 -0.18247233349E+03  0.38205911575E+02 -0.33961244834E+03  0.39514041380E+03  0.77739869984E+02 0.  0.
          5    1    3    3  501    0  0.13788991440E+03 -0.13193881016E+02 -0.21576107762E+03  0.25644227343E+03  0.47000000000E+01 0. -1.
        -13    1    4    4    0    0  0.32021244191E+01 -0.18004165471E+01 -0.16624044065E+03  0.16628102480E+03  0.00000000000E+00 0.  1.
         14    1    4    4    0    0  0.52009836917E+02 -0.76965814701E+02 -0.22384791413E+03  0.24235644912E+03  0.00000000000E+00 0. -1.
         -5    1    5    5    0  502 -0.10629542245E+02  0.53754200689E+02 -0.23449533105E+03  0.24085815648E+03  0.47000000000E+01 0.  1.
         11    1    6    6    0    0 -0.62717010913E+02 -0.14525182675E+02 -0.67929675021E+02  0.93588701979E+02  0.00000000000E+00 0. -1.
        -12    1    6    6    0    0 -0.11975532257E+03  0.52731094250E+02 -0.27168277332E+03  0.30155171182E+03  0.00000000000E+00 0.  1.
</event>
<event>
12    1  0.8258923E-002  0.1968819E+03  0.7818608E-02  0.1152472E+00
         21   -1    0    0  503  502  0.00000000000E+00  0.00000000000E+00  0.23593680099E+03  0.23593680099E+03  0.00000000000E+00 0.  1.
         21   -1    0    0  501  503 -0.00000000000E+00 -0.00000000000E+00 -0.17328787162E+03  0.17328787162E+03  0.00000000000E+00 0.  1.
          6    2    1    2  501    0  0.14527634323E+01  0.95369325435E+02 -0.16066735800E+02  0.19719014845E+03  0.17183828412E+03 0.  0.
         24    2    3    3    0    0  0.54412257475E+02  0.50865370428E+02  0.25487360304E+02  0.11635610288E+03  0.85680554790E+02 0.  0.
         -6    2    1    2    0  502 -0.14527634323E+01 -0.95369325435E+02  0.78715665171E+02  0.21203452416E+03  0.17223549209E+03 0.  0.
        -24    2    5    5    0    0  0.20463021916E+02 -0.16429497633E+02  0.96138293737E+02  0.12814509665E+03  0.80560105605E+02 0.  0.
          5    1    3    3  501    0 -0.52959494043E+02  0.44503955007E+02 -0.41554096104E+02  0.80834045572E+02  0.47000000000E+01 0. -1.
        -13    1    4    4    0    0 -0.17208251057E+02  0.16533707993E+01  0.23832227463E+02  0.29442021080E+02  0.00000000000E+00 0.  1.
         14    1    4    4    0    0  0.71620508532E+02  0.49211999629E+02  0.16551328414E+01  0.86914081797E+02  0.00000000000E+00 0. -1.
         -5    1    5    5    0  502 -0.21915785348E+02 -0.78939827802E+02 -0.17422628566E+02  0.83889427504E+02  0.47000000000E+01 0.  1.
         11    1    6    6    0    0  0.44523030495E+02 -0.29029676636E+02  0.42615598114E+02  0.68125704199E+02  0.00000000000E+00 0. -1.
        -12    1    6    6    0    0 -0.24060008579E+02  0.12600179002E+02  0.53522695623E+02  0.60019392453E+02  0.00000000000E+00 0.  1.
</event>
<event>
12    1  0.8258923E-002  0.1810806E+03  0.7818608E-02  0.1166830E+00
         21   -1    0    0  503  502  0.00000000000E+00  0.00000000000E+00  0.86649385808E+02  0.86649385808E+02  0.00000000000E+00 0. -1.
         21   -1    0    0  501  503 -0.00000000000E+00 -0.00000000000E+00 -0.79417129971E+03  0.79417129971E+03  0.00000000000E+00 0. -1.
          6    2    1    2  501    0 -0.41100116296E+02 -0.38787545341E+02 -0.67277195000E+03  0.69671534514E+03  0.17203628165E+03 0.  0.
         24    2    3    3    0    0  0.35717394979E+02 -0.46445928899E+02 -0.44161186537E+03  0.45296002600E+03  0.81968218892E+02 0.  0.
         -6    2    1    2    0  502  0.41100116296E+02  0.38787545341E+02 -0.34749963896E+02  0.18410534038E+03  0.17173678445E+03 0.  0.
        -24    2    5    5    0    0 -0.94171602105E+01  0.19640899577E+02 -0.78756028719E+02  0.11426829426E+03  0.79876674757E+02 0.  0.
          5    1    3    3  501    0 -0.76817511275E+02  0.76583835588E+01 -0.23116008464E+03  0.24375531913E+03  0.47000000000E+01 0. -1.
        -11    1    4    4    0    0  0.21287916431E+02 -0.66094122455E+02 -0.23887081951E+03  0.24875867185E+03  0.00000000000E+00 0.  1.
         12    1    4    4    0    0  0.14429478548E+02  0.19648193556E+02 -0.20274104586E+03  0.20420135415E+03  0.00000000000E+00 0. -1.
         -5    1    5    5    0  502  0.50517276507E+02  0.19146645763E+02  0.44006064823E+02  0.69837046121E+02  0.47000000000E+01 0.  1.
         11    1    6    6    0    0 -0.24100388157E+02 -0.25288637587E+02 -0.26809815718E+02  0.44035328081E+02  0.00000000000E+00 0. -1.
        -12    1    6    6    0    0  0.14683227947E+02  0.44929537165E+02 -0.51946213001E+02  0.70232966176E+02  0.00000000000E+00 0.  1.
</event>
<event>
12    1  0.8258923E-002  0.2296438E+03  0.7818608E-02  0.1127179E+00
         21   -1    0    0  501  502  0.00000000000E+00  0.00000000000E+00  0.27238306785E+03  0.27238306785E+03  0.00000000000E+00 0. -1.
         21   -1    0    0  502  503 -0.00000000000E+00 -0.00000000000E+00 -0.11814104549E+04  0.11814104549E+04  0.00000000000E+00 0. -1.
         -6    2    1    2    0  503  0.67992169571E+02  0.13440179376E+03 -0.11193816991E+04  0.11423690302E+04  0.17118655222E+03 0.  0.
        -24    2    3    3    0    0 -0.87822654987E+01  0.12697452428E+03 -0.79451292738E+03  0.80843597249E+03  0.78219382766E+02 0.  0.
          6    2    1    2  501    0 -0.67992169571E+02 -0.13440179376E+03  0.21035431204E+03  0.31142449252E+03  0.17334791795E+03 0.  0.
         24    2    5    5    0    0 -0.22249197860E+02 -0.15868898002E+03  0.14818899467E+03  0.23037571979E+03  0.73727708093E+02 0.  0.
          5    1    5    5  501    0 -0.45742971711E+02  0.24287186265E+02  0.62165317371E+02  0.81048772732E+02  0.47000000000E+01 0. -1.
        -11    1    6    6    0    0 -0.48157132524E+01 -0.44255739977E+02  0.28976723101E+01  0.44611188281E+02  0.00000000000E+00 0.  1.
         12    1    6    6    0    0 -0.17433484608E+02 -0.11443324005E+03  0.14529132236E+03  0.18576453151E+03  0.00000000000E+00 0. -1.
         -5    1    3    3    0  503  0.76774435070E+02  0.74272694827E+01 -0.32486877172E+03  0.33393305774E+03  0.47000000000E+01 0.  1.
         11    1    4    4    0    0  0.30491612497E+02  0.35693173825E+02 -0.18429724669E+03  0.19018206074E+03  0.00000000000E+00 0. -1.
        -12    1    4    4    0    0 -0.39273877996E+02  0.91281350451E+02 -0.61021568068E+03  0.61825391174E+03  0.00000000000E+00 0.  1.
</event>
<event>
12    1  0.8258923E-002  0.3604562E+03  0.7818608E-02  0.1058416E+00
         21   -1    0    0  503  502  0.00000000000E+00  0.00000000000E+00  0.41740372785E+03  0.41740372785E+03  0.00000000000E+00 0.  1.
         21   -1    0    0  501  503 -0.00000000000E+00 -0.00000000000E+00 -0.31163143537E+03  0.31163143537E+03  0.00000000000E+00 0. -1.
          6    2    1    2  501    0 -0.92721345515E+02 -0.30279226057E+03  0.66939073720E+02  0.36661899259E+03  0.17218665789E+03 0.  0.
         24    2    3    3    0    0 -0.63651748970E+02 -0.15454790390E+03  0.10236388325E+03  0.21138227702E+03  0.79167560897E+02 0.  0.
         -6    2    1    2    0  502  0.92721345515E+02  0.30279226057E+03  0.38833218759E+02  0.36241617064E+03  0.17192167077E+03 0.  0.
        -24    2    5    5    0    0 -0.51246526143E+01  0.17274644294E+03  0.56738536792E+02  0.19862226218E+03  0.79774343382E+02 0.  0.
          5    1    3    3  501    0 -0.29069596545E+02 -0.14824435668E+03 -0.35424809527E+02  0.15523671557E+03  0.47000000000E+01 0. -1.
        -13    1    4    4    0    0 -0.30311313372E+02 -0.11786050573E+03  0.10639217842E+03  0.16164519837E+03  0.00000000000E+00 0.  1.
         14    1    4    4    0    0 -0.33340435598E+02 -0.36687398171E+02 -0.40282951694E+01  0.49737078648E+02  0.00000000000E+00 0. -1.
         -5    1    5    5    0  502  0.97845998129E+02  0.13004581763E+03 -0.17905318033E+02  0.16379390846E+03  0.47000000000E+01 0.  1.
         11    1    6    6    0    0  0.33817702205E+02  0.74125890384E+02  0.41710917582E+02  0.91531881075E+02  0.00000000000E+00 0. -1.
        -12    1    6    6    0    0 -0.38942354820E+02  0.98620552556E+02  0.15027619211E+02  0.10709038110E+03  0.00000000000E+00 0.  1.
</event>
<event>
12    1  0.8258923E-002  0.2503761E+03  0.7818608E-02  0.1113172E+00
         21   -1    0    0  501  502  0.00000000000E+00  0.00000000000E+00  0.22477469050E+03  0.22477469050E+03  0.00000000000E+00 0. -1.
         21   -1    0    0  502  503 -0.00000000000E+00 -0.00000000000E+00 -0.35493398265E+03  0.35493398265E+03  0.00000000000E+00 0. -1.
         -6    2    1    2    0  503 -0.13133379739E+03 -0.12600664881E+03 -0.19996069790E+03  0.32042548263E+03  0.17193593962E+03 0.  0.
        -24    2    3    3    0    0 -0.45294961048E+02 -0.13507471828E+03 -0.12795789254E+03  0.20776934555E+03  0.80610580386E+02 0.  0.
          6    2    1    2  501    0  0.13133379739E+03  0.12600664881E+03  0.69801405750E+02  0.25928319052E+03  0.17096577073E+03 0.  0.
         24    2    5    5    0    0  0.81289604513E+02  0.32347777409E+02 -0.21930391297E+02  0.11887942269E+03  0.77440277443E+02 0.  0.
          5    1    5    5  501    0  0.50044192877E+02  0.93658871399E+02  0.91731797047E+02  0.14040376783E+03  0.47000000000E+01 0. -1.
        -11    1    6    6    0    0  0.55289410657E+02 -0.70327226517E+01  0.16385307507E+02  0.58093514447E+02  0.00000000000E+00 0.  1.
         12    1    6    6    0    0  0.26000193855E+02  0.39380500060E+02 -0.38315698804E+02  0.60785908238E+02  0.00000000000E+00 0. -1.
         -5    1    3    3    0  503 -0.86038836342E+02  0.90680694713E+01 -0.72002805361E+02  0.11265613708E+03  0.47000000000E+01 0.  1.
         13    1    4    4    0    0 -0.62620920096E+02 -0.63532281535E+02 -0.59365117139E+02  0.10715384997E+03  0.00000000000E+00 0. -1.
        -14    1    4    4    0    0  0.17325959048E+02 -0.71542436744E+02 -0.68592775405E+02  0.10061549558E+03  0.00000000000E+00 0.  1.
</event>
<event>
12    1  0.8258923E-002  0.2706217E+03  0.7818608E-02  0.1101042E+00
         21   -1    0    0  503  502  0.00000000000E+00  0.00000000000E+00  0.35524555516E+03  0.35524555516E+03  0.00000000000E+00 0. -1.
         21   -1    0    0  501  503 -0.00000000000E+00 -0.00000000000E+00 -0.49491813814E+03  0.49491813814E+03  0.00000000000E+00 0. -1.
          6    2    1    2  501    0  0.16212349658E+03  0.12998601733E+03 -0.39492791700E+03  0.47875269842E+03  0.17336578029E+03 0.  0.
         24    2    3    3    0    0  0.20591059830E+02  0.67687354425E+02 -0.22606310982E+03  0.24973312031E+03  0.79098243137E+02 0.  0.
         -6    2    1    2    0  502 -0.16212349658E+03 -0.12998601733E+03  0.25525533402E+03  0.37141099489E+03  0.17207686868E+03 0.  0.
        -24    2    5    5    0    0 -0.46444727819E+02 -0.11499863508E+03  0.17622531818E+03  0.23043570425E+03  0.81629971280E+02 0.  0.
          5    1    3    3  501    0  0.14153243675E+03  0.62298662905E+02 -0.16886480718E+03  0.22901957810E+03  0.47000000000E+01 0. -1.
        -11    1    4    4    0    0  0.89044727435E+01  0.60360316158E+02 -0.69167389302E+02  0.92232234845E+02  0.00000000000E+00 0.  1.
         12    1    4    4    0    0  0.11686587086E+02  0.73270382662E+01 -0.15689572052E+03  0.15750088547E+03  0.00000000000E+00 0. -1.
         -5    1    5    5    0  502 -0.11567876876E+03 -0.14987382248E+02  0.79030015834E+02  0.14097529064E+03  0.47000000000E+01 0.  1.
         13    1    6    6    0    0  0.80440066616E+01 -0.19418864657E+02  0.84861156797E+02  0.87425478441E+02  0.00000000000E+00 0. -1.
        -14    1    6    6    0    0 -0.54488734480E+02 -0.95579770425E+02  0.91364161385E+02  0.14301022581E+03  0.00000000000E+00 0.  1.
</event>
<event>
12    1  0.8258923E-002  0.2315473E+03  0.7818608E-02  0.1126067E+00
         21   -1    0    0  501  502  0.00000000000E+00  0.00000000000E+00  0.22578196185E+03  0.22578196185E+03  0.00000000000E+00 0.  1.
         21   -1    0    0  502  503 -0.00000000000E+00 -0.00000000000E+00 -0.54430032080E+03  0.54430032080E+03  0.00000000000E+00 0.  1.
         -6    2    1    2    0  503  0.66039969218E+02  0.13988045273E+03 -0.45018831131E+03  0.50624468564E+03  0.17229726494E+03 0.  0.
        -24    2    3    3    0    0  0.61913175580E+02  0.35850539545E+02 -0.33217967181E+03  0.34880459462E+03  0.78757909874E+02 0.  0.
          6    2    1    2  501    0 -0.66039969218E+02 -0.13988045273E+03  0.13166995235E+03  0.26383759701E+03  0.16836116730E+03 0.  0.
         24    2    5    5    0    0 -0.10183927045E+03 -0.63778440995E+02  0.76475960184E+02  0.16313222015E+03  0.79527493499E+02 0.  0.
          5    1    5    5  501    0  0.35799301232E+02 -0.76102011732E+02  0.55193992169E+02  0.10070537687E+03  0.47000000000E+01 0. -1.
        -11    1    6    6    0    0 -0.19411507339E+01 -0.40560059449E+02  0.13557758753E+02  0.42810037504E+02  0.00000000000E+00 0.  1.
         12    1    6    6    0    0 -0.99898119716E+02 -0.23218381546E+02  0.62918201431E+02  0.12032218264E+03  0.00000000000E+00 0. -1.
         -5    1    3    3    0  503  0.41267936381E+01  0.10402991318E+03 -0.11800863950E+03  0.15744009102E+03  0.47000000000E+01 0.  1.
         13    1    4    4    0    0 -0.12639782952E+02  0.26554976035E+02 -0.66639910936E+02  0.72840981562E+02  0.00000000000E+00 0. -1.
        -14    1    4    4    0    0  0.74552958532E+02  0.92955635092E+01 -0.26553976088E+03  0.27596361306E+03  0.00000000000E+00 0.  1.
</event>
<event>
12    1  0.8258923E-002  0.1892299E+03  0.7818608E-02  0.1159240E+00
         21   -1    0    0  501  502  0.00000000000E+00  0.00000000000E+00  0.11108151031E+04  0.11108151031E+04  0.00000000000E+00 0. -1.
         21   -1    0    0  502  503 -0.00000000000E+00 -0.00000000000E+00 -0.54389746939E+02  0.54389746939E+02  0.00000000000E+00 0.  1.
         -6    2    1    2    0  503 -0.56659073395E+02  0.46258206596E+02  0.15616979402E+03  0.24535072427E+03  0.17452192143E+03 0.  0.
        -24    2    3    3    0    0  0.33589394740E+02  0.45717787729E+02  0.60765469177E+02  0.11393857395E+03  0.77917859539E+02 0.  0.
          6    2    1    2  501    0  0.56659073395E+02 -0.46258206596E+02  0.90025556216E+03  0.91985412579E+03  0.17413059253E+03 0.  0.
         24    2    5    5    0    0  0.27022033973E+01 -0.32205950559E+02  0.20387407978E+03  0.22122828263E+03  0.79578812988E+02 0.  0.
          5    1    5    5  501    0  0.53956869998E+02 -0.14052256037E+02  0.69638148239E+03  0.69862584316E+03  0.47000000000E+01 0. -1.
        -11    1    6    6    0    0  0.39219869340E+02 -0.41465778712E+01  0.83493120870E+02  0.92339013920E+02  0.00000000000E+00 0.  1.
         12    1    6    6    0    0 -0.36517665943E+02 -0.28059372688E+02  0.12038095891E+03  0.12888926871E+03  0.00000000000E+00 0. -1.
         -5    1    3    3    0  503 -0.90248468135E+02  0.54041886728E+00  0.95404324841E+02  0.13141215032E+03  0.47000000000E+01 0.  1.
         13    1    4    4    0    0  0.44346004997E+02 -0.47374019825E+01  0.31795603822E+02  0.54771996121E+02  0.00000000000E+00 0. -1.
        -14    1    4    4    0    0 -0.10756610257E+02  0.50455189711E+02  0.28969865356E+02  0.59166577827E+02  0.00000000000E+00 0.  1.
</event>
<event>
12    1  0.8258923E-002  0.2300023E+03  0.7818608E-02  0.1126788E+00
         21   -1    0    0  503  502  0.00000000000E+00  0.00000000000E+00  0.36754798231E+03  0.36754798231E+03  0.00000000000E+00 0.  1.
         21   -1    0    0  501  503 -0.00000000000E+00 -0.00000000000E+00 -0.14427139885E+03  0.14427139885E+03  0.00000000000E+00 0.  1.
          6    2    1    2  501    0  0.13727565533E+03 -0.65167573233E+02  0.13135283733E+03  0.26412798193E+03  0.17151852617E+03 0.  0.
         24    2    3    3    0    0  0.10605800675E+03 -0.10901518885E+03  0.80954741709E+02  0.19024149453E+03  0.80656951604E+02 0.  0.
         -6    2    1    2    0  502 -0.13727565533E+03  0.65167573233E+02  0.91923746132E+02  0.24769139923E+03  0.17265467269E+03 0.  0.
        -24    2    5    5    0    0 -0.51302631947E+02  0.22825105298E+01  0.10318308243E+03  0.14047780627E+03  0.80312487546E+02 0.  0.
          5    1    3    3  501    0  0.31217648580E+02  0.43847615614E+02  0.50398095623E+02  0.73886487400E+02  0.47000000000E+01 0. -1.
        -13    1    4    4    0    0  0.11655618565E+02 -0.26705945392E+02 -0.14708504529E+02  0.32640482056E+02  0.00000000000E+00 0.  1.
         14    1    4    4    0    0  0.94402388183E+02 -0.82309243456E+02  0.95663246238E+02  0.15760101248E+03  0.00000000000E+00 0. -1.
         -5    1    5    5    0  502 -0.85973023380E+02  0.62885062703E+02 -0.11259336301E+02  0.10721359295E+03  0.47000000000E+01 0.  1.
         13    1    6    6    0    0 -0.28679775248E+02 -0.37200260975E+02  0.35316941508E+02  0.58767978376E+02  0.00000000000E+00 0. -1.
        -14    1    6    6    0    0 -0.22622856698E+02  0.39482771505E+02  0.67866140925E+02  0.81709827897E+02  0.00000000000E+00 0.  1.
</event>
<event>
12    1  0.8258923E-002  0.1982892E+03  0.7818608E-02  0.1151530E+00
         21   -1    0    0  503  502  0.00000000000E+00  0.00000000000E+00  0.13700334633E+03  0.13700334633E+03  0.00000000000E+00 0.  1.
         21   -1    0    0  501  503 -0.00000000000E+00 -0.00000000000E+00 -0.32305441657E+03  0.32305441657E+03  0.00000000000E+00 0.  1.
          6    2    1    2  501    0 -0.21167932129E+02  0.92974504164E+02 -0.17261015089E+03  0.26289328082E+03  0.17385704799E+03 0.  0.
         24    2    3    3    0    0  0.52401087942E+02  0.27673091462E+02 -0.98179613252E+02  0.13944827222E+03  0.79340469872E+02 0.  0.
         -6    2    1    2    0  502  0.21167932129E+02 -0.92974504164E+02 -0.13440919350E+02  0.19716448208E+03  0.17204893171E+03 0.  0.
        -24    2    5    5    0    0  0.44708356592E+02 -0.12035971942E+02  0.34880326484E+02  0.99890485648E+02  0.81349678411E+02 0.  0.
          5    1    3    3  501    0 -0.73569020071E+02  0.65301412702E+02 -0.74430537634E+02  0.12344500860E+03  0.47000000000E+01 0. -1.
        -13    1    4    4    0    0  0.49210893537E+01  0.18938759475E+02  0.92693925373E+01  0.21652144672E+02  0.00000000000E+00 0.  1.
         14    1    4    4    0    0  0.47479998588E+02  0.87343319867E+01 -0.10744900579E+03  0.11779612755E+03  0.00000000000E+00 0. -1.
         -5    1    5    5    0  502 -0.23540424463E+02 -0.80938532222E+02 -0.48321245834E+02  0.97273996428E+02  0.47000000000E+01 0.  1.
         11    1    6    6    0    0  0.10282341784E+01 -0.21996539294E+02  0.48332989258E+02  0.53112925518E+02  0.00000000000E+00 0. -1.
        -12    1    6    6    0    0  0.43680122413E+02  0.99605673515E+01 -0.13452662774E+02  0.46777560130E+02  0.00000000000E+00 0.  1.
</event>
<event>
12    1  0.8258923E-002  0.1746900E+03  0.7818608E-02  0.1173518E+00
         21   -1    0    0  501  502  0.00000000000E+00  0.00000000000E+00  0.11977404861E+04  0.11977404861E+04  0.00000000000E+00 0.  1.
         21   -1    0    0  502  503 -0.00000000000E+00 -0.00000000000E+00 -0.26344274298E+02  0.26344274298E+02  0.00000000000E+00 0.  1.
         -6    2    1    2    0  503 -0.12473449288E+02 -0.26574839550E+02  0.70991132297E+03  0.73064287567E+03  0.17030301306E+03 0.  0.
        -24    2    3    3    0    0 -0.62249607538E+01  0.47640810277E+02  0.46857926530E+03  0.47803595109E+03  0.81507335410E+02 0.  0.
          6    2    1    2  501    0  0.12473449288E+02  0.26574839550E+02  0.46148488882E+03  0.49344188471E+03  0.17220563854E+03 0.  0.
         24    2    5    5    0    0 -0.27413865597E+02  0.47509170164E+02  0.42450517622E+03  0.43497109516E+03  0.77372913285E+02 0.  0.
          5    1    5    5  501    0  0.39887314885E+02 -0.20934330615E+02  0.36979712602E+02  0.58470789554E+02  0.47000000000E+01 0. -1.
        -13    1    6    6    0    0  0.14749936498E+02 -0.59846651161E+01  0.24559076544E+02  0.29266449801E+02  0.00000000000E+00 0.  1.
         14    1    6    6    0    0 -0.42163802094E+02  0.53493835281E+02  0.39994609967E+03  0.40570464536E+03  0.00000000000E+00 0. -1.
         -5    1    3    3    0  503 -0.62484885344E+01 -0.74215649826E+02  0.24133205767E+03  0.25260692458E+03  0.47000000000E+01 0.  1.
         11    1    4    4    0    0  0.20061337742E+02  0.58613392916E+02  0.24779966793E+03  0.25542643271E+03  0.00000000000E+00 0. -1.
        -12    1    4    4    0    0 -0.26286298496E+02 -0.10972582639E+02  0.22077959737E+03  0.22260951838E+03  0.00000000000E+00 0.  1.
</event>
<event>
12    1  0.8258923E-002  0.2325998E+03  0.7818608E-02  0.1125418E+00
         21   -1    0    0  503  502  0.00000000000E+00  0.00000000000E+00  0.17224494905E+03  0.17224494905E+03  0.00000000000E+00 0. -1.
         21   -1    0    0  501  503 -0.00000000000E+00 -0.00000000000E+00 -0.15266047387E+04  0.15266047387E+04  0.00000000000E+00 0. -1.
          6    2    1    2  501    0 -0.13806327653E+03  0.75201307931E+02 -0.14366259957E+04  0.14553339512E+04  0.17142331549E+03 0.  0.
         24    2    3    3    0    0 -0.11154013254E+03  0.84261323875E+02 -0.69945801239E+03  0.71761836468E+03  0.78698375812E+02 0.  0.
         -6    2    1    2    0  502  0.13806327653E+03 -0.75201307931E+02  0.82266206029E+02  0.24351573652E+03  0.16677973570E+03 0.  0.
        -24    2    5    5    0    0  0.10351258100E+03 -0.98596385183E+02  0.11146117339E+03  0.19237361767E+03  0.64404301133E+02 0.  0.
          5    1    3    3  501    0 -0.26523143991E+02 -0.90600159433E+01 -0.73716798326E+03  0.73771558652E+03  0.47000000000E+01 0. -1.
        -13    1    4    4    0    0  0.44649854750E+01  0.32797090186E+02 -0.16659086680E+03  0.16984729059E+03  0.00000000000E+00 0.  1.
         14    1    4    4    0    0 -0.11600511802E+03  0.51464233689E+02 -0.53286714560E+03  0.54777107409E+03  0.00000000000E+00 0. -1.
         -5    1    5    5    0  502  0.34550695531E+02  0.23395077252E+02 -0.29194967366E+02  0.51142118853E+02  0.47000000000E+01 0.  1.
         11    1    6    6    0    0  0.42756304071E+02 -0.57973323497E+02  0.91801127044E+02  0.11668956552E+03  0.00000000000E+00 0. -1.
        -12    1    6    6    0    0  0.60756276930E+02 -0.40623061687E+02  0.19660046351E+02  0.75684052149E+02  0.00000000000E+00 0.  1.
</event>
<event>
12    1  0.8258923E-002  0.1823287E+03  0.7818608E-02  0.1165728E+00
         21   -1    0    0  503  502  0.00000000000E+00  0.00000000000E+00  0.22512136639E+02  0.22512136639E+02  0.00000000000E+00 0. -1.
         21   -1    0    0  501  503 -0.00000000000E+00 -0.00000000000E+00 -0.26923291715E+04  0.26923291715E+04  0.00000000000E+00 0. -1.
          6    2    1    2  501    0  0.32893713330E+02 -0.49849340697E+02 -0.22477137203E+04  0.22550424810E+04  0.17155952244E+03 0.  0.
         24    2    3    3    0    0  0.19331085854E+02 -0.60779362609E+02 -0.72215885904E+03  0.72938094094E+03  0.80095677248E+02 0.  0.
         -6    2    1    2    0  502 -0.32893713330E+02  0.49849340697E+02 -0.42210331453E+03  0.45979882707E+03  0.17226955648E+03 0.  0.
        -24    2    5    5    0    0 -0.23199869778E+02  0.99620412340E+01 -0.10302778327E+03  0.13805941091E+03  0.88364023173E+02 0.  0.
          5    1    3    3  501    0  0.13562627476E+02  0.10930021912E+02 -0.15255548613E+04  0.15256615401E+04  0.47000000000E+01 0. -1.
        -13    1    4    4    0    0  0.26514255723E+02 -0.98063623232E+01 -0.52011111085E+03  0.52087881328E+03  0.00000000000E+00 0.  1.
         14    1    4    4    0    0 -0.71831698687E+01 -0.50973000286E+02 -0.20204774820E+03  0.20850212766E+03  0.00000000000E+00 0. -1.
         -5    1    5    5    0  502 -0.96938435519E+01  0.39887299463E+02 -0.31907553126E+03  0.32173941616E+03  0.47000000000E+01 0.  1.
         13    1    6    6    0    0  0.33148179832E+02  0.69749365220E+01 -0.51521325387E+02  0.61659537262E+02  0.00000000000E+00 0. -1.
        -14    1    6    6    0    0 -0.56348049610E+02  0.29871047120E+01 -0.51506457885E+02  0.76399873647E+02  0.00000000000E+00 0.  1.
</event>
<event>
12    1  0.8258923E-002  0.2763219E+03  0.7818608E-02  0.1097737E+00
         21   -1    0    0  503  502  0.00000000000E+00  0.00000000000E+00  0.11888007845E+04  0.11888007845E+04  0.00000000000E+00 0.  1.
         21   -1    0    0  501  503 -0.00000000000E+00 -0.00000000000E+00 -0.82805203546E+03  0.82805203546E+03  0.00000000000E+00 0. -1.
          6    2    1    2  501    0  0.21631111248E+03 -0.38974367671E+02 -0.78818114130E+03  0.83516179554E+03  0.16720111994E+03 0.  0.
         24    2    3    3    0    0  0.89161663248E+02  0.89819396145E-01 -0.20817057749E+03  0.24007580403E+03  0.79696876290E+02 0.  0.
         -6    2    1    2    0  502 -0.21631111248E+03  0.38974367671E+02  0.11489298903E+04  0.11816910244E+04  0.16746428148E+03 0.  0.
        -24    2    5    5    0    0 -0.78746967518E+02  0.63052761122E+02  0.69522977279E+03  0.70695999566E+03  0.79191305750E+02 0.  0.
          5    1    3    3  501    0  0.12714944923E+03 -0.39064187067E+02 -0.58001056381E+03  0.59508599150E+03  0.47000000000E+01 0. -1.
        -13    1    4    4    0    0  0.31985788213E+02  0.12595636951E+02 -0.13728786223E+02  0.37016486718E+02  0.00000000000E+00 0.  1.
         14    1    4    4    0    0  0.57175875035E+02 -0.12505817555E+02 -0.19444179126E+03  0.20305931731E+03  0.00000000000E+00 0. -1.
         -5    1    5    5    0  502 -0.13756414496E+03 -0.24078393452E+02  0.45370011753E+03  0.47473102875E+03  0.47000000000E+01 0.  1.
         13    1    6    6    0    0  0.43930023606E+01 -0.11305961203E+02  0.14692552585E+03  0.14742534848E+03  0.00000000000E+00 0. -1.
        -14    1    6    6    0    0 -0.83139969878E+02  0.74358722325E+02  0.54830424694E+03  0.55953464718E+03  0.00000000000E+00 0.  1.
</event>
<event>
12    1  0.8258923E-002  0.1965293E+03  0.7818608E-02  0.1153291E+00
         21   -1    0    0  503  502  0.00000000000E+00  0.00000000000E+00  0.17280493458E+03  0.17280493458E+03  0.00000000000E+00 0. -1.
         21   -1    0    0  501  503 -0.00000000000E+00 -0.00000000000E+00 -0.23076313586E+03  0.23076313586E+03  0.00000000000E+00 0. -1.
          6    2    1    2  501    0 -0.92744892101E+02  0.70354594753E+01 -0.71865686027E+02  0.20925690064E+03  0.17312614169E+03 0.  0.
         24    2    3    3    0    0 -0.90888384266E+02 -0.54615539578E+02 -0.64789555891E+02  0.14699572555E+03  0.78527073170E+02 0.  0.
         -6    2    1    2    0  502  0.92744892101E+02 -0.70354594753E+01  0.13907484752E+02  0.19431116980E+03  0.17003617226E+03 0.  0.
        -24    2    5    5    0    0 -0.65715025697E+01 -0.25772233774E+02 -0.22698393308E+02  0.86715197435E+02  0.79353107864E+02 0.  0.
          5    1    3    3  501    0 -0.18565078353E+01  0.61650999053E+02 -0.70761301364E+01  0.62261175088E+02  0.47000000000E+01 0. -1.
        -13    1    4    4    0    0 -0.12797030358E+02 -0.51736963910E+02 -0.32637193636E+02  0.62495310457E+02  0.00000000000E+00 0.  1.
         14    1    4    4    0    0 -0.78091353907E+02 -0.28785756677E+01 -0.32152362255E+02  0.84500415097E+02  0.00000000000E+00 0. -1.
         -5    1    5    5    0  502  0.99316394671E+02  0.18736774299E+02  0.36605878060E+02  0.10759597237E+03  0.47000000000E+01 0.  1.
         13    1    6    6    0    0  0.31723768024E+02 -0.25104887134E+02  0.30395877593E+01  0.40569593410E+02  0.00000000000E+00 0. -1.
        -14    1    6    6    0    0 -0.38295270594E+02 -0.66734664009E+00 -0.25737981068E+02  0.46145604025E+02  0.00000000000E+00 0.  1.
</event>
<event>
12    1  0.8258923E-002  0.2108847E+03  0.7818608E-02  0.1140982E+00
         21   -1    0    0  501  502  0.00000000000E+00  0.00000000000E+00  0.14202874561E+03  0.14202874561E+03  0.00000000000E+00 0. -1.
         21   -1    0    0  502  503 -0.00000000000E+00 -0.00000000000E+00 -0.31352055274E+03  0.31352055274E+03  0.00000000000E+00 0. -1.
         -6    2    1    2    0  503  0.12206006790E+03  0.34744635015E+01 -0.10029386536E+03  0.23351920200E+03  0.17193494758E+03 0.  0.
        -24    2    3    3    0    0  0.12617627387E+03  0.49470992590E+02 -0.50755117633E+02  0.16563104864E+03  0.80558867373E+02 0.  0.
          6    2    1    2  501    0 -0.12206006790E+03 -0.34744635015E+01 -0.71197941773E+02  0.22203009634E+03  0.17122349341E+03 0.  0.
         24    2    5    5    0    0 -0.92713721314E+01  0.38484096234E+02 -0.27954576277E+02  0.94069597407E+02  0.80626588773E+02 0.  0.
          5    1    5    5  501    0 -0.11278869577E+03 -0.41958559736E+02 -0.43243365496E+02  0.12796049894E+03  0.47000000000E+01 0. -1.
        -11    1    6    6    0    0 -0.28061740278E+02 -0.30111570117E+01 -0.38087729032E+02  0.47404677373E+02  0.00000000000E+00 0.  1.
         12    1    6    6    0    0  0.18790368146E+02  0.41495253246E+02  0.10133152755E+02  0.46664920034E+02  0.00000000000E+00 0. -1.
         -5    1    3    3    0  503 -0.41162059698E+01 -0.45996529089E+02 -0.49538747723E+02  0.67888153353E+02  0.47000000000E+01 0.  1.
         13    1    4    4    0    0  0.99555967450E+02  0.23561320491E+01 -0.14843088136E+02  0.10068395740E+03  0.00000000000E+00 0. -1.
        -14    1    4    4    0    0  0.26620306423E+02  0.47114860541E+02 -0.35912029497E+02  0.64947091239E+02  0.00000000000E+00 0.  1.
</event>
<event>
12    1  0.8258923E-002  0.2378864E+03  0.7818608E-02  0.1121691E+00
         21   -1    0    0  501  502  0.00000000000E+00  0.00000000000E+00  0.40704046598E+03  0.40704046598E+03  0.00000000000E+00 0. -1.
         21   -1    0    0  502  503 -0.00000000000E+00 -0.00000000000E+00 -0.14052052633E+03  0.14052052633E+03  0.00000000000E+00 0. -1.
         -6    2    1    2    0  503  0.15505027778E+03  0.41050919745E+02  0.93059613045E+02  0.25544086701E+03  0.17568203752E+03 0.  0.
        -24    2    3    3    0    0  0.61964530219E+02  0.19162163407E+02 -0.21834624540E+02  0.10588535931E+03  0.80797072815E+02 0.  0.
          6    2    1    2  501    0 -0.15505027778E+03 -0.41050919745E+02  0.17346032661E+03  0.29212012530E+03  0.17181360844E+03 0.  0.
         24    2    5    5    0    0 -0.21581118186E+02  0.13746382185E+02  0.89718116421E+02  0.12523211306E+03  0.83540613134E+02 0.  0.
          5    1    5    5  501    0 -0.13346915959E+03 -0.54797301931E+02  0.83742210190E+02  0.16688801224E+03  0.47000000000E+01 0. -1.
        -11    1    6    6    0    0  0.63404973421E+01 -0.14876499416E+02 -0.91525697743E+01  0.18581756507E+02  0.00000000000E+00 0.  1.
         12    1    6    6    0    0 -0.27921615528E+02  0.28622881601E+02  0.98870686195E+02  0.10665035656E+03  0.00000000000E+00 0. -1.
         -5    1    3    3    0  503  0.93085747560E+02  0.21888756338E+02  0.11489423759E+03  0.14955550770E+03  0.47000000000E+01 0.  1.
         13    1    4    4    0    0  0.13658703588E+02  0.43575810451E+02  0.41344890924E+01  0.45853085394E+02  0.00000000000E+00 0. -1.
        -14    1    4    4    0    0  0.48305826631E+02 -0.24413647043E+02 -0.25969113632E+02  0.60032273914E+02  0.00000000000E+00 0.  1.
</event>
<event>
12    1  0.8258923E-002  0.2729487E+03  0.7818608E-02  0.1101526E+00
         21   -1    0    0  503  502  0.00000000000E+00  0.00000000000E+00  0.40055287930E+03  0.40055287930E+03  0.00000000000E+00 0.  1.
         21   -1    0    0  501  503 -0.00000000000E+00 -0.00000000000E+00 -0.23936924329E+03  0.23936924329E+03  0.00000000000E+00 0. -1.
          6    2    1    2  501    0 -0.19073801087E+03 -0.38919288316E+02 -0.84092238442E+02  0.27295989987E+03  0.17187176202E+03 0.  0.
         24    2    3    3    0    0 -0.19159116033E+03  0.12969762450E+02 -0.68801616854E+02  0.21865433329E+03  0.78744317428E+02 0.  0.
         -6    2    1    2    0  502  0.19073801087E+03  0.38919288316E+02  0.24527587445E+03  0.36696222271E+03  0.19132516437E+03 0.  0.
        -24    2    5    5    0    0  0.14567268216E+03  0.62891606025E+02  0.25901092648E+03  0.31389342282E+03  0.79161457916E+02 0.  0.
          5    1    3    3  501    0  0.85314946720E+00 -0.51889050766E+02 -0.15290621588E+02  0.54305566584E+02  0.47000000000E+01 0. -1.
        -13    1    4    4    0    0 -0.12661333869E+03 -0.20311997823E+02 -0.69064823908E+02  0.14564842838E+03  0.00000000000E+00 0.  1.
         14    1    4    4    0    0 -0.64977821646E+02  0.33281760274E+02  0.26320705320E+00  0.73005904903E+02  0.00000000000E+00 0. -1.
         -5    1    5    5    0  502  0.45065328707E+02 -0.23972317709E+02 -0.13735052029E+02  0.53068799893E+02  0.47000000000E+01 0.  1.
         11    1    6    6    0    0  0.78711315772E+02  0.24288755073E+02  0.64605364817E+02  0.10468652261E+03  0.00000000000E+00 0. -1.
        -12    1    6    6    0    0  0.66961366387E+02  0.38602850952E+02  0.19440556166E+03  0.20920690021E+03  0.00000000000E+00 0.  1.
</event>
<event>
12    1  0.8258923E-002  0.1804602E+03  0.7818608E-02  0.1167645E+00
         21   -1    0    0  503  502  0.00000000000E+00  0.00000000000E+00  0.30264520712E+03  0.30264520712E+03  0.00000000000E+00 0.  1.
         21   -1    0    0  501  503 -0.00000000000E+00 -0.00000000000E+00 -0.10745776328E+03  0.10745776328E+03  0.00000000000E+00 0. -1.
          6    2    1    2  501    0 -0.26321986899E+02 -0.45400289448E+02  0.11269554972E+03  0.21275848024E+03  0.17266108626E+03 0.  0.
         24    2    3    3    0    0 -0.18580044983E+02  0.43338000165E+02  0.63475891781E+02  0.11088067875E+03  0.77729889696E+02 0.  0.
         -6    2    1    2    0  502  0.26321986899E+02  0.45400289448E+02  0.82491894118E+02  0.19734449017E+03  0.17142316625E+03 0.  0.
        -24    2    5    5    0    0 -0.26757854055E+02 -0.28593999704E+02  0.46360833692E+02  0.99262035719E+02  0.78549508349E+02 0.  0.
          5    1    3    3  501    0 -0.77419419161E+01 -0.88738289614E+02  0.49219657942E+02  0.10187780149E+03  0.47000000000E+01 0. -1.
        -11    1    4    4    0    0  0.26826021398E+02 -0.14102542697E+00  0.11010210309E+02  0.28997931706E+02  0.00000000000E+00 0.  1.
         12    1    4    4    0    0 -0.45406066380E+02  0.43479025592E+02  0.52465681472E+02  0.81882747041E+02  0.00000000000E+00 0. -1.
         -5    1    5    5    0  502  0.53079840954E+02  0.73994289152E+02  0.36131060427E+02  0.98082454447E+02  0.47000000000E+01 0.  1.
         13    1    6    6    0    0 -0.36013599183E+02 -0.12262651839E+01 -0.87108515393E+01  0.37072388471E+02  0.00000000000E+00 0. -1.
        -14    1    6    6    0    0  0.92557451281E+01 -0.27367734520E+02  0.55071685231E+02  0.62189647248E+02  0.00000000000E+00 0.  1.
</event>
<event>
12    1  0.8258923E-002  0.1971874E+03  0.7818608E-02  0.1153148E+00
         21   -1    0    0  501  502  0.00000000000E+00  0.00000000000E+00  0.11546797027E+03  0.11546797027E+03  0.00000000000E+00 0.  1.
         21   -1    0    0  502  503 -0.00000000000E+00 -0.00000000000E+00 -0.35979269756E+03  0.35979269756E+03  0.00000000000E+00 0.  1.
         -6    2    1    2    0  503  0.43931390987E+02 -0.85085729519E+02 -0.19320485196E+03  0.27606334746E+03  0.17237548697E+03 0.  0.
        -24    2    3    3    0    0  0.26982439126E+02 -0.97116863702E+02 -0.21172755068E+03  0.24782869629E+03  0.80192080342E+02 0.  0.
          6    2    1    2  501    0 -0.43931390987E+02  0.85085729519E+02 -0.51119875332E+02  0.19919732037E+03  0.16702329869E+03 0.  0.
         24    2    5    5    0    0 -0.54719840492E+02  0.17014327152E+02 -0.78034182430E+02  0.12505842106E+03  0.79161397030E+02 0.  0.
          5    1    5    5  501    0  0.10788449505E+02  0.68071402367E+02  0.26914307098E+02  0.74138899301E+02  0.47000000000E+01 0. -1.
        -11    1    6    6    0    0 -0.66650487848E+02  0.19863981563E+02 -0.30454917982E+02  0.75923430660E+02  0.00000000000E+00 0.  1.
         12    1    6    6    0    0  0.11930647356E+02 -0.28496544115E+01 -0.47579264449E+02  0.49134990405E+02  0.00000000000E+00 0. -1.
         -5    1    3    3    0  503  0.16948951861E+02  0.12031134183E+02  0.18522698724E+02  0.28234651174E+02  0.47000000000E+01 0.  1.
         11    1    4    4    0    0 -0.16902473863E+02 -0.76251693228E+02 -0.10798322026E+03  0.13326811397E+03  0.00000000000E+00 0. -1.
        -12    1    4    4    0    0  0.43884912989E+02 -0.20865170474E+02 -0.10374433042E+03  0.11456058231E+03  0.00000000000E+00 0.  1.
</event>
<event>
12    1  0.8258923E-002  0.2152394E+03  0.7818608E-02  0.1137497E+00
         21   -1    0    0  503  502  0.00000000000E+00  0.00000000000E+00  0.19973501386E+03  0.19973501386E+03  0.00000000000E+00 0.  1.
         21   -1    0    0  501  503 -0.00000000000E+00 -0.00000000000E+00 -0.52145436617E+03  0.52145436617E+03  0.00000000000E+00 0. -1.
          6    2    1    2  501    0 -0.48124406598E+02  0.11975444444E+03 -0.42959256061E+03  0.48049740917E+03  0.17225245024E+03 0.  0.
         24    2    3    3    0    0 -0.56082991039E+02  0.34095069911E+02 -0.34320789013E+03  0.35849220926E+03  0.80107631202E+02 0.  0.
         -6    2    1    2    0  502  0.48124406598E+02 -0.11975444444E+03  0.10787320830E+03  0.24069197086E+03  0.17215954895E+03 0.  0.
        -24    2    5    5    0    0 -0.74365692460E+01 -0.71079513973E+02 -0.40578807341E+01  0.10650206966E+03  0.78858256233E+02 0.  0.
          5    1    3    3  501    0  0.79585844410E+01  0.85659374530E+02 -0.86384670476E+02  0.12200519991E+03  0.47000000000E+01 0. -1.
        -11    1    4    4    0    0 -0.17267716943E+02 -0.16948723891E+02 -0.28815320677E+02  0.37626533134E+02  0.00000000000E+00 0.  1.
         12    1    4    4    0    0 -0.38815274096E+02  0.51043793802E+02 -0.31439256945E+03  0.32086567613E+03  0.00000000000E+00 0. -1.
         -5    1    5    5    0  502  0.55560975844E+02 -0.48674930468E+02  0.11193108903E+03  0.13418990120E+03  0.47000000000E+01 0.  1.
         11    1    6    6    0    0  0.17758898671E+02 -0.76145632784E+02 -0.13057937951E+02  0.79271972459E+02  0.00000000000E+00 0. -1.
        -12    1    6    6    0    0 -0.25195467917E+02  0.50661188113E+01  0.90000572170E+01  0.27230097196E+02  0.00000000000E+00 0.  1.
</event>
<event>
12    1  0.8258923E-002  0.2455255E+03  0.7818608E-02  0.1116183E+00
         21   -1    0    0  503  502  0.00000000000E+00  0.00000000000E+00  0.19644739271E+03  0.19644739271E+03  0.00000000000E+00 0.  1.
         21   -1    0    0  501  503 -0.00000000000E+00 -0.00000000000E+00 -0.30911523950E+03  0.30911523950E+03  0.00000000000E+00 0. -1.
          6    2    1    2  501    0 -0.70538352470E+02  0.15955243506E+03 -0.34105335832E+02  0.24777423281E+03  0.17261592572E+03 0.  0.
         24    2    3    3    0    0 -0.11170370936E+03  0.11035078510E+03 -0.46222757988E+02  0.18231958526E+03  0.80304877528E+02 0.  0.
         -6    2    1    2    0  502  0.70538352470E+02 -0.15955243506E+03 -0.78562510961E+02  0.25778839940E+03  0.17277196542E+03 0.  0.
        -24    2    5    5    0    0 -0.25929769196E+01 -0.15068426030E+03 -0.40567638904E+02  0.17476709994E+03  0.78646907520E+02 0.  0.
          5    1    3    3  501    0  0.41165356893E+02  0.49201649958E+02  0.12117422155E+02  0.65454647554E+02  0.47000000000E+01 0. -1.
        -11    1    4    4    0    0 -0.15935047378E+02  0.70476011301E+02 -0.13190531058E+02  0.73449193416E+02  0.00000000000E+00 0.  1.
         12    1    4    4    0    0 -0.95768661986E+02  0.39874773802E+02 -0.33032226930E+02  0.10887039184E+03  0.00000000000E+00 0. -1.
         -5    1    5    5    0  502  0.73131329390E+02 -0.88681747599E+01 -0.37994872058E+02  0.83021299463E+02  0.47000000000E+01 0.  1.
         11    1    6    6    0    0  0.31344101955E+02 -0.11611164289E+03 -0.38489810175E+02  0.12627680638E+03  0.00000000000E+00 0. -1.
        -12    1    6    6    0    0 -0.33937078875E+02 -0.34572617416E+02 -0.20778287287E+01  0.48490293563E+02  0.00000000000E+00 0.  1.
</event>
<event>
12    1  0.8258923E-002  0.2048020E+03  0.7818608E-02  0.1146017E+00
         21   -1    0    0  501  502  0.00000000000E+00  0.00000000000E+00  0.61456891721E+02  0.61456891721E+02  0.00000000000E+00 0.  1.
         21   -1    0    0  502  503 -0.00000000000E+00 -0.00000000000E+00 -0.98427630226E+03  0.98427630226E+03  0.00000000000E+00 0.  1.
         -6    2    1    2    0  503  0.92843663723E+02 -0.56359667631E+02 -0.75198659085E+03  0.77903540889E+03  0.17209293262E+03 0.  0.
        -24    2    3    3    0    0  0.94013555053E+02 -0.43105726210E+02 -0.75489728735E+03  0.76462715559E+03  0.63938411389E+02 0.  0.
          6    2    1    2  501    0 -0.92843663723E+02  0.56359667631E+02 -0.17083281969E+03  0.26669778509E+03  0.17363034948E+03 0.  0.
         24    2    5    5    0    0 -0.71960604272E+02 -0.22428254056E+02 -0.40081270873E+02  0.11254949190E+03  0.73345243232E+02 0.  0.
          5    1    5    5  501    0 -0.20883059451E+02  0.78787921686E+02 -0.13075154882E+03  0.15414829319E+03  0.47000000000E+01 0. -1.
        -13    1    6    6    0    0 -0.21775747245E+02  0.17820591198E+02 -0.39148504168E+02  0.48211637779E+02  0.00000000000E+00 0.  1.
         14    1    6    6    0    0 -0.50184857027E+02 -0.40248845254E+02 -0.93276670495E+00  0.64337854120E+02  0.00000000000E+00 0. -1.
         -5    1    3    3    0  503 -0.11698913301E+01 -0.13253941421E+02  0.29106965048E+01  0.14408253297E+02  0.47000000000E+01 0.  1.
         11    1    4    4    0    0  0.18958980590E+02 -0.41480903218E+02 -0.24132129655E+03  0.24559331515E+03  0.00000000000E+00 0. -1.
        -12    1    4    4    0    0  0.75054574463E+02 -0.16248229921E+01 -0.51357599080E+03  0.51903384044E+03  0.00000000000E+00 0.  1.
</event>
<event>
12    1  0.8258923E-002  0.2278170E+03  0.7818608E-02  0.1128305E+00
         21   -1    0    0  501  502  0.00000000000E+00  0.00000000000E+00  0.12036747306E+04  0.12036747306E+04  0.00000000000E+00 0.  1.
         21   -1    0    0  502  503 -0.00000000000E+00 -0.00000000000E+00 -0.14526809099E+03  0.14526809099E+03  0.00000000000E+00 0. -1.
         -6    2    1    2    0  503  0.14921617919E+03 -0.10879527599E+01 -0.36961405779E+02  0.23013464209E+03  0.17125757267E+03 0.  0.
        -24    2    3    3    0    0  0.82213203527E+02  0.50185952420E+02 -0.64821972060E+02  0.14115872819E+03  0.80288590895E+02 0.  0.
          6    2    1    2  501    0 -0.14921617919E+03  0.10879527599E+01  0.10953680454E+04  0.11188081795E+04  0.17214510124E+03 0.  0.
         24    2    5    5    0    0 -0.22026673963E+02  0.38947562098E+02  0.54729632327E+03  0.55487979500E+03  0.79725996217E+02 0.  0.
          5    1    5    5  501    0 -0.12718950523E+03 -0.37859609338E+02  0.54807172210E+03  0.56392838448E+03  0.47000000000E+01 0. -1.
        -13    1    6    6    0    0 -0.15112642303E+02  0.33036487578E+02  0.54398910385E+03  0.54520083141E+03  0.00000000000E+00 0.  1.
         14    1    6    6    0    0 -0.69140316598E+01  0.59110745202E+01  0.33072194233E+01  0.96789635855E+01  0.00000000000E+00 0. -1.
         -5    1    3    3    0  503  0.67002975666E+02 -0.51273905180E+02  0.27860566280E+02  0.88975913898E+02  0.47000000000E+01 0.  1.
         13    1    4    4    0    0  0.78453215684E+02  0.57262131886E+01 -0.53484188378E+02  0.95122315863E+02  0.00000000000E+00 0. -1.
        -14    1    4    4    0    0  0.37599878430E+01  0.44459739232E+02 -0.11337783682E+02  0.46036412327E+02  0.00000000000E+00 0.  1.
</event>
<event>
12    1  0.8258923E-002  0.2229158E+03  0.7818608E-02  0.1131753E+00
         21   -1    0    0  501  502  0.00000000000E+00  0.00000000000E+00  0.38036077677E+03  0.38036077677E+03  0.00000000000E+00 0.  1.
         21   -1    0    0  502  503 -0.00000000000E+00 -0.00000000000E+00 -0.21236340926E+03  0.21236340926E+03  0.00000000000E+00 0. -1.
         -6    2    1    2    0  503 -0.12211037277E+03 -0.69509163460E+02 -0.99919916242E+02  0.24428557134E+03  0.17305774689E+03 0.  0.
        -24    2    3    3    0    0 -0.69957177211E+02 -0.10771609229E+03 -0.96622718631E+02  0.17938035791E+03  0.79652996607E+02 0.  0.
          6    2    1    2  501    0  0.12211037277E+03  0.69509163460E+02  0.26791728375E+03  0.34843861470E+03  0.17287952550E+03 0.  0.
         24    2    5    5    0    0  0.76714268837E+02  0.19049057215E+02  0.24966074012E+03  0.27799416878E+03  0.93286264248E+02 0.  0.
          5    1    5    5  501    0  0.45396103937E+02  0.50460106245E+02  0.18256543633E+02  0.70444445916E+02  0.47000000000E+01 0.  1.
        -11    1    6    6    0    0 -0.93886926578E+01 -0.77443210026E+01  0.11673495842E+03  0.11736768113E+03  0.00000000000E+00 0.  1.
         12    1    6    6    0    0  0.86102961494E+02  0.26793378217E+02  0.13292578170E+03  0.16062648765E+03  0.00000000000E+00 0. -1.
         -5    1    3    3    0  503 -0.52153195563E+02  0.38206928827E+02 -0.32971976101E+01  0.64905213426E+02  0.47000000000E+01 0.  1.
         11    1    4    4    0    0 -0.40192931786E+02 -0.22181138318E+02 -0.72235334434E+02  0.85588656979E+02  0.00000000000E+00 0. -1.
        -12    1    4    4    0    0 -0.29764245425E+02 -0.85534953968E+02 -0.24387384197E+02  0.93791700934E+02  0.00000000000E+00 0.  1.
</event>
<event>
12    1  0.8258923E-002  0.1896312E+03  0.7818608E-02  0.1159418E+00
         21   -1    0    0  501  502  0.00000000000E+00  0.00000000000E+00  0.23517609374E+03  0.23517609374E+03  0.00000000000E+00 0.  1.
         21   -1    0    0  502  503 -0.00000000000E+00 -0.00000000000E+00 -0.15502745409E+03  0.15502745409E+03  0.00000000000E+00 0.  1.
         -6    2    1    2    0  503 -0.28517646651E+02 -0.75121461886E+02  0.72353035346E+02  0.20041217074E+03  0.16874118126E+03 0.  0.
        -24    2    3    3    0    0 -0.49972361677E+01  0.14885769161E+02  0.46407227727E+02  0.10371787782E+03  0.91417771260E+02 0.  0.
          6    2    1    2  501    0  0.28517646651E+02  0.75121461886E+02  0.77956043034E+01  0.18979137709E+03  0.17176584400E+03 0.  0.
         24    2    5    5    0    0  0.56973037746E+02  0.10473929219E+03 -0.12333730136E+02  0.14381088928E+03  0.79455677057E+02 0.  0.
          5    1    5    5  501    0 -0.28455391094E+02 -0.29617830307E+02  0.20129334439E+02  0.45980487812E+02  0.47000000000E+01 0. -1.
        -11    1    6    6    0    0  0.60099542082E+01  0.68975122408E+02 -0.34966042150E+02  0.77564883578E+02  0.00000000000E+00 0.  1.
         12    1    6    6    0    0  0.50963083537E+02  0.35764169784E+02  0.22632312014E+02  0.66246005699E+02  0.00000000000E+00 0. -1.
         -5    1    3    3    0  503 -0.23520410484E+02 -0.90007231047E+02  0.25945807619E+02  0.96694292919E+02  0.47000000000E+01 0.  1.
         13    1    4    4    0    0 -0.26286869412E+02  0.41537611841E+02  0.40357516830E+01  0.49322003128E+02  0.00000000000E+00 0. -1.
        -14    1    4    4    0    0  0.21289633244E+02 -0.26651842679E+02  0.42371476044E+02  0.54395874696E+02  0.00000000000E+00 0.  1.
</event>
<event>
12    1  0.8258923E-002  0.2061267E+03  0.7818608E-02  0.1144700E+00
         21   -1    0    0  503  502  0.00000000000E+00  0.00000000000E+00  0.10630769570E+04  0.10630769570E+04  0.00000000000E+00 0.  1.
         21   -1    0    0  501  503 -0.00000000000E+00 -0.00000000000E+00 -0.40550297305E+02  0.40550297305E+02  0.00000000000E+00 0.  1.
          6    2    1    2  501    0  0.14949837691E+02  0.11366900650E+03  0.44369216486E+03  0.48923508257E+03  0.17130116221E+03 0.  0.
         24    2    3    3    0    0  0.18529806168E+02  0.14504684397E+02  0.31597858284E+03  0.32743511970E+03  0.82568475906E+02 0.  0.
         -6    2    1    2    0  502 -0.14949837691E+02 -0.11366900650E+03  0.57883449487E+03  0.61439217177E+03  0.17112634978E+03 0.  0.
        -24    2    5    5    0    0 -0.21245317424E+02 -0.14449192112E+03  0.41650419586E+03  0.44897481746E+03  0.82300442030E+02 0.  0.
          5    1    3    3  501    0 -0.35799684763E+01  0.99164322107E+02  0.12771358201E+03  0.16179996287E+03  0.47000000000E+01 0. -1.
        -13    1    4    4    0    0  0.23934729649E+02  0.46343491782E+02  0.22261951309E+03  0.22864828475E+03  0.00000000000E+00 0.  1.
         14    1    4    4    0    0 -0.54049234813E+01 -0.31838807385E+02  0.93359069757E+02  0.98786834950E+02  0.00000000000E+00 0. -1.
         -5    1    5    5    0  502  0.62954797329E+01  0.30822914619E+02  0.16233029901E+03  0.16541735431E+03  0.47000000000E+01 0.  1.
         11    1    6    6    0    0 -0.22336945162E+02 -0.31048430688E+02  0.38325192760E+02  0.54145771464E+02  0.00000000000E+00 0. -1.
        -12    1    6    6    0    0  0.10916277377E+01 -0.11344349043E+03  0.37817900310E+03  0.39482904599E+03  0.00000000000E+00 0.  1.
</event>
<event>
12    1  0.8258923E-002  0.1743517E+03  0.7818608E-02  0.1174002E+00
         21   -1    0    0  501  502  0.00000000000E+00  0.00000000000E+00  0.62859766201E+03  0.62859766201E+03  0.00000000000E+00 0.  1.
         21   -1    0    0  502  503 -0.00000000000E+00 -0.00000000000E+00 -0.12452878529E+03  0.12452878529E+03  0.00000000000E+00 0.  1.
         -6    2    1    2    0  503 -0.97411529860E+01 -0.26390485568E+00 -0.43086690497E+02  0.17959670147E+03  0.17407915605E+03 0.  0.
        -24    2    3    3    0    0 -0.10064307153E+02 -0.67914605316E+02 -0.38526598084E+02  0.11162901691E+03  0.79139463999E+02 0.  0.
          6    2    1    2  501    0  0.97411529860E+01  0.26390485568E+00  0.54715556722E+03  0.57352974583E+03  0.17164555021E+03 0.  0.
         24    2    5    5    0    0  0.56270066854E+02 -0.37341973517E+01  0.48971754695E+03  0.49935332896E+03  0.79688184212E+02 0.  0.
          5    1    5    5  501    0 -0.46528913868E+02  0.39981022074E+01  0.57438020272E+02  0.74176416870E+02  0.47000000000E+01 0. -1.
        -11    1    6    6    0    0  0.69082768651E+02  0.51185459854E+01  0.25877922931E+03  0.26789049621E+03  0.00000000000E+00 0.  1.
         12    1    6    6    0    0 -0.12812701797E+02 -0.88527433371E+01  0.23093831764E+03  0.23146283275E+03  0.00000000000E+00 0. -1.
         -5    1    3    3    0  503  0.32315416748E+00  0.67650700461E+02 -0.45600924132E+01  0.67967684559E+02  0.47000000000E+01 0.  1.
         13    1    4    4    0    0  0.21673729537E+02 -0.18618633647E+02 -0.44300975804E+02  0.52716036726E+02  0.00000000000E+00 0. -1.
        -14    1    4    4    0    0 -0.31738036691E+02 -0.49295971669E+02  0.57743777203E+01  0.58912980181E+02  0.00000000000E+00 0.  1.
</event>
<event>
12    1  0.8258923E-002  0.1995608E+03  0.7818608E-02  0.1150648E+00
         21   -1    0    0  503  502  0.00000000000E+00  0.00000000000E+00  0.12488914628E+03  0.12488914628E+03  0.00000000000E+00 0.  1.
         21   -1    0    0  501  503 -0.00000000000E+00 -0.00000000000E+00 -0.59462434406E+03  0.59462434406E+03  0.00000000000E+00 0.  1.
          6    2    1    2  501    0 -0.50793779570E+01  0.95485682561E+02 -0.48084070023E+03  0.51964394463E+03  0.17227517099E+03 0.  0.
         24    2    3    3    0    0  0.42941024360E+02  0.86224890670E+02 -0.21404666641E+03  0.24836389046E+03  0.81178712371E+02 0.  0.
         -6    2    1    2    0  502  0.50793779570E+01 -0.95485682561E+02  0.11105502451E+02  0.19986954570E+03  0.17516046204E+03 0.  0.
        -24    2    5    5    0    0 -0.57250689435E+02 -0.59380727705E+02  0.40779667009E+02  0.12182307808E+03  0.79838392070E+02 0.  0.
          5    1    3    3  501    0 -0.48020402317E+02  0.92607918909E+01 -0.26679403383E+03  0.27128005417E+03  0.47000000000E+01 0. -1.
        -11    1    4    4    0    0 -0.23159188538E+02  0.16832013390E+02 -0.34422072537E+02  0.44772131580E+02  0.00000000000E+00 0.  1.
         12    1    4    4    0    0  0.66100212898E+02  0.69392877280E+02 -0.17962459387E+03  0.20359175888E+03  0.00000000000E+00 0. -1.
         -5    1    5    5    0  502  0.62330067392E+02 -0.36104954856E+02 -0.29674164558E+02  0.78046467623E+02  0.47000000000E+01 0.  1.
         11    1    6    6    0    0  0.24748627935E+01  0.12385558583E+02  0.23771800115E+02  0.26918868624E+02  0.00000000000E+00 0. -1.
        -12    1    6    6    0    0 -0.59725552228E+02 -0.71766286288E+02  0.17007866894E+02  0.94904209458E+02  0.00000000000E+00 0.  1.
</event>
<event>
12    1  0.8258923E-002  0.2763901E+03  0.7818608E-02  0.1097846E+00
         21   -1    0    0  501  502  0.00000000000E+00  0.00000000000E+00  0.20526589009E+04  0.20526589009E+04  0.00000000000E+00 0.  1.
         21   -1    0    0  502  503 -0.00000000000E+00 -0.00000000000E+00 -0.92173569963E+02  0.92173569963E+02  0.00000000000E+00 0. -1.
         -6    2    1    2    0  503 -0.97454525659E+02  0.19282528675E+03  0.15005730701E+03  0.31342833908E+03  0.17041464894E+03 0.  0.
        -24    2    3    3    0    0 -0.94094214160E+02  0.15467024039E+03  0.17797569823E+03  0.26579824540E+03  0.78719462019E+02 0.  0.
          6    2    1    2  501    0  0.97454525659E+02 -0.19282528675E+03  0.18104280239E+04  0.18314041318E+04  0.17237310785E+03 0.  0.
         24    2    5    5    0    0  0.11647492245E+02 -0.27888682154E+02  0.40563531449E+03  0.41435382322E+03  0.78966067306E+02 0.  0.
          5    1    5    5  501    0  0.85807033414E+02 -0.16493660459E+03  0.14047927094E+04  0.14170503085E+04  0.47000000000E+01 0. -1.
        -13    1    6    6    0    0  0.41009253025E+02  0.29896263357E+01  0.22813238311E+03  0.23180828484E+03  0.00000000000E+00 0.  1.
         14    1    6    6    0    0 -0.29361760780E+02 -0.30878308490E+02  0.17750293138E+03  0.18254553837E+03  0.00000000000E+00 0. -1.
         -5    1    3    3    0  503 -0.33603114986E+01  0.38155046360E+02 -0.27918391213E+02  0.47630093680E+02  0.47000000000E+01 0.  1.
         13    1    4    4    0    0 -0.57926438157E+01  0.76249363809E+02  0.92489805648E+02  0.12000785121E+03  0.00000000000E+00 0. -1.
        -14    1    4    4    0    0 -0.88301570345E+02  0.78420876577E+02  0.85485892577E+02  0.14579039419E+03  0.00000000000E+00 0.  1.
</event>
<event>
12    1  0.8258923E-002  0.2851508E+03  0.7818608E-02  0.1093057E+00
         21   -1    0    0  501  502  0.00000000000E+00  0.00000000000E+00  0.18585588170E+03  0.18585588170E+03  0.00000000000E+00 0.  1.
         21   -1    0    0  502  503 -0.00000000000E+00 -0.00000000000E+00 -0.72529146756E+03  0.72529146756E+03  0.00000000000E+00 0.  1.
         -6    2    1    2    0  503 -0.22499464438E+02  0.22619087354E+03 -0.55722560427E+03  0.62544210082E+03  0.17032002304E+03 0.  0.
        -24    2    3    3    0    0 -0.46436579351E+02  0.87915490962E+02 -0.16452736722E+03  0.20839646509E+03  0.80463299990E+02 0.  0.
          6    2    1    2  501    0  0.22499464438E+02 -0.22619087354E+03  0.17790018414E+02  0.28570524845E+03  0.17216987850E+03 0.  0.
         24    2    5    5    0    0 -0.32084871354E+01 -0.53271040964E+02 -0.37842553482E+02  0.10218620222E+03  0.78497534200E+02 0.  0.
          5    1    5    5  501    0  0.25707951574E+02 -0.17291983257E+03  0.55632571897E+02  0.18351904622E+03  0.47000000000E+01 0. -1.
        -11    1    6    6    0    0  0.17685370340E+02 -0.67409181236E+02 -0.28112806831E+02  0.75147188549E+02  0.00000000000E+00 0.  1.
         12    1    6    6    0    0 -0.20893857475E+02  0.14138140271E+02 -0.97297466509E+01  0.27039013673E+02  0.00000000000E+00 0. -1.
         -5    1    3    3    0  503  0.23937114913E+02  0.13827538258E+03 -0.39269823705E+03  0.41704563572E+03  0.47000000000E+01 0.  1.
         13    1    4    4    0    0  0.21317936081E+02  0.33384963883E+02 -0.38236376127E+02  0.55054796989E+02  0.00000000000E+00 0. -1.
        -14    1    4    4    0    0 -0.67754515432E+02  0.54530527079E+02 -0.12629099109E+03  0.15334166810E+03  0.00000000000E+00 0.  1.
</event>
<event>
12    1  0.8258923E-002  0.1797819E+03  0.7818608E-02  0.1168017E+00
         21   -1    0    0  503  502  0.00000000000E+00  0.00000000000E+00  0.11143172877E+04  0.11143172877E+04  0.00000000000E+00 0. -1.
         21   -1    0    0  501  503 -0.00000000000E+00 -0.00000000000E+00 -0.37513911114E+02  0.37513911114E+02  0.00000000000E+00 0. -1.
          6    2    1    2  501    0 -0.48543843441E+02  0.27582506411E+02  0.26411194835E+03  0.31949434601E+03  0.17089241199E+03 0.  0.
         24    2    3    3    0    0 -0.15041809330E+02  0.68126312625E+02  0.23793500284E+03  0.26055786335E+03  0.80061751665E+02 0.  0.
         -6    2    1    2    0  502  0.48543843441E+02 -0.27582506411E+02  0.81269142820E+03  0.83233685276E+03  0.17088001523E+03 0.  0.
        -24    2    5    5    0    0 -0.80975675109E+01  0.17074347337E+02  0.64155544199E+03  0.64656252785E+03  0.78055194162E+02 0.  0.
          5    1    3    3  501    0 -0.33502034111E+02 -0.40543806215E+02  0.26176945511E+02  0.58936482659E+02  0.47000000000E+01 0. -1.
        -11    1    4    4    0    0  0.29698333306E+02  0.38229926252E+02  0.14841081901E+03  0.15610666053E+03  0.00000000000E+00 0.  1.
         12    1    4    4    0    0 -0.44740142636E+02  0.29896386374E+02  0.89524183828E+02  0.10445120282E+03  0.00000000000E+00 0. -1.
         -5    1    5    5    0  502  0.56641410952E+02 -0.44656853748E+02  0.17113598620E+03  0.18577432491E+03  0.47000000000E+01 0.  1.
         11    1    6    6    0    0  0.25695384342E+02 -0.13452513292E+02  0.37718675405E+03  0.37830023833E+03  0.00000000000E+00 0. -1.
        -12    1    6    6    0    0 -0.33792951853E+02  0.30526860629E+02  0.26436868795E+03  0.26826228953E+03  0.00000000000E+00 0.  1.
</event>
<event>
12    1  0.8258923E-002  0.1911653E+03  0.7818608E-02  0.1157762E+00
         21   -1    0    0  503  502  0.00000000000E+00  0.00000000000E+00  0.13625732075E+04  0.13625732075E+04  0.00000000000E+00 0. -1.
         21   -1    0    0  501  503 -0.00000000000E+00 -0.00000000000E+00 -0.85385775805E+02  0.85385775805E+02  0.00000000000E+00 0.  1.
          6    2    1    2  501    0 -0.53381693013E+02 -0.60775661719E+02  0.37089238238E+02  0.19321291826E+03  0.17150024485E+03 0.  0.
         24    2    3    3    0    0  0.14177874903E+02  0.16136843857E+02 -0.35451965984E+01  0.82971927588E+02  0.80064739319E+02 0.  0.
         -6    2    1    2    0  502  0.53381693013E+02  0.60775661719E+02  0.12400981935E+04  0.12547460651E+04  0.17320759831E+03 0.  0.
        -24    2    5    5    0    0 -0.25676972641E+02  0.55107469332E+02  0.89814211103E+03  0.90369271677E+03  0.79404877978E+02 0.  0.
          5    1    3    3  501    0 -0.67559567916E+02 -0.76912505576E+02  0.40634434836E+02  0.11024099068E+03  0.47000000000E+01 0. -1.
        -13    1    4    4    0    0 -0.84259970425E+01  0.36408227972E+02  0.21937021947E+02  0.43333467692E+02  0.00000000000E+00 0.  1.
         14    1    4    4    0    0  0.22603871946E+02 -0.20271384116E+02 -0.25482218546E+02  0.39638459896E+02  0.00000000000E+00 0. -1.
         -5    1    5    5    0  502  0.79058665654E+02  0.56681923875E+01  0.34195608247E+03  0.35105334831E+03  0.47000000000E+01 0.  1.
         11    1    6    6    0    0  0.20327492899E+02 -0.60264471942E+01  0.28659031882E+03  0.28737351283E+03  0.00000000000E+00 0. -1.
        -12    1    6    6    0    0 -0.46004465541E+02  0.61133916526E+02  0.61155179221E+03  0.61631920394E+03  0.00000000000E+00 0.  1.
</event>
<event>
12    1  0.8258923E-002  0.1752547E+03  0.7818608E-02  0.1175028E+00
         21   -1    0    0  503  502  0.00000000000E+00  0.00000000000E+00  0.57969749278E+03  0.57969749278E+03  0.00000000000E+00 0.  1.
         21   -1    0    0  501  503 -0.00000000000E+00 -0.00000000000E+00 -0.50268783986E+02  0.50268783986E+02  0.00000000000E+00 0.  1.
          6    2    1    2  501    0  0.28074510992E+02  0.24153228842E+02  0.29355733678E+03  0.34189199298E+03  0.17129701764E+03 0.  0.
         24    2    3    3    0    0  0.73765838369E+02 -0.58058927882E+01  0.13152568570E+03  0.17083179212E+03  0.80058652861E+02 0.  0.
         -6    2    1    2    0  502 -0.28074510992E+02 -0.24153228842E+02  0.23587137201E+03  0.28807428378E+03  0.16118291539E+03 0.  0.
        -24    2    5    5    0    0  0.28331266908E+02 -0.20164047598E+02  0.20947753147E+03  0.22549433359E+03  0.75878908745E+02 0.  0.
          5    1    3    3  501    0 -0.45691327377E+02  0.29959121631E+02  0.16203165109E+03  0.17106020086E+03  0.47000000000E+01 0. -1.
        -13    1    4    4    0    0  0.49234581899E+02 -0.15546029420E+02  0.18625599401E+02  0.54887485264E+02  0.00000000000E+00 0.  1.
         14    1    4    4    0    0  0.24531256470E+02  0.97401366322E+01  0.11290008630E+03  0.11594430685E+03  0.00000000000E+00 0. -1.
         -5    1    5    5    0  502 -0.56405777901E+02 -0.39891812442E+01  0.26393840544E+02  0.62579950193E+02  0.47000000000E+01 0.  1.
         13    1    6    6    0    0 -0.30402155386E+01 -0.36599452773E+02  0.49457639358E+02  0.61602118021E+02  0.00000000000E+00 0. -1.
        -14    1    6    6    0    0  0.31371482447E+02  0.16435405174E+02  0.16001989211E+03  0.16389221557E+03  0.00000000000E+00 0.  1.
</event>
<event>
12    1  0.8258923E-002  0.2381670E+03  0.7818608E-02  0.1121284E+00
         21   -1    0    0  501  502  0.00000000000E+00  0.00000000000E+00  0.39937477712E+03  0.39937477712E+03  0.00000000000E+00 0.  1.
         21   -1    0    0  502  503 -0.00000000000E+00 -0.00000000000E+00 -0.17201231198E+03  0.17201231198E+03  0.00000000000E+00 0.  1.
         -6    2    1    2    0  503  0.16485938130E+03 -0.77718681186E+01 -0.71217206012E+01  0.23827349612E+03  0.17171057775E+03 0.  0.
        -24    2    3    3    0    0  0.74533911154E+02 -0.61341359600E+02  0.28843494129E+02  0.12717008642E+03  0.77602947224E+02 0.  0.
          6    2    1    2  501    0 -0.16485938130E+03  0.77718681186E+01  0.23448418574E+03  0.33311359299E+03  0.16953706065E+03 0.  0.
         24    2    5    5    0    0 -0.16269374896E+03  0.42223279826E+02  0.23628571768E+03  0.29822913729E+03  0.69696604221E+02 0.  0.
          5    1    5    5  501    0 -0.21656323445E+01 -0.34451411707E+02 -0.18015319406E+01  0.34884455699E+02  0.47000000000E+01 0. -1.
        -11    1    6    6    0    0 -0.88668053857E+02 -0.12976008535E+02  0.11774007138E+03  0.14796325551E+03  0.00000000000E+00 0.  1.
         12    1    6    6    0    0 -0.74025695098E+02  0.55199288360E+02  0.11854564630E+03  0.15026588178E+03  0.00000000000E+00 0. -1.
         -5    1    3    3    0  503  0.90325470146E+02  0.53569491482E+02 -0.35965214731E+02  0.11110340969E+03  0.47000000000E+01 0.  1.
         11    1    4    4    0    0 -0.11342639381E+02 -0.98863087848E+01 -0.11800854268E+02  0.19122100590E+02  0.00000000000E+00 0. -1.
        -12    1    4    4    0    0  0.85876550535E+02 -0.51455050815E+02  0.40644348397E+02  0.10804798583E+03  0.00000000000E+00 0.  1.
</event>
<event>
12    1  0.8258923E-002  0.2741310E+03  0.7818608E-02  0.1099084E+00
         21   -1    0    0  503  502  0.00000000000E+00  0.00000000000E+00  0.85101800107E+03  0.85101800107E+03  0.00000000000E+00 0. -1.
         21   -1    0    0  501  503 -0.00000000000E+00 -0.00000000000E+00 -0.90579631393E+02  0.90579631393E+02  0.00000000000E+00 0.  1.
          6    2    1    2  501    0  0.92310336615E+02  0.19105038566E+03  0.30100641912E+03  0.40712732867E+03  0.17356943652E+03 0.  0.
         24    2    3    3    0    0  0.11655011359E+03  0.11971065249E+03  0.25910932137E+03  0.32078857076E+03  0.88617703718E+02 0.  0.
         -6    2    1    2    0  502 -0.92310336615E+02 -0.19105038566E+03  0.45943195056E+03  0.53447030380E+03  0.17192829998E+03 0.  0.
        -24    2    5    5    0    0  0.68993149688E+00 -0.30146726484E+02  0.16867813831E+03  0.18936320920E+03  0.80602788594E+02 0.  0.
          5    1    3    3  501    0 -0.24239776978E+02  0.71339733175E+02  0.41897097742E+02  0.86338757906E+02  0.47000000000E+01 0. -1.
        -13    1    4    4    0    0  0.17218691764E+02 -0.42240680882E+01  0.10396614954E+01  0.17759701386E+02  0.00000000000E+00 0.  1.
         14    1    4    4    0    0  0.99331421828E+02  0.12393472057E+03  0.25806965988E+03  0.30302886938E+03  0.00000000000E+00 0. -1.
         -5    1    5    5    0  502 -0.93000268112E+02 -0.16090365918E+03  0.29075381225E+03  0.34510709460E+03  0.47000000000E+01 0.  1.
         13    1    6    6    0    0  0.14029978904E+02 -0.39822938489E+02  0.16761280213E+03  0.17284894613E+03  0.00000000000E+00 0. -1.
        -14    1    6    6    0    0 -0.13340047407E+02  0.96762120058E+01  0.10653361812E+01  0.16514263071E+02  0.00000000000E+00 0.  1.
</event>
<event>
12    1  0.8258923E-002  0.2479742E+03  0.7818608E-02  0.1114593E+00
         21   -1    0    0  503  502  0.00000000000E+00  0.00000000000E+00  0.12132183034E+03  0.12132183034E+03  0.00000000000E+00 0. -1.
         21   -1    0    0  501  503 -0.00000000000E+00 -0.00000000000E+00 -0.51921617611E+03  0.51921617611E+03  0.00000000000E+00 0.  1.
          6    2    1    2  501    0 -0.42068207877E+02  0.17386865013E+03 -0.24841997318E+03  0.35099731803E+03  0.17171660543E+03 0.  0.
         24    2    3    3    0    0  0.78007594286E+01  0.10313579202E+03 -0.22660322021E+03  0.26162108055E+03  0.79992042943E+02 0.  0.
         -6    2    1    2    0  502  0.42068207877E+02 -0.17386865013E+03 -0.14947437259E+03  0.28954068842E+03  0.17172996412E+03 0.  0.
        -24    2    5    5    0    0  0.36205744266E+02 -0.15478035473E+02 -0.63142507123E+02  0.10899364112E+03  0.79638006629E+02 0.  0.
          5    1    3    3  501    0 -0.49868967305E+02  0.70732858113E+02 -0.21816752968E+02  0.89376237485E+02  0.47000000000E+01 0. -1.
        -11    1    4    4    0    0 -0.64015805130E-01  0.39339469460E+02 -0.17449320024E+03  0.17887278967E+03  0.00000000000E+00 0.  1.
         12    1    4    4    0    0  0.78647752337E+01  0.63796322557E+02 -0.52110019971E+02  0.82748290875E+02  0.00000000000E+00 0. -1.
         -5    1    5    5    0  502  0.58624636111E+01 -0.15839061466E+03 -0.86331865470E+02  0.18054704729E+03  0.47000000000E+01 0.  1.
         13    1    6    6    0    0  0.43675748254E+02 -0.33501130016E+02 -0.15005348503E+02  0.57053108431E+02  0.00000000000E+00 0. -1.
        -14    1    6    6    0    0 -0.74700039888E+01  0.18023094543E+02 -0.48137158620E+02  0.51940532694E+02  0.00000000000E+00 0.  1.
</event>
<event>
12    1  0.8258923E-002  0.4507686E+03  0.7818608E-02  0.1027542E+00
         21   -1    0    0  503  502  0.00000000000E+00  0.00000000000E+00  0.13645846661E+03  0.13645846661E+03  0.00000000000E+00 0. -1.
         21   -1    0    0  501  503 -0.00000000000E+00 -0.00000000000E+00 -0.19443498376E+04  0.19443498376E+04  0.00000000000E+00 0.  1.
          6    2    1    2  501    0 -0.32251831852E+03 -0.26274717431E+03 -0.14080994168E+04  0.14782919295E+04  0.17189798655E+03 0.  0.
         24    2    3    3    0    0 -0.18669947662E+03 -0.12165809877E+03 -0.56149217282E+03  0.60931621024E+03  0.79595203156E+02 0.  0.
         -6    2    1    2    0  502  0.32251831852E+03  0.26274717431E+03 -0.39979195415E+03  0.60251637469E+03  0.17360366291E+03 0.  0.
        -24    2    5    5    0    0  0.67882812966E+02  0.11362804406E+03 -0.15305617797E+03  0.21783938169E+03  0.80674617494E+02 0.  0.
          5    1    3    3  501    0 -0.13581884191E+03 -0.14108907554E+03 -0.84660724403E+03  0.86897571928E+03  0.47000000000E+01 0. -1.
        -11    1    4    4    0    0 -0.64204385925E+02 -0.66256709561E+02 -0.31871481780E+03  0.33180007508E+03  0.00000000000E+00 0.  1.
         12    1    4    4    0    0 -0.12249509069E+03 -0.55401389210E+02 -0.24277735501E+03  0.27751613517E+03  0.00000000000E+00 0. -1.
         -5    1    5    5    0  502  0.25463550556E+03  0.14911913026E+03 -0.24673577618E+03  0.38467699300E+03  0.47000000000E+01 0.  1.
         13    1    6    6    0    0  0.69129342144E+02  0.12492957855E+03 -0.14711769931E+03  0.20501190939E+03  0.00000000000E+00 0. -1.
        -14    1    6    6    0    0 -0.12465291776E+01 -0.11301534491E+02 -0.59384786651E+01  0.12827472304E+02  0.00000000000E+00 0.  1.
</event>
<event>
12    1  0.8258923E-002  0.1783811E+03  0.7818608E-02  0.1169433E+00
         21   -1    0    0  503  502  0.00000000000E+00  0.00000000000E+00  0.17795176187E+04  0.17795176187E+04  0.00000000000E+00 0. -1.
         21   -1    0    0  501  503 -0.00000000000E+00 -0.00000000000E+00 -0.18333981483E+02  0.18333981483E+02  0.00000000000E+00 0. -1.
          6    2    1    2  501    0  0.45756226221E+02 -0.15788385232E+02  0.10257694266E+04  0.10411641262E+04  0.17168842623E+03 0.  0.
         24    2    3    3    0    0 -0.69324009291E+01  0.45119308021E+02  0.67912382701E+03  0.68525528917E+03  0.79257988792E+02 0.  0.
         -6    2    1    2    0  502 -0.45756226221E+02  0.15788385232E+02  0.73541421059E+03  0.75668747400E+03  0.17146126917E+03 0.  0.
        -24    2    5    5    0    0 -0.15388254703E+02 -0.48548748153E+02  0.57603432277E+03  0.58208644574E+03  0.66447798918E+02 0.  0.
          5    1    3    3  501    0  0.52688627150E+02 -0.60907693253E+02  0.34664559962E+03  0.35590883701E+03  0.47000000000E+01 0. -1.
        -13    1    4    4    0    0 -0.15757150609E+02 -0.34739567085E+01  0.47381716486E+03  0.47409182854E+03  0.00000000000E+00 0.  1.
         14    1    4    4    0    0  0.88247496795E+01  0.48593264729E+02  0.20530666215E+03  0.21116346063E+03  0.00000000000E+00 0. -1.
         -5    1    5    5    0  502 -0.30367971518E+02  0.64337133385E+02  0.15937988782E+03  0.17460102826E+03  0.47000000000E+01 0.  1.
         11    1    6    6    0    0 -0.34905922626E+02 -0.54197857984E+01  0.29281510727E+03  0.29493810292E+03  0.00000000000E+00 0. -1.
        -12    1    6    6    0    0  0.19517667923E+02 -0.43128962354E+02  0.28321921550E+03  0.28714834282E+03  0.00000000000E+00 0.  1.
</event>
<event>
12    1  0.8258923E-002  0.1805804E+03  0.7818608E-02  0.1168001E+00
         21   -1    0    0  503  502  0.00000000000E+00  0.00000000000E+00  0.31586000671E+03  0.31586000671E+03  0.00000000000E+00 0.  1.
         21   -1    0    0  501  503 -0.00000000000E+00 -0.00000000000E+00 -0.11791410705E+03  0.11791410705E+03  0.00000000000E+00 0. -1.
          6    2    1    2  501    0  0.52069018704E+02 -0.17227827757E+02  0.17227016169E+02  0.17829689706E+03  0.16877509489E+03 0.  0.
         24    2    3    3    0    0  0.72350156501E+02  0.39569727549E+02 -0.97772413620E+00  0.11512420194E+03  0.80326318498E+02 0.  0.
         -6    2    1    2    0  502 -0.52069018704E+02  0.17227827757E+02  0.18071888350E+03  0.25547721670E+03  0.17205032009E+03 0.  0.
        -24    2    5    5    0    0 -0.24900441468E+02  0.76903356701E+02  0.12983873889E+03  0.17234972751E+03  0.79449179979E+02 0.  0.
          5    1    3    3  501    0 -0.20281137797E+02 -0.56797555306E+02  0.18204740306E+02  0.63172695119E+02  0.47000000000E+01 0. -1.
        -13    1    4    4    0    0  0.10486894285E+02  0.31052330382E+02  0.30870767807E+02  0.45024731858E+02  0.00000000000E+00 0.  1.
         14    1    4    4    0    0  0.61863262216E+02  0.85173971666E+01 -0.31848491943E+02  0.70099470080E+02  0.00000000000E+00 0. -1.
         -5    1    5    5    0  502 -0.27168577235E+02 -0.59675528944E+02  0.50880144606E+02  0.83127489189E+02  0.47000000000E+01 0.  1.
         11    1    6    6    0    0 -0.19880379157E+02  0.56646212456E+02  0.24296297896E+02  0.64763670005E+02  0.00000000000E+00 0. -1.
        -12    1    6    6    0    0 -0.50200623116E+01  0.20257144244E+02  0.10554244099E+03  0.10758605751E+03  0.00000000000E+00 0.  1.
</event>
<event>
12    1  0.8258923E-002  0.1771730E+03  0.7818608E-02  0.1170740E+00
         21   -1    0    0  501  502  0.00000000000E+00  0.00000000000E+00  0.13959780546E+04  0.13959780546E+04  0.00000000000E+00 0.  1.
         21   -1    0    0  502  503 -0.00000000000E+00 -0.00000000000E+00 -0.33937223639E+02  0.33937223639E+02  0.00000000000E+00 0.  1.
         -6    2    1    2    0  503  0.11640060920E+02 -0.40155668506E+02  0.26500382854E+03  0.31877466369E+03  0.17216935947E+03 0.  0.
        -24    2    3    3    0    0  0.29661554247E+02 -0.71762429895E+02  0.96297691332E+02  0.14612585160E+03  0.77780878138E+02 0.  0.
          6    2    1    2  501    0 -0.11640060920E+02  0.40155668506E+02  0.10970370024E+04  0.11111406145E+04  0.17145061061E+03 0.  0.
         24    2    5    5    0    0  0.17094496223E+02 -0.40955161807E+02  0.49171704268E+03  0.49971687831E+03  0.77212442829E+02 0.  0.
          5    1    5    5  501    0 -0.28734557143E+02  0.81110830313E+02  0.60531995974E+03  0.61142373624E+03  0.47000000000E+01 0. -1.
        -11    1    6    6    0    0  0.29518799743E+02 -0.44205486423E+02  0.17874003635E+03  0.18647650030E+03  0.00000000000E+00 0.  1.
         12    1    6    6    0    0 -0.12424303520E+02  0.32503246167E+01  0.31297700632E+03  0.31324037801E+03  0.00000000000E+00 0. -1.
         -5    1    3    3    0  503 -0.18021493327E+02  0.31606761389E+02  0.16870613721E+03  0.17264881210E+03  0.47000000000E+01 0.  1.
         11    1    4    4    0    0  0.42355275290E+02 -0.55445796339E+02  0.10298797325E+03  0.12439746103E+03  0.00000000000E+00 0. -1.
        -12    1    4    4    0    0 -0.12693721043E+02 -0.16316633556E+02 -0.66902819164E+01  0.21728390567E+02  0.00000000000E+00 0.  1.
</event>
<event>
12    1  0.8258923E-002  0.3375309E+03  0.7818608E-02  0.1067891E+00
         21   -1    0    0  501  502  0.00000000000E+00  0.00000000000E+00  0.90534665280E+03  0.90534665280E+03  0.00000000000E+00 0. -1.
         21   -1    0    0  502  503 -0.00000000000E+00 -0.00000000000E+00 -0.13062965835E+03  0.13062965835E+03  0.00000000000E+00 0. -1.
         -6    2    1    2    0  503 -0.22598197274E+03 -0.18361887311E+03  0.28658765630E+03  0.44251412733E+03  0.17000742803E+03 0.  0.
        -24    2    3    3    0    0 -0.24521292031E+03 -0.18470142547E+03  0.27476815924E+03  0.41943184463E+03  0.78622758172E+02 0.  0.
          6    2    1    2  501    0  0.22598197274E+03  0.18361887311E+03  0.48812933816E+03  0.59346218382E+03  0.17071429435E+03 0.  0.
         24    2    5    5    0    0  0.43300287643E+02  0.11128806066E+03  0.16774121837E+03  0.21759654055E+03  0.70364698256E+02 0.  0.
          5    1    5    5  501    0  0.18268168509E+03  0.72330812448E+02  0.32038811978E+03  0.37586564328E+03  0.47000000000E+01 0. -1.
        -13    1    6    6    0    0  0.61389651078E+02  0.99004403029E+02  0.13629731177E+03  0.17929729021E+03  0.00000000000E+00 0.  1.
         14    1    6    6    0    0 -0.18089363435E+02  0.12283657629E+02  0.31443906601E+02  0.38299250339E+02  0.00000000000E+00 0. -1.
         -5    1    3    3    0  503  0.19230947570E+02  0.10825523663E+01  0.11819497056E+02  0.23082282702E+02  0.47000000000E+01 0.  1.
         13    1    4    4    0    0 -0.14907419428E+03 -0.65987337405E+02  0.12426117043E+03  0.20498361538E+03  0.00000000000E+00 0. -1.
        -14    1    4    4    0    0 -0.96138726022E+02 -0.11871408807E+03  0.15050698881E+03  0.21444822925E+03  0.00000000000E+00 0.  1.
</event>
<event>
12    1  0.8258923E-002  0.1936475E+03  0.7818608E-02  0.1156222E+00
         21   -1    0    0  503  502  0.00000000000E+00  0.00000000000E+00  0.33734920197E+03  0.33734920197E+03  0.00000000000E+00 0.  1.
         21   -1    0    0  501  503 -0.00000000000E+00 -0.00000000000E+00 -0.22504465513E+03  0.22504465513E+03  0.00000000000E+00 0.  1.
          6    2    1    2  501    0 -0.54765361512E+00 -0.78847078626E+02 -0.14581582661E+03  0.24240796617E+03  0.17686776146E+03 0.  0.
         24    2    3    3    0    0 -0.46491835751E+01 -0.94781906242E+02 -0.17204999974E+03  0.21108603904E+03  0.77142004195E+02 0.  0.
         -6    2    1    2    0  502  0.54765361512E+00  0.78847078626E+02  0.25812037344E+03  0.31998589093E+03  0.17189439047E+03 0.  0.
        -24    2    5    5    0    0 -0.39377402175E+02  0.29105949976E+01  0.18661084417E+03  0.20820010291E+03  0.83454324784E+02 0.  0.
          5    1    3    3  501    0  0.41015299600E+01  0.15934827616E+02  0.26234173132E+02  0.31321927129E+02  0.47000000000E+01 0. -1.
        -11    1    4    4    0    0  0.15537021504E+02  0.74028044027E+01 -0.34438310017E+02  0.38499321384E+02  0.00000000000E+00 0.  1.
         12    1    4    4    0    0 -0.20186205079E+02 -0.10218471064E+03 -0.13761168972E+03  0.17258671766E+03  0.00000000000E+00 0. -1.
         -5    1    5    5    0  502  0.39925055790E+02  0.75936483629E+02  0.71509529274E+02  0.11178578802E+03  0.47000000000E+01 0.  1.
         13    1    6    6    0    0 -0.19209182491E+02 -0.33287980443E+02  0.38491930765E+02  0.54394035225E+02  0.00000000000E+00 0. -1.
        -14    1    6    6    0    0 -0.20168219684E+02  0.36198575441E+02  0.14811891340E+03  0.15380606768E+03  0.00000000000E+00 0.  1.
</event>
<event>
12    1  0.8258923E-002  0.4146903E+03  0.7818608E-02  0.1038823E+00
         21   -1    0    0  501  502  0.00000000000E+00  0.00000000000E+00  0.40988669292E+03  0.40988669292E+03  0.00000000000E+00 0. -1.
         21   -1    0    0  502  503 -0.00000000000E+00 -0.00000000000E+00 -0.62432619145E+03  0.62432619145E+03  0.00000000000E+00 0.  1.
         -6    2    1    2    0  503 -0.31384545560E+03 -0.20929895254E+03 -0.40348784720E+03  0.57846371228E+03  0.17179290453E+03 0.  0.
        -24    2    3    3    0    0 -0.14790230706E+03 -0.16231543103E+03 -0.18016240423E+03  0.29625647757E+03  0.84190361803E+02 0.  0.
          6    2    1    2  501    0  0.31384545560E+03  0.20929895254E+03  0.18904834867E+03  0.45574917210E+03  0.17222952186E+03 0.  0.
         24    2    5    5    0    0  0.85704623319E+02  0.54761478658E+02  0.13807990341E+02  0.12915868942E+03  0.78404109928E+02 0.  0.
          5    1    5    5  501    0  0.22814083228E+03  0.15453747388E+03  0.17524035833E+03  0.32659048268E+03  0.47000000000E+01 0. -1.
        -13    1    6    6    0    0  0.88920149396E+02  0.65929004743E+02 -0.53770875447E+00  0.11069650295E+03  0.00000000000E+00 0.  1.
         14    1    6    6    0    0 -0.32155260767E+01 -0.11167526085E+02  0.14345699096E+02  0.18462186473E+02  0.00000000000E+00 0. -1.
         -5    1    3    3    0  503 -0.16594314854E+03 -0.46983521506E+02 -0.22332544297E+03  0.28220723470E+03  0.47000000000E+01 0.  1.
         13    1    4    4    0    0 -0.98828292016E+02 -0.49933301544E+02 -0.67170773762E+02  0.12950783279E+03  0.00000000000E+00 0. -1.
        -14    1    4    4    0    0 -0.49074015041E+02 -0.11238212949E+03 -0.11299163047E+03  0.16674864478E+03  0.00000000000E+00 0.  1.
</event>
<event>
12    1  0.8258923E-002  0.2577681E+03  0.7818608E-02  0.1111375E+00
         21   -1    0    0  503  502  0.00000000000E+00  0.00000000000E+00  0.13959261266E+03  0.13959261266E+03  0.00000000000E+00 0. -1.
         21   -1    0    0  501  503 -0.00000000000E+00 -0.00000000000E+00 -0.98420422381E+03  0.98420422381E+03  0.00000000000E+00 0. -1.
          6    2    1    2  501    0 -0.11768732538E+03 -0.14341755757E+03 -0.84587445541E+03  0.88427822228E+03  0.17895663641E+03 0.  0.
         24    2    3    3    0    0 -0.33288860773E+02 -0.11064973741E+02 -0.18221689671E+03  0.20229306665E+03  0.80553742779E+02 0.  0.
         -6    2    1    2    0  502  0.11768732538E+03  0.14341755757E+03  0.12628442581E+01  0.23951861419E+03  0.15148818236E+03 0.  0.
        -24    2    5    5    0    0  0.14192777914E+03  0.10474260175E+03  0.73004769924E+01  0.19323800470E+03  0.78569220330E+02 0.  0.
          5    1    3    3  501    0 -0.84398464609E+02 -0.13235258383E+03 -0.66365755870E+03  0.68198515563E+03  0.47000000000E+01 0. -1.
        -13    1    4    4    0    0  0.25555220520E+02 -0.13221044634E+02 -0.66434819441E+02  0.72397862891E+02  0.00000000000E+00 0.  1.
         14    1    4    4    0    0 -0.58844081293E+02  0.21560708925E+01 -0.11578207727E+03  0.12989520376E+03  0.00000000000E+00 0. -1.
         -5    1    5    5    0  502 -0.24240453756E+02  0.38674955819E+02 -0.60376327343E+01  0.46280609492E+02  0.47000000000E+01 0.  1.
         11    1    6    6    0    0  0.11416886230E+03  0.73875606264E+02 -0.27890163219E+02  0.13881640942E+03  0.00000000000E+00 0. -1.
        -12    1    6    6    0    0  0.27758916841E+02  0.30866995490E+02  0.35190640211E+02  0.54421595284E+02  0.00000000000E+00 0.  1.
</event>
<event>
12    1  0.8258923E-002  0.2578310E+03  0.7818608E-02  0.1108592E+00
         21   -1    0    0  501  502  0.00000000000E+00  0.00000000000E+00  0.24635370126E+03  0.24635370126E+03  0.00000000000E+00 0.  1.
         21   -1    0    0  502  503 -0.00000000000E+00 -0.00000000000E+00 -0.44901942758E+03  0.44901942758E+03  0.00000000000E+00 0.  1.
         -6    2    1    2    0  503  0.59752729632E+02  0.18265924787E+03 -0.32144098130E+03  0.41149924642E+03  0.17050670312E+03 0.  0.
        -24    2    3    3    0    0  0.55990795311E+02  0.65603765299E+02 -0.73417748614E+02  0.13717507303E+03  0.77382243884E+02 0.  0.
          6    2    1    2  501    0 -0.59752729632E+02 -0.18265924787E+03  0.11877525498E+03  0.28387388242E+03  0.17187795202E+03 0.  0.
         24    2    5    5    0    0 -0.88713552551E+01 -0.18279880703E+03  0.73122883661E+02  0.21535262482E+03  0.86808364278E+02 0.  0.
          5    1    5    5  501    0 -0.50881374377E+02  0.13955915510E+00  0.45652371321E+02  0.68521257596E+02  0.47000000000E+01 0. -1.
        -13    1    6    6    0    0  0.27580019886E+02 -0.68331048786E+02 -0.19138313721E+01  0.73711956125E+02  0.00000000000E+00 0.  1.
         14    1    6    6    0    0 -0.36451375141E+02 -0.11446775824E+03  0.75036715033E+02  0.14164066870E+03  0.00000000000E+00 0. -1.
         -5    1    3    3    0  503  0.37619343210E+01  0.11705548257E+03 -0.24802323269E+03  0.27432417339E+03  0.47000000000E+01 0.  1.
         11    1    4    4    0    0  0.58828173832E+02  0.37590435189E+02 -0.82044081086E+02  0.10772662668E+03  0.00000000000E+00 0. -1.
        -12    1    4    4    0    0 -0.28373785207E+01  0.28013330110E+02  0.86263324715E+01  0.29448446354E+02  0.00000000000E+00 0.  1.
</event>
<event>
12    1  0.8258923E-002  0.2082873E+03  0.7818608E-02  0.1143010E+00
         21   -1    0    0  503  502  0.00000000000E+00  0.00000000000E+00  0.16610666786E+03  0.16610666786E+03  0.00000000000E+00 0. -1.
         21   -1    0    0  501  503 -0.00000000000E+00 -0.00000000000E+00 -0.26764612886E+03  0.26764612886E+03  0.00000000000E+00 0. -1.
          6    2    1    2  501    0  0.11664009841E+03  0.13340749148E+02 -0.85816402998E+02  0.22527332046E+03  0.17204861447E+03 0.  0.
         24    2    3    3    0    0  0.18965770909E+02  0.56831079718E+02 -0.20470182820E+02  0.99878338114E+02  0.77247536864E+02 0.  0.
         -6    2    1    2    0  502 -0.11664009841E+03 -0.13340749148E+02 -0.15723058007E+02  0.20847947626E+03  0.17156220249E+03 0.  0.
        -24    2    5    5    0    0 -0.13520269021E+03 -0.35648062265E+02  0.20936719436E+02  0.16148782471E+03  0.78034732821E+02 0.  0.
          5    1    3    3  501    0  0.97674327501E+02 -0.43490330570E+02 -0.65346220178E+02  0.12539498235E+03  0.47000000000E+01 0. -1.
        -13    1    4    4    0    0 -0.39335739479E+01 -0.18424147643E+02 -0.68482870555E+01  0.20045479689E+02  0.00000000000E+00 0.  1.
         14    1    4    4    0    0  0.22899344857E+02  0.75255227361E+02 -0.13621895765E+02  0.79832858425E+02  0.00000000000E+00 0. -1.
         -5    1    5    5    0  502  0.18562591800E+02  0.22307313117E+02 -0.36659777443E+02  0.46991651546E+02  0.47000000000E+01 0.  1.
         13    1    6    6    0    0 -0.96851202345E+02  0.13427832918E+02  0.10572833697E+02  0.98347582101E+02  0.00000000000E+00 0. -1.
        -14    1    6    6    0    0 -0.38351487864E+02 -0.49075895184E+02  0.10363885738E+02  0.63140242612E+02  0.00000000000E+00 0.  1.
</event>
<event>
12    1  0.8258923E-002  0.1822002E+03  0.7818608E-02  0.1166172E+00
         21   -1    0    0  503  502  0.00000000000E+00  0.00000000000E+00  0.12420246275E+04  0.12420246275E+04  0.00000000000E+00 0. -1.
         21   -1    0    0  501  503 -0.00000000000E+00 -0.00000000000E+00 -0.37160192254E+02  0.37160192254E+02  0.00000000000E+00 0.  1.
          6    2    1    2  501    0 -0.47870565719E+02 -0.28939263709E+02  0.26118794663E+03  0.31845890456E+03  0.17340086038E+03 0.  0.
         24    2    3    3    0    0 -0.31071719531E+01  0.38265912986E+01  0.39696022054E+02  0.90077369999E+02  0.80708494600E+02 0.  0.
         -6    2    1    2    0  502  0.47870565719E+02  0.28939263709E+02  0.94367648865E+03  0.96072591523E+03  0.17128892817E+03 0.  0.
        -24    2    5    5    0    0 -0.20093812289E+02  0.46773023778E+02  0.72879726215E+03  0.73460123356E+03  0.76824774592E+02 0.  0.
          5    1    3    3  501    0 -0.44763393766E+02 -0.32765855007E+02  0.22149192457E+03  0.22838153456E+03  0.47000000000E+01 0. -1.
        -13    1    4    4    0    0 -0.13362265767E+02  0.36381910274E+02  0.40335881425E+02  0.55939046040E+02  0.00000000000E+00 0.  1.
         14    1    4    4    0    0  0.10255093814E+02 -0.32555318975E+02 -0.63985937142E+00  0.34138323959E+02  0.00000000000E+00 0. -1.
         -5    1    5    5    0  502  0.67964378007E+02 -0.17833760070E+02  0.21487922650E+03  0.22612468166E+03  0.47000000000E+01 0.  1.
         13    1    6    6    0    0 -0.73508033423E+00  0.54484223621E+02  0.27614562959E+03  0.28147021105E+03  0.00000000000E+00 0. -1.
        -14    1    6    6    0    0 -0.19358731955E+02 -0.77111998429E+01  0.45265163256E+03  0.45313102251E+03  0.00000000000E+00 0.  1.
</event>
<event>
12    1  0.8258923E-002  0.2386144E+03  0.7818608E-02  0.1120734E+00
         21   -1    0    0  503  502  0.00000000000E+00  0.00000000000E+00  0.70395819677E+02  0.70395819677E+02  0.00000000000E+00 0. -1.
         21   -1    0    0  501  503 -0.00000000000E+00 -0.00000000000E+00 -0.91401668253E+03  0.91401668253E+03  0.00000000000E+00 0. -1.
          6    2    1    2  501    0 -0.90370009515E+02 -0.13830946505E+03 -0.58911248668E+03  0.63560233669E+03  0.17216434502E+03 0.  0.
         24    2    3    3    0    0  0.97137924648E+01 -0.45691826300E+02 -0.15962214465E+03  0.18495964194E+03  0.80924281469E+02 0.  0.
         -6    2    1    2    0  502  0.90370009515E+02  0.13830946505E+03 -0.25450837618E+03  0.34881016552E+03  0.17204002815E+03 0.  0.
        -24    2    5    5    0    0  0.97313613787E+02  0.46652162792E+02 -0.20472319512E+03  0.24416825733E+03  0.77847206410E+02 0.  0.
          5    1    3    3  501    0 -0.10008380198E+03 -0.92617638751E+02 -0.42949034204E+03  0.45064269475E+03  0.47000000000E+01 0. -1.
        -11    1    4    4    0    0  0.30324284134E+02 -0.20742517288E+01 -0.11601267207E+03  0.11992833197E+03  0.00000000000E+00 0.  1.
         12    1    4    4    0    0 -0.20610491669E+02 -0.43617574572E+02 -0.43609472579E+02  0.65031309974E+02  0.00000000000E+00 0. -1.
         -5    1    5    5    0  502 -0.69436042718E+01  0.91657302260E+02 -0.49785181060E+02  0.10464190820E+03  0.47000000000E+01 0.  1.
         13    1    6    6    0    0 -0.85702740569E+01  0.22629229791E+02 -0.43862142872E+02  0.50094103602E+02  0.00000000000E+00 0. -1.
        -14    1    6    6    0    0  0.10588388784E+03  0.24022933001E+02 -0.16086105224E+03  0.19407415372E+03  0.00000000000E+00 0.  1.
</event>
<event>
12    1  0.8258923E-002  0.1847396E+03  0.7818608E-02  0.1163788E+00
         21   -1    0    0  501  502  0.00000000000E+00  0.00000000000E+00  0.34243602872E+02  0.34243602872E+02  0.00000000000E+00 0. -1.
         21   -1    0    0  502  503 -0.00000000000E+00 -0.00000000000E+00 -0.13745213514E+04  0.13745213514E+04  0.00000000000E+00 0.  1.
         -6    2    1    2    0  503 -0.66478687627E+02  0.12786344385E+02 -0.29808316112E+03  0.35068832882E+03  0.17188899474E+03 0.  0.
        -24    2    3    3    0    0 -0.80250265540E+02  0.12133698900E+02 -0.30945958828E+03  0.33220602920E+03  0.89488978611E+02 0.  0.
          6    2    1    2  501    0  0.66478687627E+02 -0.12786344385E+02 -0.10421945874E+04  0.10580766254E+04  0.16962806607E+03 0.  0.
         24    2    5    5    0    0  0.13166537493E+02 -0.13700769159E+02 -0.93226888855E+03  0.93581145955E+03  0.79099547879E+02 0.  0.
          5    1    5    5  501    0  0.53312150134E+02  0.91442477371E+00 -0.10992569884E+03  0.12226516589E+03  0.47000000000E+01 0. -1.
        -13    1    6    6    0    0  0.36161601540E+02 -0.32093111674E+02 -0.43664913802E+03  0.43931776538E+03  0.00000000000E+00 0.  1.
         14    1    6    6    0    0 -0.22995064047E+02  0.18392342515E+02 -0.49561975053E+03  0.49649369417E+03  0.00000000000E+00 0. -1.
         -5    1    3    3    0  503  0.13771577912E+02  0.65264548584E+00  0.11376427155E+02  0.18482299618E+02  0.47000000000E+01 0.  1.
         13    1    4    4    0    0 -0.41772763352E+02 -0.36886866381E+02 -0.11119370780E+03  0.12437702892E+03  0.00000000000E+00 0. -1.
        -14    1    4    4    0    0 -0.38477502187E+02  0.49020565280E+02 -0.19826588048E+03  0.20782900028E+03  0.00000000000E+00 0.  1.
</event>
<event>
12    1  0.8258923E-002  0.1803488E+03  0.7818608E-02  0.1167548E+00
         21   -1    0    0  503  502  0.00000000000E+00  0.00000000000E+00  0.74261035354E+02  0.74261035354E+02  0.00000000000E+00 0. -1.
         21   -1    0    0  501  503 -0.00000000000E+00 -0.00000000000E+00 -0.44803692871E+03  0.44803692871E+03  0.00000000000E+00 0. -1.
          6    2    1    2  501    0 -0.40518737864E+02 -0.37100921033E+02 -0.22738617761E+03  0.29001442673E+03  0.17142242410E+03 0.  0.
         24    2    3    3    0    0 -0.79692529758E+02  0.14989976266E+02 -0.15485781540E+03  0.19239014247E+03  0.80358106255E+02 0.  0.
         -6    2    1    2    0  502  0.40518737864E+02  0.37100921033E+02 -0.14638971575E+03  0.23228353733E+03  0.17177731626E+03 0.  0.
        -24    2    5    5    0    0  0.86803430039E+01  0.84613340761E+02 -0.12531211042E+03  0.17114869570E+03  0.79711888892E+02 0.  0.
          5    1    3    3  501    0  0.39173791894E+02 -0.52090897299E+02 -0.72528362202E+02  0.97624284256E+02  0.47000000000E+01 0. -1.
        -13    1    4    4    0    0 -0.13983310204E+02  0.35626832637E+02 -0.25962378395E+02  0.46247694645E+02  0.00000000000E+00 0.  1.
         14    1    4    4    0    0 -0.65709219554E+02 -0.20636856371E+02 -0.12889543701E+03  0.14614244783E+03  0.00000000000E+00 0. -1.
         -5    1    5    5    0  502  0.31838394860E+02 -0.47512419728E+02 -0.21077605324E+02  0.61134841636E+02  0.47000000000E+01 0.  1.
         11    1    6    6    0    0  0.27200307945E+02  0.58011147870E+02 -0.30522599623E+02  0.70970269249E+02  0.00000000000E+00 0. -1.
        -12    1    6    6    0    0 -0.18519964941E+02  0.26602192890E+02 -0.94789510799E+02  0.10017842645E+03  0.00000000000E+00 0.  1.
</event>
<event>
12    1  0.8258923E-002  0.2301440E+03  0.7818608E-02  0.1126591E+00
         21   -1    0    0  501  502  0.00000000000E+00  0.00000000000E+00  0.12387684702E+03  0.12387684702E+03  0.00000000000E+00 0.  1.
         21   -1    0    0  502  503 -0.00000000000E+00 -0.00000000000E+00 -0.55386768536E+03  0.55386768536E+03  0.00000000000E+00 0.  1.
         -6    2    1    2    0  503  0.15345916795E+03 -0.11621037327E+01 -0.37728046056E+03  0.44193531029E+03  0.17150861741E+03 0.  0.
        -24    2    3    3    0    0  0.88094245551E+00 -0.33276499706E+01 -0.13664053591E+03  0.15695378840E+03  0.77149247070E+02 0.  0.
          6    2    1    2  501    0 -0.15345916795E+03  0.11621037327E+01 -0.52710377786E+02  0.23580922209E+03  0.17110388243E+03 0.  0.
         24    2    5    5    0    0 -0.16364339741E+03 -0.13268522314E+02 -0.82062703523E+02  0.20123162061E+03  0.82490378994E+02 0.  0.
          5    1    5    5  501    0  0.10184229453E+02  0.14430626047E+02  0.29352325737E+02  0.34577601476E+02  0.47000000000E+01 0. -1.
        -13    1    6    6    0    0 -0.13740001323E+03  0.21202462802E+01 -0.96141447479E+02  0.16770938257E+03  0.00000000000E+00 0.  1.
         14    1    6    6    0    0 -0.26243384176E+02 -0.15388768594E+02  0.14078743956E+02  0.33522238040E+02  0.00000000000E+00 0. -1.
         -5    1    3    3    0  503  0.15257822550E+03  0.21655462379E+01 -0.24063992465E+03  0.28498152190E+03  0.47000000000E+01 0.  1.
         11    1    4    4    0    0 -0.28628647388E+02 -0.14999231315E+02 -0.24913884057E+02  0.40807818003E+02  0.00000000000E+00 0. -1.
        -12    1    4    4    0    0  0.29509589844E+02  0.11671581344E+02 -0.11172665186E+03  0.11614597039E+03  0.00000000000E+00 0.  1.
</event>
<event>
12    1  0.8258923E-002  0.1761154E+03  0.7818608E-02  0.1171824E+00
         21   -1    0    0  501  502  0.00000000000E+00  0.00000000000E+00  0.38192890812E+02  0.38192890812E+02  0.00000000000E+00 0.  1.
         21   -1    0    0  502  503 -0.00000000000E+00 -0.00000000000E+00 -0.81070691228E+03  0.81070691228E+03  0.00000000000E+00 0.  1.
         -6    2    1    2    0  503  0.27232443214E+02  0.28639903105E+02 -0.36389885271E+03  0.40427589377E+03  0.17162392975E+03 0.  0.
        -24    2    3    3    0    0  0.47489837543E+02  0.70691316133E+02 -0.19118845249E+03  0.22530758454E+03  0.83414246026E+02 0.  0.
          6    2    1    2  501    0 -0.27232443214E+02 -0.28639903105E+02 -0.40861516876E+03  0.44462390933E+03  0.17076947793E+03 0.  0.
         24    2    5    5    0    0  0.93553072682E+00  0.40545344026E+02 -0.29624003545E+03  0.30960430422E+03  0.80323511183E+02 0.  0.
          5    1    5    5  501    0 -0.28167973941E+02 -0.69185247131E+02 -0.11237513331E+03  0.13501960510E+03  0.47000000000E+01 0. -1.
        -11    1    6    6    0    0  0.12653601519E+02  0.20674589203E+02 -0.17464069415E+02  0.29875508208E+02  0.00000000000E+00 0.  1.
         12    1    6    6    0    0 -0.11718070793E+02  0.19870754823E+02 -0.27877596604E+03  0.27972879602E+03  0.00000000000E+00 0. -1.
         -5    1    3    3    0  503 -0.20257394329E+02 -0.42051413028E+02 -0.17271040022E+03  0.17896830923E+03  0.47000000000E+01 0.  1.
         13    1    4    4    0    0  0.13736499884E+02  0.19999797995E+02 -0.14961542402E+03  0.15156997873E+03  0.00000000000E+00 0. -1.
        -14    1    4    4    0    0  0.33753337658E+02  0.50691518138E+02 -0.41573028474E+02  0.73737605811E+02  0.00000000000E+00 0.  1.
</event>
<event>
12    1  0.8258923E-002  0.1901422E+03  0.7818608E-02  0.1158695E+00
         21   -1    0    0  503  502  0.00000000000E+00  0.00000000000E+00  0.18136918998E+03  0.18136918998E+03  0.00000000000E+00 0.  1.
         21   -1    0    0  501  503 -0.00000000000E+00 -0.00000000000E+00 -0.27735442814E+03  0.27735442814E+03  0.00000000000E+00 0. -1.
          6    2    1    2  501    0  0.71680259220E+02  0.18152469281E+02 -0.17079031335E+03  0.25439579237E+03  0.17343677908E+03 0.  0.
         24    2    3    3    0    0  0.10293805242E+03  0.22800848735E+02 -0.71208920721E+02  0.14981471939E+03  0.79105109940E+02 0.  0.
         -6    2    1    2    0  502 -0.71680259220E+02 -0.18152469281E+02  0.74805075191E+02  0.20432782574E+03  0.17517559589E+03 0.  0.
        -24    2    5    5    0    0 -0.16905322561E+02 -0.63364733905E+02  0.72143901562E+01  0.10616962047E+03  0.83180895955E+02 0.  0.
          5    1    3    3  501    0 -0.31257793197E+02 -0.46483794542E+01 -0.99581392628E+02  0.10458107298E+03  0.47000000000E+01 0. -1.
        -11    1    4    4    0    0  0.24007175808E+01 -0.10323241941E+02  0.11382279943E+02  0.15552783217E+02  0.00000000000E+00 0.  1.
         12    1    4    4    0    0  0.10053733484E+03  0.33124090676E+02 -0.82591200665E+02  0.13426193618E+03  0.00000000000E+00 0. -1.
         -5    1    5    5    0  502 -0.54774936658E+02  0.45212264624E+02  0.67590685035E+02  0.98158205270E+02  0.47000000000E+01 0.  1.
         13    1    6    6    0    0 -0.12235701807E+02 -0.45682047701E+01 -0.32525176813E+02  0.35049508131E+02  0.00000000000E+00 0. -1.
        -14    1    6    6    0    0 -0.46696207542E+01 -0.58796529135E+02  0.39739566969E+02  0.71120112340E+02  0.00000000000E+00 0.  1.
</event>
<event>
12    1  0.8258923E-002  0.2398027E+03  0.7818608E-02  0.1120333E+00
         21   -1    0    0  501  502  0.00000000000E+00  0.00000000000E+00  0.39936923631E+03  0.39936923631E+03  0.00000000000E+00 0.  1.
         21   -1    0    0  502  503 -0.00000000000E+00 -0.00000000000E+00 -0.16360622297E+03  0.16360622297E+03  0.00000000000E+00 0.  1.
         -6    2    1    2    0  503  0.84439554943E+02 -0.14616303247E+03  0.16323005326E+02  0.23792276431E+03  0.16687459595E+03 0.  0.
        -24    2    3    3    0    0  0.53092851487E+02 -0.14837198868E+02 -0.11668887848E+02  0.99956368137E+02  0.82559791899E+02 0.  0.
          6    2    1    2  501    0 -0.84439554943E+02  0.14616303247E+03  0.21944000801E+03  0.32505269497E+03  0.17032811539E+03 0.  0.
         24    2    5    5    0    0 -0.85460191444E+02  0.13895488068E+03  0.24106669862E+03  0.30175456420E+03  0.79566077203E+02 0.  0.
          5    1    5    5  501    0  0.10206365014E+01  0.72081517891E+01 -0.21626690609E+02  0.23298130778E+02  0.47000000000E+01 0. -1.
        -13    1    6    6    0    0 -0.24177614257E+01  0.70620153611E+02  0.68460279440E+02  0.98386287293E+02  0.00000000000E+00 0.  1.
         14    1    6    6    0    0 -0.83042430018E+02  0.68334727068E+02  0.17260641918E+03  0.20336827690E+03  0.00000000000E+00 0. -1.
         -5    1    3    3    0  503  0.31346703456E+02 -0.13132583360E+03  0.27991893173E+02  0.13796639617E+03  0.47000000000E+01 0.  1.
         11    1    4    4    0    0  0.57158901257E+02  0.16868235663E+02  0.11217967035E+02  0.60642560564E+02  0.00000000000E+00 0. -1.
        -12    1    4    4    0    0 -0.40660497707E+01 -0.31705434530E+02 -0.22886854883E+02  0.39313807574E+02  0.00000000000E+00 0.  1.
</event>
<event>
12    1  0.8258923E-002  0.2738575E+03  0.7818608E-02  0.1099233E+00
         21   -1    0    0  501  502  0.00000000000E+00  0.00000000000E+00  0.22843485225E+03  0.22843485225E+03  0.00000000000E+00 0. -1.
         21   -1    0    0  502  503 -0.00000000000E+00 -0.00000000000E+00 -0.33832083199E+03  0.33832083199E+03  0.00000000000E+00 0.  1.
         -6    2    1    2    0  503  0.12523818694E+03 -0.17752192403E+03 -0.10642891315E+03  0.29287639180E+03  0.16507825520E+03 0.  0.
        -24    2    3    3    0    0  0.15153526454E+03 -0.12328214292E+03 -0.90457981048E+02  0.23034119517E+03  0.81932879201E+02 0.  0.
          6    2    1    2  501    0 -0.12523818694E+03  0.17752192403E+03 -0.34570665938E+01  0.27387929244E+03  0.16673115648E+03 0.  0.
         24    2    5    5    0    0 -0.10658170091E+03  0.97791895958E+02 -0.59349864366E+02  0.17462690361E+03  0.77776829321E+02 0.  0.
          5    1    5    5  501    0 -0.18656486031E+02  0.79730028069E+02  0.55892797773E+02  0.99252388836E+02  0.47000000000E+01 0. -1.
        -13    1    6    6    0    0 -0.51660837920E+02  0.94151562810E+02 -0.51240399561E+02  0.11899133372E+03  0.00000000000E+00 0.  1.
         14    1    6    6    0    0 -0.54920862987E+02  0.36403331482E+01 -0.81094648059E+01  0.55635569882E+02  0.00000000000E+00 0. -1.
         -5    1    3    3    0  503 -0.26297077603E+02 -0.54239781104E+02 -0.15970932105E+02  0.62535196625E+02  0.47000000000E+01 0.  1.
         11    1    4    4    0    0  0.29237219129E+02 -0.74715053676E+02 -0.32921738157E+02  0.86723670768E+02  0.00000000000E+00 0. -1.
        -12    1    4    4    0    0  0.12229804541E+03 -0.48567089247E+02 -0.57536242891E+02  0.14361752440E+03  0.00000000000E+00 0.  1.
</event>
<event>
12    1  0.8258923E-002  0.2002927E+03  0.7818608E-02  0.1150494E+00
         21   -1    0    0  501  502  0.00000000000E+00  0.00000000000E+00  0.22734461532E+03  0.22734461532E+03  0.00000000000E+00 0. -1.
         21   -1    0    0  502  503 -0.00000000000E+00 -0.00000000000E+00 -0.52555588080E+03  0.52555588080E+03  0.00000000000E+00 0. -1.
         -6    2    1    2    0  503 -0.33271834158E+02 -0.86397114361E+02 -0.45829294179E+03  0.50014958088E+03  0.17761111013E+03 0.  0.
        -24    2    3    3    0    0 -0.82544565501E+00  0.19759540319E+02 -0.23256341044E+03  0.24855881240E+03  0.85467084614E+02 0.  0.
          6    2    1    2  501    0  0.33271834158E+02  0.86397114361E+02  0.16008167631E+03  0.25275091523E+03  0.17229453196E+03 0.  0.
         24    2    5    5    0    0  0.68207127188E+02  0.31364296941E+01  0.71584242263E+02  0.12623331905E+03  0.78412356857E+02 0.  0.
          5    1    5    5  501    0 -0.34935293030E+02  0.83260684667E+02  0.88497434050E+02  0.12651759618E+03  0.47000000000E+01 0. -1.
        -13    1    6    6    0    0 -0.12676522447E+02 -0.79990775410E+01 -0.34093231473E+01  0.15372148425E+02  0.00000000000E+00 0.  1.
         14    1    6    6    0    0  0.80883649636E+02  0.11135507235E+02  0.74993565410E+02  0.11086117063E+03  0.00000000000E+00 0. -1.
         -5    1    3    3    0  503 -0.32446388503E+02 -0.10615665468E+03 -0.22572953135E+03  0.25159076848E+03  0.47000000000E+01 0.  1.
         13    1    4    4    0    0 -0.74139154587E+01  0.45809394880E+02 -0.20452636856E+03  0.20972482504E+03  0.00000000000E+00 0. -1.
        -14    1    4    4    0    0  0.65884698037E+01 -0.26049854561E+02 -0.28037041882E+02  0.38833987362E+02  0.00000000000E+00 0.  1.
</event>
<event>
12    1  0.8258923E-002  0.1838604E+03  0.7818608E-02  0.1165705E+00
         21   -1    0    0  503  502  0.00000000000E+00  0.00000000000E+00  0.34676899160E+03  0.34676899160E+03  0.00000000000E+00 0.  1.
         21   -1    0    0  501  503 -0.00000000000E+00 -0.00000000000E+00 -0.10735170999E+03  0.10735170999E+03  0.00000000000E+00 0.  1.
          6    2    1    2  501    0  0.45727663257E+02 -0.24049620628E+02  0.41597779350E+02  0.18850737053E+03  0.17645183496E+03 0.  0.
         24    2    3    3    0    0 -0.34111293231E+02 -0.33841664568E+02 -0.94968120576E+01  0.93098301947E+02  0.79172380282E+02 0.  0.
         -6    2    1    2    0  502 -0.45727663257E+02  0.24049620628E+02  0.19781950227E+03  0.26561333106E+03  0.16955377530E+03 0.  0.
        -24    2    5    5    0    0 -0.30442342447E+02 -0.51264016721E+02  0.88156285312E+02  0.13162118145E+03  0.77445911083E+02 0.  0.
          5    1    3    3  501    0  0.79838956488E+02  0.97920439398E+01  0.51094591408E+02  0.95409068587E+02  0.47000000000E+01 0. -1.
        -11    1    4    4    0    0  0.94730977832E+00  0.24019238736E+02  0.32433022497E+01  0.24255725814E+02  0.00000000000E+00 0.  1.
         12    1    4    4    0    0 -0.35058603009E+02 -0.57860903304E+02 -0.12740114307E+02  0.68842576133E+02  0.00000000000E+00 0. -1.
         -5    1    5    5    0  502 -0.15285320810E+02  0.75313637348E+02  0.10966321695E+03  0.13399214961E+03  0.47000000000E+01 0.  1.
         11    1    6    6    0    0  0.15482605031E+02 -0.28674885017E+02  0.36049991864E+01  0.32786523275E+02  0.00000000000E+00 0. -1.
        -12    1    6    6    0    0 -0.45924947478E+02 -0.22589131703E+02  0.84551286125E+02  0.98834658179E+02  0.00000000000E+00 0.  1.
</event>
<event>
12    1  0.8258923E-002  0.2898726E+03  0.7818608E-02  0.1092299E+00
         21   -1    0    0  501  502  0.00000000000E+00  0.00000000000E+00  0.29244301133E+03  0.29244301133E+03  0.00000000000E+00 0.  1.
         21   -1    0    0  502  503 -0.00000000000E+00 -0.00000000000E+00 -0.37882017885E+03  0.37882017885E+03  0.00000000000E+00 0.  1.
         -6    2    1    2    0  503 -0.13835831858E+03 -0.16602967228E+03 -0.21928198854E+03  0.35237474730E+03  0.17138989362E+03 0.  0.
        -24    2    3    3    0    0 -0.10741513505E+00 -0.40309764895E+02 -0.67860708578E+02  0.11181435687E+03  0.79199027454E+02 0.  0.
          6    2    1    2  501    0  0.13835831858E+03  0.16602967228E+03  0.13290482103E+03  0.31888844289E+03  0.19317678731E+03 0.  0.
         24    2    5    5    0    0  0.10760764421E+03  0.19118522511E+03  0.69462824291E+02  0.24388589118E+03  0.80771582678E+02 0.  0.
          5    1    5    5  501    0  0.30750674378E+02 -0.25155552828E+02  0.63441996734E+02  0.75002551706E+02  0.47000000000E+01 0. -1.
        -13    1    6    6    0    0  0.20928765711E+01  0.81553264436E+02  0.26527146341E+02  0.85784640615E+02  0.00000000000E+00 0.  1.
         14    1    6    6    0    0  0.10551476764E+03  0.10963196067E+03  0.42935677950E+02  0.15810125057E+03  0.00000000000E+00 0. -1.
         -5    1    3    3    0  503 -0.13825090345E+03 -0.12571990738E+03 -0.15142127996E+03  0.24056039043E+03  0.47000000000E+01 0.  1.
         11    1    4    4    0    0  0.30714656379E+01 -0.35231336991E+02  0.75534124946E+01  0.36162619480E+02  0.00000000000E+00 0. -1.
        -12    1    4    4    0    0 -0.31788807730E+01 -0.50784279034E+01 -0.75414121072E+02  0.75651737389E+02  0.00000000000E+00 0.  1.
</event>
<event>
12    1  0.8258923E-002  0.1946846E+03  0.7818608E-02  0.1154517E+00
         21   -1    0    0  503  502  0.00000000000E+00  0.00000000000E+00  0.20304625595E+03  0.20304625595E+03  0.00000000000E+00 0. -1.
         21   -1    0    0  501  503 -0.00000000000E+00 -0.00000000000E+00 -0.20793351089E+03  0.20793351089E+03  0.00000000000E+00 0. -1.
          6    2    1    2  501    0  0.70639763652E+02 -0.55570509891E+02 -0.69584574025E+02  0.20582657631E+03  0.17159402319E+03 0.  0.
         24    2    3    3    0    0  0.45873395175E+02 -0.82461125693E+02  0.13416563086E+01  0.12589474050E+03  0.83327546518E+02 0.  0.
         -6    2    1    2    0  502 -0.70639763652E+02  0.55570509891E+02  0.64697319086E+02  0.20515319054E+03  0.17269635408E+03 0.  0.
        -24    2    5    5    0    0 -0.75073226028E+02  0.49622627689E+02 -0.19015109835E+02  0.12098138025E+03  0.78590874283E+02 0.  0.
          5    1    3    3  501    0  0.24766368477E+02  0.26890615802E+02 -0.70926230333E+02  0.79931835804E+02  0.47000000000E+01 0. -1.
        -13    1    4    4    0    0  0.15074222765E+02 -0.91419528431E+00  0.30453719484E+02  0.33992601774E+02  0.00000000000E+00 0.  1.
         14    1    4    4    0    0  0.30799172410E+02 -0.81546930408E+02 -0.29112063175E+02  0.91902138726E+02  0.00000000000E+00 0. -1.
         -5    1    5    5    0  502  0.44334623763E+01  0.59478822019E+01  0.83712428921E+02  0.84171810288E+02  0.47000000000E+01 0.  1.
         13    1    6    6    0    0 -0.22647177012E+02  0.36208154976E+02  0.26507839893E+02  0.50265203563E+02  0.00000000000E+00 0. -1.
        -14    1    6    6    0    0 -0.52426049016E+02  0.13414472713E+02 -0.45522949728E+02  0.70716176689E+02  0.00000000000E+00 0.  1.
</event>
<event>
12    1  0.8258923E-002  0.2067001E+03  0.7818608E-02  0.1144468E+00
         21   -1    0    0  503  502  0.00000000000E+00  0.00000000000E+00  0.50898894306E+03  0.50898894306E+03  0.00000000000E+00 0.  1.
         21   -1    0    0  501  503 -0.00000000000E+00 -0.00000000000E+00 -0.13017605263E+03  0.13017605263E+03  0.00000000000E+00 0.  1.
          6    2    1    2  501    0 -0.11208949718E+03  0.29978216525E+02 -0.25094575554E+01  0.20542352215E+03  0.16949860539E+03 0.  0.
         24    2    3    3    0    0 -0.13768494307E+03 -0.57667796215E+01 -0.52688902984E+01  0.16112300219E+03  0.83321433825E+02 0.  0.
         -6    2    1    2    0  502  0.11208949718E+03 -0.29978216525E+02  0.38132234799E+03  0.43374147355E+03  0.17106193018E+03 0.  0.
        -24    2    5    5    0    0  0.56009454142E+02 -0.48964467290E+00  0.34746210169E+03  0.36174735311E+03  0.83629759489E+02 0.  0.
          5    1    3    3  501    0  0.25595445886E+02  0.35744996146E+02  0.27594327430E+01  0.44300519959E+02  0.47000000000E+01 0. -1.
        -13    1    4    4    0    0 -0.81308562894E+02 -0.41354042197E+02  0.12635383173E+02  0.92091759207E+02  0.00000000000E+00 0.  1.
         14    1    4    4    0    0 -0.56376380174E+02  0.35587262575E+02 -0.17904273472E+02  0.69031242982E+02  0.00000000000E+00 0. -1.
         -5    1    5    5    0  502  0.56080043039E+02 -0.29488571852E+02  0.33860246299E+02  0.71994120431E+02  0.47000000000E+01 0.  1.
         13    1    6    6    0    0 -0.58278893807E+01 -0.31102305610E+02  0.11168480623E+03  0.11608106500E+03  0.00000000000E+00 0. -1.
        -14    1    6    6    0    0  0.61837343523E+02  0.30612660937E+02  0.23577729545E+03  0.24566628811E+03  0.00000000000E+00 0.  1.
</event>
<event>
12    1  0.8258923E-002  0.2303263E+03  0.7818608E-02  0.1126471E+00
         21   -1    0    0  503  502  0.00000000000E+00  0.00000000000E+00  0.15628617167E+04  0.15628617167E+04  0.00000000000E+00 0. -1.
         21   -1    0    0  501  503 -0.00000000000E+00 -0.00000000000E+00 -0.43908396621E+02  0.43908396621E+02  0.00000000000E+00 0.  1.
          6    2    1    2  501    0  0.14440161018E+03  0.49756415779E+02  0.11435903095E+04  0.11665543190E+04  0.17240260242E+03 0.  0.
         24    2    3    3    0    0  0.12245475995E+03  0.88195187927E+00  0.50704730418E+03  0.52774334144E+03  0.80125649383E+02 0.  0.
         -6    2    1    2    0  502 -0.14440161018E+03 -0.49756415779E+02  0.37536301062E+03  0.44021579434E+03  0.17194484554E+03 0.  0.
        -24    2    5    5    0    0 -0.12962712742E+03 -0.18625655144E+02  0.37519756498E+03  0.40543754006E+03  0.80350973435E+02 0.  0.
          5    1    3    3  501    0  0.21946850231E+02  0.48874463900E+02  0.63654300532E+03  0.63881097758E+03  0.47000000000E+01 0. -1.
        -13    1    4    4    0    0  0.10027537522E+03  0.22170757559E+02  0.27285284182E+03  0.29153964851E+03  0.00000000000E+00 0.  1.
         14    1    4    4    0    0  0.22179384733E+02 -0.21288805680E+02  0.23419446236E+03  0.23620369293E+03  0.00000000000E+00 0. -1.
         -5    1    5    5    0  502 -0.14774482764E+02 -0.31130760635E+02  0.16544564843E+00  0.34778254283E+02  0.47000000000E+01 0.  1.
         13    1    6    6    0    0  0.99857311414E+01 -0.15879879648E+01  0.51822128244E+02  0.52799332458E+02  0.00000000000E+00 0. -1.
        -14    1    6    6    0    0 -0.13961285856E+03 -0.17037667179E+02  0.32337543673E+03  0.35263820760E+03  0.00000000000E+00 0.  1.
</event>
<event>
12    1  0.8258923E-002  0.1789973E+03  0.7818608E-02  0.1169129E+00
         21   -1    0    0  503  502  0.00000000000E+00  0.00000000000E+00  0.65006664926E+03  0.65006664926E+03  0.00000000000E+00 0. -1.
         21   -1    0    0  501  503 -0.00000000000E+00 -0.00000000000E+00 -0.55147708906E+02  0.55147708906E+02  0.00000000000E+00 0. -1.
          6    2    1    2  501    0 -0.16756187278E+01  0.47054471085E+02  0.17764323086E+03  0.25116693488E+03  0.17120391572E+03 0.  0.
         24    2    3    3    0    0  0.11213434483E+02 -0.16137448042E+02  0.25918052107E+02  0.86236749035E+02  0.79867847829E+02 0.  0.
         -6    2    1    2    0  502  0.16756187278E+01 -0.47054471085E+02  0.41727570950E+03  0.45404742329E+03  0.17269369968E+03 0.  0.
        -24    2    5    5    0    0 -0.46091749192E+02  0.21362992867E+02  0.17266730083E+03  0.19555557738E+03  0.76466726485E+02 0.  0.
          5    1    3    3  501    0 -0.12889053210E+02  0.63191919126E+02  0.15172517875E+03  0.16493018584E+03  0.47000000000E+01 0. -1.
        -13    1    4    4    0    0 -0.91763381810E+01 -0.56736976268E+01 -0.26725476724E+02  0.28820949556E+02  0.00000000000E+00 0.  1.
         14    1    4    4    0    0  0.20389772664E+02 -0.10463750415E+02  0.52643528831E+02  0.57415799479E+02  0.00000000000E+00 0. -1.
         -5    1    5    5    0  502  0.47767367920E+02 -0.68417463952E+02  0.24460840867E+03  0.25849184591E+03  0.47000000000E+01 0.  1.
         11    1    6    6    0    0 -0.51251251028E+02 -0.11988389049E+02  0.70651191432E+02  0.88102230702E+02  0.00000000000E+00 0. -1.
        -12    1    6    6    0    0  0.51595018356E+01  0.33351381916E+02  0.10201610940E+03  0.10745334667E+03  0.00000000000E+00 0.  1.
</event>
<event>
12    1  0.8258923E-002  0.3091610E+03  0.7818608E-02  0.1080880E+00
         21   -1    0    0  501  502  0.00000000000E+00  0.00000000000E+00  0.17686926026E+03  0.17686926026E+03  0.00000000000E+00 0.  1.
         21   -1    0    0  502  503 -0.00000000000E+00 -0.00000000000E+00 -0.53877576007E+03  0.53877576007E+03  0.00000000000E+00 0.  1.
         -6    2    1    2    0  503 -0.21944473801E+03  0.13374504016E+03 -0.18930462415E+03  0.36251451290E+03  0.17186274329E+03 0.  0.
        -24    2    3    3    0    0 -0.11153756238E+03  0.91124013783E+02 -0.27272840211E+02  0.16317334944E+03  0.71676498554E+02 0.  0.
          6    2    1    2  501    0  0.21944473801E+03 -0.13374504016E+03 -0.17260187566E+03  0.35313050743E+03  0.16990002647E+03 0.  0.
         24    2    5    5    0    0  0.45868245463E+02 -0.70042587541E+02 -0.10945296529E+03  0.15769080800E+03  0.76658850145E+02 0.  0.
          5    1    5    5  501    0  0.17357649254E+03 -0.63702452614E+02 -0.63148910369E+02  0.19543969943E+03  0.47000000000E+01 0. -1.
        -13    1    6    6    0    0  0.51670955929E+02 -0.19101103288E+02 -0.28909612974E+02  0.62213387271E+02  0.00000000000E+00 0.  1.
         14    1    6    6    0    0 -0.58027104656E+01 -0.50941484253E+02 -0.80543352321E+02  0.95477420733E+02  0.00000000000E+00 0. -1.
         -5    1    3    3    0  503 -0.10790717563E+03  0.42621026372E+02 -0.16203178394E+03  0.19934116346E+03  0.47000000000E+01 0.  1.
         13    1    4    4    0    0 -0.35363650563E+02 -0.38736922296E+01  0.78739035136E+01  0.36436130821E+02  0.00000000000E+00 0. -1.
        -14    1    4    4    0    0 -0.76173911816E+02  0.94997706012E+02 -0.35146743724E+02  0.12673721862E+03  0.00000000000E+00 0.  1.
</event>
<event>
12    1  0.8258923E-002  0.3507389E+03  0.7818608E-02  0.1062440E+00
         21   -1    0    0  501  502  0.00000000000E+00  0.00000000000E+00  0.31384843767E+03  0.31384843767E+03  0.00000000000E+00 0. -1.
         21   -1    0    0  502  503 -0.00000000000E+00 -0.00000000000E+00 -0.39453545741E+03  0.39453545741E+03  0.00000000000E+00 0.  1.
         -6    2    1    2    0  503  0.11252543089E+02 -0.30484881502E+03 -0.47890124333E+01  0.34952701718E+03  0.17054847217E+03 0.  0.
        -24    2    3    3    0    0  0.47373869488E+02 -0.26048981807E+03  0.36577617473E+02  0.27877562921E+03  0.79238251562E+02 0.  0.
          6    2    1    2  501    0 -0.11252543089E+02  0.30484881502E+03 -0.75898007305E+02  0.35885687789E+03  0.17308475252E+03 0.  0.
         24    2    5    5    0    0 -0.20336699743E+02  0.32088374619E+03 -0.68648866523E+02  0.33850298485E+03  0.80570738804E+02 0.  0.
          5    1    5    5  501    0  0.90841566536E+01 -0.16034931174E+02 -0.72491407817E+01  0.20353893041E+02  0.47000000000E+01 0. -1.
        -13    1    6    6    0    0 -0.24140192528E+02  0.26496373817E+03 -0.86353685480E+02  0.27972395399E+03  0.00000000000E+00 0.  1.
         14    1    6    6    0    0  0.38034927853E+01  0.55920008017E+02  0.17704818957E+02  0.58779030855E+02  0.00000000000E+00 0. -1.
         -5    1    3    3    0  503 -0.36121326399E+02 -0.44358996943E+02 -0.41366629906E+02  0.70751387975E+02  0.47000000000E+01 0.  1.
         11    1    4    4    0    0  0.42541121356E+02 -0.52986295639E+02  0.18534312403E+02  0.70433055223E+02  0.00000000000E+00 0. -1.
        -12    1    4    4    0    0  0.48327481320E+01 -0.20750352243E+03  0.18043305070E+02  0.20834257399E+03  0.00000000000E+00 0.  1.
</event>
<event>
12    1  0.8258923E-002  0.1843880E+03  0.7818608E-02  0.1163872E+00
         21   -1    0    0  503  502  0.00000000000E+00  0.00000000000E+00  0.16272782135E+04  0.16272782135E+04  0.00000000000E+00 0. -1.
         21   -1    0    0  501  503 -0.00000000000E+00 -0.00000000000E+00 -0.22186842125E+02  0.22186842125E+02  0.00000000000E+00 0. -1.
          6    2    1    2  501    0  0.38414026452E+02 -0.57598119234E+02  0.59652961210E+03  0.62437689975E+03  0.17089691061E+03 0.  0.
         24    2    3    3    0    0 -0.16994091472E+02  0.24474752304E+02  0.24223146773E+03  0.25647027997E+03  0.78823270049E+02 0.  0.
         -6    2    1    2    0  502 -0.38414026452E+02  0.57598119234E+02  0.10085617593E+04  0.10250881559E+04  0.16975194929E+03 0.  0.
        -24    2    5    5    0    0  0.34110955070E+02  0.51959136587E+02  0.73486379166E+03  0.74184914277E+03  0.80324648824E+02 0.  0.
          5    1    3    3  501    0  0.55408117924E+02 -0.82072871538E+02  0.35429814437E+03  0.36790661978E+03  0.47000000000E+01 0. -1.
        -11    1    4    4    0    0 -0.11810621558E+02 -0.29228280946E+01 -0.46643871493E+00  0.12175847845E+02  0.00000000000E+00 0.  1.
         12    1    4    4    0    0 -0.51834699135E+01  0.27397580399E+02  0.24269790645E+03  0.24429443212E+03  0.00000000000E+00 0. -1.
         -5    1    5    5    0  502 -0.72524981522E+02  0.56389826471E+01  0.27369796766E+03  0.28323901315E+03  0.47000000000E+01 0.  1.
         11    1    6    6    0    0 -0.92318336774E+01 -0.15867189862E+02  0.81267341142E+02  0.83314915852E+02  0.00000000000E+00 0. -1.
        -12    1    6    6    0    0  0.43342788748E+02  0.67826326449E+02  0.65359645052E+03  0.65853422692E+03  0.00000000000E+00 0.  1.
</event>
<event>
12    1  0.8258923E-002  0.1755481E+03  0.7818608E-02  0.1172630E+00
         21   -1    0    0  501  502  0.00000000000E+00  0.00000000000E+00  0.26054373257E+03  0.26054373257E+03  0.00000000000E+00 0. -1.
         21   -1    0    0  502  503 -0.00000000000E+00 -0.00000000000E+00 -0.16822383510E+03  0.16822383510E+03  0.00000000000E+00 0. -1.
         -6    2    1    2    0  503 -0.34500686436E+02  0.12983071857E+00 -0.72205100122E+02  0.18817324686E+03  0.17030936594E+03 0.  0.
        -24    2    3    3    0    0 -0.82999127595E+02  0.10476378842E+01 -0.76156079769E+02  0.13927906106E+03  0.81908214706E+02 0.  0.
          6    2    1    2  501    0  0.34500686436E+02 -0.12983071857E+00  0.16452499759E+03  0.24059432082E+03  0.17212448448E+03 0.  0.
         24    2    5    5    0    0 -0.21615949185E+02 -0.52151058102E+02  0.11783071354E+03  0.15082945545E+03  0.75355593402E+02 0.  0.
          5    1    5    5  501    0  0.56116635621E+02  0.52021227383E+02  0.46694284049E+02  0.89764865369E+02  0.47000000000E+01 0. -1.
        -11    1    6    6    0    0 -0.32364962531E+02 -0.25508461962E+02  0.14668697859E+02  0.43741777835E+02  0.00000000000E+00 0.  1.
         12    1    6    6    0    0  0.10749013346E+02 -0.26642596140E+02  0.10316201568E+03  0.10708767761E+03  0.00000000000E+00 0. -1.
         -5    1    3    3    0  503  0.48498441159E+02 -0.91780716562E+00  0.39509796469E+01  0.48894185800E+02  0.47000000000E+01 0.  1.
         13    1    4    4    0    0 -0.81869653408E+01 -0.22576256534E+02 -0.51858627094E+02  0.57149199160E+02  0.00000000000E+00 0. -1.
        -14    1    4    4    0    0 -0.74812162254E+02  0.23623894418E+02 -0.24297452675E+02  0.82129861896E+02  0.00000000000E+00 0.  1.
</event>
<event>
12    1  0.8258923E-002  0.1919936E+03  0.7818608E-02  0.1157101E+00
         21   -1    0    0  503  502  0.00000000000E+00  0.00000000000E+00  0.75634918944E+03  0.75634918944E+03  0.00000000000E+00 0.  1.
         21   -1    0    0  501  503 -0.00000000000E+00 -0.00000000000E+00 -0.18563387542E+03  0.18563387542E+03  0.00000000000E+00 0. -1.
          6    2    1    2  501    0  0.84859769514E+02  0.68868649063E+01 -0.12018822004E+03  0.22489922621E+03  0.16995836056E+03 0.  0.
         24    2    3    3    0    0 -0.52090394736E+01 -0.34232541193E+02 -0.32964939810E+02  0.92864433355E+02  0.79612277677E+02 0.  0.
         -6    2    1    2    0  502 -0.84859769514E+02 -0.68868649063E+01  0.69090353406E+03  0.71708383866E+03  0.17208407508E+03 0.  0.
        -24    2    5    5    0    0 -0.10647950308E+03  0.41540817629E+02  0.46421972072E+03  0.48423132193E+03  0.76918787863E+02 0.  0.
          5    1    3    3  501    0  0.90068808988E+02  0.41119406099E+02 -0.87223280230E+02  0.13203479286E+03  0.47000000000E+01 0. -1.
        -11    1    4    4    0    0 -0.28036187273E+02  0.57338480437E+01 -0.36870923371E+02  0.46673009336E+02  0.00000000000E+00 0.  1.
         12    1    4    4    0    0  0.22827147800E+02 -0.39966389237E+02  0.39059835612E+01  0.46191424019E+02  0.00000000000E+00 0. -1.
         -5    1    5    5    0  502  0.21619733570E+02 -0.48427682535E+02  0.22668381334E+03  0.23285251673E+03  0.47000000000E+01 0.  1.
         11    1    6    6    0    0 -0.35122602537E+02 -0.13591199019E+02  0.66560620374E+02  0.76476362912E+02  0.00000000000E+00 0. -1.
        -12    1    6    6    0    0 -0.71356900547E+02  0.55132016647E+02  0.39765910035E+03  0.40775495902E+03  0.00000000000E+00 0.  1.
</event>
<event>
12    1  0.8258923E-002  0.2409821E+03  0.7818608E-02  0.1119162E+00
         21   -1    0    0  501  502  0.00000000000E+00  0.00000000000E+00  0.74510212082E+03  0.74510212082E+03  0.00000000000E+00 0. -1.
         21   -1    0    0  502  503 -0.00000000000E+00 -0.00000000000E+00 -0.87118895245E+02  0.87118895245E+02  0.00000000000E+00 0.  1.
         -6    2    1    2    0  503  0.24489296167E+02  0.16696540419E+03  0.46430236268E+03  0.52305332620E+03  0.17184564656E+03 0.  0.
        -24    2    3    3    0    0  0.28559858383E+02  0.16961541470E+03  0.47439071223E+03  0.51091014585E+03  0.79984841464E+02 0.  0.
          6    2    1    2  501    0 -0.24489296167E+02 -0.16696540419E+03  0.19368086290E+03  0.30916768986E+03  0.17203258988E+03 0.  0.
         24    2    5    5    0    0 -0.37874915488E+02 -0.16081858303E+03  0.20989229858E+03  0.28676548324E+03  0.10431941096E+03 0.  0.
          5    1    5    5  501    0  0.13385619321E+02 -0.61468211534E+01 -0.16211435679E+02  0.22402206625E+02  0.47000000000E+01 0. -1.
        -11    1    6    6    0    0  0.49842707493E+01 -0.31016252851E+02 -0.52698505713E+01  0.31853135181E+02  0.00000000000E+00 0.  1.
         12    1    6    6    0    0 -0.42859186237E+02 -0.12980233018E+03  0.21516214915E+03  0.25491234806E+03  0.00000000000E+00 0. -1.
         -5    1    3    3    0  503 -0.40705622158E+01 -0.26500105131E+01 -0.10088349553E+02  0.12143180357E+02  0.47000000000E+01 0.  1.
         11    1    4    4    0    0 -0.24091317608E+02  0.25375660483E+02  0.67904371734E+02  0.76389262529E+02  0.00000000000E+00 0. -1.
        -12    1    4    4    0    0  0.52651175991E+02  0.14423975422E+03  0.40648634050E+03  0.43452088332E+03  0.00000000000E+00 0.  1.
</event>
<event>
12    1  0.8258923E-002  0.2100693E+03  0.7818608E-02  0.1141687E+00
         21   -1    0    0  503  502  0.00000000000E+00  0.00000000000E+00  0.28660537334E+03  0.28660537334E+03  0.00000000000E+00 0.  1.
         21   -1    0    0  501  503 -0.00000000000E+00 -0.00000000000E+00 -0.15875060558E+03  0.15875060558E+03  0.00000000000E+00 0.  1.
          6    2    1    2  501    0 -0.11642555521E+03  0.23807612805E+02  0.22623190880E+02  0.21040325592E+03  0.17215112257E+03 0.  0.
         24    2    3    3    0    0 -0.12487317293E+03 -0.28285824737E+02  0.35191728151E+02  0.15595009615E+03  0.81783724291E+02 0.  0.
         -6    2    1    2    0  502  0.11642555521E+03 -0.23807612805E+02  0.10523157688E+03  0.23495272300E+03  0.17322639793E+03 0.  0.
        -24    2    5    5    0    0  0.41832557962E+02 -0.27052919517E+02  0.12525616193E+03  0.15750776668E+03  0.81472492912E+02 0.  0.
          5    1    3    3  501    0  0.84476177240E+01  0.52093437541E+02 -0.12568537271E+02  0.54453159772E+02  0.47000000000E+01 0. -1.
        -13    1    4    4    0    0 -0.59565471963E+02 -0.48706068796E+02 -0.40868734387E+01  0.77052119518E+02  0.00000000000E+00 0.  1.
         14    1    4    4    0    0 -0.65307700970E+02  0.20420244060E+02  0.39278601590E+02  0.78897976630E+02  0.00000000000E+00 0. -1.
         -5    1    5    5    0  502  0.74592997247E+02  0.32453067124E+01 -0.20024585047E+02  0.77444956325E+02  0.47000000000E+01 0.  1.
         11    1    6    6    0    0 -0.18871565874E+02 -0.25873785585E+02  0.26439063576E+02  0.41528458457E+02  0.00000000000E+00 0. -1.
        -12    1    6    6    0    0  0.60704123837E+02 -0.11791339322E+01  0.98817098355E+02  0.11597930822E+03  0.00000000000E+00 0.  1.
</event>
<event>
12    1  0.8258923E-002  0.2209446E+03  0.7818608E-02  0.1133757E+00
         21   -1    0    0  503  502  0.00000000000E+00  0.00000000000E+00  0.25089781442E+03  0.25089781442E+03  0.00000000000E+00 0. -1.
         21   -1    0    0  501  503 -0.00000000000E+00 -0.00000000000E+00 -0.26401925465E+03  0.26401925465E+03  0.00000000000E+00 0.  1.
          6    2    1    2  501    0 -0.12583620589E+03  0.59361762970E+02 -0.14112066841E+03  0.25957353048E+03  0.16764487782E+03 0.  0.
         24    2    3    3    0    0 -0.52040351592E+02 -0.24999084462E+02 -0.32723805066E+02  0.10357817583E+03  0.79526339491E+02 0.  0.
         -6    2    1    2    0  502  0.12583620589E+03 -0.59361762970E+02  0.12799922818E+03  0.25534353858E+03  0.17163318638E+03 0.  0.
        -24    2    5    5    0    0  0.65667721849E+02 -0.34754729259E+01  0.14016594668E+03  0.17219521974E+03  0.75368245897E+02 0.  0.
          5    1    3    3  501    0 -0.73795854296E+02  0.84360847432E+02 -0.10839686334E+03  0.15599535465E+03  0.47000000000E+01 0. -1.
        -11    1    4    4    0    0 -0.71088483974E+02 -0.30153684309E+02 -0.18941667668E+02  0.79508515300E+02  0.00000000000E+00 0.  1.
         12    1    4    4    0    0  0.19048132382E+02  0.51545998474E+01 -0.13782137398E+02  0.24069660531E+02  0.00000000000E+00 0. -1.
         -5    1    5    5    0  502  0.60168484039E+02 -0.55886290044E+02 -0.12166718500E+02  0.83148318837E+02  0.47000000000E+01 0.  1.
         13    1    6    6    0    0  0.80961073804E+02  0.53928317005E+00  0.97733977000E+02  0.12691302753E+03  0.00000000000E+00 0. -1.
        -14    1    6    6    0    0 -0.15293351955E+02 -0.40147560959E+01  0.42431969677E+02  0.45282192208E+02  0.00000000000E+00 0.  1.
</event>
<event>
12    1  0.8258923E-002  0.1751222E+03  0.7818608E-02  0.1173238E+00
         21   -1    0    0  501  502  0.00000000000E+00  0.00000000000E+00  0.16000533195E+03  0.16000533195E+03  0.00000000000E+00 0. -1.
         21   -1    0    0  502  503 -0.00000000000E+00 -0.00000000000E+00 -0.22394942487E+03  0.22394942487E+03  0.00000000000E+00 0. -1.
         -6    2    1    2    0  503 -0.32706965518E+01  0.11789597373E+02 -0.10766821572E+03  0.20345662149E+03  0.17219889689E+03 0.  0.
        -24    2    3    3    0    0  0.16803686576E+02 -0.37493337296E+02 -0.11866506125E+03  0.14891481075E+03  0.80038177613E+02 0.  0.
          6    2    1    2  501    0  0.32706965518E+01 -0.11789597373E+02  0.43724122806E+02  0.18049813533E+03  0.17469426402E+03 0.  0.
         24    2    5    5    0    0  0.57145549962E+02 -0.16137265684E+02 -0.13855445322E+02  0.10138493343E+03  0.80999420598E+02 0.  0.
          5    1    5    5  501    0 -0.53874853410E+02  0.43476683106E+01  0.57579568128E+02  0.79113201904E+02  0.47000000000E+01 0. -1.
        -11    1    6    6    0    0  0.48803163228E+02  0.26356553947E+02 -0.16872550915E+02  0.57974991603E+02  0.00000000000E+00 0.  1.
         12    1    6    6    0    0  0.83423867339E+01 -0.42493819631E+02  0.30171055928E+01  0.43409941826E+02  0.00000000000E+00 0. -1.
         -5    1    3    3    0  503 -0.20074383128E+02  0.49282934669E+02  0.10996845524E+02  0.54541810742E+02  0.47000000000E+01 0.  1.
         11    1    4    4    0    0  0.13527132643E+02  0.20529582914E+02 -0.11802110922E+02  0.27271540374E+02  0.00000000000E+00 0. -1.
        -12    1    4    4    0    0  0.32765539333E+01 -0.58022920210E+02 -0.10686295033E+03  0.12164327038E+03  0.00000000000E+00 0.  1.
</event>
<event>
12    1  0.8258923E-002  0.3095097E+03  0.7818608E-02  0.1080611E+00
         21   -1    0    0  501  502  0.00000000000E+00  0.00000000000E+00  0.24935759113E+03  0.24935759113E+03  0.00000000000E+00 0.  1.
         21   -1    0    0  502  503 -0.00000000000E+00 -0.00000000000E+00 -0.11911206587E+04  0.11911206587E+04  0.00000000000E+00 0.  1.
         -6    2    1    2    0  503 -0.23292078416E+03  0.10964578319E+03 -0.10637519010E+04  0.11077959665E+04  0.17137533955E+03 0.  0.
        -24    2    3    3    0    0 -0.10683742689E+03  0.89334110847E+01 -0.32388835615E+03  0.35052444987E+03  0.80434327794E+02 0.  0.
          6    2    1    2  501    0  0.23292078416E+03 -0.10964578319E+03  0.12198883345E+03  0.33268228332E+03  0.17181948865E+03 0.  0.
         24    2    5    5    0    0  0.23976844797E+03 -0.71522142864E+02  0.76137694821E+02  0.27247664101E+03  0.76434584860E+02 0.  0.
          5    1    5    5  501    0 -0.68476638097E+01 -0.38123640329E+02  0.45851138631E+02  0.60205642305E+02  0.47000000000E+01 0. -1.
        -11    1    6    6    0    0  0.64683756436E+02 -0.52099581385E+02  0.41880464996E+02  0.93017891158E+02  0.00000000000E+00 0.  1.
         12    1    6    6    0    0  0.17508469154E+03 -0.19422561479E+02  0.34257229825E+02  0.17945874986E+03  0.00000000000E+00 0. -1.
         -5    1    3    3    0  503 -0.12608335728E+03  0.10071237211E+03 -0.73986354490E+03  0.75727151666E+03  0.47000000000E+01 0.  1.
         13    1    4    4    0    0 -0.11140422045E+03  0.26444177347E+02 -0.25942647021E+03  0.28357060549E+03  0.00000000000E+00 0. -1.
        -14    1    4    4    0    0  0.45667935640E+01 -0.17510766262E+02 -0.64461885936E+02  0.66953844378E+02  0.00000000000E+00 0.  1.
</event>
<event>
12    1  0.8258923E-002  0.1923222E+03  0.7818608E-02  0.1156586E+00
         21   -1    0    0  503  502  0.00000000000E+00  0.00000000000E+00  0.52583832223E+03  0.52583832223E+03  0.00000000000E+00 0.  1.
         21   -1    0    0  501  503 -0.00000000000E+00 -0.00000000000E+00 -0.18763183470E+03  0.18763183470E+03  0.00000000000E+00 0.  1.
          6    2    1    2  501    0 -0.66106189983E+02  0.51784497871E+02 -0.11349512046E+03  0.22253006218E+03  0.17200820804E+03 0.  0.
         24    2    3    3    0    0 -0.77508384227E+02  0.13497849960E+02 -0.13646523316E+03  0.17620951038E+03  0.78976516167E+02 0.  0.
         -6    2    1    2    0  502  0.66106189983E+02 -0.51784497871E+02  0.45170160798E+03  0.49094009475E+03  0.17302072535E+03 0.  0.
        -24    2    5    5    0    0  0.27620119959E+02  0.20187927236E+02  0.34804507552E+03  0.35892504150E+03  0.80755107499E+02 0.  0.
          5    1    3    3  501    0  0.11402194244E+02  0.38286647911E+02  0.22970112704E+02  0.46320551804E+02  0.47000000000E+01 0. -1.
        -11    1    4    4    0    0 -0.42492909259E+02  0.13599776714E+02 -0.13385712991E+03  0.14109689044E+03  0.00000000000E+00 0.  1.
         12    1    4    4    0    0 -0.35015474968E+02 -0.10192675382E+00 -0.26081032537E+01  0.35112619938E+02  0.00000000000E+00 0. -1.
         -5    1    5    5    0  502  0.38486070024E+02 -0.71972425107E+02  0.10365653246E+03  0.13201505325E+03  0.47000000000E+01 0.  1.
         13    1    6    6    0    0  0.46834585669E+02  0.34159836235E+02  0.17732132948E+03  0.18655622936E+03  0.00000000000E+00 0. -1.
        -14    1    6    6    0    0 -0.19214465711E+02 -0.13971908999E+02  0.17072374605E+03  0.17236881214E+03  0.00000000000E+00 0.  1.
</event>
<event>
12    1  0.8258923E-002  0.2142027E+03  0.7818608E-02  0.1138378E+00
         21   -1    0    0  501  502  0.00000000000E+00  0.00000000000E+00  0.88214125386E+02  0.88214125386E+02  0.00000000000E+00 0.  1.
         21   -1    0    0  502  503 -0.00000000000E+00 -0.00000000000E+00 -0.61329882278E+03  0.61329882278E+03  0.00000000000E+00 0. -1.
         -6    2    1    2    0  503 -0.11619179467E+03  0.58505291491E+02 -0.39988851492E+03  0.45340637232E+03  0.16953793621E+03 0.  0.
        -24    2    3    3    0    0 -0.55624668694E+02 -0.27061520970E+02 -0.25706379915E+03  0.27617475669E+03  0.79776373168E+02 0.  0.
          6    2    1    2  501    0  0.11619179467E+03 -0.58505291491E+02 -0.12519618248E+03  0.24810657585E+03  0.17017457681E+03 0.  0.
         24    2    5    5    0    0  0.14513045574E+03 -0.76773833705E+02 -0.10648654462E+03  0.20882138413E+03  0.72869167433E+02 0.  0.
          5    1    5    5  501    0 -0.28938661071E+02  0.18268542214E+02 -0.18709637861E+02  0.39285191715E+02  0.47000000000E+01 0. -1.
        -11    1    6    6    0    0  0.86320429798E+02 -0.40052342577E+02 -0.18738092236E+02  0.96987230330E+02  0.00000000000E+00 0.  1.
         12    1    6    6    0    0  0.58810025941E+02 -0.36721491128E+02 -0.87748452380E+02  0.11183415380E+03  0.00000000000E+00 0. -1.
         -5    1    3    3    0  503 -0.60567125974E+02  0.85566812461E+02 -0.14282471577E+03  0.17723161563E+03  0.47000000000E+01 0.  1.
         11    1    4    4    0    0 -0.57654927990E+02 -0.39220083547E+02 -0.25410343003E+03  0.26349736019E+03  0.00000000000E+00 0. -1.
        -12    1    4    4    0    0  0.20302592966E+01  0.12158562578E+02 -0.29603691237E+01  0.12677396504E+02  0.00000000000E+00 0.  1.
</event>
<event>
12    1  0.8258923E-002  0.2018601E+03  0.7818608E-02  0.1148243E+00
         21   -1    0    0  501  502  0.00000000000E+00  0.00000000000E+00  0.66269062301E+02  0.66269062301E+02  0.00000000000E+00 0.  1.
         21   -1    0    0  502  503 -0.00000000000E+00 -0.00000000000E+00 -0.90647054606E+03  0.90647054606E+03  0.00000000000E+00 0.  1.
         -6    2    1    2    0  503 -0.93319552548E+02  0.48427886113E+02 -0.69617670661E+03  0.72476651603E+03  0.17196132382E+03 0.  0.
        -24    2    3    3    0    0 -0.89110509402E+02 -0.26610116501E+02 -0.48320396010E+03  0.49887296004E+03  0.82093739216E+02 0.  0.
          6    2    1    2  501    0  0.93319552548E+02 -0.48427886113E+02 -0.14402477715E+03  0.24797309233E+03  0.17231865554E+03 0.  0.
         24    2    5    5    0    0  0.13302244693E+03 -0.36807420855E+02 -0.10700757313E+03  0.19226206624E+03  0.80401018594E+02 0.  0.
          5    1    5    5  501    0 -0.39702894379E+02 -0.11620465258E+02 -0.37017204023E+02  0.55711026096E+02  0.47000000000E+01 0. -1.
        -13    1    6    6    0    0  0.13460183587E+01 -0.12343240025E+02  0.87903706092E+01  0.15213084999E+02  0.00000000000E+00 0.  1.
         14    1    6    6    0    0  0.13167642857E+03 -0.24464180831E+02 -0.11579794374E+03  0.17704898124E+03  0.00000000000E+00 0. -1.
         -5    1    3    3    0  503 -0.42090431461E+01  0.75038002614E+02 -0.21297274651E+03  0.22589355599E+03  0.47000000000E+01 0.  1.
         11    1    4    4    0    0 -0.91223645519E+02 -0.18497864609E+02 -0.27167670119E+03  0.28717965538E+03  0.00000000000E+00 0. -1.
        -12    1    4    4    0    0  0.21131361170E+01 -0.81122518925E+01 -0.21152725891E+03  0.21169330466E+03  0.00000000000E+00 0.  1.
</event>
<event>
12    1  0.8258923E-002  0.1961414E+03  0.7818608E-02  0.1154724E+00
         21   -1    0    0  503  502  0.00000000000E+00  0.00000000000E+00  0.10148982780E+03  0.10148982780E+03  0.00000000000E+00 0.  1.
         21   -1    0    0  501  503 -0.00000000000E+00 -0.00000000000E+00 -0.10294659986E+04  0.10294659986E+04  0.00000000000E+00 0.  1.
          6    2    1    2  501    0  0.88286265418E+02  0.94915125177E+01 -0.92171098129E+03  0.94234949687E+03  0.17489107393E+03 0.  0.
         24    2    3    3    0    0  0.58388218059E+02  0.58956706330E+02 -0.79083444685E+03  0.79920112663E+03  0.80113926682E+02 0.  0.
         -6    2    1    2    0  502 -0.88286265418E+02 -0.94915125177E+01 -0.62651895291E+01  0.18860632956E+03  0.16627850577E+03 0.  0.
        -24    2    5    5    0    0 -0.97855888445E+01  0.28079550969E+02 -0.42115684400E+02  0.94365738433E+02  0.79037603619E+02 0.  0.
          5    1    3    3  501    0  0.29898047358E+02 -0.49465193813E+02 -0.13087653444E+03  0.14314837024E+03  0.47000000000E+01 0. -1.
        -11    1    4    4    0    0 -0.45094257484E+00 -0.10343710368E+02 -0.28986779899E+03  0.29005264451E+03  0.00000000000E+00 0.  1.
         12    1    4    4    0    0  0.58839160634E+02  0.69300416698E+02 -0.50096664786E+03  0.50914848212E+03  0.00000000000E+00 0. -1.
         -5    1    5    5    0  502 -0.78500676573E+02 -0.37571063486E+02  0.35850494871E+02  0.94240591129E+02  0.47000000000E+01 0.  1.
         13    1    6    6    0    0 -0.35068323267E+01  0.14393983745E+02 -0.65168473600E+02  0.66831239644E+02  0.00000000000E+00 0. -1.
        -14    1    6    6    0    0 -0.62787565178E+01  0.13685567224E+02  0.23052789200E+02  0.27534498789E+02  0.00000000000E+00 0.  1.
</event>
<event>
12    1  0.8258923E-002  0.1915664E+03  0.7818608E-02  0.1157059E+00
         21   -1    0    0  501  502  0.00000000000E+00  0.00000000000E+00  0.18314511520E+03  0.18314511520E+03  0.00000000000E+00 0.  1.
         21   -1    0    0  502  503 -0.00000000000E+00 -0.00000000000E+00 -0.24315071455E+03  0.24315071455E+03  0.00000000000E+00 0. -1.
         -6    2    1    2    0  503 -0.30599983307E+02  0.81844326924E+02 -0.11941815870E+03  0.22573959919E+03  0.17047820150E+03 0.  0.
        -24    2    3    3    0    0 -0.64983841063E+01  0.11010341376E+03 -0.12811763601E+03  0.18730479753E+03  0.80647181009E+02 0.  0.
          6    2    1    2  501    0  0.30599983307E+02 -0.81844326924E+02  0.59412559343E+02  0.20055623056E+03  0.17046435575E+03 0.  0.
         24    2    5    5    0    0  0.13899607949E+02  0.17623781147E+01  0.75503971093E+02  0.11366545316E+03  0.83801435035E+02 0.  0.
          5    1    5    5  501    0  0.16700375359E+02 -0.83606705038E+02 -0.16091411750E+02  0.86890777397E+02  0.47000000000E+01 0. -1.
        -11    1    6    6    0    0 -0.17735697739E+02 -0.31608151759E+02  0.19346917072E+02  0.41084467042E+02  0.00000000000E+00 0.  1.
         12    1    6    6    0    0  0.31635305688E+02  0.33370529873E+02  0.56157054021E+02  0.72580986121E+02  0.00000000000E+00 0. -1.
         -5    1    3    3    0  503 -0.24101599201E+02 -0.28259086837E+02  0.86994773127E+01  0.38434801657E+02  0.47000000000E+01 0.  1.
         11    1    4    4    0    0  0.29058411706E+01  0.26021530009E+02 -0.91396995356E+02  0.95073522587E+02  0.00000000000E+00 0. -1.
        -12    1    4    4    0    0 -0.94042252770E+01  0.84081883752E+02 -0.36720640652E+02  0.92231274946E+02  0.00000000000E+00 0.  1.
</event>
<event>
12    1  0.8258923E-002  0.2448302E+03  0.7818608E-02  0.1116671E+00
         21   -1    0    0  503  502  0.00000000000E+00  0.00000000000E+00  0.29871120554E+03  0.29871120554E+03  0.00000000000E+00 0. -1.
         21   -1    0    0  501  503 -0.00000000000E+00 -0.00000000000E+00 -0.20514315186E+03  0.20514315186E+03  0.00000000000E+00 0.  1.
          6    2    1    2  501    0  0.13492780329E+03  0.11008983021E+03  0.84088935556E+01  0.24463647686E+03  0.17161297592E+03 0.  0.
         24    2    3    3    0    0  0.86602575318E+02  0.34149709673E+02  0.64876463740E+02  0.13827433111E+03  0.79022948410E+02 0.  0.
         -6    2    1    2    0  502 -0.13492780329E+03 -0.11008983021E+03  0.85159160126E+02  0.25921788055E+03  0.17209457930E+03 0.  0.
        -24    2    5    5    0    0 -0.23585323787E+02 -0.78218092456E+02  0.17558156855E+02  0.12503538895E+03  0.93011946173E+02 0.  0.
          5    1    3    3  501    0  0.48325227970E+02  0.75940120536E+02 -0.56467570184E+02  0.10636214575E+03  0.47000000000E+01 0. -1.
        -13    1    4    4    0    0  0.79877899684E+02 -0.55623536764E+01  0.53918141357E+02  0.96532816202E+02  0.00000000000E+00 0.  1.
         14    1    4    4    0    0  0.67246756339E+01  0.39712063349E+02  0.10958322383E+02  0.41741514913E+02  0.00000000000E+00 0. -1.
         -5    1    5    5    0  502 -0.11134247950E+03 -0.31871737752E+02  0.67601003271E+02  0.13418249160E+03  0.47000000000E+01 0.  1.
         13    1    6    6    0    0 -0.37174204860E+02 -0.87893602266E+02 -0.66199419341E+01  0.95661018485E+02  0.00000000000E+00 0. -1.
        -14    1    6    6    0    0  0.13588881073E+02  0.96755098098E+01  0.24178098789E+02  0.29374370460E+02  0.00000000000E+00 0.  1.
</event>
<event>
12    1  0.8258923E-002  0.1970679E+03  0.7818608E-02  0.1152923E+00
         21   -1    0    0  501  502  0.00000000000E+00  0.00000000000E+00  0.36966431923E+03  0.36966431923E+03  0.00000000000E+00 0. -1.
         21   -1    0    0  502  503 -0.00000000000E+00 -0.00000000000E+00 -0.10570518722E+03  0.10570518722E+03  0.00000000000E+00 0. -1.
         -6    2    1    2    0  503  0.85895432280E+02 -0.40958837763E+02  0.95651084296E+02  0.21621056661E+03  0.16894445096E+03 0.  0.
        -24    2    3    3    0    0  0.50014262739E+02  0.35119993737E+02  0.18804575535E+02  0.10218020733E+03  0.79701582610E+02 0.  0.
          6    2    1    2  501    0 -0.85895432280E+02  0.40958837763E+02  0.16830804771E+03  0.25915893984E+03  0.17256913252E+03 0.  0.
         24    2    5    5    0    0  0.15761319368E+01  0.27626598919E+02  0.13548012302E+03  0.16466668736E+03  0.89412197346E+02 0.  0.
          5    1    5    5  501    0 -0.87471564217E+02  0.13332238844E+02  0.32827924692E+02  0.94492252480E+02  0.47000000000E+01 0. -1.
        -13    1    6    6    0    0  0.24120576470E+02 -0.25797086208E+02  0.45063872837E+02  0.57254209462E+02  0.00000000000E+00 0.  1.
         14    1    6    6    0    0 -0.22544444533E+02  0.53423685127E+02  0.90416250183E+02  0.10741247790E+03  0.00000000000E+00 0. -1.
         -5    1    3    3    0  503  0.35881169541E+02 -0.76078831500E+02  0.76846508761E+02  0.11403035929E+03  0.47000000000E+01 0.  1.
         13    1    4    4    0    0  0.22777949169E+02 -0.21421672998E+02  0.23691988701E+02  0.39230515813E+02  0.00000000000E+00 0. -1.
        -14    1    4    4    0    0  0.27236313571E+02  0.56541666735E+02 -0.48874131660E+01  0.62949691513E+02  0.00000000000E+00 0.  1.
</event>
<event>
12    1  0.8258923E-002  0.1785059E+03  0.7818608E-02  0.1172863E+00
         21   -1    0    0  503  502  0.00000000000E+00  0.00000000000E+00  0.34165961895E+03  0.34165961895E+03  0.00000000000E+00 0.  1.
         21   -1    0    0  501  503 -0.00000000000E+00 -0.00000000000E+00 -0.92635814488E+02  0.92635814488E+02  0.00000000000E+00 0.  1.
          6    2    1    2  501    0  0.42208298787E+02 -0.17673009974E+02  0.61853301594E+02  0.17565057954E+03  0.15790319631E+03 0.  0.
         24    2    3    3    0    0  0.29700365139E+02  0.70688719562E+01  0.98030432493E+02  0.12983045377E+03  0.79460055315E+02 0.  0.
         -6    2    1    2    0  502 -0.42208298787E+02  0.17673009974E+02  0.18717050287E+03  0.25864485390E+03  0.17254126329E+03 0.  0.
        -24    2    5    5    0    0 -0.40753291915E+01 -0.51677949960E+02  0.67839182447E+02  0.11537680775E+03  0.77604344412E+02 0.  0.
          5    1    3    3  501    0  0.12507933648E+02 -0.24741881931E+02 -0.36177130898E+02  0.45820125771E+02  0.47000000000E+01 0. -1.
        -13    1    4    4    0    0  0.16246359115E+02 -0.22629805334E+02  0.92697757406E+02  0.96793215165E+02  0.00000000000E+00 0.  1.
         14    1    4    4    0    0  0.13454006024E+02  0.29698677290E+02  0.53326750867E+01  0.33037238602E+02  0.00000000000E+00 0. -1.
         -5    1    5    5    0  502 -0.38132969596E+02  0.69350959935E+02  0.11933132042E+03  0.14326804615E+03  0.47000000000E+01 0.  1.
         13    1    6    6    0    0 -0.87406417515E+01  0.18353121580E+02  0.28222946130E+02  0.34781756400E+02  0.00000000000E+00 0. -1.
        -14    1    6    6    0    0  0.46653125600E+01 -0.70031071541E+02  0.39616236317E+02  0.80595051351E+02  0.00000000000E+00 0.  1.
</event>
<event>
12    1  0.8258923E-002  0.1839040E+03  0.7818608E-02  0.1164526E+00
         21   -1    0    0  501  502  0.00000000000E+00  0.00000000000E+00  0.17609145766E+02  0.17609145766E+02  0.00000000000E+00 0. -1.
         21   -1    0    0  502  503 -0.00000000000E+00 -0.00000000000E+00 -0.19031581303E+04  0.19031581303E+04  0.00000000000E+00 0. -1.
         -6    2    1    2    0  503  0.64989591056E+02  0.77668634242E+01 -0.97124569856E+03  0.98815203487E+03  0.16983010904E+03 0.  0.
        -24    2    3    3    0    0  0.72250374839E+02  0.71334689819E+02 -0.56018075738E+03  0.57211109530E+03  0.56567391561E+02 0.  0.
          6    2    1    2  501    0 -0.64989591056E+02 -0.77668634242E+01 -0.91430328595E+03  0.93261524117E+03  0.17186249809E+03 0.  0.
         24    2    5    5    0    0  0.64016489477E+01 -0.47195766625E+02 -0.27939297409E+03  0.29247108423E+03  0.72183652193E+02 0.  0.
          5    1    5    5  501    0 -0.71391240004E+02  0.39428903200E+02 -0.63491031186E+03  0.64014415694E+03  0.47000000000E+01 0. -1.
        -13    1    6    6    0    0  0.24508197528E+02  0.98935258206E+01 -0.77569818363E+02  0.81948827448E+02  0.00000000000E+00 0.  1.
         14    1    6    6    0    0 -0.18106548580E+02 -0.57089292445E+02 -0.20182315573E+03  0.21052225678E+03  0.00000000000E+00 0. -1.
         -5    1    3    3    0  503 -0.72607837829E+01 -0.63567826395E+02 -0.41106494117E+03  0.41604093957E+03  0.47000000000E+01 0.  1.
         13    1    4    4    0    0  0.53968679091E+02  0.24837692914E+02 -0.39798146271E+03  0.40239131945E+03  0.00000000000E+00 0. -1.
        -14    1    4    4    0    0  0.18281695748E+02  0.46496996906E+02 -0.16219929468E+03  0.16971977585E+03  0.00000000000E+00 0.  1.
</event>
<event>
12    1  0.8258923E-002  0.2540935E+03  0.7818608E-02  0.1110900E+00
         21   -1    0    0  501  502  0.00000000000E+00  0.00000000000E+00  0.35815338690E+03  0.35815338690E+03  0.00000000000E+00 0. -1.
         21   -1    0    0  502  503 -0.00000000000E+00 -0.00000000000E+00 -0.19628011084E+03  0.19628011084E+03  0.00000000000E+00 0. -1.
         -6    2    1    2    0  503  0.19492122418E+02  0.18642034741E+03  0.17135423950E+00  0.25409360353E+03  0.17155477617E+03 0.  0.
        -24    2    3    3    0    0  0.44658761675E+02  0.14752702532E+03  0.55326379336E+02  0.18191177044E+03  0.79197574335E+02 0.  0.
          6    2    1    2  501    0 -0.19492122418E+02 -0.18642034741E+03  0.16170192182E+03  0.30033989421E+03  0.17007072578E+03 0.  0.
         24    2    5    5    0    0  0.29478360440E+01 -0.17237440083E+03  0.18449099859E+03  0.26509400975E+03  0.80723488815E+02 0.  0.
          5    1    5    5  501    0 -0.22439958462E+02 -0.14045946584E+02 -0.22789076770E+02  0.35245884458E+02  0.47000000000E+01 0. -1.
        -13    1    6    6    0    0  0.17492610303E+02 -0.47427024241E+02  0.12608687115E+02  0.52098877476E+02  0.00000000000E+00 0.  1.
         14    1    6    6    0    0 -0.14544774259E+02 -0.12494737659E+03  0.17188231147E+03  0.21299513227E+03  0.00000000000E+00 0. -1.
         -5    1    3    3    0  503 -0.25166639258E+02  0.38893322090E+02 -0.55155025096E+02  0.72181833089E+02  0.47000000000E+01 0.  1.
         11    1    4    4    0    0  0.23335059832E+02  0.84116920025E+02 -0.10663559189E+02  0.87942553672E+02  0.00000000000E+00 0. -1.
        -12    1    4    4    0    0  0.21323701844E+02  0.63410105298E+02  0.65989938524E+02  0.93969216771E+02  0.00000000000E+00 0.  1.
</event>
<event>
12    1  0.8258923E-002  0.2322598E+03  0.7818608E-02  0.1125305E+00
         21   -1    0    0  501  502  0.00000000000E+00  0.00000000000E+00  0.11985650957E+03  0.11985650957E+03  0.00000000000E+00 0. -1.
         21   -1    0    0  502  503 -0.00000000000E+00 -0.00000000000E+00 -0.46571352293E+03  0.46571352293E+03  0.00000000000E+00 0. -1.
         -6    2    1    2    0  503 -0.15400201103E+03  0.15836595187E+02 -0.23157984264E+03  0.32798452311E+03  0.17313926976E+03 0.  0.
        -24    2    3    3    0    0 -0.16429377871E+03 -0.22991697490E+02 -0.21755586296E+03  0.28517893002E+03  0.80469899592E+02 0.  0.
          6    2    1    2  501    0  0.15400201103E+03 -0.15836595187E+02 -0.11427717072E+03  0.25758550938E+03  0.17124136692E+03 0.  0.
         24    2    5    5    0    0  0.51736749625E+02  0.14926256982E+02  0.38307673526E+01  0.98286696454E+02  0.82134739983E+02 0.  0.
          5    1    5    5  501    0  0.10226526141E+03 -0.30762852169E+02 -0.11810793807E+03  0.15929881293E+03  0.47000000000E+01 0. -1.
        -11    1    6    6    0    0  0.24734274192E+02  0.33131963636E+02 -0.30186892449E+02  0.51193357088E+02  0.00000000000E+00 0.  1.
         12    1    6    6    0    0  0.27002475433E+02 -0.18205706654E+02  0.34017659801E+02  0.47093339366E+02  0.00000000000E+00 0. -1.
         -5    1    3    3    0  503  0.10291767677E+02  0.38828292677E+02 -0.14023979678E+02  0.42805593094E+02  0.47000000000E+01 0.  1.
         11    1    4    4    0    0 -0.84880441288E+02  0.76004542518E+01 -0.54230779813E+02  0.10101204729E+03  0.00000000000E+00 0. -1.
        -12    1    4    4    0    0 -0.79413337423E+02 -0.30592151742E+02 -0.16332508315E+03  0.18416688273E+03  0.00000000000E+00 0.  1.
</event>
<event>
12    1  0.8258923E-002  0.1958869E+03  0.7818608E-02  0.1153422E+00
         21   -1    0    0  501  502  0.00000000000E+00  0.00000000000E+00  0.14140920169E+04  0.14140920169E+04  0.00000000000E+00 0.  1.
         21   -1    0    0  502  503 -0.00000000000E+00 -0.00000000000E+00 -0.33990752836E+02  0.33990752836E+02  0.00000000000E+00 0.  1.
         -6    2    1    2    0  503  0.12792198193E+01  0.94676595234E+02  0.36346272688E+03  0.41288838856E+03  0.17148286646E+03 0.  0.
        -24    2    3    3    0    0 -0.38341293409E+02  0.11971105823E+03  0.25556957021E+03  0.29516187216E+03  0.77485052233E+02 0.  0.
          6    2    1    2  501    0 -0.12792198193E+01 -0.94676595234E+02  0.10166385372E+04  0.10351943812E+04  0.17061124652E+03 0.  0.
         24    2    5    5    0    0  0.26242554508E+00 -0.63833692816E+02  0.98649766274E+03  0.99178673654E+03  0.79927986292E+02 0.  0.
          5    1    5    5  501    0 -0.15416453643E+01 -0.30842902418E+02  0.30140874446E+02  0.43407644631E+02  0.47000000000E+01 0. -1.
        -13    1    6    6    0    0 -0.99920141522E+01 -0.81307966587E+02  0.80857256526E+03  0.81271176875E+03  0.00000000000E+00 0.  1.
         14    1    6    6    0    0  0.10254439697E+02  0.17474273770E+02  0.17792509748E+03  0.17907496779E+03  0.00000000000E+00 0. -1.
         -5    1    3    3    0  503  0.39620513228E+02 -0.25034462998E+02  0.10789315667E+03  0.11772651639E+03  0.47000000000E+01 0.  1.
         11    1    4    4    0    0  0.79962494679E+01  0.56805391270E+02  0.16938075762E+03  0.17883129909E+03  0.00000000000E+00 0. -1.
        -12    1    4    4    0    0 -0.46337542877E+02  0.62905666963E+02  0.86188812586E+02  0.11633057307E+03  0.00000000000E+00 0.  1.
</event>
<event>
12    1  0.8258923E-002  0.1828135E+03  0.7818608E-02  0.1166289E+00
         21   -1    0    0  501  502  0.00000000000E+00  0.00000000000E+00  0.79038375335E+03  0.79038375335E+03  0.00000000000E+00 0. -1.
         21   -1    0    0  502  503 -0.00000000000E+00 -0.00000000000E+00 -0.57263240172E+02  0.57263240172E+02  0.00000000000E+00 0. -1.
         -6    2    1    2    0  503 -0.49159146203E+02 -0.10505467117E+02  0.13820573856E+03  0.22527703040E+03  0.17065148040E+03 0.  0.
        -24    2    3    3    0    0  0.39186599299E+02 -0.12893987864E+01  0.68184899266E+02  0.11207405077E+03  0.79838338244E+02 0.  0.
          6    2    1    2  501    0  0.49159146203E+02  0.10505467117E+02  0.59491477462E+03  0.62236996312E+03  0.17576630915E+03 0.  0.
         24    2    5    5    0    0  0.42426773125E+02  0.73350171226E+02  0.43490997589E+03  0.45026997097E+03  0.80100442744E+02 0.  0.
          5    1    5    5  501    0  0.67323730775E+01 -0.62844704109E+02  0.16000479873E+03  0.17209999215E+03  0.47000000000E+01 0. -1.
        -11    1    6    6    0    0  0.15362625843E+01  0.32871179527E+02  0.42938233263E+02  0.54097748770E+02  0.00000000000E+00 0.  1.
         12    1    6    6    0    0  0.40890510541E+02  0.40478991699E+02  0.39197174263E+03  0.39617222220E+03  0.00000000000E+00 0. -1.
         -5    1    3    3    0  503 -0.88345745502E+02 -0.92160683310E+01  0.70020839291E+02  0.11320297964E+03  0.47000000000E+01 0.  1.
         13    1    4    4    0    0 -0.39968530309E+01 -0.33288087189E+02  0.15956787924E+02  0.37130723986E+02  0.00000000000E+00 0. -1.
        -14    1    4    4    0    0  0.43183452330E+02  0.31998688403E+02  0.52228111341E+02  0.74943326780E+02  0.00000000000E+00 0.  1.
</event>
<event>
12    1  0.8258923E-002  0.2024308E+03  0.7818608E-02  0.1148732E+00
         21   -1    0    0  501  502  0.00000000000E+00  0.00000000000E+00  0.11253992750E+03  0.11253992750E+03  0.00000000000E+00 0. -1.
         21   -1    0    0  502  503 -0.00000000000E+00 -0.00000000000E+00 -0.42333996500E+03  0.42333996500E+03  0.00000000000E+00 0.  1.
         -6    2    1    2    0  503  0.10566936145E+03  0.18279288023E+02 -0.26115080705E+03  0.32744939436E+03  0.16590122218E+03 0.  0.
        -24    2    3    3    0    0 -0.10052830203E+01  0.14136356583E+02 -0.16399312560E+03  0.18302519722E+03  0.80022686793E+02 0.  0.
          6    2    1    2  501    0 -0.10566936145E+03 -0.18279288023E+02 -0.49649230451E+02  0.20843049814E+03  0.17169181737E+03 0.  0.
         24    2    5    5    0    0 -0.13198191760E+03 -0.25021972262E+02 -0.73525348379E+02  0.17196169765E+03  0.78227379693E+02 0.  0.
          5    1    5    5  501    0  0.26312556154E+02  0.67426842388E+01  0.23876117928E+02  0.36468800493E+02  0.47000000000E+01 0. -1.
        -11    1    6    6    0    0 -0.26055317731E+02 -0.38681982899E+02 -0.10016587519E+02  0.47702278862E+02  0.00000000000E+00 0.  1.
         12    1    6    6    0    0 -0.10592659987E+03  0.13660010637E+02 -0.63508760860E+02  0.12425941879E+03  0.00000000000E+00 0. -1.
         -5    1    3    3    0  503  0.10667464447E+03  0.41429314401E+01 -0.97157681446E+02  0.14442419713E+03  0.47000000000E+01 0.  1.
         11    1    4    4    0    0  0.62812518748E+01 -0.75038227546E+01  0.60175797535E+01  0.11487939203E+02  0.00000000000E+00 0. -1.
        -12    1    4    4    0    0 -0.72865348951E+01  0.21640179338E+02 -0.17001070536E+03  0.17153725802E+03  0.00000000000E+00 0.  1.
</event>
<event>
12    1  0.8258923E-002  0.1905979E+03  0.7818608E-02  0.1157973E+00
         21   -1    0    0  503  502  0.00000000000E+00  0.00000000000E+00  0.63020990742E+02  0.63020990742E+02  0.00000000000E+00 0.  1.
         21   -1    0    0  501  503 -0.00000000000E+00 -0.00000000000E+00 -0.59664429047E+03  0.59664429047E+03  0.00000000000E+00 0.  1.
          6    2    1    2  501    0 -0.81405731409E+02 -0.53974457803E+01 -0.32865678265E+03  0.37992480124E+03  0.17225431283E+03 0.  0.
         24    2    3    3    0    0 -0.10086165426E+03  0.12637630297E+01 -0.33462993987E+03  0.35800053971E+03  0.77540437050E+02 0.  0.
         -6    2    1    2    0  502  0.81405731409E+02  0.53974457803E+01 -0.20496651708E+03  0.27974047997E+03  0.17200999240E+03 0.  0.
        -24    2    5    5    0    0  0.10250207756E+03  0.36016534769E+02 -0.20152048301E+03  0.24210340274E+03  0.78738083950E+02 0.  0.
          5    1    3    3  501    0  0.19455922847E+02 -0.66612088100E+01  0.59731572177E+01  0.21924261534E+02  0.47000000000E+01 0. -1.
        -11    1    4    4    0    0 -0.33355211152E+01  0.24762098306E+02 -0.44743728884E+02  0.51247326643E+02  0.00000000000E+00 0.  1.
         12    1    4    4    0    0 -0.97526133142E+02 -0.23498335276E+02 -0.28988621098E+03  0.30675321306E+03  0.00000000000E+00 0. -1.
         -5    1    5    5    0  502 -0.21096346153E+02 -0.30619088989E+02 -0.34460340629E+01  0.37637077228E+02  0.47000000000E+01 0.  1.
         11    1    6    6    0    0  0.27281566100E+01  0.26344570623E+02 -0.81675879631E+02  0.85862847339E+02  0.00000000000E+00 0. -1.
        -12    1    6    6    0    0  0.99773920952E+02  0.96719641462E+01 -0.11984460338E+03  0.15624055540E+03  0.00000000000E+00 0.  1.
</event>
<event>
12    1  0.8258923E-002  0.2034266E+03  0.7818608E-02  0.1147450E+00
         21   -1    0    0  503  502  0.00000000000E+00  0.00000000000E+00  0.57011746992E+02  0.57011746992E+02  0.00000000000E+00 0.  1.
         21   -1    0    0  501  503 -0.00000000000E+00 -0.00000000000E+00 -0.71809324835E+03  0.71809324835E+03  0.00000000000E+00 0.  1.
          6    2    1    2  501    0 -0.49461648074E+02 -0.95694598693E+02 -0.31232315869E+03  0.37273065534E+03  0.17256440864E+03 0.  0.
         24    2    3    3    0    0 -0.55291167223E+02 -0.13062640361E+03 -0.20952322341E+03  0.26389991069E+03  0.74985406718E+02 0.  0.
         -6    2    1    2    0  502  0.49461648074E+02  0.95694598693E+02 -0.34875834267E+03  0.40237434000E+03  0.16931868491E+03 0.  0.
        -24    2    5    5    0    0  0.24119698527E+02  0.99406645476E+02 -0.13499982759E+03  0.18703556860E+03  0.79334163203E+02 0.  0.
          5    1    3    3  501    0  0.58295191485E+01  0.34931804918E+02 -0.10279993528E+03  0.10883074465E+03  0.47000000000E+01 0. -1.
        -13    1    4    4    0    0 -0.59429308009E+02 -0.71852546074E+02 -0.85139408176E+02  0.12626697847E+03  0.00000000000E+00 0.  1.
         14    1    4    4    0    0  0.41381407859E+01 -0.58773857537E+02 -0.12438381523E+03  0.13763293222E+03  0.00000000000E+00 0. -1.
         -5    1    5    5    0  502  0.25341949547E+02 -0.37120467830E+01 -0.21375851508E+03  0.21533877140E+03  0.47000000000E+01 0.  1.
         13    1    6    6    0    0  0.23072140239E+02  0.36864806447E+01 -0.23925310259E+01  0.23486975102E+02  0.00000000000E+00 0. -1.
        -14    1    6    6    0    0  0.10475582882E+01  0.95720164831E+02 -0.13260729656E+03  0.16354859350E+03  0.00000000000E+00 0.  1.
</event>
<event>
12    1  0.8258923E-002  0.2562028E+03  0.7818608E-02  0.1111071E+00
         21   -1    0    0  503  502  0.00000000000E+00  0.00000000000E+00  0.16154087903E+04  0.16154087903E+04  0.00000000000E+00 0. -1.
         21   -1    0    0  501  503 -0.00000000000E+00 -0.00000000000E+00 -0.60157353974E+02  0.60157353974E+02  0.00000000000E+00 0.  1.
          6    2    1    2  501    0  0.17010013243E+03  0.37991277270E+02  0.27047738821E+03  0.36549583104E+03  0.17335452914E+03 0.  0.
         24    2    3    3    0    0  0.30805991559E+02  0.16340297025E+02  0.17538611243E+03  0.19538979542E+03  0.78745598590E+02 0.  0.
         -6    2    1    2    0  502 -0.17010013243E+03 -0.37991277270E+02  0.12847740481E+04  0.13100703132E+04  0.18778306287E+03 0.  0.
        -24    2    5    5    0    0 -0.50376137679E+02 -0.70900108075E+02  0.42203959577E+03  0.43843412116E+03  0.80885583561E+02 0.  0.
          5    1    3    3  501    0  0.13929414087E+03  0.21650980246E+02  0.95091275781E+02  0.17010603562E+03  0.47000000000E+01 0. -1.
        -11    1    4    4    0    0  0.47012509730E+02  0.29658039822E+02  0.78059173208E+02  0.95828022619E+02  0.00000000000E+00 0.  1.
         12    1    4    4    0    0 -0.16206518171E+02 -0.13317742797E+02  0.97326939222E+02  0.99561772799E+02  0.00000000000E+00 0. -1.
         -5    1    5    5    0  502 -0.11972399475E+03  0.32908830805E+02  0.86273445234E+03  0.87163619207E+03  0.47000000000E+01 0.  1.
         11    1    6    6    0    0 -0.14862561241E+02 -0.40505709333E+02  0.34939974452E+03  0.35205367444E+03  0.00000000000E+00 0. -1.
        -12    1    6    6    0    0 -0.35513576438E+02 -0.30394398742E+02  0.72639851250E+02  0.86380446722E+02  0.00000000000E+00 0.  1.
</event>
<event>
12    1  0.8258923E-002  0.1970749E+03  0.7818608E-02  0.1152354E+00
         21   -1    0    0  501  502  0.00000000000E+00  0.00000000000E+00  0.64311444885E+03  0.64311444885E+03  0.00000000000E+00 0. -1.
         21   -1    0    0  502  503 -0.00000000000E+00 -0.00000000000E+00 -0.14779373642E+03  0.14779373642E+03  0.00000000000E+00 0.  1.
         -6    2    1    2    0  503  0.81289437278E+02  0.52938814338E+02 -0.56900478335E+02  0.20457487426E+03  0.17088804542E+03 0.  0.
        -24    2    3    3    0    0 -0.14793151300E+02  0.44090254346E+02  0.36238332958E+01  0.90577316651E+02  0.77642322675E+02 0.  0.
          6    2    1    2  501    0 -0.81289437278E+02 -0.52938814338E+02  0.55222119076E+03  0.58633331102E+03  0.17154596296E+03 0.  0.
         24    2    5    5    0    0 -0.83193214618E+02 -0.96510045601E+02  0.38042194520E+03  0.40902243335E+03  0.79644175793E+02 0.  0.
          5    1    5    5  501    0  0.19037773400E+01  0.43571231263E+02  0.17179924557E+03  0.17731087767E+03  0.47000000000E+01 0. -1.
        -13    1    6    6    0    0 -0.28344855192E+01 -0.48687023941E+02  0.73804190207E+02  0.88461964145E+02  0.00000000000E+00 0.  1.
         14    1    6    6    0    0 -0.80358729099E+02 -0.47823021660E+02  0.30661775499E+03  0.32056046921E+03  0.00000000000E+00 0. -1.
         -5    1    3    3    0  503  0.96082588579E+02  0.88485599915E+01 -0.60524311630E+02  0.11399755761E+03  0.47000000000E+01 0.  1.
         13    1    4    4    0    0  0.15594371770E+02  0.51687630522E+02 -0.12398797569E+02  0.55394275525E+02  0.00000000000E+00 0. -1.
        -14    1    4    4    0    0 -0.30387523070E+02 -0.75973761754E+01  0.16022630865E+02  0.35183041126E+02  0.00000000000E+00 0.  1.
</event>
<event>
12    1  0.8258923E-002  0.1764848E+03  0.7818608E-02  0.1171793E+00
         21   -1    0    0  501  502  0.00000000000E+00  0.00000000000E+00  0.18098100881E+03  0.18098100881E+03  0.00000000000E+00 0. -1.
         21   -1    0    0  502  503 -0.00000000000E+00 -0.00000000000E+00 -0.17736387221E+03  0.17736387221E+03  0.00000000000E+00 0. -1.
         -6    2    1    2    0  503 -0.37839508755E+02  0.81936183211E+01  0.38339024240E+02  0.17847691749E+03  0.16995636349E+03 0.  0.
        -24    2    3    3    0    0  0.24419366092E+02  0.59759932272E+00 -0.25125849876E+02  0.89125100222E+02  0.81947010880E+02 0.  0.
          6    2    1    2  501    0  0.37839508755E+02 -0.81936183211E+01 -0.34721887637E+02  0.17986796354E+03  0.17218568763E+03 0.  0.
         24    2    5    5    0    0  0.21621271757E+02 -0.47180939637E+02 -0.75464420082E+02  0.12100297917E+03  0.79077947702E+02 0.  0.
          5    1    5    5  501    0  0.16218236998E+02  0.38987321316E+02  0.40742532445E+02  0.58864984369E+02  0.47000000000E+01 0. -1.
        -13    1    6    6    0    0 -0.30105966605E+02 -0.16620293503E+02 -0.24585154938E+02  0.42273315752E+02  0.00000000000E+00 0.  1.
         14    1    6    6    0    0  0.51727238362E+02 -0.30560646133E+02 -0.50879265144E+02  0.78729663420E+02  0.00000000000E+00 0. -1.
         -5    1    3    3    0  503 -0.62258874847E+02  0.75960189984E+01  0.63464874116E+02  0.89351817264E+02  0.47000000000E+01 0.  1.
         13    1    4    4    0    0 -0.18265278355E+02 -0.51924266529E+01  0.19418412384E+02  0.27159831138E+02  0.00000000000E+00 0. -1.
        -14    1    4    4    0    0  0.42684644447E+02  0.57900259756E+01 -0.44544262260E+02  0.61965269084E+02  0.00000000000E+00 0.  1.
</event>
<event>
12    1  0.8258923E-002  0.1801171E+03  0.7818608E-02  0.1168073E+00
         21   -1    0    0  501  502  0.00000000000E+00  0.00000000000E+00  0.46288102086E+03  0.46288102086E+03  0.00000000000E+00 0. -1.
         21   -1    0    0  502  503 -0.00000000000E+00 -0.00000000000E+00 -0.17574251129E+03  0.17574251129E+03  0.00000000000E+00 0.  1.
         -6    2    1    2    0  503 -0.48268817139E+02 -0.17277823851E+02 -0.10497943655E+03  0.20711613020E+03  0.17102048821E+03 0.  0.
        -24    2    3    3    0    0 -0.88906111556E+02 -0.18023249741E+02 -0.36399398988E+02  0.12725840102E+03  0.81490184570E+02 0.  0.
          6    2    1    2  501    0  0.48268817139E+02  0.17277823851E+02  0.39211794612E+03  0.43150740194E+03  0.17266659306E+03 0.  0.
         24    2    5    5    0    0  0.80642271609E+02  0.58304297997E+02  0.29141014917E+03  0.31794965231E+03  0.79180422024E+02 0.  0.
          5    1    5    5  501    0 -0.32373454470E+02 -0.41026474146E+02  0.10070779695E+03  0.11355774963E+03  0.47000000000E+01 0. -1.
        -13    1    6    6    0    0  0.84899880918E+02  0.55736034651E+02  0.18194005009E+03  0.20836668919E+03  0.00000000000E+00 0.  1.
         14    1    6    6    0    0 -0.42576093096E+01  0.25682633467E+01  0.10947009908E+03  0.10958296312E+03  0.00000000000E+00 0. -1.
         -5    1    3    3    0  503  0.40637294417E+02  0.74542589033E+00 -0.68580037565E+02  0.79857729180E+02  0.47000000000E+01 0.  1.
         13    1    4    4    0    0 -0.73443289764E+02 -0.49920920667E+01  0.12202787352E+02  0.74617329178E+02  0.00000000000E+00 0. -1.
        -14    1    4    4    0    0 -0.15462821792E+02 -0.13031157675E+02 -0.48602186340E+02  0.52641071846E+02  0.00000000000E+00 0.  1.
</event>
<event>
12    1  0.8258923E-002  0.3831271E+03  0.7818608E-02  0.1049857E+00
         21   -1    0    0  501  502  0.00000000000E+00  0.00000000000E+00  0.19771573157E+03  0.19771573157E+03  0.00000000000E+00 0. -1.
         21   -1    0    0  502  503 -0.00000000000E+00 -0.00000000000E+00 -0.80492254460E+03  0.80492254460E+03  0.00000000000E+00 0. -1.
         -6    2    1    2    0  503  0.27411032729E+03  0.20407222991E+03 -0.44474319895E+03  0.58648832734E+03  0.17143540633E+03 0.  0.
        -24    2    3    3    0    0  0.20011017868E+03  0.17257126915E+03 -0.41936844357E+03  0.50202353743E+03  0.79578980438E+02 0.  0.
          6    2    1    2  501    0 -0.27411032729E+03 -0.20407222991E+03 -0.16246361408E+03  0.41614994883E+03  0.17321780354E+03 0.  0.
         24    2    5    5    0    0 -0.21048318560E+03 -0.82351205347E+02 -0.13867742493E+03  0.27667846868E+03  0.78959827791E+02 0.  0.
          5    1    5    5  501    0 -0.63627141691E+02 -0.12172102456E+03 -0.23786189149E+02  0.13947148015E+03  0.47000000000E+01 0. -1.
        -13    1    6    6    0    0 -0.13068872062E+02 -0.18700629927E+02 -0.42079460418E+02  0.47866376150E+02  0.00000000000E+00 0.  1.
         14    1    6    6    0    0 -0.19741431354E+03 -0.63650575420E+02 -0.96597964511E+02  0.22881209253E+03  0.00000000000E+00 0. -1.
         -5    1    3    3    0  503  0.74000148613E+02  0.31500960764E+02 -0.25374755381E+02  0.84464789909E+02  0.47000000000E+01 0.  1.
         13    1    4    4    0    0  0.16543149762E+03  0.11337092434E+03 -0.25879980863E+03  0.32741088534E+03  0.00000000000E+00 0. -1.
        -14    1    4    4    0    0  0.34678681061E+02  0.59200344807E+02 -0.16056863494E+03  0.17461265210E+03  0.00000000000E+00 0.  1.
</event>
<event>
12    1  0.8258923E-002  0.2184561E+03  0.7818608E-02  0.1135340E+00
         21   -1    0    0  503  502  0.00000000000E+00  0.00000000000E+00  0.40811431205E+03  0.40811431205E+03  0.00000000000E+00 0.  1.
         21   -1    0    0  501  503 -0.00000000000E+00 -0.00000000000E+00 -0.12037792745E+03  0.12037792745E+03  0.00000000000E+00 0.  1.
          6    2    1    2  501    0  0.48223163241E+02 -0.12204602291E+03  0.94468630773E+02  0.23800713978E+03  0.17464928057E+03 0.  0.
         24    2    3    3    0    0  0.10314492703E+02 -0.13317890016E+03  0.41182098315E+02  0.17150486313E+03  0.99372756064E+02 0.  0.
         -6    2    1    2    0  502 -0.48223163241E+02  0.12204602291E+03  0.19326775383E+03  0.29048509972E+03  0.17265127659E+03 0.  0.
        -24    2    5    5    0    0 -0.47507099462E+02 -0.33064797460E+01  0.76251632830E+02  0.11893736513E+03  0.77871227083E+02 0.  0.
          5    1    3    3  501    0  0.37908670538E+02  0.11132877251E+02  0.53286532459E+02  0.66502276648E+02  0.47000000000E+01 0. -1.
        -11    1    4    4    0    0  0.50737486520E+02 -0.95849906565E+02  0.42463794219E+02  0.11646746733E+03  0.00000000000E+00 0.  1.
         12    1    4    4    0    0 -0.40422993816E+02 -0.37328993595E+02 -0.12816959045E+01  0.55037395799E+02  0.00000000000E+00 0. -1.
         -5    1    5    5    0  502 -0.71606377991E+00  0.12535250265E+03  0.11701612100E+03  0.17154773459E+03  0.47000000000E+01 0.  1.
         11    1    6    6    0    0 -0.34188275447E+02  0.25573158572E+02  0.77212377706E+01  0.43387119403E+02  0.00000000000E+00 0. -1.
        -12    1    6    6    0    0 -0.13318824015E+02 -0.28879638318E+02  0.68530395060E+02  0.75550245728E+02  0.00000000000E+00 0.  1.
</event>
<event>
12    1  0.8258923E-002  0.2039975E+03  0.7818608E-02  0.1146524E+00
         21   -1    0    0  503  502  0.00000000000E+00  0.00000000000E+00  0.34391721594E+03  0.34391721594E+03  0.00000000000E+00 0.  1.
         21   -1    0    0  501  503 -0.00000000000E+00 -0.00000000000E+00 -0.18993019289E+03  0.18993019289E+03  0.00000000000E+00 0.  1.
          6    2    1    2  501    0 -0.12865027711E+02  0.10886288573E+03 -0.84257844743E+02  0.22019858968E+03  0.17138085561E+03 0.  0.
         24    2    3    3    0    0 -0.14705704137E+02  0.11069420055E+03 -0.12067021515E+03  0.18339244179E+03  0.81252834468E+02 0.  0.
         -6    2    1    2    0  502  0.12865027711E+02 -0.10886288573E+03  0.23824486779E+03  0.31364881915E+03  0.17204164583E+03 0.  0.
        -24    2    5    5    0    0  0.37494905913E+02 -0.10940305896E+03  0.24923082239E+03  0.28626809809E+03  0.80364941830E+02 0.  0.
          5    1    3    3  501    0  0.18406764259E+01 -0.18313148222E+01  0.36412370411E+02  0.36806147892E+02  0.47000000000E+01 0. -1.
        -11    1    4    4    0    0 -0.93795787867E+01  0.17727941294E+02 -0.78766168521E+02  0.81279552805E+02  0.00000000000E+00 0.  1.
         12    1    4    4    0    0 -0.53261253500E+01  0.92966259261E+02 -0.41904046632E+02  0.10211288898E+03  0.00000000000E+00 0. -1.
         -5    1    5    5    0  502 -0.24629878203E+02  0.54017322613E+00 -0.10985954604E+02  0.27380721063E+02  0.47000000000E+01 0.  1.
         11    1    6    6    0    0  0.20725019001E+02 -0.37779800266E+01  0.82556175024E+01  0.22626417437E+02  0.00000000000E+00 0. -1.
        -12    1    6    6    0    0  0.16769886912E+02 -0.10562507893E+03  0.24097520489E+03  0.26364168065E+03  0.00000000000E+00 0.  1.
</event>
<event>
12    1  0.8258923E-002  0.2825621E+03  0.7818608E-02  0.1094901E+00
         21   -1    0    0  501  502  0.00000000000E+00  0.00000000000E+00  0.19657341073E+03  0.19657341073E+03  0.00000000000E+00 0. -1.
         21   -1    0    0  502  503 -0.00000000000E+00 -0.00000000000E+00 -0.14569353858E+04  0.14569353858E+04  0.00000000000E+00 0. -1.
         -6    2    1    2    0  503 -0.21473191289E+03  0.64649755490E+02 -0.13330436050E+04  0.13617486890E+04  0.16451399335E+03 0.  0.
        -24    2    3    3    0    0 -0.11718547628E+03 -0.10062454208E+02 -0.91570527833E+03  0.92667330423E+03  0.79834623888E+02 0.  0.
          6    2    1    2  501    0  0.21473191289E+03 -0.64649755490E+02  0.72681629910E+02  0.29176010749E+03  0.17190682272E+03 0.  0.
         24    2    5    5    0    0  0.95733805810E+02 -0.15688939123E+02 -0.35853836420E+02  0.12335657879E+03  0.67232756591E+02 0.  0.
          5    1    5    5  501    0  0.11899810708E+03 -0.48960816366E+02  0.10853546633E+03  0.16840352870E+03  0.47000000000E+01 0. -1.
        -13    1    6    6    0    0  0.55815988613E+02 -0.32244560246E+02  0.39807675001E+01  0.64583146100E+02  0.00000000000E+00 0.  1.
         14    1    6    6    0    0  0.39917817196E+02  0.16555621123E+02 -0.39834603920E+02  0.58773432688E+02  0.00000000000E+00 0. -1.
         -5    1    3    3    0  503 -0.97546436606E+02  0.74712209697E+02 -0.41733832663E+03  0.43507538479E+03  0.47000000000E+01 0.  1.
         13    1    4    4    0    0 -0.11543943914E+03  0.72431867652E+01 -0.87194005561E+03  0.87957841517E+03  0.00000000000E+00 0. -1.
        -14    1    4    4    0    0 -0.17460371352E+01 -0.17305640973E+02 -0.43765222718E+02  0.47094889051E+02  0.00000000000E+00 0.  1.
</event>
<event>
12    1  0.8258923E-002  0.3029988E+03  0.7818608E-02  0.1083854E+00
         21   -1    0    0  501  502  0.00000000000E+00  0.00000000000E+00  0.74128699740E+03  0.74128699740E+03  0.00000000000E+00 0.  1.
         21   -1    0    0  502  503 -0.00000000000E+00 -0.00000000000E+00 -0.13146306173E+03  0.13146306173E+03  0.00000000000E+00 0. -1.
         -6    2    1    2    0  503 -0.85586555473E+00  0.24718387858E+03  0.19718157936E+03  0.36081064939E+03  0.17379052662E+03 0.  0.
        -24    2    3    3    0    0  0.30350626142E+01  0.26694335890E+03  0.19727601284E+03  0.34013033745E+03  0.74181215549E+02 0.  0.
          6    2    1    2  501    0  0.85586555473E+00 -0.24718387858E+03  0.41264235630E+03  0.51193940974E+03  0.17523596290E+03 0.  0.
         24    2    5    5    0    0 -0.18561732067E+01 -0.47128528139E+02  0.75463021917E+02  0.11984058045E+03  0.80265518758E+02 0.  0.
          5    1    5    5  501    0  0.27120387615E+01 -0.20005535044E+03  0.33717933439E+03  0.39209882929E+03  0.47000000000E+01 0. -1.
        -11    1    6    6    0    0 -0.90311725233E+01  0.12514137826E+02  0.53818579486E+02  0.55987545228E+02  0.00000000000E+00 0.  1.
         12    1    6    6    0    0  0.71749993165E+01 -0.59642665965E+02  0.21644442431E+02  0.63853035220E+02  0.00000000000E+00 0. -1.
         -5    1    3    3    0  503 -0.38909281689E+01 -0.19759480323E+02 -0.94433479762E-01  0.20680311950E+02  0.47000000000E+01 0.  1.
         13    1    4    4    0    0 -0.67498775346E+01  0.11543855060E+03  0.42161758729E+02  0.12308222338E+03  0.00000000000E+00 0. -1.
        -14    1    4    4    0    0  0.97849401488E+01  0.15150480830E+03  0.15511425411E+03  0.21704811407E+03  0.00000000000E+00 0.  1.
</event>
<event>
12    1  0.8258923E-002  0.2363812E+03  0.7818608E-02  0.1122301E+00
         21   -1    0    0  501  502  0.00000000000E+00  0.00000000000E+00  0.17495467138E+04  0.17495467138E+04  0.00000000000E+00 0. -1.
         21   -1    0    0  502  503 -0.00000000000E+00 -0.00000000000E+00 -0.32420927761E+02  0.32420927761E+02  0.00000000000E+00 0.  1.
         -6    2    1    2    0  503  0.10118495577E+03  0.12613906413E+03  0.74410970560E+03  0.78075305378E+03  0.17241408944E+03 0.  0.
        -24    2    3    3    0    0  0.11773498008E+03  0.69299332808E+02  0.37897082185E+03  0.41081636623E+03  0.80543652076E+02 0.  0.
          6    2    1    2  501    0 -0.10118495577E+03 -0.12613906413E+03  0.97301608044E+03  0.10012145878E+04  0.17181646961E+03 0.  0.
         24    2    5    5    0    0 -0.76779469590E+02 -0.14165979262E+02  0.28728024978E+03  0.30595253723E+03  0.70577979615E+02 0.  0.
          5    1    5    5  501    0 -0.24405486179E+02 -0.11197308487E+03  0.68573583066E+03  0.69526205056E+03  0.47000000000E+01 0. -1.
        -11    1    6    6    0    0 -0.72637548237E+02 -0.33707783781E+02  0.26058094737E+03  0.27260751683E+03  0.00000000000E+00 0.  1.
         12    1    6    6    0    0 -0.41419213530E+01  0.19541804519E+02  0.26699302412E+02  0.33345020402E+02  0.00000000000E+00 0. -1.
         -5    1    3    3    0  503 -0.16550024314E+02  0.56839731321E+02  0.36513888375E+03  0.36993668754E+03  0.47000000000E+01 0.  1.
         13    1    4    4    0    0  0.66551888583E+02  0.50566792879E+02  0.31904522111E+03  0.32981207912E+03  0.00000000000E+00 0. -1.
        -14    1    4    4    0    0  0.51183091501E+02  0.18732539929E+02  0.59925600734E+02  0.81004287116E+02  0.00000000000E+00 0.  1.
</event>
<event>
12    1  0.8258923E-002  0.2070052E+03  0.7818608E-02  0.1144511E+00
         21   -1    0    0  503  502  0.00000000000E+00  0.00000000000E+00  0.50028824268E+03  0.50028824268E+03  0.00000000000E+00 0. -1.
         21   -1    0    0  501  503 -0.00000000000E+00 -0.00000000000E+00 -0.87917826889E+02  0.87917826889E+02  0.00000000000E+00 0.  1.
          6    2    1    2  501    0  0.82603053572E+02 -0.77927632303E+02  0.14979176191E+03  0.25551655967E+03  0.17307559040E+03 0.  0.
         24    2    3    3    0    0 -0.13577091544E+02 -0.60107532331E+02  0.42246034787E+02  0.11006433487E+03  0.80821887487E+02 0.  0.
         -6    2    1    2    0  502 -0.82603053572E+02  0.77927632303E+02  0.26257865388E+03  0.33268950990E+03  0.16981984627E+03 0.  0.
        -24    2    5    5    0    0 -0.10836361966E+03  0.76851941692E+02  0.26455453061E+03  0.30640723519E+03  0.79040490269E+02 0.  0.
          5    1    3    3  501    0  0.96180145116E+02 -0.17820099972E+02  0.10754572713E+03  0.14545222480E+03  0.47000000000E+01 0. -1.
        -11    1    4    4    0    0  0.29796933964E+02 -0.36599558660E+02  0.37916899234E+02  0.60539872937E+02  0.00000000000E+00 0.  1.
         12    1    4    4    0    0 -0.43374025508E+02 -0.23507973671E+02  0.43291355534E+01  0.49524461930E+02  0.00000000000E+00 0. -1.
         -5    1    5    5    0  502  0.25760566086E+02  0.10756906114E+01 -0.19758767259E+01  0.26282274715E+02  0.47000000000E+01 0.  1.
         13    1    6    6    0    0 -0.84259550619E+02  0.43542526652E+02  0.10435821157E+03  0.14101865061E+03  0.00000000000E+00 0. -1.
        -14    1    6    6    0    0 -0.24104069039E+02  0.33309415039E+02  0.16019631904E+03  0.16538858458E+03  0.00000000000E+00 0.  1.
</event>
<event>
12    1  0.8258923E-002  0.1984075E+03  0.7818608E-02  0.1151550E+00
         21   -1    0    0  501  502  0.00000000000E+00  0.00000000000E+00  0.11880376687E+03  0.11880376687E+03  0.00000000000E+00 0.  1.
         21   -1    0    0  502  503 -0.00000000000E+00 -0.00000000000E+00 -0.32835276977E+03  0.32835276977E+03  0.00000000000E+00 0.  1.
         -6    2    1    2    0  503  0.63738427760E+02  0.72795075386E+02 -0.11358443477E+03  0.22675979058E+03  0.17075382464E+03 0.  0.
        -24    2    3    3    0    0  0.10670872273E+02  0.10407918597E+03 -0.76636018626E+02  0.15477273288E+03  0.84469965234E+02 0.  0.
          6    2    1    2  501    0 -0.63738427760E+02 -0.72795075386E+02 -0.95964568130E+02  0.22039674606E+03  0.17321609961E+03 0.  0.
         24    2    5    5    0    0 -0.68651832305E+02 -0.10699335149E+01 -0.10163245344E+02  0.10835838427E+03  0.83210750803E+02 0.  0.
          5    1    5    5  501    0  0.49134045450E+01 -0.71725141872E+02 -0.85801322786E+02  0.11203836179E+03  0.47000000000E+01 0. -1.
        -11    1    6    6    0    0 -0.70934886691E+02 -0.28031719604E+02 -0.21155871286E+02  0.79152424749E+02  0.00000000000E+00 0.  1.
         12    1    6    6    0    0  0.22830543854E+01  0.26961786089E+02  0.10992625942E+02  0.29205959521E+02  0.00000000000E+00 0. -1.
         -5    1    3    3    0  503  0.53067555488E+02 -0.31284110582E+02 -0.36948416146E+02  0.71987057698E+02  0.47000000000E+01 0.  1.
         11    1    4    4    0    0  0.12301182597E+02  0.42215672924E+01 -0.49642960250E+02  0.51318264059E+02  0.00000000000E+00 0. -1.
        -12    1    4    4    0    0 -0.16303103247E+01  0.99857618676E+02 -0.26993058376E+02  0.10345446883E+03  0.00000000000E+00 0.  1.
</event>
<event>
12    1  0.8258923E-002  0.2278174E+03  0.7818608E-02  0.1128474E+00
         21   -1    0    0  503  502  0.00000000000E+00  0.00000000000E+00  0.31954504571E+03  0.31954504571E+03  0.00000000000E+00 0.  1.
         21   -1    0    0  501  503 -0.00000000000E+00 -0.00000000000E+00 -0.28043063951E+03  0.28043063951E+03  0.00000000000E+00 0.  1.
          6    2    1    2  501    0  0.14729607019E+03  0.10215705577E+00 -0.17595029719E+03  0.28785286991E+03  0.17379477812E+03 0.  0.
         24    2    3    3    0    0  0.24293472304E+02 -0.33363862004E+02 -0.11975702650E+03  0.14846353319E+03  0.77436136323E+02 0.  0.
         -6    2    1    2    0  502 -0.14729607019E+03 -0.10215705577E+00  0.21506470339E+03  0.31212281531E+03  0.17167318505E+03 0.  0.
        -24    2    5    5    0    0 -0.12362823368E+03 -0.29898170630E+02  0.85963994482E+02  0.17744894275E+03  0.88997068306E+02 0.  0.
          5    1    3    3  501    0  0.12300259789E+03  0.33466019060E+02 -0.56193270697E+02  0.13938933672E+03  0.47000000000E+01 0. -1.
        -11    1    4    4    0    0  0.45359776355E+02 -0.11887705609E+02 -0.34963773036E+02  0.58491813791E+02  0.00000000000E+00 0.  1.
         12    1    4    4    0    0 -0.21066304051E+02 -0.21476156396E+02 -0.84793253460E+02  0.89971719403E+02  0.00000000000E+00 0. -1.
         -5    1    5    5    0  502 -0.23667836513E+02  0.29796013574E+02  0.12910070891E+03  0.13467387256E+03  0.47000000000E+01 0.  1.
         13    1    6    6    0    0 -0.12073606856E+03 -0.51645373628E+02  0.82903343816E+02  0.15529780193E+03  0.00000000000E+00 0. -1.
        -14    1    6    6    0    0 -0.28921651204E+01  0.21747202997E+02  0.30606506658E+01  0.22151140824E+02  0.00000000000E+00 0.  1.
</event>
<event>
12    1  0.8258923E-002  0.1766490E+03  0.7818608E-02  0.1171562E+00
         21   -1    0    0  501  502  0.00000000000E+00  0.00000000000E+00  0.16499489270E+03  0.16499489270E+03  0.00000000000E+00 0. -1.
         21   -1    0    0  502  503 -0.00000000000E+00 -0.00000000000E+00 -0.20150053592E+03  0.20150053592E+03  0.00000000000E+00 0. -1.
         -6    2    1    2    0  503  0.46151147914E+00  0.40200233468E+02  0.30663476598E+02  0.17929059750E+03  0.17201336516E+03 0.  0.
        -24    2    3    3    0    0  0.12407384533E+02  0.89096441041E+02 -0.30932877396E+00  0.12000360339E+03  0.79427011438E+02 0.  0.
          6    2    1    2  501    0 -0.46151147914E+00 -0.40200233468E+02 -0.67169119814E+02  0.18720483112E+03  0.17005201079E+03 0.  0.
         24    2    5    5    0    0 -0.38458061679E+02  0.16418175383E+02 -0.75665169154E+02  0.11833063492E+03  0.80798158058E+02 0.  0.
          5    1    5    5  501    0  0.37996550199E+02 -0.56618408851E+02  0.84960493392E+01  0.68874196200E+02  0.47000000000E+01 0. -1.
        -11    1    6    6    0    0 -0.12923240623E+01  0.36331318130E+02 -0.65571505052E+02  0.74975042870E+02  0.00000000000E+00 0.  1.
         12    1    6    6    0    0 -0.37165737616E+02 -0.19913142748E+02 -0.10093664102E+02  0.43355592046E+02  0.00000000000E+00 0. -1.
         -5    1    3    3    0  503 -0.11945873054E+02 -0.48896207573E+02  0.30972805372E+02  0.59286994110E+02  0.47000000000E+01 0.  1.
         11    1    4    4    0    0  0.41825776642E+02  0.23746441965E+02  0.35962319797E+01  0.48230923505E+02  0.00000000000E+00 0. -1.
        -12    1    4    4    0    0 -0.29418392109E+02  0.65349999076E+02 -0.39055607537E+01  0.71772679888E+02  0.00000000000E+00 0.  1.
</event>
<event>
12    1  0.8258923E-002  0.2234993E+03  0.7818608E-02  0.1131587E+00
         21   -1    0    0  503  502  0.00000000000E+00  0.00000000000E+00  0.18645887773E+03  0.18645887773E+03  0.00000000000E+00 0.  1.
         21   -1    0    0  501  503 -0.00000000000E+00 -0.00000000000E+00 -0.39662825841E+03  0.39662825841E+03  0.00000000000E+00 0. -1.
          6    2    1    2  501    0 -0.11782336166E+03  0.79395911529E+02 -0.27213270528E+03  0.35115743814E+03  0.17049716056E+03 0.  0.
         24    2    3    3    0    0 -0.43367283356E+02  0.17818957257E+02 -0.65124540951E+02  0.12266258263E+03  0.92772123188E+02 0.  0.
         -6    2    1    2    0  502  0.11782336166E+03 -0.79395911529E+02  0.61963324603E+02  0.23192969799E+03  0.17252789889E+03 0.  0.
        -24    2    5    5    0    0  0.14309507114E+03 -0.68433365615E+02  0.16464317167E+02  0.17853413272E+03  0.80274764991E+02 0.  0.
          5    1    3    3  501    0 -0.74456078307E+02  0.61576954272E+02 -0.20700816433E+03  0.22849485551E+03  0.47000000000E+01 0. -1.
        -13    1    4    4    0    0  0.28799526687E+02  0.10395584646E+02 -0.12660848495E+02  0.33132733092E+02  0.00000000000E+00 0.  1.
         14    1    4    4    0    0 -0.72166810043E+02  0.74233726111E+01 -0.52463692456E+02  0.89529849541E+02  0.00000000000E+00 0. -1.
         -5    1    5    5    0  502 -0.25271709475E+02 -0.10962545913E+02  0.45499007435E+02  0.53395565268E+02  0.47000000000E+01 0.  1.
         11    1    6    6    0    0  0.22128966551E+02  0.36016961244E+01 -0.23200440566E+02  0.32263351005E+02  0.00000000000E+00 0. -1.
        -12    1    6    6    0    0  0.12096610459E+03 -0.72035061740E+02  0.39664757734E+02  0.14627078172E+03  0.00000000000E+00 0.  1.
</event>
<event>
12    1  0.8258923E-002  0.2537972E+03  0.7818608E-02  0.1110939E+00
         21   -1    0    0  501  502  0.00000000000E+00  0.00000000000E+00  0.44162492089E+03  0.44162492089E+03  0.00000000000E+00 0.  1.
         21   -1    0    0  502  503 -0.00000000000E+00 -0.00000000000E+00 -0.28509669171E+03  0.28509669171E+03  0.00000000000E+00 0.  1.
         -6    2    1    2    0  503  0.13602007100E+03  0.12806687297E+03  0.33223298219E+03  0.41803861059E+03  0.17168267769E+03 0.  0.
        -24    2    3    3    0    0  0.10817486905E+03  0.17020437305E+02  0.13909827641E+03  0.19347287250E+03  0.78050780359E+02 0.  0.
          6    2    1    2  501    0 -0.13602007100E+03 -0.12806687297E+03 -0.17570475300E+03  0.30868300202E+03  0.17178606416E+03 0.  0.
         24    2    5    5    0    0 -0.14081153876E+03 -0.43056473950E+02 -0.11163797077E+03  0.20202294066E+03  0.81660777837E+02 0.  0.
          5    1    5    5  501    0  0.47914677538E+01 -0.85010399015E+02 -0.64066782231E+02  0.10666006136E+03  0.47000000000E+01 0. -1.
        -11    1    6    6    0    0 -0.22061731629E+01 -0.10628769782E+02 -0.42327853948E+02  0.43697656310E+02  0.00000000000E+00 0.  1.
         12    1    6    6    0    0 -0.13860536559E+03 -0.32427704168E+02 -0.69310116825E+02  0.15832528435E+03  0.00000000000E+00 0. -1.
         -5    1    3    3    0  503  0.27845201958E+02  0.11104643566E+03  0.19313470578E+03  0.22456573809E+03  0.47000000000E+01 0.  1.
         13    1    4    4    0    0  0.51176452255E+02  0.34309393166E+02  0.28564600132E+02  0.67912444409E+02  0.00000000000E+00 0. -1.
        -14    1    4    4    0    0  0.56998416790E+02 -0.17288955861E+02  0.11053367628E+03  0.12556042809E+03  0.00000000000E+00 0.  1.
</event>
<event>
12    1  0.8258923E-002  0.3717600E+03  0.7818608E-02  0.1054377E+00
         21   -1    0    0  503  502  0.00000000000E+00  0.00000000000E+00  0.74981369008E+03  0.74981369008E+03  0.00000000000E+00 0. -1.
         21   -1    0    0  501  503 -0.00000000000E+00 -0.00000000000E+00 -0.34028876015E+03  0.34028876015E+03  0.00000000000E+00 0.  1.
          6    2    1    2  501    0 -0.12069471923E+03  0.30657478450E+03 -0.16585716218E+03  0.40707993898E+03  0.17219223192E+03 0.  0.
         24    2    3    3    0    0 -0.67614172402E+02  0.55737648347E+02 -0.63366513879E+02  0.13092194740E+03  0.73802977427E+02 0.  0.
         -6    2    1    2    0  502  0.12069471923E+03 -0.30657478450E+03  0.57538209211E+03  0.68302251125E+03  0.16401184473E+03 0.  0.
        -24    2    5    5    0    0  0.30679134780E+02 -0.84777907082E+02  0.12992814280E+03  0.17730720475E+03  0.80174932016E+02 0.  0.
          5    1    3    3  501    0 -0.53080546832E+02  0.25083713615E+03 -0.10249064830E+03  0.27615799158E+03  0.47000000000E+01 0. -1.
        -13    1    4    4    0    0  0.10307262298E+02  0.36427842267E+01 -0.29163008842E+02  0.31144672382E+02  0.00000000000E+00 0.  1.
         14    1    4    4    0    0 -0.77921434701E+02  0.52094864120E+02 -0.34203505037E+02  0.99777275019E+02  0.00000000000E+00 0. -1.
         -5    1    5    5    0  502  0.90015584454E+02 -0.22179687742E+03  0.44545394931E+03  0.50571530650E+03  0.47000000000E+01 0.  1.
         11    1    6    6    0    0 -0.38821413019E+00  0.14778077808E+02  0.26976688661E+02  0.30761729877E+02  0.00000000000E+00 0. -1.
        -12    1    6    6    0    0  0.31067348910E+02 -0.99555984890E+02  0.10295145414E+03  0.14654547487E+03  0.00000000000E+00 0.  1.
</event>
<event>
12    1  0.8258923E-002  0.2355046E+03  0.7818608E-02  0.1122899E+00
         21   -1    0    0  503  502  0.00000000000E+00  0.00000000000E+00  0.99951574081E+02  0.99951574081E+02  0.00000000000E+00 0. -1.
         21   -1    0    0  501  503 -0.00000000000E+00 -0.00000000000E+00 -0.67153921161E+03  0.67153921161E+03  0.00000000000E+00 0.  1.
          6    2    1    2  501    0  0.14498407786E+03  0.70136205674E+02 -0.44705458541E+03  0.50508713235E+03  0.17121839489E+03 0.  0.
         24    2    3    3    0    0  0.80450453967E+02  0.11229214256E+03 -0.32379033142E+03  0.35962965423E+03  0.73562957116E+02 0.  0.
         -6    2    1    2    0  502 -0.14498407786E+03 -0.70136205674E+02 -0.12453305213E+03  0.26640365335E+03  0.17182245274E+03 0.  0.
        -24    2    5    5    0    0 -0.15905603443E+03 -0.29039874386E+02 -0.13350389444E+03  0.22179990442E+03  0.72317158248E+02 0.  0.
          5    1    3    3  501    0  0.64533623897E+02 -0.42155936887E+02 -0.12326425399E+03  0.14545747812E+03  0.47000000000E+01 0. -1.
        -11    1    4    4    0    0  0.52829364464E+02  0.29262133180E+02 -0.77469847376E+02  0.98228261922E+02  0.00000000000E+00 0.  1.
         12    1    4    4    0    0  0.27621089503E+02  0.83030009381E+02 -0.24632048404E+03  0.26140139231E+03  0.00000000000E+00 0. -1.
         -5    1    5    5    0  502  0.14071956562E+02 -0.41096331288E+02  0.89708423129E+01  0.44603748930E+02  0.47000000000E+01 0.  1.
         11    1    6    6    0    0 -0.55875597180E+02 -0.14860304391E+02 -0.74656570185E+01  0.58297916271E+02  0.00000000000E+00 0. -1.
        -12    1    6    6    0    0 -0.10318043725E+03 -0.14179569995E+02 -0.12603823742E+03  0.16350198814E+03  0.00000000000E+00 0.  1.
</event>
<event>
12    1  0.8258923E-002  0.1770718E+03  0.7818608E-02  0.1170966E+00
         21   -1    0    0  503  502  0.00000000000E+00  0.00000000000E+00  0.50578095146E+03  0.50578095146E+03  0.00000000000E+00 0.  1.
         21   -1    0    0  501  503 -0.00000000000E+00 -0.00000000000E+00 -0.10807313963E+03  0.10807313963E+03  0.00000000000E+00 0.  1.
          6    2    1    2  501    0 -0.32914449483E+02 -0.16418272719E+02 -0.20901164365E+01  0.17708413500E+03  0.17320941550E+03 0.  0.
         24    2    3    3    0    0  0.29401719000E+02 -0.58137043927E+02  0.55430106603E+01  0.10155854096E+03  0.77711230320E+02 0.  0.
         -6    2    1    2    0  502  0.32914449483E+02  0.16418272719E+02  0.39979792827E+03  0.43676995609E+03  0.17197874994E+03 0.  0.
        -24    2    5    5    0    0  0.24042984699E+01  0.33839336624E+02  0.89646588266E+02  0.12459963962E+03  0.79609534923E+02 0.  0.
          5    1    3    3  501    0 -0.62316168483E+02  0.41718771208E+02 -0.76331270969E+01  0.75525594038E+02  0.47000000000E+01 0. -1.
        -13    1    4    4    0    0 -0.41547350416E+01 -0.54205578997E+02 -0.21319107822E+02  0.58395299263E+02  0.00000000000E+00 0.  1.
         14    1    4    4    0    0  0.33556454042E+02 -0.39314649301E+01  0.26862118483E+02  0.43163241696E+02  0.00000000000E+00 0. -1.
         -5    1    5    5    0  502  0.30510151013E+02 -0.17421063905E+02  0.31015134001E+03  0.31217031648E+03  0.47000000000E+01 0.  1.
         13    1    6    6    0    0 -0.31760802362E+02 -0.74392152281E+01  0.28711434022E+02  0.43456149548E+02  0.00000000000E+00 0. -1.
        -14    1    6    6    0    0  0.34165100832E+02  0.41278551852E+02  0.60935154244E+02  0.81143490069E+02  0.00000000000E+00 0.  1.
</event>
<event>
12    1  0.8258923E-002  0.1834271E+03  0.7818608E-02  0.1166028E+00
         21   -1    0    0  503  502  0.00000000000E+00  0.00000000000E+00  0.18028581406E+02  0.18028581406E+02  0.00000000000E+00 0. -1.
         21   -1    0    0  501  503 -0.00000000000E+00 -0.00000000000E+00 -0.18054442716E+04  0.18054442716E+04  0.00000000000E+00 0. -1.
          6    2    1    2  501    0  0.44189008775E+02 -0.16855853953E+02 -0.87755674526E+03  0.89652180928E+03  0.17722506893E+03 0.  0.
         24    2    3    3    0    0  0.63963131428E+02  0.49433489726E+02 -0.56164332265E+03  0.57308916776E+03  0.80330693048E+02 0.  0.
         -6    2    1    2    0  502 -0.44189008775E+02  0.16855853953E+02 -0.90985894490E+03  0.92695104369E+03  0.17075757517E+03 0.  0.
        -24    2    5    5    0    0 -0.57312231487E+01  0.73771442478E+02 -0.59825093448E+03  0.60782719994E+03  0.77940052204E+02 0.  0.
          5    1    3    3  501    0 -0.19774122653E+02 -0.66289343680E+02 -0.31591342261E+03  0.32343264152E+03  0.47000000000E+01 0. -1.
        -13    1    4    4    0    0  0.79189256312E+02  0.52800444326E+02 -0.51964104549E+03  0.52828556804E+03  0.00000000000E+00 0.  1.
         14    1    4    4    0    0 -0.15226124884E+02 -0.33669545994E+01 -0.42002277153E+02  0.44803599725E+02  0.00000000000E+00 0. -1.
         -5    1    5    5    0  502 -0.38457785626E+02 -0.56915588524E+02 -0.31160801043E+03  0.31912384376E+03  0.47000000000E+01 0.  1.
         11    1    6    6    0    0  0.31390442920E+02  0.10669133794E+02 -0.14845589467E+03  0.15211292840E+03  0.00000000000E+00 0. -1.
        -12    1    6    6    0    0 -0.37121666068E+02  0.63102308683E+02 -0.44979503980E+03  0.45571427154E+03  0.00000000000E+00 0.  1.
</event>
<event>
12    1  0.8258923E-002  0.1967470E+03  0.7818608E-02  0.1155476E+00
         21   -1    0    0  501  502  0.00000000000E+00  0.00000000000E+00  0.11502375916E+03  0.11502375916E+03  0.00000000000E+00 0.  1.
         21   -1    0    0  502  503 -0.00000000000E+00 -0.00000000000E+00 -0.59026210321E+03  0.59026210321E+03  0.00000000000E+00 0.  1.
         -6    2    1    2    0  503 -0.16815245147E+02  0.66856229336E+02 -0.47427519270E+03  0.50853653700E+03  0.17005864630E+03 0.  0.
        -24    2    3    3    0    0 -0.16630135676E+02  0.56301483075E+01 -0.99495090899E+02  0.12875912591E+03  0.79820920885E+02 0.  0.
          6    2    1    2  501    0  0.16815245147E+02 -0.66856229336E+02 -0.96315135026E+00  0.19674932537E+03  0.18427387634E+03 0.  0.
         24    2    5    5    0    0  0.14992909342E+02 -0.20275206309E+02 -0.72808097148E+02  0.11097695889E+03  0.79868611317E+02 0.  0.
          5    1    5    5  501    0  0.18223358050E+01 -0.46581023027E+02  0.71844945798E+02  0.85772366475E+02  0.47000000000E+01 0. -1.
        -13    1    6    6    0    0  0.31516682828E+02 -0.30551170087E+02 -0.97213892407E+01  0.44957543293E+02  0.00000000000E+00 0.  1.
         14    1    6    6    0    0 -0.16523773486E+02  0.10275963778E+02 -0.63086707907E+02  0.66019415601E+02  0.00000000000E+00 0. -1.
         -5    1    3    3    0  503 -0.18510947083E+00  0.61226081029E+02 -0.37478010181E+03  0.37977741109E+03  0.47000000000E+01 0.  1.
         13    1    4    4    0    0 -0.20548084987E+02 -0.32710473980E+02 -0.71001808594E+02  0.80829794805E+02  0.00000000000E+00 0. -1.
        -14    1    4    4    0    0  0.39179493110E+01  0.38340622287E+02 -0.28493282305E+02  0.47929331110E+02  0.00000000000E+00 0.  1.
</event>
<event>
12    1  0.8258923E-002  0.1745629E+03  0.7818608E-02  0.1173304E+00
         21   -1    0    0  501  502  0.00000000000E+00  0.00000000000E+00  0.94080406500E+02  0.94080406500E+02  0.00000000000E+00 0. -1.
         21   -1    0    0  502  503 -0.00000000000E+00 -0.00000000000E+00 -0.89587909438E+03  0.89587909438E+03  0.00000000000E+00 0. -1.
         -6    2    1    2    0  503 -0.34436056750E-01  0.24915319804E+02 -0.79652517512E+03  0.81531698090E+03  0.17224590093E+03 0.  0.
        -24    2    3    3    0    0  0.52380878560E+02  0.31153296503E+02 -0.67734804912E+03  0.68488862922E+03  0.80980062132E+02 0.  0.
          6    2    1    2  501    0  0.34436056750E-01 -0.24915319804E+02 -0.52735127506E+01  0.17464251998E+03  0.17277565077E+03 0.  0.
         24    2    5    5    0    0  0.36975027784E+02  0.40356303952E+02  0.12306548460E+02  0.97466482652E+02  0.79702447623E+02 0.  0.
          5    1    5    5  501    0 -0.36940591728E+02 -0.65271623756E+02 -0.17580061211E+02  0.77176037325E+02  0.47000000000E+01 0. -1.
        -11    1    6    6    0    0 -0.78485505066E+01  0.74637563803E+01 -0.27190056127E+02  0.29267841679E+02  0.00000000000E+00 0.  1.
         12    1    6    6    0    0  0.44823578291E+02  0.32892547572E+02  0.39496604587E+02  0.68198640972E+02  0.00000000000E+00 0. -1.
         -5    1    3    3    0  503 -0.52415314616E+02 -0.62379766987E+01 -0.11917712600E+03  0.13042835168E+03  0.47000000000E+01 0.  1.
         11    1    4    4    0    0  0.61909207063E+01  0.40817617075E+02 -0.48820986060E+03  0.48995231743E+03  0.00000000000E+00 0. -1.
        -12    1    4    4    0    0  0.46189957853E+02 -0.96643205724E+01 -0.18913818852E+03  0.19493631179E+03  0.00000000000E+00 0.  1.
</event>
<event>
12    1  0.8258923E-002  0.1786928E+03  0.7818608E-02  0.1169414E+00
         21   -1    0    0  503  502  0.00000000000E+00  0.00000000000E+00  0.43669512957E+03  0.43669512957E+03  0.00000000000E+00 0.  1.
         21   -1    0    0  501  503 -0.00000000000E+00 -0.00000000000E+00 -0.13019259410E+03  0.13019259410E+03  0.00000000000E+00 0.  1.
          6    2    1    2  501    0 -0.20442289675E+02 -0.41881202658E+02 -0.35674099769E+02  0.18086186504E+03  0.17107440045E+03 0.  0.
         24    2    3    3    0    0  0.44088957127E+01  0.11889305488E+02 -0.74284667616E+02  0.10999780567E+03  0.80128094092E+02 0.  0.
         -6    2    1    2    0  502  0.20442289675E+02  0.41881202658E+02  0.34217663524E+03  0.38602585863E+03  0.17250852583E+03 0.  0.
        -24    2    5    5    0    0 -0.34723089837E+02  0.69890230843E+02  0.16986470736E+03  0.20288324959E+03  0.78849583527E+02 0.  0.
          5    1    3    3  501    0 -0.24851185387E+02 -0.53770508146E+02  0.38610567847E+02  0.70864059374E+02  0.47000000000E+01 0. -1.
        -11    1    4    4    0    0 -0.24886388979E+02 -0.24133491420E+02 -0.33179066122E+02  0.47985499823E+02  0.00000000000E+00 0.  1.
         12    1    4    4    0    0  0.29295284691E+02  0.36022796908E+02 -0.41105601494E+02  0.62012305846E+02  0.00000000000E+00 0. -1.
         -5    1    5    5    0  502  0.55165379512E+02 -0.28009028185E+02  0.17231192788E+03  0.18314260904E+03  0.47000000000E+01 0.  1.
         13    1    6    6    0    0  0.10887824351E+02  0.71105967590E+01 -0.30478920874E+01  0.13356457298E+02  0.00000000000E+00 0. -1.
        -14    1    6    6    0    0 -0.45610914188E+02  0.62779634084E+02  0.17291259945E+03  0.18952679229E+03  0.00000000000E+00 0.  1.
</event>
<event>
12    1  0.8258923E-002  0.1866473E+03  0.7818608E-02  0.1162231E+00
         21   -1    0    0  503  502  0.00000000000E+00  0.00000000000E+00  0.23806805201E+03  0.23806805201E+03  0.00000000000E+00 0. -1.
         21   -1    0    0  501  503 -0.00000000000E+00 -0.00000000000E+00 -0.14847065993E+03  0.14847065993E+03  0.00000000000E+00 0. -1.
          6    2    1    2  501    0 -0.18431265336E+02 -0.65383487435E+02  0.10720760865E+02  0.18390917713E+03  0.17056652294E+03 0.  0.
         24    2    3    3    0    0 -0.23719058140E+01  0.31271119275E+02  0.66192270741E+01  0.85731131690E+02  0.79514174434E+02 0.  0.
         -6    2    1    2    0  502  0.18431265336E+02  0.65383487435E+02  0.78876631215E+02  0.20262953481E+03  0.17384617757E+03 0.  0.
        -24    2    5    5    0    0  0.86421179264E+01 -0.10606486512E+02  0.93816455437E+02  0.12442728487E+03  0.80581872353E+02 0.  0.
          5    1    3    3  501    0 -0.16059359522E+02 -0.96654606709E+02  0.41015337908E+01  0.98178045437E+02  0.47000000000E+01 0. -1.
        -13    1    4    4    0    0  0.27161019189E+02  0.43625884076E+02 -0.50953602708E+01  0.51642050899E+02  0.00000000000E+00 0.  1.
         14    1    4    4    0    0 -0.29532925003E+02 -0.12354764801E+02  0.11714587345E+02  0.34089080791E+02  0.00000000000E+00 0. -1.
         -5    1    5    5    0  502  0.97891474097E+01  0.75989973947E+02 -0.14939824222E+02  0.78202249937E+02  0.47000000000E+01 0.  1.
         11    1    6    6    0    0  0.33521754219E+01  0.35248967324E+02  0.36804242314E+02  0.51071313178E+02  0.00000000000E+00 0. -1.
        -12    1    6    6    0    0  0.52899425046E+01 -0.45855453836E+02  0.57012213123E+02  0.73355971695E+02  0.00000000000E+00 0.  1.
</event>
<event>
12    1  0.8258923E-002  0.2017709E+03  0.7818608E-02  0.1150191E+00
         21   -1    0    0  503  502  0.00000000000E+00  0.00000000000E+00  0.62011083399E+03  0.62011083399E+03  0.00000000000E+00 0. -1.
         21   -1    0    0  501  503 -0.00000000000E+00 -0.00000000000E+00 -0.62830656959E+02  0.62830656959E+02  0.00000000000E+00 0. -1.
          6    2    1    2  501    0 -0.30430722011E+02 -0.70267719761E+02  0.29833987582E+03  0.36016410211E+03  0.18667596970E+03 0.  0.
         24    2    3    3    0    0 -0.57968922246E+01 -0.53901043908E+02  0.31282901929E+03  0.32689671678E+03  0.77849480648E+02 0.  0.
         -6    2    1    2    0  502  0.30430722011E+02  0.70267719761E+02  0.25894030121E+03  0.32277738884E+03  0.17683772751E+03 0.  0.
        -24    2    5    5    0    0  0.74173739633E+02  0.73727770295E+02  0.11866540009E+03  0.17572446835E+03  0.76551184410E+02 0.  0.
          5    1    3    3  501    0 -0.24633829786E+02 -0.16366675853E+02 -0.14489143468E+02  0.33267385332E+02  0.47000000000E+01 0. -1.
        -11    1    4    4    0    0 -0.19281928968E+02  0.30142642069E+01  0.18837294530E+03  0.18938121632E+03  0.00000000000E+00 0.  1.
         12    1    4    4    0    0  0.13485036743E+02 -0.56915308115E+02  0.12445607399E+03  0.13751550046E+03  0.00000000000E+00 0. -1.
         -5    1    5    5    0  502 -0.43743017622E+02 -0.34600505344E+01  0.14027490112E+03  0.14705292049E+03  0.47000000000E+01 0.  1.
         11    1    6    6    0    0  0.62586497609E+02  0.76103319953E+02  0.12737336285E+03  0.16103651311E+03  0.00000000000E+00 0. -1.
        -12    1    6    6    0    0  0.11587242024E+02 -0.23755496573E+01 -0.87079627554E+01  0.14687955244E+02  0.00000000000E+00 0.  1.
</event>
<event>
12    1  0.8258923E-002  0.1733599E+03  0.7818608E-02  0.1174562E+00
         21   -1    0    0  503  502  0.00000000000E+00  0.00000000000E+00  0.10158770985E+04  0.10158770985E+04  0.00000000000E+00 0. -1.
         21   -1    0    0  501  503 -0.00000000000E+00 -0.00000000000E+00 -0.15645711347E+03  0.15645711347E+03  0.00000000000E+00 0. -1.
          6    2    1    2  501    0 -0.15609678249E+02 -0.19149624370E+02 -0.98219768134E+02  0.19925053416E+03  0.17159044945E+03 0.  0.
         24    2    3    3    0    0 -0.67717781387E+02 -0.27322273152E+02 -0.46724973232E+02  0.12538680489E+03  0.90589310574E+02 0.  0.
         -6    2    1    2    0  502  0.15609678249E+02  0.19149624370E+02  0.95763975320E+03  0.97308367783E+03  0.17090224396E+03 0.  0.
        -24    2    5    5    0    0  0.75905860247E+02  0.82647632031E+01  0.64445989479E+03  0.65393195298E+03  0.80426595106E+02 0.  0.
          5    1    3    3  501    0  0.52108103138E+02  0.81726487818E+01 -0.51494794902E+02  0.73863729277E+02  0.47000000000E+01 0. -1.
        -11    1    4    4    0    0 -0.82890894690E+02  0.23611129664E+01 -0.31025302118E+02  0.88538379523E+02  0.00000000000E+00 0.  1.
         12    1    4    4    0    0  0.15173113304E+02 -0.29683386118E+02 -0.15699671114E+02  0.36848425365E+02  0.00000000000E+00 0. -1.
         -5    1    5    5    0  502 -0.60296181999E+02  0.10884861167E+02  0.31317985841E+03  0.31915172486E+03  0.47000000000E+01 0.  1.
         11    1    6    6    0    0  0.26269816428E+02  0.19615062947E+02  0.49406619447E+03  0.49515276276E+03  0.00000000000E+00 0. -1.
        -12    1    6    6    0    0  0.49636043819E+02 -0.11350299744E+02  0.15039370032E+03  0.15877919022E+03  0.00000000000E+00 0.  1.
</event>
<event>
12    1  0.8258923E-002  0.1708811E+03  0.7818608E-02  0.1177691E+00
         21   -1    0    0  503  502  0.00000000000E+00  0.00000000000E+00  0.81120959110E+02  0.81120959110E+02  0.00000000000E+00 0.  1.
         21   -1    0    0  501  503 -0.00000000000E+00 -0.00000000000E+00 -0.37201963459E+03  0.37201963459E+03  0.00000000000E+00 0.  1.
          6    2    1    2  501    0 -0.50155311987E+01  0.81773586453E+01 -0.19668194900E+03  0.26054587370E+03  0.17061165989E+03 0.  0.
         24    2    3    3    0    0 -0.66719786826E+02 -0.50624891952E+01 -0.14559414392E+03  0.17921468312E+03  0.80268855422E+02 0.  0.
         -6    2    1    2    0  502  0.50155311987E+01 -0.81773586453E+01 -0.94216726480E+02  0.19259472000E+03  0.16770184816E+03 0.  0.
        -24    2    5    5    0    0  0.56747519229E+02 -0.38657029893E+02 -0.76537671654E+02  0.12982651209E+03  0.79260716374E+02 0.  0.
          5    1    3    3  501    0  0.61704255627E+02  0.13239847841E+02 -0.51087805080E+02  0.81331190580E+02  0.47000000000E+01 0. -1.
        -13    1    4    4    0    0 -0.89398470837E+01  0.11608360683E+02 -0.10646486121E+03  0.10746832824E+03  0.00000000000E+00 0.  1.
         14    1    4    4    0    0 -0.57779939742E+02 -0.16670849878E+02 -0.39129282711E+02  0.71746354874E+02  0.00000000000E+00 0. -1.
         -5    1    5    5    0  502 -0.51731988031E+02  0.30479671247E+02 -0.17679054826E+02  0.62768207912E+02  0.47000000000E+01 0.  1.
         11    1    6    6    0    0 -0.15037457099E+02 -0.99654293661E+01 -0.40898741609E+02  0.44700581245E+02  0.00000000000E+00 0. -1.
        -12    1    6    6    0    0  0.71784976328E+02 -0.28691600527E+02 -0.35638930045E+02  0.85125930844E+02  0.00000000000E+00 0.  1.
</event>
<event>
12    1  0.8258923E-002  0.1972287E+03  0.7818608E-02  0.1152104E+00
         21   -1    0    0  501  502  0.00000000000E+00  0.00000000000E+00  0.95663857000E+02  0.95663857000E+02  0.00000000000E+00 0. -1.
         21   -1    0    0  502  503 -0.00000000000E+00 -0.00000000000E+00 -0.10817260038E+04  0.10817260038E+04  0.00000000000E+00 0. -1.
         -6    2    1    2    0  503  0.85466908131E+02 -0.48538221815E+02 -0.95810593498E+03  0.97818972402E+03  0.17096082057E+03 0.  0.
        -24    2    3    3    0    0  0.10027230762E+03 -0.13497328028E+02 -0.44153413758E+03  0.46019785540E+03  0.81197031484E+02 0.  0.
          6    2    1    2  501    0 -0.85466908131E+02  0.48538221815E+02 -0.27956211792E+02  0.19920013675E+03  0.17099296285E+03 0.  0.
         24    2    5    5    0    0 -0.59701942686E+02  0.95915981886E+02 -0.43539434413E+01  0.14014386981E+03  0.82807909530E+02 0.  0.
          5    1    5    5  501    0 -0.25764965444E+02 -0.47377760071E+02 -0.23602268351E+02  0.59056266941E+02  0.47000000000E+01 0. -1.
        -13    1    6    6    0    0 -0.60895423047E+02  0.21518924185E+02  0.66531144894E+01  0.64927502482E+02  0.00000000000E+00 0.  1.
         14    1    6    6    0    0  0.11934803611E+01  0.74397057702E+02 -0.11007057931E+02  0.75216367330E+02  0.00000000000E+00 0. -1.
         -5    1    3    3    0  503 -0.14805399491E+02 -0.35040893787E+02 -0.51657179740E+03  0.51799186862E+03  0.47000000000E+01 0.  1.
         11    1    4    4    0    0  0.72325449954E+02  0.20821427451E+02 -0.35625202905E+03  0.36411538110E+03  0.00000000000E+00 0. -1.
        -12    1    4    4    0    0  0.27946857667E+02 -0.34318755479E+02 -0.85282108532E+02  0.96082474295E+02  0.00000000000E+00 0.  1.
</event>
<event>
12    1  0.8258923E-002  0.2658768E+03  0.7818608E-02  0.1103718E+00
         21   -1    0    0  501  502  0.00000000000E+00  0.00000000000E+00  0.25612313779E+03  0.25612313779E+03  0.00000000000E+00 0. -1.
         21   -1    0    0  502  503 -0.00000000000E+00 -0.00000000000E+00 -0.28283126235E+03  0.28283126235E+03  0.00000000000E+00 0. -1.
         -6    2    1    2    0  503  0.90168240370E+02 -0.18097224786E+03 -0.56420627641E+02  0.27179725585E+03  0.17265339556E+03 0.  0.
        -24    2    3    3    0    0  0.12542895769E+03 -0.13459161700E+03 -0.24274162585E+02  0.20508918797E+03  0.87321321908E+02 0.  0.
          6    2    1    2  501    0 -0.90168240370E+02  0.18097224786E+03  0.29712503083E+02  0.26715714428E+03  0.17207219657E+03 0.  0.
         24    2    5    5    0    0 -0.12126929016E+03  0.18269561018E+03  0.34077150967E+02  0.23535485777E+03  0.78401085098E+02 0.  0.
          5    1    5    5  501    0  0.31101049793E+02 -0.17233623161E+01 -0.43646478835E+01  0.31802286507E+02  0.47000000000E+01 0. -1.
        -13    1    6    6    0    0 -0.64658717269E+01 -0.57724508953E+01  0.10201001586E+02  0.13386154037E+02  0.00000000000E+00 0.  1.
         14    1    6    6    0    0 -0.11480341844E+03  0.18846806107E+03  0.23876149380E+02  0.22196870374E+03  0.00000000000E+00 0. -1.
         -5    1    3    3    0  503 -0.35260717320E+02 -0.46380630862E+02 -0.32146465056E+02  0.66708067883E+02  0.47000000000E+01 0.  1.
         13    1    4    4    0    0  0.38182639604E+02 -0.88832439996E+02 -0.41244621680E+02  0.10512009884E+03  0.00000000000E+00 0. -1.
        -14    1    4    4    0    0  0.87246318086E+02 -0.45759177002E+02  0.16970459095E+02  0.99969089130E+02  0.00000000000E+00 0.  1.
</event>
<event>
12    1  0.8258923E-002  0.1899574E+03  0.7818608E-02  0.1160421E+00
         21   -1    0    0  503  502  0.00000000000E+00  0.00000000000E+00  0.81947453793E+02  0.81947453793E+02  0.00000000000E+00 0.  1.
         21   -1    0    0  501  503 -0.00000000000E+00 -0.00000000000E+00 -0.97488136695E+03  0.97488136695E+03  0.00000000000E+00 0.  1.
          6    2    1    2  501    0  0.52230243316E+02  0.55263665795E+02 -0.84030906225E+03  0.85971671338E+03  0.16495889211E+03 0.  0.
         24    2    3    3    0    0 -0.54059433210E+01  0.49194670458E+02 -0.25736880627E+03  0.27388380652E+03  0.79525450069E+02 0.  0.
         -6    2    1    2    0  502 -0.52230243316E+02 -0.55263665795E+02 -0.52624850901E+02  0.19711210736E+03  0.17407394079E+03 0.  0.
        -24    2    5    5    0    0  0.17603149287E+02 -0.77608080287E+02 -0.49642878622E+02  0.12358008889E+03  0.80465756577E+02 0.  0.
          5    1    3    3  501    0  0.57636186637E+02  0.60689953374E+01 -0.58294025598E+03  0.58583290686E+03  0.47000000000E+01 0. -1.
        -11    1    4    4    0    0  0.34453778959E+02  0.10204129167E+02 -0.74677665275E+02  0.82873040415E+02  0.00000000000E+00 0.  1.
         12    1    4    4    0    0 -0.39859722280E+02  0.38990541291E+02 -0.18269114100E+03  0.19101076611E+03  0.00000000000E+00 0. -1.
         -5    1    5    5    0  502 -0.69833392603E+02  0.22344414492E+02 -0.29819722790E+01  0.73532018469E+02  0.47000000000E+01 0.  1.
         11    1    6    6    0    0  0.18398958905E+02  0.20324368378E+01 -0.39074650416E+02  0.43237492913E+02  0.00000000000E+00 0. -1.
        -12    1    6    6    0    0 -0.79580961851E+00 -0.79640517125E+02 -0.10568228206E+02  0.80342595977E+02  0.00000000000E+00 0.  1.
</event>
<event>
12    1  0.8258923E-002  0.1765198E+03  0.7818608E-02  0.1171416E+00
         21   -1    0    0  503  502  0.00000000000E+00  0.00000000000E+00  0.34498342302E+03  0.34498342302E+03  0.00000000000E+00 0.  1.
         21   -1    0    0  501  503 -0.00000000000E+00 -0.00000000000E+00 -0.89921197514E+02  0.89921197514E+02  0.00000000000E+00 0.  1.
          6    2    1    2  501    0  0.25141612102E+02 -0.23840795662E+02  0.12516808538E+03  0.21639378999E+03  0.17308592823E+03 0.  0.
         24    2    3    3    0    0  0.22219938949E+02 -0.78270465568E+02  0.11228914417E+03  0.16018807616E+03  0.80195862609E+02 0.  0.
         -6    2    1    2    0  502 -0.25141612102E+02  0.23840795662E+02  0.12989414013E+03  0.21851083055E+03  0.17226146182E+03 0.  0.
        -24    2    5    5    0    0 -0.71160399776E+02  0.40736591853E+02  0.50983414805E+02  0.12549368525E+03  0.80162859480E+02 0.  0.
          5    1    3    3  501    0  0.29216731529E+01  0.54429669907E+02  0.12878941210E+02  0.56205713827E+02  0.47000000000E+01 0. -1.
        -13    1    4    4    0    0  0.44041050840E+02 -0.64382512793E+02  0.49770867795E+02  0.92530326886E+02  0.00000000000E+00 0.  1.
         14    1    4    4    0    0 -0.21821111891E+02 -0.13887952775E+02  0.62518276374E+02  0.67657749277E+02  0.00000000000E+00 0. -1.
         -5    1    5    5    0  502  0.46018787674E+02 -0.16895796191E+02  0.78910725328E+02  0.93017145300E+02  0.47000000000E+01 0.  1.
         13    1    6    6    0    0 -0.24141021735E+02 -0.16391958248E+02  0.41740307906E+02  0.50928759358E+02  0.00000000000E+00 0. -1.
        -14    1    6    6    0    0 -0.47019378041E+02  0.57128550101E+02  0.92431068987E+01  0.74564925891E+02  0.00000000000E+00 0.  1.
</event>
<event>
12    1  0.8258923E-002  0.1873183E+03  0.7818608E-02  0.1160946E+00
         21   -1    0    0  501  502  0.00000000000E+00  0.00000000000E+00  0.12586985309E+03  0.12586985309E+03  0.00000000000E+00 0.  1.
         21   -1    0    0  502  503 -0.00000000000E+00 -0.00000000000E+00 -0.40817754718E+03  0.40817754718E+03  0.00000000000E+00 0. -1.
         -6    2    1    2    0  503  0.29252764587E+02 -0.67197493808E+02 -0.29172164915E+03  0.34668382892E+03  0.17238598912E+03 0.  0.
        -24    2    3    3    0    0  0.86139213621E+02 -0.51746401950E+02 -0.18921489944E+03  0.22834310026E+03  0.78997715352E+02 0.  0.
          6    2    1    2  501    0 -0.29252764587E+02  0.67197493808E+02  0.94139550649E+01  0.18736357135E+03  0.17217798323E+03 0.  0.
         24    2    5    5    0    0 -0.46229584113E+02 -0.81826132220E+01  0.55774664806E+02  0.97131767947E+02  0.64184402341E+02 0.  0.
          5    1    5    5  501    0  0.16976819526E+02  0.75380107030E+02 -0.46360709741E+02  0.90231803400E+02  0.47000000000E+01 0. -1.
        -13    1    6    6    0    0  0.12177792438E+02 -0.10825557426E+02  0.28015963928E+02  0.32409652221E+02  0.00000000000E+00 0.  1.
         14    1    6    6    0    0 -0.58407376551E+02  0.26429442045E+01  0.27758700878E+02  0.64722115726E+02  0.00000000000E+00 0. -1.
         -5    1    3    3    0  503 -0.56886449034E+02 -0.15451091858E+02 -0.10250674971E+03  0.11834072866E+03  0.47000000000E+01 0.  1.
         11    1    4    4    0    0  0.36314716385E+02 -0.42586723970E+02 -0.16079373517E+03  0.17025572811E+03  0.00000000000E+00 0. -1.
        -12    1    4    4    0    0  0.49824497236E+02 -0.91596779792E+01 -0.28421164271E+02  0.58087372156E+02  0.00000000000E+00 0.  1.
</event>
<event>
12    1  0.8258923E-002  0.1945837E+03  0.7818608E-02  0.1154664E+00
         21   -1    0    0  501  502  0.00000000000E+00  0.00000000000E+00  0.59431189102E+03  0.59431189102E+03  0.00000000000E+00 0. -1.
         21   -1    0    0  502  503 -0.00000000000E+00 -0.00000000000E+00 -0.19778226550E+03  0.19778226550E+03  0.00000000000E+00 0.  1.
         -6    2    1    2    0  503 -0.16516380911E+02  0.85920105402E+02 -0.12851445139E+03  0.23215300160E+03  0.17240648649E+03 0.  0.
        -24    2    3    3    0    0 -0.61677641629E+02  0.60074945444E+02 -0.28927095055E+02  0.11969303848E+03  0.77952011426E+02 0.  0.
          6    2    1    2  501    0  0.16516380911E+02 -0.85920105402E+02  0.52504407692E+03  0.55994115491E+03  0.17380379428E+03 0.  0.
         24    2    5    5    0    0  0.73474633120E+01  0.22570236583E+02  0.18193429121E+03  0.19994026824E+03  0.79452021689E+02 0.  0.
          5    1    5    5  501    0  0.91689175994E+01 -0.10849034198E+03  0.34310978571E+03  0.36000088667E+03  0.47000000000E+01 0. -1.
        -11    1    6    6    0    0 -0.73894249349E+01 -0.84331771740E+01 -0.31921042561E+01  0.11658113385E+02  0.00000000000E+00 0.  1.
         12    1    6    6    0    0  0.14736888247E+02  0.31003413757E+02  0.18512639546E+03  0.18828215486E+03  0.00000000000E+00 0. -1.
         -5    1    3    3    0  503  0.45161260718E+02  0.25845159959E+02 -0.99587356339E+02  0.11245996312E+03  0.47000000000E+01 0.  1.
         11    1    4    4    0    0  0.68783318304E+01  0.35762655944E+02  0.92067809709E+01  0.37563863284E+02  0.00000000000E+00 0. -1.
        -12    1    4    4    0    0 -0.68555973460E+02  0.24312289499E+02 -0.38133876026E+02  0.82129175197E+02  0.00000000000E+00 0.  1.
</event>
<event>
12    1  0.8258923E-002  0.2621863E+03  0.7818608E-02  0.1105985E+00
         21   -1    0    0  501  502  0.00000000000E+00  0.00000000000E+00  0.12579603644E+04  0.12579603644E+04  0.00000000000E+00 0. -1.
         21   -1    0    0  502  503 -0.00000000000E+00 -0.00000000000E+00 -0.89154431602E+02  0.89154431602E+02  0.00000000000E+00 0.  1.
         -6    2    1    2    0  503  0.17381115552E+03 -0.93746231700E+02  0.16341618482E+03  0.30810074713E+03  0.17094603587E+03 0.  0.
        -24    2    3    3    0    0  0.12185854829E+03 -0.67383129093E+02  0.30913954563E+02  0.16328010772E+03  0.79465269850E+02 0.  0.
          6    2    1    2  501    0 -0.17381115552E+03  0.93746231700E+02  0.10053897480E+04  0.10390140488E+04  0.17246151648E+03 0.  0.
         24    2    5    5    0    0 -0.17468669237E+03  0.87552682371E+02  0.64568075149E+03  0.67921997058E+03  0.79089967163E+02 0.  0.
          5    1    5    5  501    0  0.87553685447E+00  0.61935493289E+01  0.35970899647E+03  0.35979407827E+03  0.47000000000E+01 0. -1.
        -13    1    6    6    0    0 -0.88211961241E+02  0.13488138596E+01  0.29353935678E+03  0.30651023373E+03  0.00000000000E+00 0.  1.
         14    1    6    6    0    0 -0.86474731133E+02  0.86203868512E+02  0.35214139471E+03  0.37270973685E+03  0.00000000000E+00 0. -1.
         -5    1    3    3    0  503  0.51952607227E+02 -0.26363102608E+02  0.13250223025E+03  0.14482063941E+03  0.47000000000E+01 0.  1.
         13    1    4    4    0    0 -0.10999741292E+02 -0.93309822042E+01 -0.21136995830E+01  0.14578383426E+02  0.00000000000E+00 0. -1.
        -14    1    4    4    0    0  0.13285828958E+03 -0.58052146888E+02  0.33027654147E+02  0.14870172429E+03  0.00000000000E+00 0.  1.
</event>
<event>
12    1  0.8258923E-002  0.2096896E+03  0.7818608E-02  0.1141868E+00
         21   -1    0    0  503  502  0.00000000000E+00  0.00000000000E+00  0.74668213216E+02  0.74668213216E+02  0.00000000000E+00 0.  1.
         21   -1    0    0  501  503 -0.00000000000E+00 -0.00000000000E+00 -0.61067663747E+03  0.61067663747E+03  0.00000000000E+00 0. -1.
          6    2    1    2  501    0  0.99242176868E+02  0.68428563058E+02 -0.33375138964E+03  0.39400717563E+03  0.17123138279E+03 0.  0.
         24    2    3    3    0    0  0.50360566766E+01  0.32799953770E+02 -0.66503389851E+02  0.10837143860E+03  0.78869949965E+02 0.  0.
         -6    2    1    2    0  502 -0.99242176868E+02 -0.68428563058E+02 -0.20225703462E+03  0.29133767505E+03  0.17157579941E+03 0.  0.
        -24    2    5    5    0    0 -0.98233094486E+02 -0.17289132644E+02 -0.20411319785E+03  0.23993928080E+03  0.77201074946E+02 0.  0.
          5    1    3    3  501    0  0.94206120192E+02  0.35628609288E+02 -0.26724799979E+03  0.28563573704E+03  0.47000000000E+01 0. -1.
        -13    1    4    4    0    0  0.28558087006E+02  0.50446463209E+01  0.37645374254E+01  0.29243538294E+02  0.00000000000E+00 0.  1.
         14    1    4    4    0    0 -0.23522030329E+02  0.27755307449E+02 -0.70267927276E+02  0.79127900301E+02  0.00000000000E+00 0. -1.
         -5    1    5    5    0  502 -0.10090823827E+01 -0.51139430414E+02  0.18561632347E+01  0.51398394258E+02  0.47000000000E+01 0.  1.
         11    1    6    6    0    0 -0.29574127238E+02 -0.75110311536E+01 -0.14689468941E+03  0.15003031150E+03  0.00000000000E+00 0. -1.
        -12    1    6    6    0    0 -0.68658967248E+02 -0.97781014907E+01 -0.57218508437E+02  0.89908969297E+02  0.00000000000E+00 0.  1.
</event>
<event>
12    1  0.8258923E-002  0.2682463E+03  0.7818608E-02  0.1102348E+00
         21   -1    0    0  503  502  0.00000000000E+00  0.00000000000E+00  0.91803286636E+03  0.91803286636E+03  0.00000000000E+00 0.  1.
         21   -1    0    0  501  503 -0.00000000000E+00 -0.00000000000E+00 -0.82033511553E+02  0.82033511553E+02  0.00000000000E+00 0.  1.
          6    2    1    2  501    0 -0.20154916414E+03  0.43044033857E+02  0.52494493852E+03  0.58932204754E+03  0.17105096556E+03 0.  0.
         24    2    3    3    0    0 -0.19943366885E+03  0.17313438649E+02  0.51970094607E+03  0.56256147380E+03  0.79453099531E+02 0.  0.
         -6    2    1    2    0  502  0.20154916414E+03 -0.43044033857E+02  0.31105441629E+03  0.41074433038E+03  0.17170090456E+03 0.  0.
        -24    2    5    5    0    0  0.63048410407E+02 -0.54842927606E+02  0.20378037762E+03  0.23509843076E+03  0.82231265835E+02 0.  0.
          5    1    3    3  501    0 -0.21154952879E+01  0.25730595208E+02  0.52439924491E+01  0.26760573739E+02  0.47000000000E+01 0. -1.
        -13    1    4    4    0    0 -0.15121348497E+03 -0.22054041968E+02  0.35522105041E+03  0.38669612547E+03  0.00000000000E+00 0.  1.
         14    1    4    4    0    0 -0.48220183885E+02  0.39367480618E+02  0.16447989566E+03  0.17586534832E+03  0.00000000000E+00 0. -1.
         -5    1    5    5    0  502  0.13850075373E+03  0.11798893749E+02  0.10727403867E+03  0.17564589961E+03  0.47000000000E+01 0.  1.
         11    1    6    6    0    0 -0.16730929134E+02 -0.26893739702E+02  0.42465959079E+02  0.52976928047E+02  0.00000000000E+00 0. -1.
        -12    1    6    6    0    0  0.79779339541E+02 -0.27949187904E+02  0.16131441854E+03  0.18212150271E+03  0.00000000000E+00 0.  1.
</event>
<event>
12    1  0.8258923E-002  0.2009030E+03  0.7818608E-02  0.1149535E+00
         21   -1    0    0  503  502  0.00000000000E+00  0.00000000000E+00  0.86414266031E+02  0.86414266031E+02  0.00000000000E+00 0.  1.
         21   -1    0    0  501  503 -0.00000000000E+00 -0.00000000000E+00 -0.47058926043E+03  0.47058926043E+03  0.00000000000E+00 0. -1.
          6    2    1    2  501    0 -0.37833484910E+02 -0.95644474636E+02 -0.23063806917E+03  0.30414865000E+03  0.16950883233E+03 0.  0.
         24    2    3    3    0    0  0.25245021862E+02 -0.56622656205E+02 -0.20035191024E+03  0.22389317197E+03  0.78382575837E+02 0.  0.
         -6    2    1    2    0  502  0.37833484910E+02  0.95644474636E+02 -0.15353692523E+03  0.25285487646E+03  0.17257683226E+03 0.  0.
        -24    2    5    5    0    0 -0.82894443846E+01  0.37350149522E+01 -0.15949130210E+02  0.81020174716E+02  0.78912791940E+02 0.  0.
          5    1    3    3  501    0 -0.63078506772E+02 -0.39021818432E+02 -0.30286158930E+02  0.80255478025E+02  0.47000000000E+01 0. -1.
        -13    1    4    4    0    0 -0.59873829497E+01  0.37783155491E+01 -0.11287244437E+03  0.11309426653E+03  0.00000000000E+00 0.  1.
         14    1    4    4    0    0  0.31232404812E+02 -0.60400971754E+02 -0.87479465863E+02  0.11079890544E+03  0.00000000000E+00 0. -1.
         -5    1    5    5    0  502  0.46122929295E+02  0.91909459684E+02 -0.13758779502E+03  0.17183470175E+03  0.47000000000E+01 0.  1.
         11    1    6    6    0    0 -0.37807146506E+02 -0.92127070055E+01 -0.26528516925E+02  0.47095822612E+02  0.00000000000E+00 0. -1.
        -12    1    6    6    0    0  0.29517702121E+02  0.12947721958E+02  0.10579386715E+02  0.33924352104E+02  0.00000000000E+00 0.  1.
</event>
<event>
12    1  0.8258923E-002  0.3271632E+03  0.7818608E-02  0.1072425E+00
         21   -1    0    0  501  502  0.00000000000E+00  0.00000000000E+00  0.81131415930E+03  0.81131415930E+03  0.00000000000E+00 0.  1.
         21   -1    0    0  502  503 -0.00000000000E+00 -0.00000000000E+00 -0.77176720052E+03  0.77176720052E+03  0.00000000000E+00 0. -1.
         -6    2    1    2    0  503 -0.16656462996E+03  0.22262365224E+03 -0.70099916750E+03  0.77348621742E+03  0.17197682754E+03 0.  0.
        -24    2    3    3    0    0 -0.13795351296E+03  0.86608300852E+02 -0.32538151353E+03  0.37294972245E+03  0.81769166642E+02 0.  0.
          6    2    1    2  501    0  0.16656462996E+03 -0.22262365224E+03  0.74054612628E+03  0.80959514240E+03  0.17242581872E+03 0.  0.
         24    2    5    5    0    0  0.62274037927E+02 -0.18148461710E+03  0.40476028380E+03  0.45555676904E+03  0.82984097506E+02 0.  0.
          5    1    5    5  501    0  0.10429059203E+03 -0.41139035144E+02  0.33578584248E+03  0.35403837336E+03  0.47000000000E+01 0. -1.
        -13    1    6    6    0    0  0.80716846328E+02 -0.11820253403E+03  0.27747971662E+03  0.31222114192E+03  0.00000000000E+00 0.  1.
         14    1    6    6    0    0 -0.18442808401E+02 -0.63282083072E+02  0.12728056718E+03  0.14333562712E+03  0.00000000000E+00 0. -1.
         -5    1    3    3    0  503 -0.28611117006E+02  0.13601535139E+03 -0.37561765397E+03  0.40053649497E+03  0.47000000000E+01 0.  1.
         13    1    4    4    0    0 -0.66880948555E+02  0.42590092503E+02 -0.24288361449E+03  0.25549839031E+03  0.00000000000E+00 0. -1.
        -14    1    4    4    0    0 -0.71072564401E+02  0.44018208348E+02 -0.82497899039E+02  0.11745133214E+03  0.00000000000E+00 0.  1.
</event>
<event>
12    1  0.8258923E-002  0.2017390E+03  0.7818608E-02  0.1148816E+00
         21   -1    0    0  503  502  0.00000000000E+00  0.00000000000E+00  0.16587874821E+03  0.16587874821E+03  0.00000000000E+00 0.  1.
         21   -1    0    0  501  503 -0.00000000000E+00 -0.00000000000E+00 -0.29478241322E+03  0.29478241322E+03  0.00000000000E+00 0.  1.
          6    2    1    2  501    0  0.42017065556E+02 -0.90802158271E+02 -0.16201207992E+03  0.25874030893E+03  0.17518038612E+03 0.  0.
         24    2    3    3    0    0  0.75299036166E+02 -0.75355410167E+02 -0.17480521595E+03  0.21959895070E+03  0.79488696915E+02 0.  0.
         -6    2    1    2    0  502 -0.42017065556E+02  0.90802158271E+02  0.33108414906E+02  0.20192085250E+03  0.17223645895E+03 0.  0.
        -24    2    5    5    0    0 -0.85642817069E+02  0.52282305819E+02  0.55406907904E+02  0.13942046835E+03  0.79372601919E+02 0.  0.
          5    1    3    3  501    0 -0.33281970610E+02 -0.15446748104E+02  0.12793136029E+02  0.39141358231E+02  0.47000000000E+01 0. -1.
        -11    1    4    4    0    0  0.28145037332E+02 -0.40529081888E+02 -0.14633563348E+03  0.15443078460E+03  0.00000000000E+00 0.  1.
         12    1    4    4    0    0  0.47153998835E+02 -0.34826328278E+02 -0.28469582467E+02  0.65168166103E+02  0.00000000000E+00 0. -1.
         -5    1    5    5    0  502  0.43625751513E+02  0.38519852452E+02 -0.22298492999E+02  0.62500384143E+02  0.47000000000E+01 0.  1.
         13    1    6    6    0    0 -0.72361252603E+02 -0.19198534008E+00  0.21256947421E+02  0.75419132522E+02  0.00000000000E+00 0. -1.
        -14    1    6    6    0    0 -0.13281564466E+02  0.52474291159E+02  0.34149960484E+02  0.64001335833E+02  0.00000000000E+00 0.  1.
</event>
<event>
12    1  0.8258923E-002  0.2225992E+03  0.7818608E-02  0.1132086E+00
         21   -1    0    0  503  502  0.00000000000E+00  0.00000000000E+00  0.14750316236E+03  0.14750316236E+03  0.00000000000E+00 0. -1.
         21   -1    0    0  501  503 -0.00000000000E+00 -0.00000000000E+00 -0.34124384298E+03  0.34124384298E+03  0.00000000000E+00 0. -1.
          6    2    1    2  501    0  0.48506162018E+02 -0.13292663302E+03 -0.13035002727E+03  0.25795649431E+03  0.17183738193E+03 0.  0.
         24    2    3    3    0    0 -0.32862725615E+02 -0.99340398100E+02 -0.97130657792E+02  0.16375167724E+03  0.80198339675E+02 0.  0.
         -6    2    1    2    0  502 -0.48506162018E+02  0.13292663302E+03 -0.63390653347E+02  0.23079051103E+03  0.17094896177E+03 0.  0.
        -24    2    5    5    0    0  0.31728322228E+02  0.35086061531E+02 -0.45724988316E+02  0.10294483996E+03  0.79177947514E+02 0.  0.
          5    1    3    3  501    0  0.81368887632E+02 -0.33586234916E+02 -0.33219369481E+02  0.94204817069E+02  0.47000000000E+01 0. -1.
        -11    1    4    4    0    0  0.13229424434E+02 -0.11560747459E+02 -0.51869089633E+02  0.54763774633E+02  0.00000000000E+00 0.  1.
         12    1    4    4    0    0 -0.46092150048E+02 -0.87779650641E+02 -0.45261568159E+02  0.10898790261E+03  0.00000000000E+00 0. -1.
         -5    1    5    5    0  502 -0.80234484245E+02  0.97840571485E+02 -0.17665665031E+02  0.12784567107E+03  0.47000000000E+01 0.  1.
         11    1    6    6    0    0 -0.20108414478E+02  0.34604788492E+02 -0.15373046894E+02  0.42873888209E+02  0.00000000000E+00 0. -1.
        -12    1    6    6    0    0  0.51836736706E+02  0.48127303919E+00 -0.30351941422E+02  0.60070951749E+02  0.00000000000E+00 0.  1.
</event>
<event>
12    1  0.8258923E-002  0.2131833E+03  0.7818608E-02  0.1139323E+00
         21   -1    0    0  503  502  0.00000000000E+00  0.00000000000E+00  0.78373857696E+02  0.78373857696E+02  0.00000000000E+00 0.  1.
         21   -1    0    0  501  503 -0.00000000000E+00 -0.00000000000E+00 -0.69719455554E+03  0.69719455554E+03  0.00000000000E+00 0.  1.
          6    2    1    2  501    0 -0.12120345276E+03 -0.35161490324E+02 -0.47007696194E+03  0.51562265074E+03  0.17019917875E+03 0.  0.
         24    2    3    3    0    0 -0.44297747415E+02  0.12131116627E+02 -0.87404298924E+02  0.12241591732E+03  0.72364984118E+02 0.  0.
         -6    2    1    2    0  502  0.12120345276E+03  0.35161490324E+02 -0.14874373591E+03  0.25994576250E+03  0.17181528775E+03 0.  0.
        -24    2    5    5    0    0  0.11720193732E+03 -0.17890694530E+02 -0.14882079435E+03  0.20653562880E+03  0.80330355852E+02 0.  0.
          5    1    3    3  501    0 -0.76905705350E+02 -0.47292606951E+02 -0.38267266302E+03  0.39320673342E+03  0.47000000000E+01 0. -1.
        -11    1    4    4    0    0 -0.24565551213E+02  0.17739863948E+02 -0.95628874100E+02  0.10031475784E+03  0.00000000000E+00 0.  1.
         12    1    4    4    0    0 -0.19732196202E+02 -0.56087473205E+01  0.82245751761E+01  0.22101159478E+02  0.00000000000E+00 0. -1.
         -5    1    5    5    0  502  0.40015154442E+01  0.53052184854E+02  0.77058440062E-01  0.53410133698E+02  0.47000000000E+01 0.  1.
         13    1    6    6    0    0 -0.11768163073E+02  0.37931208481E+01 -0.11145855270E+02  0.16646546716E+02  0.00000000000E+00 0. -1.
        -14    1    6    6    0    0  0.12897010039E+03 -0.21683815378E+02 -0.13767493908E+03  0.18988908208E+03  0.00000000000E+00 0.  1.
</event>
<event>
12    1  0.8258923E-002  0.1978242E+03  0.7818608E-02  0.1151863E+00
         21   -1    0    0  503  502  0.00000000000E+00  0.00000000000E+00  0.74033642433E+03  0.74033642433E+03  0.00000000000E+00 0. -1.
         21   -1    0    0  501  503 -0.00000000000E+00 -0.00000000000E+00 -0.82669888883E+02  0.82669888883E+02  0.00000000000E+00 0. -1.
          6    2    1    2  501    0  0.32852333004E+02 -0.89686099520E+02  0.80997548100E+02  0.21376396009E+03  0.17323843570E+03 0.  0.
         24    2    3    3    0    0 -0.33665188714E+02 -0.83699829238E+02  0.83534925096E+02  0.14676437494E+03  0.80141697609E+02 0.  0.
         -6    2    1    2    0  502 -0.32852333004E+02  0.89686099520E+02  0.57666898735E+03  0.60924235313E+03  0.17177383865E+03 0.  0.
        -24    2    5    5    0    0  0.63254666314E+00  0.10857641000E+03  0.53752350344E+03  0.55417385118E+03  0.79924362118E+02 0.  0.
          5    1    3    3  501    0  0.66517521718E+02 -0.59862702824E+01 -0.25373769963E+01  0.66999585144E+02  0.47000000000E+01 0. -1.
        -13    1    4    4    0    0 -0.59846614240E+02 -0.50842174086E+02  0.57656669007E+02  0.97420918610E+02  0.00000000000E+00 0.  1.
         14    1    4    4    0    0  0.26181425526E+02 -0.32857655152E+02  0.25878256089E+02  0.49343456333E+02  0.00000000000E+00 0. -1.
         -5    1    5    5    0  502 -0.33484879668E+02 -0.18890310476E+02  0.39145483907E+02  0.55068501946E+02  0.47000000000E+01 0.  1.
         13    1    6    6    0    0  0.14228213134E+02  0.29788207395E+02  0.48570398521E+02  0.58727020708E+02  0.00000000000E+00 0. -1.
        -14    1    6    6    0    0 -0.13595666471E+02  0.78788202601E+02  0.48895310492E+03  0.49544683047E+03  0.00000000000E+00 0.  1.
</event>
<event>
12    1  0.8258923E-002  0.2869307E+03  0.7818608E-02  0.1091990E+00
         21   -1    0    0  503  502  0.00000000000E+00  0.00000000000E+00  0.15872554429E+04  0.15872554429E+04  0.00000000000E+00 0.  1.
         21   -1    0    0  501  503 -0.00000000000E+00 -0.00000000000E+00 -0.51832677645E+02  0.51832677645E+02  0.00000000000E+00 0.  1.
          6    2    1    2  501    0  0.44896413012E+02 -0.22354286011E+03  0.77094341385E+03  0.82253566289E+03  0.17385071514E+03 0.  0.
         24    2    3    3    0    0  0.51726562226E+02 -0.12083422307E+03  0.27002577143E+03  0.31112947448E+03  0.81308584694E+02 0.  0.
         -6    2    1    2    0  502 -0.44896413012E+02  0.22354286011E+03  0.76447935140E+03  0.81655245766E+03  0.17418995141E+03 0.  0.
        -24    2    5    5    0    0 -0.73130494698E+01  0.79802298735E+02  0.50033361520E+03  0.51345359894E+03  0.82939641849E+02 0.  0.
          5    1    3    3  501    0 -0.68301492140E+01 -0.10270863704E+03  0.50091764242E+03  0.51140618841E+03  0.47000000000E+01 0. -1.
        -11    1    4    4    0    0  0.17617022667E+02 -0.11605264471E+03  0.18161645176E+03  0.21624780087E+03  0.00000000000E+00 0.  1.
         12    1    4    4    0    0  0.34109539559E+02 -0.47815783557E+01  0.88409319671E+02  0.94881673601E+02  0.00000000000E+00 0. -1.
         -5    1    5    5    0  502 -0.37583363542E+02  0.14374056138E+03  0.26414573621E+03  0.30309885872E+03  0.47000000000E+01 0.  1.
         13    1    6    6    0    0  0.13492936090E+02 -0.65017928892E+01  0.20009550958E+02  0.24994294642E+02  0.00000000000E+00 0. -1.
        -14    1    6    6    0    0 -0.20805985560E+02  0.86304091624E+02  0.48032406424E+03  0.48845930429E+03  0.00000000000E+00 0.  1.
</event>
<event>
12    1  0.8258923E-002  0.2125055E+03  0.7818608E-02  0.1139669E+00
         21   -1    0    0  503  502  0.00000000000E+00  0.00000000000E+00  0.10910596669E+03  0.10910596669E+03  0.00000000000E+00 0.  1.
         21   -1    0    0  501  503 -0.00000000000E+00 -0.00000000000E+00 -0.52389592511E+03  0.52389592511E+03  0.00000000000E+00 0. -1.
          6    2    1    2  501    0 -0.82349961232E+02 -0.92169379527E+02 -0.62037683256E+02  0.22137586522E+03  0.17286378719E+03 0.  0.
         24    2    3    3    0    0 -0.96015524074E+02 -0.10504884578E+02 -0.18571307655E+02  0.12774225400E+03  0.81509855387E+02 0.  0.
         -6    2    1    2    0  502  0.82349961232E+02  0.92169379527E+02 -0.35275227517E+03  0.41162602658E+03  0.17240970822E+03 0.  0.
        -24    2    5    5    0    0  0.85434027008E+02  0.38639356631E+02 -0.33101640167E+03  0.35357852009E+03  0.81571679190E+02 0.  0.
          5    1    3    3  501    0  0.13665562843E+02 -0.81664494948E+02 -0.43466375601E+02  0.93633611224E+02  0.47000000000E+01 0. -1.
        -13    1    4    4    0    0 -0.36133579797E+02  0.35631283391E+02 -0.57931766244E+01  0.51076264942E+02  0.00000000000E+00 0.  1.
         14    1    4    4    0    0 -0.59881944277E+02 -0.46136167969E+02 -0.12778131031E+02  0.76665989056E+02  0.00000000000E+00 0. -1.
         -5    1    5    5    0  502 -0.30840657759E+01  0.53530022896E+02 -0.21735873495E+02  0.58047506488E+02  0.47000000000E+01 0.  1.
         13    1    6    6    0    0  0.56365571792E+02  0.63606128181E+02 -0.24766216034E+03  0.26183842897E+03  0.00000000000E+00 0. -1.
        -14    1    6    6    0    0  0.29068455216E+02 -0.24966771550E+02 -0.83354241335E+02  0.91740091120E+02  0.00000000000E+00 0.  1.
</event>
<event>
12    1  0.8258923E-002  0.2157015E+03  0.7818608E-02  0.1139771E+00
         21   -1    0    0  501  502  0.00000000000E+00  0.00000000000E+00  0.30439028395E+03  0.30439028395E+03  0.00000000000E+00 0.  1.
         21   -1    0    0  502  503 -0.00000000000E+00 -0.00000000000E+00 -0.14916211321E+03  0.14916211321E+03  0.00000000000E+00 0.  1.
         -6    2    1    2    0  503  0.23799037905E+02  0.10307815028E+03  0.35985284399E+02  0.21868261623E+03  0.18797778241E+03 0.  0.
        -24    2    3    3    0    0  0.52464634760E+02 -0.71050322818E+01 -0.41043387945E+01  0.97888088003E+02  0.82232674721E+02 0.  0.
          6    2    1    2  501    0 -0.23799037905E+02 -0.10307815028E+03  0.11924288635E+03  0.23486978093E+03  0.17249188032E+03 0.  0.
         24    2    5    5    0    0 -0.67813046653E+02 -0.72374738702E+02  0.30580114389E+02  0.13112437341E+03  0.80135796051E+02 0.  0.
          5    1    5    5  501    0  0.44014008748E+02 -0.30703411578E+02  0.88662771958E+02  0.10374540751E+03  0.47000000000E+01 0. -1.
        -13    1    6    6    0    0 -0.77161536322E+02 -0.51292199136E+02  0.45937309258E+02  0.10341677215E+03  0.00000000000E+00 0.  1.
         14    1    6    6    0    0  0.93484896696E+01 -0.21082539566E+02 -0.15357194868E+02  0.27707601265E+02  0.00000000000E+00 0. -1.
         -5    1    3    3    0  503 -0.28665596855E+02  0.11018318256E+03  0.40089623194E+02  0.12079452823E+03  0.47000000000E+01 0.  1.
         13    1    4    4    0    0  0.99643098016E+01 -0.29716661293E+02  0.26329214177E+02  0.40934031654E+02  0.00000000000E+00 0. -1.
        -14    1    4    4    0    0  0.42500324959E+02  0.22611629012E+02 -0.30433552972E+02  0.56954056349E+02  0.00000000000E+00 0.  1.
</event>
<event>
12    1  0.8258923E-002  0.2000123E+03  0.7818608E-02  0.1149794E+00
         21   -1    0    0  503  502  0.00000000000E+00  0.00000000000E+00  0.73126696429E+03  0.73126696429E+03  0.00000000000E+00 0. -1.
         21   -1    0    0  501  503 -0.00000000000E+00 -0.00000000000E+00 -0.63373005092E+02  0.63373005092E+02  0.00000000000E+00 0.  1.
          6    2    1    2  501    0  0.90778115300E+02  0.46770146447E+02  0.18607535773E+03  0.27295606832E+03  0.17161836634E+03 0.  0.
         24    2    3    3    0    0  0.63866656143E+02  0.11473731675E+02  0.31514267419E+02  0.11207945670E+03  0.85779130783E+02 0.  0.
         -6    2    1    2    0  502 -0.90778115300E+02 -0.46770146447E+02  0.48181860147E+03  0.52168390106E+03  0.17197911235E+03 0.  0.
        -24    2    5    5    0    0 -0.58693321237E+02 -0.96574066684E+02  0.37267099353E+03  0.39740536389E+03  0.79220562475E+02 0.  0.
          5    1    3    3  501    0  0.26911459158E+02  0.35296414772E+02  0.15456109031E+03  0.16087661162E+03  0.47000000000E+01 0. -1.
        -13    1    4    4    0    0 -0.10635849415E+01 -0.30289031443E+02  0.10405179840E+02  0.32044100958E+02  0.00000000000E+00 0.  1.
         14    1    4    4    0    0  0.64930241084E+02  0.41762763118E+02  0.21109087579E+02  0.80035355743E+02  0.00000000000E+00 0. -1.
         -5    1    5    5    0  502 -0.32084794064E+02  0.49803920237E+02  0.10914760794E+03  0.12427853717E+03  0.47000000000E+01 0.  1.
         13    1    6    6    0    0  0.81614408014E+01 -0.62054330315E+02  0.15909930129E+03  0.17096764810E+03  0.00000000000E+00 0. -1.
        -14    1    6    6    0    0 -0.66854762038E+02 -0.34519736369E+02  0.21357169224E+03  0.22643771579E+03  0.00000000000E+00 0.  1.
</event>
<event>
12    1  0.8258923E-002  0.1776209E+03  0.7818608E-02  0.1170384E+00
         21   -1    0    0  503  502  0.00000000000E+00  0.00000000000E+00  0.11794422512E+03  0.11794422512E+03  0.00000000000E+00 0.  1.
         21   -1    0    0  501  503 -0.00000000000E+00 -0.00000000000E+00 -0.27937162738E+03  0.27937162738E+03  0.00000000000E+00 0.  1.
          6    2    1    2  501    0  0.30293235701E+02  0.24404511482E+02 -0.12453121336E+03  0.21692675737E+03  0.17330878412E+03 0.  0.
         24    2    3    3    0    0  0.84970714128E+02  0.17091328280E+02 -0.60023995937E+02  0.13191863779E+03  0.79293827916E+02 0.  0.
         -6    2    1    2    0  502 -0.30293235701E+02 -0.24404511482E+02 -0.36896188907E+02  0.18038909513E+03  0.17223715214E+03 0.  0.
        -24    2    5    5    0    0  0.50421707211E+02 -0.24130124075E+02 -0.13892994257E+02  0.96328317940E+02  0.77210867770E+02 0.  0.
          5    1    3    3  501    0 -0.54677478427E+02  0.73131832016E+01 -0.64507217420E+02  0.85008119582E+02  0.47000000000E+01 0. -1.
        -13    1    4    4    0    0  0.39416300994E+02  0.21277339648E+02  0.12201369624E+02  0.46424598945E+02  0.00000000000E+00 0.  1.
         14    1    4    4    0    0  0.45554413134E+02 -0.41860113672E+01 -0.72225365561E+02  0.85494038842E+02  0.00000000000E+00 0. -1.
         -5    1    5    5    0  502 -0.80714942911E+02 -0.27438740738E+00 -0.23003194649E+02  0.84060777189E+02  0.47000000000E+01 0.  1.
         11    1    6    6    0    0  0.51912519513E+02 -0.64458093778E+01  0.21639551946E+02  0.56610320165E+02  0.00000000000E+00 0. -1.
        -12    1    6    6    0    0 -0.14908123027E+01 -0.17684314697E+02 -0.35532546203E+02  0.39717997775E+02  0.00000000000E+00 0.  1.
</event>
<event>
12    1  0.8258923E-002  0.1744144E+03  0.7818608E-02  0.1173411E+00
         21   -1    0    0  503  502  0.00000000000E+00  0.00000000000E+00  0.78530097626E+02  0.78530097626E+02  0.00000000000E+00 0.  1.
         21   -1    0    0  501  503 -0.00000000000E+00 -0.00000000000E+00 -0.42812474926E+03  0.42812474926E+03  0.00000000000E+00 0.  1.
          6    2    1    2  501    0  0.95139556898E+01  0.12250869223E+02 -0.25354807996E+03  0.30754351833E+03  0.17336605107E+03 0.  0.
         24    2    3    3    0    0  0.61687718346E+02 -0.19139401356E+02 -0.10334756088E+03  0.14540241765E+03  0.79306074415E+02 0.  0.
         -6    2    1    2    0  502 -0.95139556898E+01 -0.12250869223E+02 -0.96046571669E+02  0.19911132856E+03  0.17372328019E+03 0.  0.
        -24    2    5    5    0    0  0.21582900874E+02 -0.70176474072E+02 -0.62994016039E+02  0.12537564100E+03  0.79751151569E+02 0.  0.
          5    1    3    3  501    0 -0.52173762656E+02  0.31390270579E+02 -0.15020051908E+03  0.16214110068E+03  0.47000000000E+01 0. -1.
        -11    1    4    4    0    0  0.15243961026E+02 -0.15663665595E+02  0.91120443885E+01  0.23680331936E+02  0.00000000000E+00 0.  1.
         12    1    4    4    0    0  0.46443757320E+02 -0.34757357609E+01 -0.11245960527E+03  0.12172208571E+03  0.00000000000E+00 0. -1.
         -5    1    5    5    0  502 -0.31096856564E+02  0.57925604850E+02 -0.33052555630E+02  0.73735687554E+02  0.47000000000E+01 0.  1.
         13    1    6    6    0    0  0.49373615551E+02 -0.62262418067E+02 -0.44630421886E+02  0.91138560301E+02  0.00000000000E+00 0. -1.
        -14    1    6    6    0    0 -0.27790714676E+02 -0.79140560057E+01 -0.18363594153E+02  0.34237080700E+02  0.00000000000E+00 0.  1.
</event>
<event>
12    1  0.8258923E-002  0.2350230E+03  0.7818608E-02  0.1123227E+00
         21   -1    0    0  503  502  0.00000000000E+00  0.00000000000E+00  0.17311520055E+03  0.17311520055E+03  0.00000000000E+00 0.  1.
         21   -1    0    0  501  503 -0.00000000000E+00 -0.00000000000E+00 -0.33441783678E+03  0.33441783678E+03  0.00000000000E+00 0.  1.
          6    2    1    2  501    0 -0.10912970754E+03 -0.11940415207E+03 -0.13597097942E+03  0.27114875982E+03  0.16990261360E+03 0.  0.
         24    2    3    3    0    0 -0.13961658770E+03 -0.64914697961E+02 -0.10224483341E+03  0.20002848566E+03  0.76489734894E+02 0.  0.
         -6    2    1    2    0  502  0.10912970754E+03  0.11940415207E+03 -0.25331656810E+02  0.23638427751E+03  0.17049688917E+03 0.  0.
        -24    2    5    5    0    0  0.12061533168E+03  0.98085253581E+02 -0.67554151229E+02  0.18748392956E+03  0.80111705059E+02 0.  0.
          5    1    3    3  501    0  0.30486880165E+02 -0.54489454109E+02 -0.33726146012E+02  0.71120274156E+02  0.47000000000E+01 0. -1.
        -13    1    4    4    0    0  0.52306265424E+01 -0.19393143109E+02 -0.11479438722E+02  0.23135059262E+02  0.00000000000E+00 0.  1.
         14    1    4    4    0    0 -0.14484721425E+03 -0.45521554852E+02 -0.90765394689E+02  0.17689342640E+03  0.00000000000E+00 0. -1.
         -5    1    5    5    0  502 -0.11485624143E+02  0.21318898488E+02  0.42222494419E+02  0.48900347950E+02  0.47000000000E+01 0.  1.
         13    1    6    6    0    0 -0.10580586654E+02  0.14217814033E+02 -0.14765167503E+02  0.23067406036E+02  0.00000000000E+00 0. -1.
        -14    1    6    6    0    0  0.13119591834E+03  0.83867439548E+02 -0.52788983726E+02  0.16441652352E+03  0.00000000000E+00 0.  1.
</event>
<event>
12    1  0.8258923E-002  0.2197418E+03  0.7818608E-02  0.1134940E+00
         21   -1    0    0  501  502  0.00000000000E+00  0.00000000000E+00  0.65426420440E+03  0.65426420440E+03  0.00000000000E+00 0. -1.
         21   -1    0    0  502  503 -0.00000000000E+00 -0.00000000000E+00 -0.74790043934E+02  0.74790043934E+02  0.00000000000E+00 0.  1.
         -6    2    1    2    0  503 -0.16373579406E+02 -0.13490077887E+03  0.21992950936E+03  0.30767696577E+03  0.16682269610E+03 0.  0.
        -24    2    3    3    0    0  0.15597231089E+02 -0.12518107938E+02  0.31369251319E+02  0.80571898056E+02  0.71469043537E+02 0.  0.
          6    2    1    2  501    0  0.16373579406E+02  0.13490077887E+03  0.35954465110E+03  0.42137728256E+03  0.17268510035E+03 0.  0.
         24    2    5    5    0    0 -0.29149530878E+01 -0.30473675044E+01  0.98422038814E+02  0.12538936520E+03  0.77574556279E+02 0.  0.
          5    1    5    5  501    0  0.19288532494E+02  0.13794814637E+03  0.26112261229E+03  0.29598791736E+03  0.47000000000E+01 0. -1.
        -13    1    6    6    0    0  0.30287295585E+02 -0.20740926466E+02  0.30424581730E+02  0.47677683228E+02  0.00000000000E+00 0.  1.
         14    1    6    6    0    0 -0.33202248673E+02  0.17693558962E+02  0.67997457084E+02  0.77711681977E+02  0.00000000000E+00 0. -1.
         -5    1    3    3    0  503 -0.31970810496E+02 -0.12238267093E+03  0.18856025804E+03  0.22710506771E+03  0.47000000000E+01 0.  1.
         11    1    4    4    0    0 -0.17988924806E+02  0.18039259531E+02  0.23158493080E+02  0.34428652338E+02  0.00000000000E+00 0. -1.
        -12    1    4    4    0    0  0.33586155895E+02 -0.30557367470E+02  0.82107582393E+01  0.46143245718E+02  0.00000000000E+00 0.  1.
</event>
<event>
12    1  0.8258923E-002  0.1945895E+03  0.7818608E-02  0.1154572E+00
         21   -1    0    0  503  502  0.00000000000E+00  0.00000000000E+00  0.53640963640E+02  0.53640963640E+02  0.00000000000E+00 0. -1.
         21   -1    0    0  501  503 -0.00000000000E+00 -0.00000000000E+00 -0.70285032029E+03  0.70285032029E+03  0.00000000000E+00 0.  1.
          6    2    1    2  501    0 -0.27202612758E+02  0.84555397483E+02 -0.32124343164E+03  0.37514273706E+03  0.17217762169E+03 0.  0.
         24    2    3    3    0    0  0.44142137458E+02  0.75652078315E+02 -0.16497786938E+03  0.20306613080E+03  0.79664238135E+02 0.  0.
         -6    2    1    2    0  502  0.27202612758E+02 -0.84555397483E+02 -0.32796592500E+03  0.38134854686E+03  0.17313425094E+03 0.  0.
        -24    2    5    5    0    0 -0.13034696633E+02 -0.11472697958E+03 -0.27211077397E+03  0.30604082262E+03  0.79275019043E+02 0.  0.
          5    1    3    3  501    0 -0.71344750216E+02  0.89033191679E+01 -0.15626556226E+03  0.17207660627E+03  0.47000000000E+01 0. -1.
        -13    1    4    4    0    0  0.60495540931E+02  0.56492747100E+02 -0.15549095956E+03  0.17614931011E+03  0.00000000000E+00 0.  1.
         14    1    4    4    0    0 -0.16353403473E+02  0.19159331215E+02 -0.94869098192E+01  0.26916820683E+02  0.00000000000E+00 0. -1.
         -5    1    5    5    0  502  0.40237309390E+02  0.30171582093E+02 -0.55855151038E+02  0.75307724242E+02  0.47000000000E+01 0.  1.
         13    1    6    6    0    0 -0.31809865843E+02 -0.10892177831E+03 -0.18736883577E+03  0.21904999880E+03  0.00000000000E+00 0. -1.
        -14    1    6    6    0    0  0.18775169210E+02 -0.58052012636E+01 -0.84741938190E+02  0.86990823820E+02  0.00000000000E+00 0.  1.
</event>
<event>
12    1  0.8258923E-002  0.2301219E+03  0.7818608E-02  0.1131621E+00
         21   -1    0    0  503  502  0.00000000000E+00  0.00000000000E+00  0.13876233315E+03  0.13876233315E+03  0.00000000000E+00 0. -1.
         21   -1    0    0  501  503 -0.00000000000E+00 -0.00000000000E+00 -0.51061525864E+03  0.51061525864E+03  0.00000000000E+00 0. -1.
          6    2    1    2  501    0  0.33326427032E+02 -0.12380564666E+03 -0.36668187720E+03  0.41919762308E+03  0.15758349929E+03 0.  0.
         24    2    3    3    0    0 -0.30094366882E+02 -0.10400243332E+03 -0.27444073769E+03  0.30542204496E+03  0.79010948533E+02 0.  0.
         -6    2    1    2    0  502 -0.33326427032E+02  0.12380564666E+03 -0.51710482892E+01  0.23017996870E+03  0.19109575968E+03 0.  0.
        -24    2    5    5    0    0 -0.49895267113E+02  0.14161611127E+03  0.41085159122E+02  0.17770649125E+03  0.85714328333E+02 0.  0.
          5    1    3    3  501    0  0.63420793913E+02 -0.19803213333E+02 -0.92241139515E+02  0.11377557813E+03  0.47000000000E+01 0. -1.
        -13    1    4    4    0    0 -0.38078016120E+02 -0.19592228118E+02 -0.14067787240E+03  0.14705119686E+03  0.00000000000E+00 0.  1.
         14    1    4    4    0    0  0.79836492379E+01 -0.84410205205E+02 -0.13376286529E+03  0.15837084810E+03  0.00000000000E+00 0. -1.
         -5    1    5    5    0  502  0.16568840082E+02 -0.17810464615E+02 -0.46256207411E+02  0.52473477448E+02  0.47000000000E+01 0.  1.
         13    1    6    6    0    0 -0.14892800411E+02  0.47218868454E+02 -0.26780900917E+02  0.56290618189E+02  0.00000000000E+00 0. -1.
        -14    1    6    6    0    0 -0.35002466703E+02  0.94397242817E+02  0.67866060039E+02  0.12141587306E+03  0.00000000000E+00 0.  1.
</event>
<event>
12    1  0.8258923E-002  0.1952596E+03  0.7818608E-02  0.1153930E+00
         21   -1    0    0  501  502  0.00000000000E+00  0.00000000000E+00  0.36981479560E+02  0.36981479560E+02  0.00000000000E+00 0. -1.
         21   -1    0    0  502  503 -0.00000000000E+00 -0.00000000000E+00 -0.25028556374E+04  0.25028556374E+04  0.00000000000E+00 0. -1.
         -6    2    1    2    0  503  0.76931603667E+02 -0.51642359685E+02 -0.22070615190E+04  0.22156299486E+04  0.17120197189E+03 0.  0.
        -24    2    3    3    0    0 -0.16108217804E+02 -0.24002915330E+02 -0.14095720038E+04  0.14122421442E+04  0.81847573938E+02 0.  0.
          6    2    1    2  501    0 -0.76931603667E+02  0.51642359685E+02 -0.25881263881E+03  0.32420716841E+03  0.17187466679E+03 0.  0.
         24    2    5    5    0    0 -0.58573827141E-01 -0.71699640199E+01 -0.18690362185E+03  0.20353675424E+03  0.80267270107E+02 0.  0.
          5    1    5    5  501    0 -0.76873029840E+02  0.58812323704E+02 -0.71909016966E+02  0.12067041418E+03  0.47000000000E+01 0. -1.
        -13    1    6    6    0    0  0.37031980205E+02  0.11503540257E+02 -0.98797078636E+02  0.10613463970E+03  0.00000000000E+00 0.  1.
         14    1    6    6    0    0 -0.37090554032E+02 -0.18673504277E+02 -0.88106543212E+02  0.97402114541E+02  0.00000000000E+00 0. -1.
         -5    1    3    3    0  503  0.93039821471E+02 -0.27639444355E+02 -0.79748951524E+03  0.80338780435E+03  0.47000000000E+01 0.  1.
         11    1    4    4    0    0 -0.39333472536E+01 -0.50015372648E+02 -0.11484697704E+04  0.11495650578E+04  0.00000000000E+00 0. -1.
        -12    1    4    4    0    0 -0.12174870550E+02  0.26012457318E+02 -0.26110223344E+03  0.26267708640E+03  0.00000000000E+00 0.  1.
</event>
<event>
12    1  0.8258923E-002  0.1886861E+03  0.7818608E-02  0.1159763E+00
         21   -1    0    0  503  502  0.00000000000E+00  0.00000000000E+00  0.46256617813E+03  0.46256617813E+03  0.00000000000E+00 0. -1.
         21   -1    0    0  501  503 -0.00000000000E+00 -0.00000000000E+00 -0.20233892618E+03  0.20233892618E+03  0.00000000000E+00 0. -1.
          6    2    1    2  501    0  0.13654050316E+02 -0.72550234607E+02 -0.13172133475E+03  0.23011506484E+03  0.17364464692E+03 0.  0.
         24    2    3    3    0    0  0.54713586059E+02 -0.24472890919E+02 -0.13373382889E+03  0.16668434212E+03  0.79413059569E+02 0.  0.
         -6    2    1    2    0  502 -0.13654050316E+02  0.72550234607E+02  0.39194858670E+03  0.43479003947E+03  0.17311474280E+03 0.  0.
        -24    2    5    5    0    0 -0.57333232482E+02 -0.83856233515E+01  0.21910592630E+03  0.23894530681E+03  0.75696991212E+02 0.  0.
          5    1    3    3  501    0 -0.41059535743E+02 -0.48077343688E+02  0.20124941392E+01  0.63430722715E+02  0.47000000000E+01 0. -1.
        -11    1    4    4    0    0  0.17381768336E+02 -0.61449224904E+01  0.71624604275E+01  0.19778442362E+02  0.00000000000E+00 0.  1.
         12    1    4    4    0    0  0.37331817724E+02 -0.18327968429E+02 -0.14089628932E+03  0.14690589976E+03  0.00000000000E+00 0. -1.
         -5    1    5    5    0  502  0.43679182165E+02  0.80935857959E+02  0.17284266040E+03  0.19584473267E+03  0.47000000000E+01 0.  1.
         13    1    6    6    0    0  0.97192816506E+01  0.96018711960E+01  0.10120835063E+03  0.10212634628E+03  0.00000000000E+00 0. -1.
        -14    1    6    6    0    0 -0.67052514132E+02 -0.17987494548E+02  0.11789757567E+03  0.13681896053E+03  0.00000000000E+00 0.  1.
</event>
<event>
12    1  0.8258923E-002  0.2038757E+03  0.7818608E-02  0.1147869E+00
         21   -1    0    0  503  502  0.00000000000E+00  0.00000000000E+00  0.34121943290E+03  0.34121943290E+03  0.00000000000E+00 0. -1.
         21   -1    0    0  501  503 -0.00000000000E+00 -0.00000000000E+00 -0.65953226481E+03  0.65953226481E+03  0.00000000000E+00 0.  1.
          6    2    1    2  501    0  0.11081018390E+03  0.72916886819E+00 -0.61303128409E+03  0.64604386271E+03  0.17113120327E+03 0.  0.
         24    2    3    3    0    0  0.92400127126E+01 -0.43559138173E+02 -0.30995987732E+03  0.32331747485E+03  0.80475385350E+02 0.  0.
         -6    2    1    2    0  502 -0.11081018390E+03 -0.72916886819E+00  0.29471845219E+03  0.35470783499E+03  0.16333785111E+03 0.  0.
        -24    2    5    5    0    0 -0.97958000672E+02  0.42187685250E+02  0.27446796969E+03  0.30531950618E+03  0.80695500437E+02 0.  0.
          5    1    3    3  501    0  0.10157017119E+03  0.44288307041E+02 -0.30307140678E+03  0.32272638786E+03  0.47000000000E+01 0. -1.
        -11    1    4    4    0    0  0.29635535522E+02 -0.32179334715E+02 -0.28785427510E+03  0.29115950653E+03  0.00000000000E+00 0.  1.
         12    1    4    4    0    0 -0.20395522810E+02 -0.11379803458E+02 -0.22105602210E+02  0.32157968321E+02  0.00000000000E+00 0. -1.
         -5    1    5    5    0  502 -0.12852183226E+02 -0.42916854118E+02  0.20250482501E+02  0.49388328809E+02  0.47000000000E+01 0.  1.
         11    1    6    6    0    0 -0.10381987854E+03  0.18260122725E+02  0.24623227833E+03  0.26784759501E+03  0.00000000000E+00 0. -1.
        -12    1    6    6    0    0  0.58618778695E+01  0.23927562524E+02  0.28235691354E+02  0.37471911170E+02  0.00000000000E+00 0.  1.
</event>
<event>
12    1  0.8258923E-002  0.2274658E+03  0.7818608E-02  0.1129033E+00
         21   -1    0    0  503  502  0.00000000000E+00  0.00000000000E+00  0.54656468883E+03  0.54656468883E+03  0.00000000000E+00 0.  1.
         21   -1    0    0  501  503 -0.00000000000E+00 -0.00000000000E+00 -0.95842654041E+02  0.95842654041E+02  0.00000000000E+00 0.  1.
          6    2    1    2  501    0 -0.10833242447E+03 -0.94535519120E+02  0.17131887741E+03  0.28212021774E+03  0.17195575284E+03 0.  0.
         24    2    3    3    0    0 -0.76001489648E+01 -0.76412387777E+02  0.42891715537E+02  0.11783064070E+03  0.78407559309E+02 0.  0.
         -6    2    1    2    0  502  0.10833242447E+03  0.94535519120E+02  0.27940315739E+03  0.36028712513E+03  0.17626062979E+03 0.  0.
        -24    2    5    5    0    0  0.10679330821E+03  0.17509121268E+02  0.23629290100E+03  0.27187887297E+03  0.79827354328E+02 0.  0.
          5    1    3    3  501    0 -0.10073227550E+03 -0.18123131343E+02  0.12842716187E+03  0.16428957704E+03  0.47000000000E+01 0. -1.
        -13    1    4    4    0    0 -0.38902306246E+02 -0.19072197331E+02  0.25315195724E+02  0.50179650027E+02  0.00000000000E+00 0.  1.
         14    1    4    4    0    0  0.31302157281E+02 -0.57340190445E+02  0.17576519814E+02  0.67650990676E+02  0.00000000000E+00 0. -1.
         -5    1    5    5    0  502  0.15391162556E+01  0.77026397852E+02  0.43110256384E+02  0.88408252162E+02  0.47000000000E+01 0.  1.
         11    1    6    6    0    0  0.47811556893E+01 -0.20951546110E+02  0.18638209428E+02  0.28446609373E+02  0.00000000000E+00 0. -1.
        -12    1    6    6    0    0  0.10201215252E+03  0.38460667378E+02  0.21765469157E+03  0.24343226360E+03  0.00000000000E+00 0.  1.
</event>
<event>
12    1  0.8258923E-002  0.2083141E+03  0.7818608E-02  0.1143553E+00
         21   -1    0    0  501  502  0.00000000000E+00  0.00000000000E+00  0.51909172266E+02  0.51909172266E+02  0.00000000000E+00 0. -1.
         21   -1    0    0  502  503 -0.00000000000E+00 -0.00000000000E+00 -0.83096327814E+03  0.83096327814E+03  0.00000000000E+00 0.  1.
         -6    2    1    2    0  503  0.11096218987E+03  0.15716766062E+02 -0.42924941110E+03  0.47573845174E+03  0.17179171466E+03 0.  0.
        -24    2    3    3    0    0  0.12879630148E+03 -0.20275080127E+02 -0.39216440762E+03  0.42086718411E+03  0.79603378743E+02 0.  0.
          6    2    1    2  501    0 -0.11096218987E+03 -0.15716766062E+02 -0.34980469477E+03  0.40713399866E+03  0.17559938514E+03 0.  0.
         24    2    5    5    0    0 -0.10943334086E+03  0.46459939582E+02 -0.26893996779E+03  0.30500920160E+03  0.81041499911E+02 0.  0.
          5    1    5    5  501    0 -0.15288490064E+01 -0.62176705644E+02 -0.80864726981E+02  0.10212479706E+03  0.47000000000E+01 0. -1.
        -13    1    6    6    0    0 -0.14541509665E+02 -0.20604045299E+02 -0.72672073892E+02  0.76923419774E+02  0.00000000000E+00 0.  1.
         14    1    6    6    0    0 -0.94891831195E+02  0.67063984881E+02 -0.19626789390E+03  0.22808578183E+03  0.00000000000E+00 0. -1.
         -5    1    3    3    0  503 -0.17834111612E+02  0.35991846189E+02 -0.37085003480E+02  0.54871267638E+02  0.47000000000E+01 0.  1.
         11    1    4    4    0    0  0.12459320799E+02 -0.28575050277E+01 -0.14928003532E+01  0.12869672205E+02  0.00000000000E+00 0. -1.
        -12    1    4    4    0    0  0.11633698068E+03 -0.17417575100E+02 -0.39067160726E+03  0.40799751190E+03  0.00000000000E+00 0.  1.
</event>
<event>
12    1  0.8258923E-002  0.1854590E+03  0.7818608E-02  0.1162772E+00
         21   -1    0    0  501  502  0.00000000000E+00  0.00000000000E+00  0.28621655286E+03  0.28621655286E+03  0.00000000000E+00 0. -1.
         21   -1    0    0  502  503 -0.00000000000E+00 -0.00000000000E+00 -0.23724041366E+03  0.23724041366E+03  0.00000000000E+00 0. -1.
         -6    2    1    2    0  503  0.41216645726E+02 -0.54601231666E+02 -0.15971622752E+03  0.24426605934E+03  0.17168729722E+03 0.  0.
        -24    2    3    3    0    0 -0.17341531126E+02 -0.46023899221E+01 -0.19162673329E+02  0.83934104171E+02  0.79723366080E+02 0.  0.
          6    2    1    2  501    0 -0.41216645726E+02  0.54601231666E+02  0.20869236673E+03  0.27919090718E+03  0.17238025507E+03 0.  0.
         24    2    5    5    0    0  0.33148630501E+02  0.28496188604E+02  0.55300283019E+02  0.10667166499E+03  0.80061590923E+02 0.  0.
          5    1    5    5  501    0 -0.74365276227E+02  0.26105043062E+02  0.15339208371E+03  0.17251924219E+03  0.47000000000E+01 0. -1.
        -11    1    6    6    0    0  0.41738876230E+02  0.37032885306E+02  0.68768729734E+02  0.88559056975E+02  0.00000000000E+00 0.  1.
         12    1    6    6    0    0 -0.85902457288E+01 -0.85366967018E+01 -0.13468446715E+02  0.18112608017E+02  0.00000000000E+00 0. -1.
         -5    1    3    3    0  503  0.58558176852E+02 -0.49998841744E+02 -0.14055355419E+03  0.16033195517E+03  0.47000000000E+01 0.  1.
         13    1    4    4    0    0  0.26665119964E+02 -0.31532716778E+01  0.12582628576E+02  0.29652896770E+02  0.00000000000E+00 0. -1.
        -14    1    4    4    0    0 -0.44006651090E+02 -0.14491182444E+01 -0.31745301905E+02  0.54281207401E+02  0.00000000000E+00 0.  1.
</event>
<event>
12    1  0.8258923E-002  0.2266150E+03  0.7818608E-02  0.1129233E+00
         21   -1    0    0  501  502  0.00000000000E+00  0.00000000000E+00  0.10197342679E+03  0.10197342679E+03  0.00000000000E+00 0.  1.
         21   -1    0    0  502  503 -0.00000000000E+00 -0.00000000000E+00 -0.51014956934E+03  0.51014956934E+03  0.00000000000E+00 0.  1.
         -6    2    1    2    0  503  0.14245143923E+03  0.37076890808E+02 -0.24490595755E+03  0.33366643041E+03  0.17229988499E+03 0.  0.
        -24    2    3    3    0    0  0.65411067834E+02  0.99961292649E+01 -0.29833585968E+02  0.10356471053E+03  0.73872024616E+02 0.  0.
          6    2    1    2  501    0 -0.14245143923E+03 -0.37076890808E+02 -0.16327018500E+03  0.27845656572E+03  0.17092044146E+03 0.  0.
         24    2    5    5    0    0 -0.12230076249E+03 -0.85531449448E+02 -0.14434340521E+03  0.22247257677E+03  0.79911973027E+02 0.  0.
          5    1    5    5  501    0 -0.20150676742E+02  0.48454558640E+02 -0.18926779786E+02  0.55983988954E+02  0.47000000000E+01 0. -1.
        -11    1    6    6    0    0 -0.29300234056E+02 -0.21961300181E+01  0.27617834806E+01  0.29511932346E+02  0.00000000000E+00 0.  1.
         12    1    6    6    0    0 -0.93000528436E+02 -0.83335319430E+02 -0.14710518869E+03  0.19296064442E+03  0.00000000000E+00 0. -1.
         -5    1    3    3    0  503  0.77040371400E+02  0.27080761543E+02 -0.21507237158E+03  0.23010171987E+03  0.47000000000E+01 0.  1.
         11    1    4    4    0    0  0.72543459236E+02 -0.53854667046E+01 -0.40769609637E+02  0.83388954901E+02  0.00000000000E+00 0. -1.
        -12    1    4    4    0    0 -0.71323914025E+01  0.15381595969E+02  0.10936023669E+02  0.20175755633E+02  0.00000000000E+00 0.  1.
</event>
<event>
12    1  0.8258923E-002  0.2124581E+03  0.7818608E-02  0.1140067E+00
         21   -1    0    0  503  502  0.00000000000E+00  0.00000000000E+00  0.18178969968E+03  0.18178969968E+03  0.00000000000E+00 0. -1.
         21   -1    0    0  501  503 -0.00000000000E+00 -0.00000000000E+00 -0.63503605991E+03  0.63503605991E+03  0.00000000000E+00 0. -1.
          6    2    1    2  501    0 -0.67015116736E+02  0.99753288134E+02 -0.54594013570E+03  0.58502722006E+03  0.17252383046E+03 0.  0.
         24    2    3    3    0    0 -0.24074547437E+02  0.53936085535E+02 -0.49188418900E+03  0.50203779953E+03  0.81260147747E+02 0.  0.
         -6    2    1    2    0  502  0.67015116736E+02 -0.99753288134E+02  0.92693775474E+02  0.23179853953E+03  0.17520468759E+03 0.  0.
        -24    2    5    5    0    0  0.95361785144E+02 -0.27954948617E+02  0.77388449929E+02  0.15296404101E+03  0.86796753637E+02 0.  0.
          5    1    3    3  501    0 -0.42940569299E+02  0.45817202598E+02 -0.54055946694E+02  0.82989420523E+02  0.47000000000E+01 0.  1.
        -13    1    4    4    0    0 -0.17386344303E+02 -0.76317344649E+01 -0.29574264398E+03  0.29635154767E+03  0.00000000000E+00 0.  1.
         14    1    4    4    0    0 -0.66882031340E+01  0.61567820000E+02 -0.19614154502E+03  0.20568625186E+03  0.00000000000E+00 0. -1.
         -5    1    5    5    0  502 -0.28346668408E+02 -0.71798339517E+02  0.15305325544E+02  0.78834498522E+02  0.47000000000E+01 0.  1.
         13    1    6    6    0    0 -0.22700864581E+01 -0.17932113897E+02  0.46789858424E+02  0.50159793188E+02  0.00000000000E+00 0. -1.
        -14    1    6    6    0    0  0.97631871602E+02 -0.10022834720E+02  0.30598591505E+02  0.10280424782E+03  0.00000000000E+00 0.  1.
</event>
<event>
12    1  0.8258923E-002  0.1853428E+03  0.7818608E-02  0.1163970E+00
         21   -1    0    0  503  502  0.00000000000E+00  0.00000000000E+00  0.61283951492E+03  0.61283951492E+03  0.00000000000E+00 0. -1.
         21   -1    0    0  501  503 -0.00000000000E+00 -0.00000000000E+00 -0.54899480390E+02  0.54899480390E+02  0.00000000000E+00 0. -1.
          6    2    1    2  501    0  0.35666124374E+02  0.36975780686E+02  0.30421190114E+03  0.35352582105E+03  0.17261617702E+03 0.  0.
         24    2    3    3    0    0  0.15369178250E+02  0.26832553753E+02  0.31617442334E+03  0.32744818673E+03  0.79371603469E+02 0.  0.
         -6    2    1    2    0  502 -0.35666124374E+02 -0.36975780686E+02  0.25372813339E+03  0.31421317426E+03  0.17808052229E+03 0.  0.
        -24    2    5    5    0    0 -0.76947798886E+02 -0.19161240547E+02  0.87772165552E+02  0.14221024477E+03  0.78941014564E+02 0.  0.
          5    1    3    3  501    0  0.20296946124E+02  0.10143226933E+02 -0.11962522196E+02  0.26077634323E+02  0.47000000000E+01 0. -1.
        -11    1    4    4    0    0  0.20255470780E+02 -0.19175943012E+02  0.49744789400E+02  0.57031087658E+02  0.00000000000E+00 0.  1.
         12    1    4    4    0    0 -0.48862925302E+01  0.46008496765E+02  0.26642963394E+03  0.27041709907E+03  0.00000000000E+00 0. -1.
         -5    1    5    5    0  502  0.41281674512E+02 -0.17814540139E+02  0.16595596784E+03  0.17200292948E+03  0.47000000000E+01 0.  1.
         13    1    6    6    0    0 -0.28659802458E+02 -0.45501944252E+02  0.60067317036E+02  0.80621918753E+02  0.00000000000E+00 0. -1.
        -14    1    6    6    0    0 -0.48287996428E+02  0.26340703705E+02  0.27704848516E+02  0.61588326021E+02  0.00000000000E+00 0.  1.
</event>
<event>
12    1  0.8258923E-002  0.2322040E+03  0.7818608E-02  0.1125183E+00
         21   -1    0    0  501  502  0.00000000000E+00  0.00000000000E+00  0.10351003841E+03  0.10351003841E+03  0.00000000000E+00 0. -1.
         21   -1    0    0  502  503 -0.00000000000E+00 -0.00000000000E+00 -0.58074900153E+03  0.58074900153E+03  0.00000000000E+00 0.  1.
         -6    2    1    2    0  503  0.15696496634E+03  0.65556711800E+01 -0.34967137823E+03  0.41974847351E+03  0.17099044060E+03 0.  0.
        -24    2    3    3    0    0  0.44142674282E+02 -0.48109390851E+02 -0.12567582840E+03  0.16301274375E+03  0.80719586216E+02 0.  0.
          6    2    1    2  501    0 -0.15696496634E+03 -0.65556711800E+01 -0.12756758489E+03  0.26451056644E+03  0.17032725430E+03 0.  0.
         24    2    5    5    0    0 -0.12885096212E+03  0.53554240386E+01 -0.21005061516E+02  0.15356042984E+03  0.80674295775E+02 0.  0.
          5    1    5    5  501    0 -0.28114004226E+02 -0.11911095219E+02 -0.10656252337E+03  0.11095013659E+03  0.47000000000E+01 0. -1.
        -13    1    6    6    0    0 -0.52845629704E+01  0.25868337376E+02  0.82208330638E+00  0.26415399019E+02  0.00000000000E+00 0.  1.
         14    1    6    6    0    0 -0.12356639915E+03 -0.20512913338E+02 -0.21827144823E+02  0.12714503082E+03  0.00000000000E+00 0. -1.
         -5    1    3    3    0  503  0.11282229206E+03  0.54665062031E+02 -0.22399554983E+03  0.25673572976E+03  0.47000000000E+01 0.  1.
         11    1    4    4    0    0  0.44391277523E+00 -0.44794476201E+02 -0.10579793021E+03  0.11489101006E+03  0.00000000000E+00 0. -1.
        -12    1    4    4    0    0  0.43698761507E+02 -0.33149146502E+01 -0.19877898192E+02  0.48121733686E+02  0.00000000000E+00 0.  1.
</event>
<event>
12    1  0.8258923E-002  0.1879972E+03  0.7818608E-02  0.1161247E+00
         21   -1    0    0  503  502  0.00000000000E+00  0.00000000000E+00  0.15836651204E+02  0.15836651204E+02  0.00000000000E+00 0. -1.
         21   -1    0    0  501  503 -0.00000000000E+00 -0.00000000000E+00 -0.22479129964E+04  0.22479129964E+04  0.00000000000E+00 0. -1.
          6    2    1    2  501    0 -0.57466264799E+02  0.30814121153E+02 -0.13214480410E+04  0.13347538689E+04  0.17632663928E+03 0.  0.
         24    2    3    3    0    0  0.81842558446E+01  0.74794281088E+01 -0.30013140212E+03  0.31105261087E+03  0.80944081321E+02 0.  0.
         -6    2    1    2    0  502  0.57466264799E+02 -0.30814121153E+02 -0.91062830417E+03  0.92899577872E+03  0.17186438511E+03 0.  0.
        -24    2    5    5    0    0 -0.34032557112E+02 -0.90717892365E+00 -0.46160261728E+03  0.46974354183E+03  0.80143501859E+02 0.  0.
          5    1    3    3  501    0 -0.65650520643E+02  0.23334693044E+02 -0.10213166389E+04  0.10237012580E+04  0.47000000000E+01 0. -1.
        -11    1    4    4    0    0 -0.20777435125E+02 -0.27134549534E+02 -0.93509975330E+02  0.99559535330E+02  0.00000000000E+00 0.  1.
         12    1    4    4    0    0  0.28961690970E+02  0.34613977643E+02 -0.20662142679E+03  0.21149307554E+03  0.00000000000E+00 0. -1.
         -5    1    5    5    0  502  0.91498821910E+02 -0.29906942229E+02 -0.44902568689E+03  0.45925223689E+03  0.47000000000E+01 0.  1.
         13    1    6    6    0    0 -0.13242342004E+01 -0.37706162832E+02 -0.18858093528E+03  0.19231816727E+03  0.00000000000E+00 0. -1.
        -14    1    6    6    0    0 -0.32708322911E+02  0.36798983908E+02 -0.27302168201E+03  0.27742537456E+03  0.00000000000E+00 0.  1.
</event>
<event>
12    1  0.8258923E-002  0.1903701E+03  0.7818608E-02  0.1158971E+00
         21   -1    0    0  503  502  0.00000000000E+00  0.00000000000E+00  0.74412250646E+03  0.74412250646E+03  0.00000000000E+00 0. -1.
         21   -1    0    0  501  503 -0.00000000000E+00 -0.00000000000E+00 -0.13493477733E+03  0.13493477733E+03  0.00000000000E+00 0. -1.
          6    2    1    2  501    0 -0.51326430130E+02  0.62016035505E+02 -0.49746635488E+02  0.19317444627E+03  0.16840798039E+03 0.  0.
         24    2    3    3    0    0 -0.19679469897E+02  0.34148453032E+02  0.24091246449E+02  0.10801427334E+03  0.97638602560E+02 0.  0.
         -6    2    1    2    0  502  0.51326430130E+02 -0.62016035505E+02  0.65893436462E+03  0.68588283752E+03  0.17251196721E+03 0.  0.
        -24    2    5    5    0    0  0.31615859777E+02 -0.91090238989E+01  0.14590924441E+03  0.16973894050E+03  0.80245021105E+02 0.  0.
          5    1    3    3  501    0 -0.31646960233E+02  0.27867582473E+02 -0.73837881936E+02  0.85160172932E+02  0.47000000000E+01 0. -1.
        -13    1    4    4    0    0 -0.53696414553E+02  0.28668556511E+02  0.36984660842E+02  0.71225390177E+02  0.00000000000E+00 0.  1.
         14    1    4    4    0    0  0.34016944657E+02  0.54798965207E+01 -0.12893414394E+02  0.36788883163E+02  0.00000000000E+00 0. -1.
         -5    1    5    5    0  502  0.19710570354E+02 -0.52907011606E+02  0.51302512021E+03  0.51614389701E+03  0.47000000000E+01 0.  1.
         11    1    6    6    0    0  0.12614029332E+02 -0.29138686512E+02  0.13714446957E+03  0.14077209355E+03  0.00000000000E+00 0. -1.
        -12    1    6    6    0    0  0.19001830445E+02  0.20029662613E+02  0.87647748450E+01  0.28966846959E+02  0.00000000000E+00 0.  1.
</event>
<event>
12    1  0.8258923E-002  0.2162622E+03  0.7818608E-02  0.1136977E+00
         21   -1    0    0  503  502  0.00000000000E+00  0.00000000000E+00  0.22382709885E+02  0.22382709885E+02  0.00000000000E+00 0. -1.
         21   -1    0    0  501  503 -0.00000000000E+00 -0.00000000000E+00 -0.20765617180E+04  0.20765617180E+04  0.00000000000E+00 0. -1.
          6    2    1    2  501    0  0.85564479604E+02  0.98653705519E+02 -0.10463299231E+04  0.10681538967E+04  0.17056554541E+03 0.  0.
         24    2    3    3    0    0  0.19797775412E+02 -0.64294931724E+01 -0.47238537050E+03  0.48095531233E+03  0.87958989897E+02 0.  0.
         -6    2    1    2    0  502 -0.85564479604E+02 -0.98653705519E+02 -0.10078490850E+04  0.10307905312E+04  0.17238186456E+03 0.  0.
        -24    2    5    5    0    0 -0.99099093856E+02 -0.12254550826E+03 -0.71869349513E+03  0.74029604039E+03  0.81730382791E+02 0.  0.
          5    1    3    3  501    0  0.65766704192E+02  0.10508319869E+03 -0.57394455258E+03  0.58719858435E+03  0.47000000000E+01 0. -1.
        -11    1    4    4    0    0 -0.27768484315E+02 -0.41721565633E+01 -0.65130866834E+02  0.70926197036E+02  0.00000000000E+00 0.  1.
         12    1    4    4    0    0  0.47566259727E+02 -0.22573366091E+01 -0.40725450367E+03  0.41002911530E+03  0.00000000000E+00 0. -1.
         -5    1    5    5    0  502  0.13534614251E+02  0.23891802744E+02 -0.28915558991E+03  0.29049449082E+03  0.47000000000E+01 0.  1.
         11    1    6    6    0    0 -0.38361662037E+01 -0.43077764516E+02 -0.31545246930E+03  0.31840331398E+03  0.00000000000E+00 0. -1.
        -12    1    6    6    0    0 -0.95262927652E+02 -0.79467743746E+02 -0.40324102583E+03  0.42189272640E+03  0.00000000000E+00 0.  1.
</event>
<event>
12    1  0.8258923E-002  0.1888692E+03  0.7818608E-02  0.1159542E+00
         21   -1    0    0  501  502  0.00000000000E+00  0.00000000000E+00  0.48966373232E+02  0.48966373232E+02  0.00000000000E+00 0.  1.
         21   -1    0    0  502  503 -0.00000000000E+00 -0.00000000000E+00 -0.72852435638E+03  0.72852435638E+03  0.00000000000E+00 0.  1.
         -6    2    1    2    0  503  0.48038838474E+02 -0.61221719332E+02 -0.32521900979E+03  0.37595906679E+03  0.17181963408E+03 0.  0.
        -24    2    3    3    0    0  0.77489791728E+02 -0.90869751180E+02 -0.26890871565E+03  0.30567888704E+03  0.82859550614E+02 0.  0.
          6    2    1    2  501    0 -0.48038838474E+02  0.61221719332E+02 -0.35433897336E+03  0.40153166282E+03  0.17209224063E+03 0.  0.
         24    2    5    5    0    0 -0.36912129440E+02 -0.47429753455E+01 -0.30602539218E+03  0.31887915696E+03  0.81531435476E+02 0.  0.
          5    1    5    5  501    0 -0.11126709034E+02  0.65964694678E+02 -0.48313581173E+02  0.82652505852E+02  0.47000000000E+01 0. -1.
        -13    1    6    6    0    0 -0.37101302964E+02  0.12303739040E+02 -0.56109480458E+02  0.68382471975E+02  0.00000000000E+00 0.  1.
         14    1    6    6    0    0  0.18917352459E+00 -0.17046714386E+02 -0.24991591172E+03  0.25049668499E+03  0.00000000000E+00 0. -1.
         -5    1    3    3    0  503 -0.29450953254E+02  0.29648031847E+02 -0.56310294141E+02  0.70280179754E+02  0.47000000000E+01 0.  1.
         11    1    4    4    0    0 -0.10586517869E+02 -0.19090816947E+02 -0.98325917255E+02  0.10072000624E+03  0.00000000000E+00 0. -1.
        -12    1    4    4    0    0  0.88076309597E+02 -0.71778934233E+02 -0.17058279839E+03  0.20495888080E+03  0.00000000000E+00 0.  1.
</event>
<event>
12    1  0.8258923E-002  0.1780189E+03  0.7818608E-02  0.1170004E+00
         21   -1    0    0  501  502  0.00000000000E+00  0.00000000000E+00  0.13816669258E+04  0.13816669258E+04  0.00000000000E+00 0. -1.
         21   -1    0    0  502  503 -0.00000000000E+00 -0.00000000000E+00 -0.22796077987E+02  0.22796077987E+02  0.00000000000E+00 0. -1.
         -6    2    1    2    0  503 -0.30780482053E+02 -0.24406461673E+02  0.67850094655E+03  0.70146580818E+03  0.17363073500E+03 0.  0.
        -24    2    3    3    0    0 -0.56356303945E+02  0.52632992026E+02  0.31701348984E+03  0.33094661644E+03  0.55514370659E+02 0.  0.
          6    2    1    2  501    0  0.30780482053E+02  0.24406461673E+02  0.68036990127E+03  0.70299719561E+03  0.17250722023E+03 0.  0.
         24    2    5    5    0    0 -0.31727175324E+02 -0.18494701486E+02  0.49291206491E+03  0.50073437786E+03  0.80149521517E+02 0.  0.
          5    1    5    5  501    0  0.62507657377E+02  0.42901163159E+02  0.18745783636E+03  0.20226281775E+03  0.47000000000E+01 0. -1.
        -11    1    6    6    0    0 -0.54403080403E+02 -0.21100982489E+02  0.24851138048E+03  0.25527015659E+03  0.00000000000E+00 0.  1.
         12    1    6    6    0    0  0.22675905079E+02  0.26062810025E+01  0.24440068443E+03  0.24546422126E+03  0.00000000000E+00 0. -1.
         -5    1    3    3    0  503  0.25575821892E+02 -0.77039453698E+02  0.36148745671E+03  0.37051919175E+03  0.47000000000E+01 0.  1.
         13    1    4    4    0    0 -0.19146125507E+02 -0.36495336289E+01  0.14280102480E+03  0.14412503565E+03  0.00000000000E+00 0. -1.
        -14    1    4    4    0    0 -0.37210178438E+02  0.56282525655E+02  0.17421246503E+03  0.18682158078E+03  0.00000000000E+00 0.  1.
</event>
<event>
12    1  0.8258923E-002  0.3004038E+03  0.7818608E-02  0.1085082E+00
         21   -1    0    0  503  502  0.00000000000E+00  0.00000000000E+00  0.10620200412E+03  0.10620200412E+03  0.00000000000E+00 0. -1.
         21   -1    0    0  501  503 -0.00000000000E+00 -0.00000000000E+00 -0.95066783381E+03  0.95066783381E+03  0.00000000000E+00 0.  1.
          6    2    1    2  501    0  0.11614339468E+03 -0.21691495932E+03 -0.24898772837E+03  0.38990910134E+03  0.17173476853E+03 0.  0.
         24    2    3    3    0    0 -0.14044551298E+02 -0.87546823224E+02 -0.99791429707E+02  0.15333640332E+03  0.75445526447E+02 0.  0.
         -6    2    1    2    0  502 -0.11614339468E+03  0.21691495932E+03 -0.59547810132E+03  0.66696073659E+03  0.17233997589E+03 0.  0.
        -24    2    5    5    0    0 -0.14865924831E+03  0.16963369712E+03 -0.43382260819E+03  0.49535832707E+03  0.79389253139E+02 0.  0.
          5    1    3    3  501    0  0.13018794598E+03 -0.12936813609E+03 -0.14919629866E+03  0.23657269802E+03  0.47000000000E+01 0. -1.
        -13    1    4    4    0    0 -0.42767397851E+02 -0.34296490105E+02 -0.57970707626E+02  0.79786605989E+02  0.00000000000E+00 0.  1.
         14    1    4    4    0    0  0.28722846553E+02 -0.53250333120E+02 -0.41820722081E+02  0.73549797327E+02  0.00000000000E+00 0. -1.
         -5    1    5    5    0  502  0.32515853628E+02  0.47281262198E+02 -0.16165549314E+03  0.17160240952E+03  0.47000000000E+01 0.  1.
         11    1    6    6    0    0  0.84831745873E+01  0.92628244501E+01 -0.11354514296E+02  0.16931897790E+02  0.00000000000E+00 0. -1.
        -12    1    6    6    0    0 -0.15714242290E+03  0.16037087267E+03 -0.42246809389E+03  0.47842642928E+03  0.00000000000E+00 0.  1.
</event>
<event>
12    1  0.8258923E-002  0.2012647E+03  0.7818608E-02  0.1148734E+00
         21   -1    0    0  501  502  0.00000000000E+00  0.00000000000E+00  0.16829120367E+03  0.16829120367E+03  0.00000000000E+00 0. -1.
         21   -1    0    0  502  503 -0.00000000000E+00 -0.00000000000E+00 -0.50287914768E+03  0.50287914768E+03  0.00000000000E+00 0. -1.
         -6    2    1    2    0  503 -0.48400647290E+02  0.93901027797E+02 -0.40970198022E+03  0.45634575076E+03  0.17098451966E+03 0.  0.
        -24    2    3    3    0    0 -0.10481892575E+02  0.39542119967E+02 -0.81198295114E+02  0.12118984085E+03  0.80127180612E+02 0.  0.
          6    2    1    2  501    0  0.48400647290E+02 -0.93901027797E+02  0.75114036200E+02  0.21482460059E+03  0.17131101805E+03 0.  0.
         24    2    5    5    0    0  0.49172796722E+02  0.37242715782E+01  0.70429441434E+02  0.11697098175E+03  0.79309962894E+02 0.  0.
          5    1    5    5  501    0 -0.77214943257E+00 -0.97625299376E+02  0.46845947660E+01  0.97853618845E+02  0.47000000000E+01 0. -1.
        -11    1    6    6    0    0 -0.81686129069E+01  0.28645800416E+02  0.14706277642E+02  0.33220215538E+02  0.00000000000E+00 0.  1.
         12    1    6    6    0    0  0.57341409629E+02 -0.24921528838E+02  0.55723163793E+02  0.83750766211E+02  0.00000000000E+00 0. -1.
         -5    1    3    3    0  503 -0.37918754715E+02  0.54358907831E+02 -0.32850368510E+03  0.33515590991E+03  0.47000000000E+01 0.  1.
         13    1    4    4    0    0  0.32615799486E+01  0.62574382541E+02 -0.62449725316E+02  0.88465583400E+02  0.00000000000E+00 0. -1.
        -14    1    4    4    0    0 -0.13743472524E+02 -0.23032262575E+02 -0.18748569798E+02  0.32724257452E+02  0.00000000000E+00 0.  1.
</event>
<event>
12    1  0.8258923E-002  0.4033933E+03  0.7818608E-02  0.1042656E+00
         21   -1    0    0  503  502  0.00000000000E+00  0.00000000000E+00  0.10125678517E+03  0.10125678517E+03  0.00000000000E+00 0. -1.
         21   -1    0    0  501  503 -0.00000000000E+00 -0.00000000000E+00 -0.16223612549E+04  0.16223612549E+04  0.00000000000E+00 0.  1.
          6    2    1    2  501    0 -0.29939511574E+03 -0.20834645133E+03 -0.85032025385E+03  0.94115389930E+03  0.17228014671E+03 0.  0.
         24    2    3    3    0    0 -0.19518203499E+03 -0.56142242163E+02 -0.50171353697E+03  0.54672365129E+03  0.77086312464E+02 0.  0.
         -6    2    1    2    0  502  0.29939511574E+03  0.20834645133E+03 -0.67078421585E+03  0.78246414075E+03  0.17103504964E+03 0.  0.
        -24    2    5    5    0    0  0.61119217496E+02  0.10437153391E+03 -0.24331901445E+03  0.28212947720E+03  0.75920506273E+02 0.  0.
          5    1    3    3  501    0 -0.10421308075E+03 -0.15220420916E+03 -0.34860671689E+03  0.39443024801E+03  0.47000000000E+01 0. -1.
        -11    1    4    4    0    0 -0.19239889223E+01 -0.36792265198E+01 -0.77594810791E+02  0.77705811255E+02  0.00000000000E+00 0.  1.
         12    1    4    4    0    0 -0.19325804607E+03 -0.52463015643E+02 -0.42411872617E+03  0.46901784004E+03  0.00000000000E+00 0. -1.
         -5    1    5    5    0  502  0.23827589825E+03  0.10397491742E+03 -0.42746520140E+03  0.50033466354E+03  0.47000000000E+01 0.  1.
         13    1    6    6    0    0  0.10549838538E+02  0.44985474449E+01 -0.98112753977E+02  0.98780810461E+02  0.00000000000E+00 0. -1.
        -14    1    6    6    0    0  0.50569378958E+02  0.99872986466E+02 -0.14520626048E+03  0.18334866674E+03  0.00000000000E+00 0.  1.
</event>
<event>
12    1  0.8258923E-002  0.1841097E+03  0.7818608E-02  0.1163929E+00
         21   -1    0    0  501  502  0.00000000000E+00  0.00000000000E+00  0.40955882780E+03  0.40955882780E+03  0.00000000000E+00 0. -1.
         21   -1    0    0  502  503 -0.00000000000E+00 -0.00000000000E+00 -0.33390758093E+03  0.33390758093E+03  0.00000000000E+00 0. -1.
         -6    2    1    2    0  503  0.63288345562E+02  0.14559438119E+02 -0.28461402333E+03  0.33897125900E+03  0.17227588406E+03 0.  0.
        -24    2    3    3    0    0 -0.20304761580E+02  0.26970676739E+02 -0.74513857978E+02  0.11246294594E+03  0.77174467485E+02 0.  0.
          6    2    1    2  501    0 -0.63288345562E+02 -0.14559438119E+02  0.36026527019E+03  0.40449514974E+03  0.17206937360E+03 0.  0.
         24    2    5    5    0    0 -0.15685309340E+02  0.50999957545E+02  0.24860779127E+03  0.26646049461E+03  0.79676450142E+02 0.  0.
          5    1    5    5  501    0 -0.47603036222E+02 -0.65559395665E+02  0.11165747892E+03  0.13803465513E+03  0.47000000000E+01 0. -1.
        -11    1    6    6    0    0 -0.14231336287E+01  0.33226890882E+02  0.24776021757E+02  0.41471711336E+02  0.00000000000E+00 0.  1.
         12    1    6    6    0    0 -0.14262175711E+02  0.17773066664E+02  0.22383176951E+03  0.22498878327E+03  0.00000000000E+00 0. -1.
         -5    1    3    3    0  503  0.83593107142E+02 -0.12411238620E+02 -0.21010016535E+03  0.22650831306E+03  0.47000000000E+01 0.  1.
         11    1    4    4    0    0  0.16773202914E+02  0.28149174098E+02 -0.67041873701E+02  0.74621238048E+02  0.00000000000E+00 0. -1.
        -12    1    4    4    0    0 -0.37077964494E+02 -0.11784973588E+01 -0.74719842773E+01  0.37841707891E+02  0.00000000000E+00 0.  1.
</event>
<event>
12    1  0.8258923E-002  0.1897449E+03  0.7818608E-02  0.1159179E+00
         21   -1    0    0  501  502  0.00000000000E+00  0.00000000000E+00  0.14882729496E+03  0.14882729496E+03  0.00000000000E+00 0.  1.
         21   -1    0    0  502  503 -0.00000000000E+00 -0.00000000000E+00 -0.32449336323E+03  0.32449336323E+03  0.00000000000E+00 0.  1.
         -6    2    1    2    0  503  0.58883483521E+02  0.54922457228E+02 -0.20954481002E+03  0.28268736077E+03  0.17181203564E+03 0.  0.
        -24    2    3    3    0    0 -0.88396532272E+01  0.78828989738E+02 -0.88983591671E+02  0.14227709434E+03  0.77669446347E+02 0.  0.
          6    2    1    2  501    0 -0.58883483521E+02 -0.54922457228E+02  0.33878741749E+02  0.19063329742E+03  0.16943890935E+03 0.  0.
         24    2    5    5    0    0  0.12197800443E+02 -0.72965500516E+01 -0.26185434946E+02  0.85988320057E+02  0.80661565846E+02 0.  0.
          5    1    5    5  501    0 -0.71081283964E+02 -0.47625907176E+02  0.60064176694E+02  0.10464497736E+03  0.47000000000E+01 0. -1.
        -11    1    6    6    0    0 -0.14163323730E+02  0.31463234359E+02 -0.15934899809E+02  0.38005998044E+02  0.00000000000E+00 0.  1.
         12    1    6    6    0    0  0.26361124172E+02 -0.38759784411E+02 -0.10250535136E+02  0.47982322013E+02  0.00000000000E+00 0. -1.
         -5    1    3    3    0  503  0.67723136748E+02 -0.23906532511E+02 -0.12056121835E+03  0.14041026642E+03  0.47000000000E+01 0.  1.
         11    1    4    4    0    0 -0.35813674672E+01  0.49404993026E+02 -0.99043245952E+02  0.11073953268E+03  0.00000000000E+00 0. -1.
        -12    1    4    4    0    0 -0.52582857600E+01  0.29423996712E+02  0.10059654281E+02  0.31537561667E+02  0.00000000000E+00 0.  1.
</event>
<event>
12    1  0.8258923E-002  0.1900511E+03  0.7818608E-02  0.1158965E+00
         21   -1    0    0  503  502  0.00000000000E+00  0.00000000000E+00  0.20716556658E+04  0.20716556658E+04  0.00000000000E+00 0.  1.
         21   -1    0    0  501  503 -0.00000000000E+00 -0.00000000000E+00 -0.22277804186E+02  0.22277804186E+02  0.00000000000E+00 0.  1.
          6    2    1    2  501    0 -0.70183884028E+02  0.27252762537E+02  0.52043988811E+03  0.55322884000E+03  0.17186035501E+03 0.  0.
         24    2    3    3    0    0 -0.10697415446E+03 -0.74050490787E+01  0.42344933335E+03  0.44375763092E+03  0.78186908157E+02 0.  0.
         -6    2    1    2    0  502  0.70183884028E+02 -0.27252762537E+02  0.15289379735E+04  0.15407046300E+04  0.17450197537E+03 0.  0.
        -24    2    5    5    0    0 -0.15460406242E+02 -0.35251539209E+02  0.45509085121E+03  0.46340770855E+03  0.78468632663E+02 0.  0.
          5    1    3    3  501    0  0.36790270435E+02  0.34657811615E+02  0.96990554762E+02  0.10947120908E+03  0.47000000000E+01 0. -1.
        -13    1    4    4    0    0 -0.10166727142E+02 -0.25192039854E+02  0.43665921270E+02  0.51426781866E+02  0.00000000000E+00 0.  1.
         14    1    4    4    0    0 -0.96807427321E+02  0.17786990775E+02  0.37978341208E+03  0.39233084905E+03  0.00000000000E+00 0. -1.
         -5    1    5    5    0  502  0.85644290270E+02  0.79987766726E+01  0.10738471223E+04  0.10772969214E+04  0.47000000000E+01 0.  1.
         11    1    6    6    0    0 -0.86626502972E+01 -0.57104568611E+02  0.22939595504E+03  0.23655544267E+03  0.00000000000E+00 0. -1.
        -12    1    6    6    0    0 -0.67977559448E+01  0.21853029402E+02  0.22569489616E+03  0.22685226588E+03  0.00000000000E+00 0.  1.
</event>
<event>
12    1  0.8258923E-002  0.2257365E+03  0.7818608E-02  0.1129767E+00
         21   -1    0    0  503  502  0.00000000000E+00  0.00000000000E+00  0.12868526856E+04  0.12868526856E+04  0.00000000000E+00 0. -1.
         21   -1    0    0  501  503 -0.00000000000E+00 -0.00000000000E+00 -0.44900306493E+02  0.44900306493E+02  0.00000000000E+00 0.  1.
          6    2    1    2  501    0  0.82543846349E+01 -0.14766100893E+03  0.38967712325E+03  0.45008973905E+03  0.16988409104E+03 0.  0.
         24    2    3    3    0    0 -0.10645418116E+02 -0.58186930350E+02  0.85263977928E+02  0.13220254785E+03  0.81905579393E+02 0.  0.
         -6    2    1    2    0  502 -0.82543846349E+01  0.14766100893E+03  0.85227525587E+03  0.88166325306E+03  0.17054345956E+03 0.  0.
        -24    2    5    5    0    0  0.16556100958E+02  0.73897821048E+02  0.69524416653E+03  0.70634234414E+03  0.99096234061E+02 0.  0.
          5    1    3    3  501    0  0.18899802751E+02 -0.89474078584E+02  0.30441314532E+03  0.31788719120E+03  0.47000000000E+01 0. -1.
        -11    1    4    4    0    0  0.10104634175E+02  0.49689168559E+01  0.60062125659E+02  0.61108532181E+02  0.00000000000E+00 0.  1.
         12    1    4    4    0    0 -0.20750052292E+02 -0.63155847205E+02  0.25201852269E+02  0.71094015670E+02  0.00000000000E+00 0. -1.
         -5    1    5    5    0  502 -0.24810485593E+02  0.73763187885E+02  0.15703108934E+03  0.17532090891E+03  0.47000000000E+01 0.  1.
         13    1    6    6    0    0 -0.22256982626E+02 -0.11736984947E+02  0.25099207275E+03  0.25225017478E+03  0.00000000000E+00 0. -1.
        -14    1    6    6    0    0  0.38813083584E+02  0.85634805995E+02  0.44425209378E+03  0.45409216937E+03  0.00000000000E+00 0.  1.
</event>
<event>
12    1  0.8258923E-002  0.2336985E+03  0.7818608E-02  0.1126312E+00
         21   -1    0    0  501  502  0.00000000000E+00  0.00000000000E+00  0.59278561341E+03  0.59278561341E+03  0.00000000000E+00 0.  1.
         21   -1    0    0  502  503 -0.00000000000E+00 -0.00000000000E+00 -0.32980120485E+03  0.32980120485E+03  0.00000000000E+00 0.  1.
         -6    2    1    2    0  503 -0.10616581887E+03 -0.89706072254E+02 -0.26506679702E+03  0.34513286489E+03  0.17186601483E+03 0.  0.
        -24    2    3    3    0    0 -0.14112280442E+03 -0.83394492108E+02 -0.24141931794E+03  0.30220128969E+03  0.78562364843E+02 0.  0.
          6    2    1    2  501    0  0.10616581887E+03  0.89706072254E+02  0.52805120558E+03  0.57745395337E+03  0.18787397920E+03 0.  0.
         24    2    5    5    0    0  0.94360901731E+02  0.76338033949E+02  0.53764330534E+03  0.55666552162E+03  0.78004512612E+02 0.  0.
          5    1    5    5  501    0  0.11804917137E+02  0.13368038304E+02 -0.95920997614E+01  0.20788431748E+02  0.47000000000E+01 0. -1.
        -11    1    6    6    0    0  0.19557879065E+02  0.44161151044E+02  0.33186776618E+03  0.33536388017E+03  0.00000000000E+00 0.  1.
         12    1    6    6    0    0  0.74803022666E+02  0.32176882905E+02  0.20577553916E+03  0.22130164145E+03  0.00000000000E+00 0. -1.
         -5    1    3    3    0  503  0.34956985556E+02 -0.63115801451E+01 -0.23647479077E+02  0.42931575207E+02  0.47000000000E+01 0.  1.
         13    1    4    4    0    0  0.82828432994E+01  0.33913776642E+01 -0.10523226008E+02  0.13814674126E+02  0.00000000000E+00 0. -1.
        -14    1    4    4    0    0 -0.14940564772E+03 -0.86785869773E+02 -0.23089609193E+03  0.28838661556E+03  0.00000000000E+00 0.  1.
</event>
<event>
12    1  0.8258923E-002  0.1731514E+03  0.7818608E-02  0.1174918E+00
         21   -1    0    0  501  502  0.00000000000E+00  0.00000000000E+00  0.12373850001E+03  0.12373850001E+03  0.00000000000E+00 0.  1.
         21   -1    0    0  502  503 -0.00000000000E+00 -0.00000000000E+00 -0.27365716847E+03  0.27365716847E+03  0.00000000000E+00 0.  1.
         -6    2    1    2    0  503 -0.15375791986E+02  0.14502347216E+02 -0.60972999972E+01  0.17325867830E+03  0.17185650841E+03 0.  0.
        -24    2    3    3    0    0  0.39378686727E+02 -0.39374467940E+02 -0.77915173190E+01  0.96279950568E+02  0.78154279764E+02 0.  0.
          6    2    1    2  501    0  0.15375791986E+02 -0.14502347216E+02 -0.14382136846E+03  0.22413699018E+03  0.17060501542E+03 0.  0.
         24    2    5    5    0    0  0.32075583043E+00 -0.74071615857E+02 -0.84104294260E+02  0.13832690434E+03  0.81080780660E+02 0.  0.
          5    1    5    5  501    0  0.15055036155E+02  0.59569268642E+02 -0.59717074204E+02  0.85810085839E+02  0.47000000000E+01 0. -1.
        -13    1    6    6    0    0  0.12516617910E+02 -0.31503025677E+02 -0.87578073792E+02  0.93909665955E+02  0.00000000000E+00 0.  1.
         14    1    6    6    0    0 -0.12195862079E+02 -0.42568590181E+02  0.34737795325E+01  0.44417238389E+02  0.00000000000E+00 0. -1.
         -5    1    3    3    0  503 -0.54754478712E+02  0.53876815155E+02  0.16942173218E+01  0.76978727728E+02  0.47000000000E+01 0.  1.
         11    1    4    4    0    0 -0.40509653536E+01 -0.12807298854E+01 -0.32984150961E+02  0.33256650523E+02  0.00000000000E+00 0. -1.
        -12    1    4    4    0    0  0.43429652080E+02 -0.38093738054E+02  0.25192633642E+02  0.63023300045E+02  0.00000000000E+00 0.  1.
</event>
<event>
12    1  0.8258923E-002  0.2080302E+03  0.7818608E-02  0.1143926E+00
         21   -1    0    0  501  502  0.00000000000E+00  0.00000000000E+00  0.53549628342E+03  0.53549628342E+03  0.00000000000E+00 0.  1.
         21   -1    0    0  502  503 -0.00000000000E+00 -0.00000000000E+00 -0.80346727882E+02  0.80346727882E+02  0.00000000000E+00 0.  1.
         -6    2    1    2    0  503 -0.10349476688E+03  0.38020527070E+02  0.19039533411E+03  0.27913640066E+03  0.17178480630E+03 0.  0.
        -24    2    3    3    0    0 -0.70924205929E+02  0.52250614121E+01  0.30244392038E+02  0.11238269530E+03  0.81594133974E+02 0.  0.
          6    2    1    2  501    0  0.10349476688E+03 -0.38020527070E+02  0.26475422143E+03  0.33670661064E+03  0.17640809685E+03 0.  0.
         24    2    5    5    0    0  0.10276186971E+03  0.20789148933E+02  0.11411200982E+03  0.17492193569E+03  0.81141495055E+02 0.  0.
          5    1    5    5  501    0  0.73289716581E+00 -0.58809676003E+02  0.15064221161E+03  0.16178467495E+03  0.47000000000E+01 0. -1.
        -11    1    6    6    0    0  0.92643585202E+02 -0.16092214107E+02  0.86345441546E+02  0.12766099056E+03  0.00000000000E+00 0.  1.
         12    1    6    6    0    0  0.10118284510E+02  0.36881363040E+02  0.27766568275E+02  0.47260945133E+02  0.00000000000E+00 0. -1.
         -5    1    3    3    0  503 -0.32570560949E+02  0.32795465658E+02  0.16015094207E+03  0.16675370537E+03  0.47000000000E+01 0.  1.
         11    1    4    4    0    0 -0.72984368597E+02 -0.25527723227E+02  0.23736433548E+02  0.80881400768E+02  0.00000000000E+00 0. -1.
        -12    1    4    4    0    0  0.20601626686E+01  0.30752784639E+02  0.65079584897E+01  0.31501294528E+02  0.00000000000E+00 0.  1.
</event>
<event>
12    1  0.8258923E-002  0.2548005E+03  0.7818608E-02  0.1110427E+00
         21   -1    0    0  503  502  0.00000000000E+00  0.00000000000E+00  0.99901755610E+02  0.99901755610E+02  0.00000000000E+00 0.  1.
         21   -1    0    0  501  503 -0.00000000000E+00 -0.00000000000E+00 -0.69813416038E+03  0.69813416038E+03  0.00000000000E+00 0. -1.
          6    2    1    2  501    0  0.18792234296E+03  0.76650536550E-01 -0.40655297781E+03  0.47980060776E+03  0.17207116720E+03 0.  0.
         24    2    3    3    0    0  0.12212738486E+03 -0.53354122175E+02 -0.17661177332E+03  0.23469069057E+03  0.78270309048E+02 0.  0.
         -6    2    1    2    0  502 -0.18792234296E+03 -0.76650536550E-01 -0.19167942696E+03  0.31823530822E+03  0.17093243057E+03 0.  0.
        -24    2    5    5    0    0 -0.20777215357E+03 -0.21278303327E+02 -0.15980242695E+03  0.27485607136E+03  0.79918773202E+02 0.  0.
          5    1    3    3  501    0  0.65794958103E+02  0.53430772711E+02 -0.22994120449E+03  0.24510991720E+03  0.47000000000E+01 0. -1.
        -13    1    4    4    0    0  0.95900061439E+02 -0.27241531041E+02 -0.69939158166E+02  0.12178016523E+03  0.00000000000E+00 0.  1.
         14    1    4    4    0    0  0.26227323422E+02 -0.26112591134E+02 -0.10667261515E+03  0.11291052534E+03  0.00000000000E+00 0. -1.
         -5    1    5    5    0  502  0.19849810605E+02  0.21201652790E+02 -0.31877000003E+02  0.43379236868E+02  0.47000000000E+01 0.  1.
         13    1    6    6    0    0 -0.80038310687E+02 -0.27126027394E+02 -0.10741106547E+03  0.13667146566E+03  0.00000000000E+00 0. -1.
        -14    1    6    6    0    0 -0.12773384288E+03  0.58477240674E+01 -0.52391361487E+02  0.13818460570E+03  0.00000000000E+00 0.  1.
</event>
<event>
12    1  0.8258923E-002  0.1864806E+03  0.7818608E-02  0.1164375E+00
         21   -1    0    0  503  502  0.00000000000E+00  0.00000000000E+00  0.16290924894E+03  0.16290924894E+03  0.00000000000E+00 0. -1.
         21   -1    0    0  501  503 -0.00000000000E+00 -0.00000000000E+00 -0.20076748138E+03  0.20076748138E+03  0.00000000000E+00 0. -1.
          6    2    1    2  501    0 -0.51804551040E+02  0.49917223787E+02 -0.15459287528E+02  0.17585570172E+03  0.15972099899E+03 0.  0.
         24    2    3    3    0    0 -0.25786783224E+02  0.72784386123E+02  0.33198784799E+02  0.11594302061E+03  0.79863005600E+02 0.  0.
         -6    2    1    2    0  502  0.51804551040E+02 -0.49917223787E+02 -0.22398944919E+02  0.18782102860E+03  0.17204530017E+03 0.  0.
        -24    2    5    5    0    0  0.59691682576E+02  0.43684161816E+01 -0.62617761425E+02  0.11963906066E+03  0.82524788768E+02 0.  0.
          5    1    3    3  501    0 -0.26017767816E+02 -0.22867162337E+02 -0.48658072326E+02  0.59912681111E+02  0.47000000000E+01 0. -1.
        -11    1    4    4    0    0  0.97458648037E+01  0.15624698124E+02  0.44073864668E+02  0.47766291660E+02  0.00000000000E+00 0.  1.
         12    1    4    4    0    0 -0.35532648028E+02  0.57159687999E+02 -0.10875079869E+02  0.68176728949E+02  0.00000000000E+00 0. -1.
         -5    1    5    5    0  502 -0.78871315365E+01 -0.54285639968E+02  0.40218816506E+02  0.68181967937E+02  0.47000000000E+01 0.  1.
         13    1    6    6    0    0  0.13305174345E+02 -0.18330296212E+02  0.14451164116E+02  0.26867518827E+02  0.00000000000E+00 0. -1.
        -14    1    6    6    0    0  0.46386508231E+02  0.22698712394E+02 -0.77068925541E+02  0.92771541834E+02  0.00000000000E+00 0.  1.
</event>
<event>
12    1  0.8258923E-002  0.1943202E+03  0.7818608E-02  0.1155763E+00
         21   -1    0    0  501  502  0.00000000000E+00  0.00000000000E+00  0.63696953465E+03  0.63696953465E+03  0.00000000000E+00 0.  1.
         21   -1    0    0  502  503 -0.00000000000E+00 -0.00000000000E+00 -0.59306081596E+02  0.59306081596E+02  0.00000000000E+00 0.  1.
         -6    2    1    2    0  503  0.40084383711E+02 -0.79654727530E+02  0.34946028190E+03  0.39985350698E+03  0.17265197647E+03 0.  0.
        -24    2    3    3    0    0  0.74527169576E+02 -0.26608497940E+02  0.13142833499E+03  0.17278473359E+03  0.79491167787E+02 0.  0.
          6    2    1    2  501    0 -0.40084383711E+02  0.79654727530E+02  0.22820317115E+03  0.29642210927E+03  0.16684647466E+03 0.  0.
         24    2    5    5    0    0 -0.42262826405E+02  0.78040133185E+02  0.24829449112E+03  0.27561096645E+03  0.80217464586E+02 0.  0.
          5    1    5    5  501    0  0.21784426936E+01  0.16145943452E+01 -0.20091319967E+02  0.20811142821E+02  0.47000000000E+01 0. -1.
        -11    1    6    6    0    0 -0.41871365225E+02  0.34581140848E+02  0.54254451568E+02  0.76763350911E+02  0.00000000000E+00 0.  1.
         12    1    6    6    0    0 -0.39146117989E+00  0.43458992337E+02  0.19404003955E+03  0.19884761554E+03  0.00000000000E+00 0. -1.
         -5    1    3    3    0  503 -0.34442785865E+02 -0.53046229590E+02  0.21803194691E+03  0.22706877339E+03  0.47000000000E+01 0.  1.
         13    1    4    4    0    0  0.79194857770E+02 -0.22393443849E+02  0.13985276375E+03  0.16227164679E+03  0.00000000000E+00 0. -1.
        -14    1    4    4    0    0 -0.46676881939E+01 -0.42150540912E+01 -0.84244287600E+01  0.10513086797E+02  0.00000000000E+00 0.  1.
</event>
<event>
12    1  0.8258923E-002  0.1865989E+03  0.7818608E-02  0.1161584E+00
         21   -1    0    0  501  502  0.00000000000E+00  0.00000000000E+00  0.44708787911E+03  0.44708787911E+03  0.00000000000E+00 0.  1.
         21   -1    0    0  502  503 -0.00000000000E+00 -0.00000000000E+00 -0.11838644934E+03  0.11838644934E+03  0.00000000000E+00 0. -1.
         -6    2    1    2    0  503  0.30779511572E+02  0.63738226313E+02  0.32978138927E+03  0.37887232783E+03  0.17256458578E+03 0.  0.
        -24    2    3    3    0    0  0.78586253456E+02  0.72299173109E+02  0.27065802707E+03  0.30221441019E+03  0.81699525368E+02 0.  0.
          6    2    1    2  501    0 -0.30779511572E+02 -0.63738226313E+02 -0.10799594937E+01  0.18660200062E+03  0.17265341148E+03 0.  0.
         24    2    5    5    0    0  0.29198560989E+02 -0.48603495823E+02  0.45897741237E+02  0.10878539814E+03  0.80701948106E+02 0.  0.
          5    1    5    5  501    0 -0.59978072560E+02 -0.15134730490E+02 -0.46977700731E+02  0.77816602477E+02  0.47000000000E+01 0. -1.
        -11    1    6    6    0    0 -0.16718286500E+02 -0.37461133116E+02 -0.25633497427E+01  0.41102413064E+02  0.00000000000E+00 0.  1.
         12    1    6    6    0    0  0.45916847489E+02 -0.11142362707E+02  0.48461090980E+02  0.67682985078E+02  0.00000000000E+00 0. -1.
         -5    1    3    3    0  503 -0.47806741884E+02 -0.85609467967E+01  0.59123362198E+02  0.76657917642E+02  0.47000000000E+01 0.  1.
         13    1    4    4    0    0  0.59647591465E+02  0.21080257668E+02  0.21551218269E+03  0.22460568408E+03  0.00000000000E+00 0. -1.
        -14    1    4    4    0    0  0.18938661991E+02  0.51218915441E+02  0.55145844379E+02  0.77608726115E+02  0.00000000000E+00 0.  1.
</event>
<event>
12    1  0.8258923E-002  0.1817833E+03  0.7818608E-02  0.1166472E+00
         21   -1    0    0  503  502  0.00000000000E+00  0.00000000000E+00  0.77177731173E+02  0.77177731173E+02  0.00000000000E+00 0.  1.
         21   -1    0    0  501  503 -0.00000000000E+00 -0.00000000000E+00 -0.46307159945E+03  0.46307159945E+03  0.00000000000E+00 0.  1.
          6    2    1    2  501    0  0.10139052155E+02  0.55368314187E+02 -0.11567604364E+03  0.21546720010E+03  0.17284882601E+03 0.  0.
         24    2    3    3    0    0  0.71849851324E+02  0.46225252821E+02 -0.61486356163E+02  0.13269987241E+03  0.80805377351E+02 0.  0.
         -6    2    1    2    0  502 -0.10139052155E+02 -0.55368314187E+02 -0.27021782464E+03  0.32478213052E+03  0.17116456689E+03 0.  0.
        -24    2    5    5    0    0  0.35510249927E+02 -0.80643462426E+02 -0.13296235809E+03  0.17786771668E+03  0.78699365210E+02 0.  0.
          5    1    3    3  501    0 -0.61710799169E+02  0.91430613659E+01 -0.54189687478E+02  0.82767327697E+02  0.47000000000E+01 0. -1.
        -13    1    4    4    0    0  0.60328170690E+02  0.57615645469E+02 -0.74557220619E+02  0.11188310832E+03  0.00000000000E+00 0.  1.
         14    1    4    4    0    0  0.11521680634E+02 -0.11390392648E+02  0.13070864456E+02  0.20816764084E+02  0.00000000000E+00 0. -1.
         -5    1    5    5    0  502 -0.45649302082E+02  0.25275148239E+02 -0.13725546655E+03  0.14691441385E+03  0.47000000000E+01 0.  1.
         13    1    6    6    0    0  0.22182372402E+02 -0.78536086827E+02 -0.14044834523E+03  0.16243679465E+03  0.00000000000E+00 0. -1.
        -14    1    6    6    0    0  0.13327877524E+02 -0.21073755987E+01  0.74859871337E+01  0.15430922026E+02  0.00000000000E+00 0.  1.
</event>
<event>
12    1  0.8258923E-002  0.1817588E+03  0.7818608E-02  0.1167781E+00
         21   -1    0    0  503  502  0.00000000000E+00  0.00000000000E+00  0.14458584781E+04  0.14458584781E+04  0.00000000000E+00 0.  1.
         21   -1    0    0  501  503 -0.00000000000E+00 -0.00000000000E+00 -0.30343147068E+02  0.30343147068E+02  0.00000000000E+00 0.  1.
          6    2    1    2  501    0  0.57429939431E+02 -0.18741610063E+02  0.31085008783E+03  0.35668317537E+03  0.16415134660E+03 0.  0.
         24    2    3    3    0    0 -0.79137840077E+01 -0.32959945679E+02  0.82138021359E+02  0.11834882490E+03  0.78171630442E+02 0.  0.
         -6    2    1    2    0  502 -0.57429939431E+02  0.18741610063E+02  0.11046652432E+04  0.11195184498E+04  0.17142582661E+03 0.  0.
        -24    2    5    5    0    0 -0.27352869142E+01  0.50954448063E+02  0.34772840642E+03  0.35991023709E+03  0.77566078672E+02 0.  0.
          5    1    3    3  501    0  0.65343723439E+02  0.14218335616E+02  0.22871206648E+03  0.23833435047E+03  0.47000000000E+01 0. -1.
        -11    1    4    4    0    0  0.15515477540E+02 -0.32042632586E+02  0.29055289544E+01  0.35719776663E+02  0.00000000000E+00 0.  1.
         12    1    4    4    0    0 -0.23429261548E+02 -0.91731309344E+00  0.79232492404E+02  0.82629048237E+02  0.00000000000E+00 0. -1.
         -5    1    5    5    0  502 -0.54694652517E+02 -0.32212838000E+02  0.75693683677E+03  0.75960821270E+03  0.47000000000E+01 0.  1.
         11    1    6    6    0    0  0.64112128315E+01  0.54920370428E+02  0.34523360796E+03  0.34963351499E+03  0.00000000000E+00 0. -1.
        -12    1    6    6    0    0 -0.91464997457E+01 -0.39659223647E+01  0.24947984567E+01  0.10276722101E+02  0.00000000000E+00 0.  1.
</event>
<event>
12    1  0.8258923E-002  0.1832200E+03  0.7818608E-02  0.1164835E+00
         21   -1    0    0  501  502  0.00000000000E+00  0.00000000000E+00  0.14197530772E+03  0.14197530772E+03  0.00000000000E+00 0. -1.
         21   -1    0    0  502  503 -0.00000000000E+00 -0.00000000000E+00 -0.73566066642E+03  0.73566066642E+03  0.00000000000E+00 0. -1.
         -6    2    1    2    0  503  0.25456596221E+02  0.58130902818E+02 -0.65842453094E+03  0.68331474522E+03  0.17137367925E+03 0.  0.
        -24    2    3    3    0    0 -0.42350236600E+02  0.52249776623E+02 -0.50103498222E+03  0.51177491233E+03  0.79711516010E+02 0.  0.
          6    2    1    2  501    0 -0.25456596221E+02 -0.58130902818E+02  0.64739172244E+02  0.19432122891E+03  0.17187885102E+03 0.  0.
         24    2    5    5    0    0  0.26087577858E+02 -0.45168922615E+02 -0.17235310600E+02  0.96511614609E+02  0.79351386466E+02 0.  0.
          5    1    5    5  501    0 -0.51544174079E+02 -0.12961980202E+02  0.81974482844E+02  0.97809614302E+02  0.47000000000E+01 0. -1.
        -11    1    6    6    0    0 -0.26895414096E+01 -0.53406765912E+01 -0.41347482107E+02  0.41777634400E+02  0.00000000000E+00 0.  1.
         12    1    6    6    0    0  0.28777119268E+02 -0.39828246024E+02  0.24112171507E+02  0.54733980209E+02  0.00000000000E+00 0. -1.
         -5    1    3    3    0  503  0.67806832821E+02  0.58811261952E+01 -0.15738954872E+03  0.17153983289E+03  0.47000000000E+01 0.  1.
         13    1    4    4    0    0  0.72869888059E+01 -0.15058549594E+02 -0.14928935731E+03  0.15022374090E+03  0.00000000000E+00 0. -1.
        -14    1    4    4    0    0 -0.49637225406E+02  0.67308326217E+02 -0.35174562491E+03  0.36155117144E+03  0.00000000000E+00 0.  1.
</event>
<event>
12    1  0.8258923E-002  0.1921679E+03  0.7818608E-02  0.1156621E+00
         21   -1    0    0  501  502  0.00000000000E+00  0.00000000000E+00  0.34478149707E+02  0.34478149707E+02  0.00000000000E+00 0.  1.
         21   -1    0    0  502  503 -0.00000000000E+00 -0.00000000000E+00 -0.11011726726E+04  0.11011726726E+04  0.00000000000E+00 0.  1.
         -6    2    1    2    0  503 -0.37800354717E+02 -0.76334235792E+02 -0.43500137081E+03  0.47537455630E+03  0.17175271117E+03 0.  0.
        -24    2    3    3    0    0  0.26734026195E+02 -0.24516015133E+02 -0.97952092252E+02  0.12828073542E+03  0.74468728665E+02 0.  0.
          6    2    1    2  501    0  0.37800354717E+02  0.76334235792E+02 -0.63169315207E+03  0.66027626600E+03  0.17225773336E+03 0.  0.
         24    2    5    5    0    0  0.49938307252E+02  0.11474368250E+03 -0.43713582272E+03  0.46153709046E+03  0.79175824370E+02 0.  0.
          5    1    5    5  501    0 -0.12137952535E+02 -0.38409446712E+02 -0.19455732936E+03  0.19873917554E+03  0.47000000000E+01 0. -1.
        -13    1    6    6    0    0  0.43681985197E+02  0.10783678825E+03 -0.26826049409E+03  0.29240482455E+03  0.00000000000E+00 0.  1.
         14    1    6    6    0    0  0.62563220546E+01  0.69068942547E+01 -0.16887532863E+03  0.16913226591E+03  0.00000000000E+00 0. -1.
         -5    1    3    3    0  503 -0.64534380912E+02 -0.51818220659E+02 -0.33704927856E+03  0.34709382087E+03  0.47000000000E+01 0.  1.
         11    1    4    4    0    0 -0.40433579758E+01 -0.43125923614E+02 -0.34627312772E+02  0.55454889966E+02  0.00000000000E+00 0. -1.
        -12    1    4    4    0    0  0.30777384171E+02  0.18609908481E+02 -0.63324779480E+02  0.72825845455E+02  0.00000000000E+00 0.  1.
</event>
<event>
12    1  0.8258923E-002  0.1868250E+03  0.7818608E-02  0.1161663E+00
         21   -1    0    0  503  502  0.00000000000E+00  0.00000000000E+00  0.41132486807E+03  0.41132486807E+03  0.00000000000E+00 0. -1.
         21   -1    0    0  501  503 -0.00000000000E+00 -0.00000000000E+00 -0.85201172245E+02  0.85201172245E+02  0.00000000000E+00 0. -1.
          6    2    1    2  501    0  0.12264985743E+02  0.69145856376E+02  0.13633600053E+03  0.23021237670E+03  0.17169348856E+03 0.  0.
         24    2    3    3    0    0 -0.53943873853E+02  0.13106507606E+02  0.80514349962E+02  0.12695460037E+03  0.80951763031E+02 0.  0.
         -6    2    1    2    0  502 -0.12264985743E+02 -0.69145856376E+02  0.18978769530E+03  0.26631366362E+03  0.17312428719E+03 0.  0.
        -24    2    5    5    0    0 -0.57271914162E+02  0.54508410518E+01  0.90522486733E+02  0.13415481032E+03  0.80581689662E+02 0.  0.
          5    1    3    3  501    0  0.66208859596E+02  0.56039348770E+02  0.55821650567E+02  0.10325777632E+03  0.47000000000E+01 0. -1.
        -11    1    4    4    0    0 -0.13740059728E+02 -0.33146908484E+01  0.82285277114E+02  0.83490378167E+02  0.00000000000E+00 0.  1.
         12    1    4    4    0    0 -0.40203814125E+02  0.16421198454E+02 -0.17709271519E+01  0.43464222204E+02  0.00000000000E+00 0. -1.
         -5    1    5    5    0  502  0.45006928419E+02 -0.74596697428E+02  0.99265208563E+02  0.13215885329E+03  0.47000000000E+01 0.  1.
         13    1    6    6    0    0 -0.33189298799E+02 -0.22366383030E+02  0.88705635026E+02  0.97316362088E+02  0.00000000000E+00 0. -1.
        -14    1    6    6    0    0 -0.24082615363E+02  0.27817224082E+02  0.18168517069E+01  0.36838448236E+02  0.00000000000E+00 0.  1.
</event>
<event>
12    1  0.8258923E-002  0.1890202E+03  0.7818608E-02  0.1161712E+00
         21   -1    0    0  501  502  0.00000000000E+00  0.00000000000E+00  0.93234084199E+02  0.93234084199E+02  0.00000000000E+00 0.  1.
         21   -1    0    0  502  503 -0.00000000000E+00 -0.00000000000E+00 -0.63682748352E+03  0.63682748352E+03  0.00000000000E+00 0.  1.
         -6    2    1    2    0  503 -0.12217942679E+02 -0.74168944454E+02 -0.51537261714E+03  0.54894222112E+03  0.17343101563E+03 0.  0.
        -24    2    3    3    0    0 -0.35493380434E+02 -0.10420258070E+03 -0.47231652619E+03  0.49132553711E+03  0.78739600087E+02 0.  0.
          6    2    1    2  501    0  0.12217942679E+02  0.74168944454E+02 -0.28220782173E+02  0.18111934659E+03  0.16234991444E+03 0.  0.
         24    2    5    5    0    0 -0.50744398562E+02  0.33788073326E+02 -0.29819062099E+02  0.10615591774E+03  0.81628882887E+02 0.  0.
          5    1    5    5  501    0  0.62962341241E+02  0.40380871128E+02  0.15982799254E+01  0.74963428859E+02  0.47000000000E+01 0. -1.
        -13    1    6    6    0    0 -0.12454310051E+02 -0.23307005065E+02 -0.26356830883E+02  0.37323033882E+02  0.00000000000E+00 0.  1.
         14    1    6    6    0    0 -0.38290088512E+02  0.57095078391E+02 -0.34622312159E+01  0.68832883854E+02  0.00000000000E+00 0. -1.
         -5    1    3    3    0  503  0.23275437755E+02  0.30033636241E+02 -0.43056090953E+02  0.57616684014E+02  0.47000000000E+01 0.  1.
         13    1    4    4    0    0  0.23512469523E+02 -0.44459080002E+02 -0.14786870254E+03  0.15618770505E+03  0.00000000000E+00 0. -1.
        -14    1    4    4    0    0 -0.59005849957E+02 -0.59743500693E+02 -0.32444782365E+03  0.33513783206E+03  0.00000000000E+00 0.  1.
</event>
<event>
12    1  0.8258923E-002  0.2166040E+03  0.7818608E-02  0.1136754E+00
         21   -1    0    0  501  502  0.00000000000E+00  0.00000000000E+00  0.56961762329E+03  0.56961762329E+03  0.00000000000E+00 0. -1.
         21   -1    0    0  502  503 -0.00000000000E+00 -0.00000000000E+00 -0.24471886786E+03  0.24471886786E+03  0.00000000000E+00 0. -1.
         -6    2    1    2    0  503  0.79404561489E+02  0.10128552959E+03 -0.17003487014E+03  0.27408044401E+03  0.17217546235E+03 0.  0.
        -24    2    3    3    0    0 -0.38064909307E+01  0.68697779179E+02 -0.14963392165E+03  0.18229629820E+03  0.78152131092E+02 0.  0.
          6    2    1    2  501    0 -0.79404561489E+02 -0.10128552959E+03  0.49493362557E+03  0.54025604715E+03  0.17422244366E+03 0.  0.
         24    2    5    5    0    0 -0.50697610675E+02  0.14429745461E+02  0.25529086012E+03  0.27255311677E+03  0.79582114289E+02 0.  0.
          5    1    5    5  501    0 -0.28706950814E+02 -0.11571527505E+03  0.23964276545E+03  0.26770293038E+03  0.47000000000E+01 0. -1.
        -11    1    6    6    0    0  0.20947102198E+02 -0.39883743198E+01  0.63892541373E+02  0.67356848674E+02  0.00000000000E+00 0.  1.
         12    1    6    6    0    0 -0.71644712873E+02  0.18418119781E+02  0.19139831875E+03  0.20519626809E+03  0.00000000000E+00 0. -1.
         -5    1    3    3    0  503  0.83211052419E+02  0.32587750411E+02 -0.20400948494E+02  0.91784145805E+02  0.47000000000E+01 0.  1.
         13    1    4    4    0    0  0.10733158735E+02  0.26463451286E+02 -0.26553455974E+01  0.28680408133E+02  0.00000000000E+00 0. -1.
        -14    1    4    4    0    0 -0.14539649665E+02  0.42234327892E+02 -0.14697857605E+03  0.15361589007E+03  0.00000000000E+00 0.  1.
</event>
<event>
12    1  0.8258923E-002  0.1832151E+03  0.7818608E-02  0.1165840E+00
         21   -1    0    0  501  502  0.00000000000E+00  0.00000000000E+00  0.17679174546E+04  0.17679174546E+04  0.00000000000E+00 0. -1.
         21   -1    0    0  502  503 -0.00000000000E+00 -0.00000000000E+00 -0.23562828733E+02  0.23562828733E+02  0.00000000000E+00 0. -1.
         -6    2    1    2    0  503 -0.25531576340E+02  0.39410072914E+02  0.12781942029E+04  0.12906077365E+04  0.17228724270E+03 0.  0.
        -24    2    3    3    0    0  0.39575439590E+02 -0.17030529011E+02  0.73498938745E+03  0.74059134895E+03  0.80061801963E+02 0.  0.
          6    2    1    2  501    0  0.25531576340E+02 -0.39410072914E+02  0.46616042301E+03  0.50087254686E+03  0.17709532173E+03 0.  0.
         24    2    5    5    0    0 -0.27051650260E+02 -0.58030872413E+02  0.16216734916E+03  0.19176801949E+03  0.79858313461E+02 0.  0.
          5    1    5    5  501    0  0.52583226600E+02  0.18620799498E+02  0.30399307385E+03  0.30910452737E+03  0.47000000000E+01 0. -1.
        -11    1    6    6    0    0 -0.32008740889E+02 -0.38677160314E+02  0.16418376047E+03  0.17168805848E+03  0.00000000000E+00 0.  1.
         12    1    6    6    0    0  0.49570906290E+01 -0.19353712098E+02 -0.20164113053E+01  0.20079961007E+02  0.00000000000E+00 0. -1.
         -5    1    3    3    0  503 -0.65107015930E+02  0.56440601925E+02  0.54320481540E+03  0.55001638753E+03  0.47000000000E+01 0.  1.
         13    1    4    4    0    0 -0.20573781228E+02  0.12307100644E+02  0.20111207573E+03  0.20253595287E+03  0.00000000000E+00 0. -1.
        -14    1    4    4    0    0  0.60149220817E+02 -0.29337629654E+02  0.53387731173E+03  0.53805539608E+03  0.00000000000E+00 0.  1.
</event>
<event>
12    1  0.8258923E-002  0.2949950E+03  0.7818608E-02  0.1087887E+00
         21   -1    0    0  501  502  0.00000000000E+00  0.00000000000E+00  0.12797530084E+03  0.12797530084E+03  0.00000000000E+00 0.  1.
         21   -1    0    0  502  503 -0.00000000000E+00 -0.00000000000E+00 -0.11834339678E+04  0.11834339678E+04  0.00000000000E+00 0. -1.
         -6    2    1    2    0  503 -0.15951386516E+03  0.17762099205E+03 -0.95676820756E+03  0.10012130050E+04  0.17328643453E+03 0.  0.
        -24    2    3    3    0    0 -0.59860001041E+02  0.12232131775E+03 -0.73934865057E+03  0.75568846372E+03  0.76700082103E+02 0.  0.
          6    2    1    2  501    0  0.15951386516E+03 -0.17762099205E+03 -0.98690459407E+02  0.31019626364E+03  0.17172077685E+03 0.  0.
         24    2    5    5    0    0  0.12929606708E+03 -0.48782685666E+02 -0.80958465317E+02  0.17659634550E+03  0.74396053332E+02 0.  0.
          5    1    5    5  501    0  0.30217798072E+02 -0.12883830639E+03 -0.17731994090E+02  0.13359991814E+03  0.47000000000E+01 0. -1.
        -13    1    6    6    0    0  0.90259182356E+02 -0.58298977532E+02 -0.29723715411E+02  0.11148538038E+03  0.00000000000E+00 0.  1.
         14    1    6    6    0    0  0.39036884729E+02  0.95162918655E+01 -0.51234749906E+02  0.65110965115E+02  0.00000000000E+00 0. -1.
         -5    1    3    3    0  503 -0.99653864115E+02  0.55299674307E+02 -0.21741955699E+03  0.24552454128E+03  0.47000000000E+01 0.  1.
         13    1    4    4    0    0 -0.67587758032E+02  0.12080062551E+03 -0.73180891995E+03  0.74478533248E+03  0.00000000000E+00 0. -1.
        -14    1    4    4    0    0  0.77277569903E+01  0.15206922377E+01 -0.75397306273E+01  0.10903131244E+02  0.00000000000E+00 0.  1.
</event>
<event>
12    1  0.8258923E-002  0.1802513E+03  0.7818608E-02  0.1167577E+00
         21   -1    0    0  503  502  0.00000000000E+00  0.00000000000E+00  0.14059635111E+03  0.14059635111E+03  0.00000000000E+00 0. -1.
         21   -1    0    0  501  503 -0.00000000000E+00 -0.00000000000E+00 -0.23327208596E+03  0.23327208596E+03  0.00000000000E+00 0. -1.
          6    2    1    2  501    0 -0.51527448593E+02 -0.10331180197E+02 -0.27894220000E+02  0.18239687143E+03  0.17242018430E+03 0.  0.
         24    2    3    3    0    0 -0.18056486937E+02  0.41345977464E+02  0.27799313389E+02  0.99242234998E+02  0.83908836302E+02 0.  0.
         -6    2    1    2    0  502  0.51527448593E+02  0.10331180197E+02 -0.64781514844E+02  0.19147156564E+03  0.17234530612E+03 0.  0.
        -24    2    5    5    0    0  0.39087150563E+02 -0.29248359354E+02  0.16639854862E+02  0.99968394051E+02  0.85635992289E+02 0.  0.
          5    1    3    3  501    0 -0.33470961656E+02 -0.51677157661E+02 -0.55693533390E+02  0.83154636428E+02  0.47000000000E+01 0. -1.
        -11    1    4    4    0    0 -0.30565644097E+02  0.60850561282E+02  0.32728216230E+02  0.75552535000E+02  0.00000000000E+00 0.  1.
         12    1    4    4    0    0  0.12509157160E+02 -0.19504583818E+02 -0.49289028406E+01  0.23689699998E+02  0.00000000000E+00 0. -1.
         -5    1    5    5    0  502  0.12440298030E+02  0.39579539551E+02 -0.81421369705E+02  0.91503171589E+02  0.47000000000E+01 0.  1.
         13    1    6    6    0    0  0.58538065548E+02 -0.19471209480E+02 -0.13144407932E+02  0.63076212446E+02  0.00000000000E+00 0. -1.
        -14    1    6    6    0    0 -0.19450914985E+02 -0.97771498743E+01  0.29784262794E+02  0.36892181605E+02  0.00000000000E+00 0.  1.
</event>
<event>
12    1  0.8258923E-002  0.2016212E+03  0.7818608E-02  0.1148815E+00
         21   -1    0    0  501  502  0.00000000000E+00  0.00000000000E+00  0.11914803681E+03  0.11914803681E+03  0.00000000000E+00 0. -1.
         21   -1    0    0  502  503 -0.00000000000E+00 -0.00000000000E+00 -0.34973327014E+03  0.34973327014E+03  0.00000000000E+00 0. -1.
         -6    2    1    2    0  503  0.35720753067E+01 -0.10358613370E+03 -0.15825320814E+03  0.25467803239E+03  0.17051092480E+03 0.  0.
        -24    2    3    3    0    0  0.53657033789E+02 -0.72321444699E+02 -0.15435310133E+03  0.19532076933E+03  0.78840690020E+02 0.  0.
          6    2    1    2  501    0 -0.35720753067E+01  0.10358613370E+03 -0.72332025183E+02  0.21420327456E+03  0.17294008832E+03 0.  0.
         24    2    5    5    0    0 -0.67137944962E+02  0.43469496672E+02 -0.48649585621E+02  0.12344217179E+03  0.80461710148E+02 0.  0.
          5    1    5    5  501    0  0.63565869656E+02  0.60116637023E+02 -0.23682439562E+02  0.90761102768E+02  0.47000000000E+01 0. -1.
        -11    1    6    6    0    0 -0.38805008515E+02  0.66351192767E+02 -0.36111352904E+02  0.84925492498E+02  0.00000000000E+00 0.  1.
         12    1    6    6    0    0 -0.28332936447E+02 -0.22881696094E+02 -0.12538232717E+02  0.38516679291E+02  0.00000000000E+00 0. -1.
         -5    1    3    3    0  503 -0.50084958482E+02 -0.31264688997E+02 -0.39001068097E+01  0.59357263055E+02  0.47000000000E+01 0.  1.
         13    1    4    4    0    0  0.60034324272E+02 -0.23138538711E+02 -0.11591721246E+03  0.13257568483E+03  0.00000000000E+00 0. -1.
        -14    1    4    4    0    0 -0.63772904832E+01 -0.49182905987E+02 -0.38435888874E+02  0.62745084499E+02  0.00000000000E+00 0.  1.
</event>
<event>
12    1  0.8258923E-002  0.2859362E+03  0.7818608E-02  0.1092502E+00
         21   -1    0    0  501  502  0.00000000000E+00  0.00000000000E+00  0.39726541037E+03  0.39726541037E+03  0.00000000000E+00 0. -1.
         21   -1    0    0  502  503 -0.00000000000E+00 -0.00000000000E+00 -0.20901839193E+03  0.20901839193E+03  0.00000000000E+00 0. -1.
         -6    2    1    2    0  503  0.15822064598E+03  0.16455967958E+03  0.56193816379E+02  0.29140568035E+03  0.17217974499E+03 0.  0.
        -24    2    3    3    0    0  0.64444107455E+02  0.53182908222E+02  0.83913360788E+02  0.14311782678E+03  0.80372853064E+02 0.  0.
          6    2    1    2  501    0 -0.15822064598E+03 -0.16455967958E+03  0.13205320207E+03  0.31487812195E+03  0.17203639891E+03 0.  0.
         24    2    5    5    0    0 -0.15598229003E+02 -0.96221254209E+02  0.39452607543E+02  0.13155258005E+03  0.79042637648E+02 0.  0.
          5    1    5    5  501    0 -0.14262241698E+03 -0.68338425369E+02  0.92600594524E+02  0.18332554190E+03  0.47000000000E+01 0. -1.
        -13    1    6    6    0    0 -0.43377825695E+01  0.79986199244E+01  0.23906589921E+02  0.25579666142E+02  0.00000000000E+00 0.  1.
         14    1    6    6    0    0 -0.11260446433E+02 -0.10421987413E+03  0.15546017623E+02  0.10597291391E+03  0.00000000000E+00 0. -1.
         -5    1    3    3    0  503  0.93776538526E+02  0.11137677136E+03 -0.27719544409E+02  0.14828785357E+03  0.47000000000E+01 0.  1.
         11    1    4    4    0    0  0.16406273640E+02  0.53503681574E+02  0.12979853156E+02  0.57448118721E+02  0.00000000000E+00 0. -1.
        -12    1    4    4    0    0  0.48037833815E+02 -0.32077335144E+00  0.70933507632E+02  0.85669708055E+02  0.00000000000E+00 0.  1.
</event>
<event>
12    1  0.8258923E-002  0.1984333E+03  0.7818608E-02  0.1151116E+00
         21   -1    0    0  503  502  0.00000000000E+00  0.00000000000E+00  0.50147229101E+02  0.50147229101E+02  0.00000000000E+00 0. -1.
         21   -1    0    0  501  503 -0.00000000000E+00 -0.00000000000E+00 -0.10051498220E+04  0.10051498220E+04  0.00000000000E+00 0. -1.
          6    2    1    2  501    0  0.72888854042E+02 -0.62840479427E+02 -0.72504025414E+03  0.75170414925E+03  0.17353399374E+03 0.  0.
         24    2    3    3    0    0  0.13477467679E+00  0.22883177586E+02 -0.26674148554E+03  0.27979149554E+03  0.81293313915E+02 0.  0.
         -6    2    1    2    0  502 -0.72888854042E+02  0.62840479427E+02 -0.22996233873E+03  0.30359290182E+03  0.17327510468E+03 0.  0.
        -24    2    5    5    0    0 -0.10983137461E+03  0.26103578759E+02 -0.12012573503E+03  0.18193551730E+03  0.76980598621E+02 0.  0.
          5    1    3    3  501    0  0.72754079365E+02 -0.85723657013E+02 -0.45829876859E+03  0.47191265371E+03  0.47000000000E+01 0. -1.
        -13    1    4    4    0    0 -0.79077243031E+00  0.11023069195E+02  0.16173472376E+01  0.11169117584E+02  0.00000000000E+00 0.  1.
         14    1    4    4    0    0  0.92554710711E+00  0.11860108391E+02 -0.26835883278E+03  0.26862237796E+03  0.00000000000E+00 0. -1.
         -5    1    5    5    0  502  0.36942520570E+02  0.36736900668E+02 -0.10983660370E+03  0.12165738452E+03  0.47000000000E+01 0.  1.
         11    1    6    6    0    0 -0.21690101396E+02  0.30429002022E+02 -0.62799087629E+01  0.37892240850E+02  0.00000000000E+00 0. -1.
        -12    1    6    6    0    0 -0.88141273216E+02 -0.43254232627E+01 -0.11384582627E+03  0.14404327645E+03  0.00000000000E+00 0.  1.
</event>
<event>
12    1  0.8258923E-002  0.2127943E+03  0.7818608E-02  0.1139751E+00
         21   -1    0    0  501  502  0.00000000000E+00  0.00000000000E+00  0.81879914983E+03  0.81879914983E+03  0.00000000000E+00 0.  1.
         21   -1    0    0  502  503 -0.00000000000E+00 -0.00000000000E+00 -0.84819930416E+02  0.84819930416E+02  0.00000000000E+00 0.  1.
         -6    2    1    2    0  503  0.13939821020E+02 -0.12357840194E+03  0.99286950886E+02  0.23481765099E+03  0.17267162639E+03 0.  0.
        -24    2    3    3    0    0  0.49446736400E+02 -0.12251200727E+03  0.11334090083E+03  0.19632762960E+03  0.90797613831E+02 0.  0.
          6    2    1    2  501    0 -0.13939821020E+02  0.12357840194E+03  0.63469226853E+03  0.66880142926E+03  0.17027958190E+03 0.  0.
         24    2    5    5    0    0 -0.70229734799E+02  0.54513088357E+02  0.33191256361E+03  0.35314938722E+03  0.81514706393E+02 0.  0.
          5    1    5    5  501    0  0.56289913779E+02  0.69065313586E+02  0.30277970492E+03  0.31565204204E+03  0.47000000000E+01 0. -1.
        -13    1    6    6    0    0 -0.38674363517E+02  0.46801766925E+02  0.86989177563E+02  0.10608123677E+03  0.00000000000E+00 0.  1.
         14    1    6    6    0    0 -0.31555371282E+02  0.77113214325E+01  0.24492338605E+03  0.24706815046E+03  0.00000000000E+00 0. -1.
         -5    1    3    3    0  503 -0.35506915380E+02 -0.10663946745E+01 -0.14053949944E+02  0.38490021388E+02  0.47000000000E+01 0.  1.
         13    1    4    4    0    0  0.45212142230E+02 -0.84379529463E+01  0.36589385532E+02  0.58771761830E+02  0.00000000000E+00 0. -1.
        -14    1    4    4    0    0  0.42345941705E+01 -0.11407405432E+03  0.76751515297E+02  0.13755586777E+03  0.00000000000E+00 0.  1.
</event>
<event>
12    1  0.8258923E-002  0.2242377E+03  0.7818608E-02  0.1130890E+00
         21   -1    0    0  501  502  0.00000000000E+00  0.00000000000E+00  0.47309053529E+02  0.47309053529E+02  0.00000000000E+00 0. -1.
         21   -1    0    0  502  503 -0.00000000000E+00 -0.00000000000E+00 -0.13686853834E+04  0.13686853834E+04  0.00000000000E+00 0. -1.
         -6    2    1    2    0  503  0.10321418020E+03 -0.99746649126E+02 -0.32500214315E+03  0.39485304263E+03  0.17227876020E+03 0.  0.
        -24    2    3    3    0    0  0.21228557021E+02  0.12810897041E+02 -0.14675356874E+03  0.16861094246E+03  0.79235530318E+02 0.  0.
          6    2    1    2  501    0 -0.10321418020E+03  0.99746649126E+02 -0.99637418676E+03  0.10211413943E+04  0.17136413330E+03 0.  0.
         24    2    5    5    0    0 -0.27676038895E+02  0.54174194892E+02 -0.22416397610E+03  0.24389396988E+03  0.74390683842E+02 0.  0.
          5    1    5    5  501    0 -0.75538141307E+02  0.45572454234E+02 -0.77221021065E+03  0.77724742445E+03  0.47000000000E+01 0. -1.
        -13    1    6    6    0    0 -0.41133611592E+02  0.61225793852E+02 -0.21189386007E+03  0.22436483631E+03  0.00000000000E+00 0.  1.
         14    1    6    6    0    0  0.13457572697E+02 -0.70515989599E+01 -0.12270116028E+02  0.19529133573E+02  0.00000000000E+00 0. -1.
         -5    1    3    3    0  503  0.81985623182E+02 -0.11255754617E+03 -0.17824857441E+03  0.22624210017E+03  0.47000000000E+01 0.  1.
         13    1    4    4    0    0  0.40261447552E+01  0.13673400781E+02  0.55797042405E+01  0.15307018975E+02  0.00000000000E+00 0. -1.
        -14    1    4    4    0    0  0.17202412265E+02 -0.86250374006E+00 -0.15233327298E+03  0.15330392349E+03  0.00000000000E+00 0.  1.
</event>
<event>
12    1  0.8258923E-002  0.2141989E+03  0.7818608E-02  0.1138554E+00
         21   -1    0    0  503  502  0.00000000000E+00  0.00000000000E+00  0.32031665981E+03  0.32031665981E+03  0.00000000000E+00 0.  1.
         21   -1    0    0  501  503 -0.00000000000E+00 -0.00000000000E+00 -0.25345273716E+03  0.25345273716E+03  0.00000000000E+00 0.  1.
          6    2    1    2  501    0  0.55214534600E+02 -0.11313525867E+03 -0.15660930841E+03  0.26421895708E+03  0.17157199718E+03 0.  0.
         24    2    3    3    0    0  0.62492756425E+02 -0.14946148528E+03 -0.12491097779E+03  0.21523486357E+03  0.66926929813E+02 0.  0.
         -6    2    1    2    0  502 -0.55214534600E+02  0.11313525867E+03  0.22347323106E+03  0.30955043989E+03  0.17330019692E+03 0.  0.
        -24    2    5    5    0    0 -0.59652582181E+02  0.22111624778E+02  0.48492181946E+02  0.11220440942E+03  0.78682801634E+02 0.  0.
          5    1    3    3  501    0 -0.72782218253E+01  0.36326226616E+02 -0.31698330622E+02  0.48984093514E+02  0.47000000000E+01 0. -1.
        -11    1    4    4    0    0  0.54630205558E+02 -0.15047659152E+03 -0.12964710751E+03  0.20600008845E+03  0.00000000000E+00 0.  1.
         12    1    4    4    0    0  0.78625508671E+01  0.10151062379E+01  0.47361297189E+01  0.92347751205E+01  0.00000000000E+00 0. -1.
         -5    1    5    5    0  502  0.44380475813E+01  0.91023633890E+02  0.17498104911E+03  0.19734603047E+03  0.47000000000E+01 0.  1.
         11    1    6    6    0    0 -0.77828156388E+01  0.22164639919E+02 -0.16753073731E+02  0.28853231387E+02  0.00000000000E+00 0. -1.
        -12    1    6    6    0    0 -0.51869766542E+02 -0.53015141173E-01  0.65245255677E+02  0.83351178037E+02  0.00000000000E+00 0.  1.
</event>
<event>
12    1  0.8258923E-002  0.2533513E+03  0.7818608E-02  0.1111835E+00
         21   -1    0    0  501  502  0.00000000000E+00  0.00000000000E+00  0.14442689445E+03  0.14442689445E+03  0.00000000000E+00 0.  1.
         21   -1    0    0  502  503 -0.00000000000E+00 -0.00000000000E+00 -0.97776063718E+03  0.97776063718E+03  0.00000000000E+00 0. -1.
         -6    2    1    2    0  503 -0.14044779521E+03 -0.11855232308E+03 -0.83229086220E+03  0.86883408771E+03  0.16847657458E+03 0.  0.
        -24    2    3    3    0    0 -0.46786526142E+02 -0.97077267103E+02 -0.32605804384E+03  0.35354061042E+03  0.84048441080E+02 0.  0.
          6    2    1    2  501    0  0.14044779521E+03  0.11855232308E+03 -0.10428805346E+01  0.25335344392E+03  0.17437500813E+03 0.  0.
         24    2    5    5    0    0  0.16046106749E+03  0.71173882881E+02  0.26310164983E+02  0.19491093574E+03  0.80526842130E+02 0.  0.
          5    1    5    5  501    0 -0.20013272287E+02  0.47378440196E+02 -0.27353045517E+02  0.58442508177E+02  0.47000000000E+01 0. -1.
        -11    1    6    6    0    0  0.89698667502E+02  0.73539197748E+02  0.40199793219E+02  0.12275947186E+03  0.00000000000E+00 0.  1.
         12    1    6    6    0    0  0.70762399991E+02 -0.23653148660E+01 -0.13889628237E+02  0.72151463876E+02  0.00000000000E+00 0. -1.
         -5    1    3    3    0  503 -0.93661269064E+02 -0.21475055974E+02 -0.50623281836E+03  0.51529347728E+03  0.47000000000E+01 0.  1.
         11    1    4    4    0    0 -0.19542015947E+02 -0.34808930792E+02 -0.24281377617E+03  0.24607332637E+03  0.00000000000E+00 0. -1.
        -12    1    4    4    0    0 -0.27244510195E+02 -0.62268336311E+02 -0.83244267670E+02  0.10746728406E+03  0.00000000000E+00 0.  1.
</event>
<event>
12    1  0.8258923E-002  0.1734106E+03  0.7818608E-02  0.1174509E+00
         21   -1    0    0  503  502  0.00000000000E+00  0.00000000000E+00  0.16691125167E+03  0.16691125167E+03  0.00000000000E+00 0. -1.
         21   -1    0    0  501  503 -0.00000000000E+00 -0.00000000000E+00 -0.19839842518E+03  0.19839842518E+03  0.00000000000E+00 0. -1.
          6    2    1    2  501    0  0.11214602306E+02 -0.18908098362E+02  0.40656993062E+02  0.17811297322E+03  0.17201150152E+03 0.  0.
         24    2    3    3    0    0  0.47855934365E+02 -0.12537300304E+02  0.78574341290E+02  0.12479328099E+03  0.83379023244E+02 0.  0.
         -6    2    1    2    0  502 -0.11214602306E+02  0.18908098362E+02 -0.72144166577E+02  0.18719670363E+03  0.17133167130E+03 0.  0.
        -24    2    5    5    0    0  0.58709009029E+02  0.22158843498E+02 -0.31545643475E+02  0.10613987885E+03  0.79578792229E+02 0.  0.
          5    1    3    3  501    0 -0.36641332059E+02 -0.63707980578E+01 -0.37917348227E+02  0.53319692231E+02  0.47000000000E+01 0. -1.
        -13    1    4    4    0    0 -0.10428701676E+02  0.52973850610E+01 -0.11257878790E+02  0.16234529312E+02  0.00000000000E+00 0.  1.
         14    1    4    4    0    0  0.58284636041E+02 -0.17834685365E+02  0.89832220080E+02  0.10855875167E+03  0.00000000000E+00 0. -1.
         -5    1    5    5    0  502 -0.69923611335E+02 -0.32507451365E+01 -0.40598523102E+02  0.81056824784E+02  0.47000000000E+01 0.  1.
         11    1    6    6    0    0 -0.17000311356E+02 -0.92304455050E+01 -0.48492582744E+01  0.19943094450E+02  0.00000000000E+00 0. -1.
        -12    1    6    6    0    0  0.75709320385E+02  0.31389289003E+02 -0.26696385200E+02  0.86196784395E+02  0.00000000000E+00 0.  1.
</event>
<event>
12    1  0.8258923E-002  0.2619458E+03  0.7818608E-02  0.1106193E+00
         21   -1    0    0  503  502  0.00000000000E+00  0.00000000000E+00  0.73619862055E+03  0.73619862055E+03  0.00000000000E+00 0.  1.
         21   -1    0    0  501  503 -0.00000000000E+00 -0.00000000000E+00 -0.17759794952E+03  0.17759794952E+03  0.00000000000E+00 0. -1.
          6    2    1    2  501    0  0.86142333984E+02  0.17702770323E+03 -0.37009980543E+02  0.26312950812E+03  0.17061093156E+03 0.  0.
         24    2    3    3    0    0  0.43266712821E+02  0.33576762763E+02  0.25589020311E+02  0.10078045170E+03  0.80638043434E+02 0.  0.
         -6    2    1    2    0  502 -0.86142333984E+02 -0.17702770323E+03  0.59561065157E+03  0.65066706195E+03  0.17278966356E+03 0.  0.
        -24    2    5    5    0    0 -0.25984225800E+02 -0.12715658580E+03  0.52004534339E+03  0.54186296215E+03  0.79525676760E+02 0.  0.
          5    1    3    3  501    0  0.42875621162E+02  0.14345094047E+03 -0.62599000854E+02  0.16234905641E+03  0.47000000000E+01 0. -1.
        -13    1    4    4    0    0 -0.18575419375E+02  0.21177511013E+01 -0.11656406706E+02  0.22031860838E+02  0.00000000000E+00 0.  1.
         14    1    4    4    0    0  0.61842132197E+02  0.31459011661E+02  0.37245427017E+02  0.78748590864E+02  0.00000000000E+00 0. -1.
         -5    1    5    5    0  502 -0.60158108184E+02 -0.49871117429E+02  0.75565308179E+02  0.10880409980E+03  0.47000000000E+01 0.  1.
         13    1    6    6    0    0  0.96635180725E+01 -0.50066538954E+02  0.89375633941E+02  0.10289823053E+03  0.00000000000E+00 0. -1.
        -14    1    6    6    0    0 -0.35647743872E+02 -0.77090046847E+02  0.43066970945E+03  0.43896473162E+03  0.00000000000E+00 0.  1.
</event>
<event>
12    1  0.8258923E-002  0.1882585E+03  0.7818608E-02  0.1160191E+00
         21   -1    0    0  503  502  0.00000000000E+00  0.00000000000E+00  0.14487610072E+03  0.14487610072E+03  0.00000000000E+00 0.  1.
         21   -1    0    0  501  503 -0.00000000000E+00 -0.00000000000E+00 -0.27996530573E+03  0.27996530573E+03  0.00000000000E+00 0. -1.
          6    2    1    2  501    0 -0.58585354314E+02 -0.48161399736E+02 -0.14401078614E+03  0.23702394671E+03  0.17230635689E+03 0.  0.
         24    2    3    3    0    0 -0.33635403771E+01  0.30410191475E+02 -0.34126445550E+02  0.91011611659E+02  0.78628277493E+02 0.  0.
         -6    2    1    2    0  502  0.58585354314E+02  0.48161399736E+02  0.89215811265E+01  0.18781745974E+03  0.17159265546E+03 0.  0.
        -24    2    5    5    0    0 -0.57757270803E+01 -0.91846395478E+01 -0.38164203838E+02  0.89480904144E+02  0.80203548082E+02 0.  0.
          5    1    3    3  501    0 -0.55221813937E+02 -0.78571591212E+02 -0.10988434059E+03  0.14601233505E+03  0.47000000000E+01 0. -1.
        -13    1    4    4    0    0  0.46479660552E+01  0.30253839043E+01  0.24868328414E+02  0.25479212984E+02  0.00000000000E+00 0.  1.
         14    1    4    4    0    0 -0.80115064322E+01  0.27384807571E+02 -0.58994773964E+02  0.65532398675E+02  0.00000000000E+00 0. -1.
         -5    1    5    5    0  502  0.64361081394E+02  0.57346039284E+02  0.47085784964E+02  0.98336555591E+02  0.47000000000E+01 0.  1.
         13    1    6    6    0    0 -0.32344969867E+02  0.14901460283E+02  0.19598154240E+01  0.35666391334E+02  0.00000000000E+00 0. -1.
        -14    1    6    6    0    0  0.26569242787E+02 -0.24086099831E+02 -0.40124019262E+02  0.53814512811E+02  0.00000000000E+00 0.  1.
</event>
<event>
12    1  0.8258923E-002  0.2559810E+03  0.7818608E-02  0.1109639E+00
         21   -1    0    0  503  502  0.00000000000E+00  0.00000000000E+00  0.76003131259E+02  0.76003131259E+02  0.00000000000E+00 0. -1.
         21   -1    0    0  501  503 -0.00000000000E+00 -0.00000000000E+00 -0.86166590377E+03  0.86166590377E+03  0.00000000000E+00 0. -1.
          6    2    1    2  501    0 -0.14196365984E+03  0.12657446665E+03 -0.37918685148E+03  0.45750295706E+03  0.17132282702E+03 0.  0.
         24    2    3    3    0    0 -0.32906421186E+02  0.34716020776E+02 -0.24274217445E+03  0.26009298955E+03  0.80228207654E+02 0.  0.
         -6    2    1    2    0  502  0.14196365984E+03 -0.12657446665E+03 -0.40647592103E+03  0.48016607797E+03  0.17076888398E+03 0.  0.
        -24    2    5    5    0    0  0.20849710400E+02 -0.21244241113E+02 -0.19023162453E+03  0.21082107444E+03  0.85857010495E+02 0.  0.
          5    1    3    3  501    0 -0.10905723865E+03  0.91858445874E+02 -0.13644467703E+03  0.19740996750E+03  0.47000000000E+01 0. -1.
        -13    1    4    4    0    0 -0.66046423015E+01 -0.24990391710E+02 -0.97535155708E+02  0.10090216834E+03  0.00000000000E+00 0.  1.
         14    1    4    4    0    0 -0.26301778885E+02  0.59706412486E+02 -0.14520701874E+03  0.15919082121E+03  0.00000000000E+00 0. -1.
         -5    1    5    5    0  502  0.12111394944E+03 -0.10533022554E+03 -0.21624429650E+03  0.26934500354E+03  0.47000000000E+01 0.  1.
         11    1    6    6    0    0  0.39450341890E+02 -0.26142452797E+02 -0.48406169400E+02  0.67697227044E+02  0.00000000000E+00 0. -1.
        -12    1    6    6    0    0 -0.18600631490E+02  0.48982116841E+01 -0.14182545513E+03  0.14312384739E+03  0.00000000000E+00 0.  1.
</event>
<event>
12    1  0.8258923E-002  0.2644690E+03  0.7818608E-02  0.1106576E+00
         21   -1    0    0  503  502  0.00000000000E+00  0.00000000000E+00  0.28078862217E+03  0.28078862217E+03  0.00000000000E+00 0. -1.
         21   -1    0    0  501  503 -0.00000000000E+00 -0.00000000000E+00 -0.28587695803E+03  0.28587695803E+03  0.00000000000E+00 0.  1.
          6    2    1    2  501    0  0.90862152694E+02 -0.15817432038E+03 -0.12049479145E+03  0.27811314560E+03  0.17190951274E+03 0.  0.
         24    2    3    3    0    0 -0.59005817148E+01 -0.68313482810E+02 -0.96250089200E+02  0.14377070076E+03  0.81880314651E+02 0.  0.
         -6    2    1    2    0  502 -0.90862152694E+02  0.15817432038E+03  0.11540645559E+03  0.28855243460E+03  0.19149102094E+03 0.  0.
        -24    2    5    5    0    0 -0.11670232843E+03  0.58752804432E+02  0.10045747757E+03  0.18463942069E+03  0.83238725276E+02 0.  0.
          5    1    3    3  501    0  0.96762734409E+02 -0.89860837572E+02 -0.24244702254E+02  0.13434244484E+03  0.47000000000E+01 0. -1.
        -11    1    4    4    0    0  0.28305186550E+02 -0.59376885386E+02 -0.38960933545E+02  0.76450980677E+02  0.00000000000E+00 0.  1.
         12    1    4    4    0    0 -0.34205768265E+02 -0.89365974236E+01 -0.57289155655E+02  0.67319720081E+02  0.00000000000E+00 0. -1.
         -5    1    5    5    0  502  0.25840175731E+02  0.99421515950E+02  0.14948978025E+02  0.10391301391E+03  0.47000000000E+01 0.  1.
         11    1    6    6    0    0 -0.96688668492E+02  0.73139379236E+02  0.10400880773E+03  0.15973696972E+03  0.00000000000E+00 0. -1.
        -12    1    6    6    0    0 -0.20013659933E+02 -0.14386574804E+02 -0.35513301623E+01  0.24902450972E+02  0.00000000000E+00 0.  1.
</event>
<event>
12    1  0.8258923E-002  0.2438222E+03  0.7818608E-02  0.1117672E+00
         21   -1    0    0  501  502  0.00000000000E+00  0.00000000000E+00  0.10654988953E+03  0.10654988953E+03  0.00000000000E+00 0. -1.
         21   -1    0    0  502  503 -0.00000000000E+00 -0.00000000000E+00 -0.95555071346E+03  0.95555071346E+03  0.00000000000E+00 0.  1.
         -6    2    1    2    0  503 -0.14515897647E+03 -0.91765290099E+02 -0.80791446665E+02  0.25685894644E+03  0.17308166741E+03 0.  0.
        -24    2    3    3    0    0 -0.16156592369E+03 -0.51477946559E+02 -0.29751210293E+02  0.18963206420E+03  0.79508858493E+02 0.  0.
          6    2    1    2  501    0  0.14515897647E+03  0.91765290099E+02 -0.76820937727E+03  0.80524165655E+03  0.16963632040E+03 0.  0.
         24    2    5    5    0    0  0.12111807239E+03  0.11931507241E+03 -0.72153033029E+03  0.74576074363E+03  0.81531559825E+02 0.  0.
          5    1    5    5  501    0  0.24040904086E+02 -0.27549782313E+02 -0.46679046978E+02  0.59480912918E+02  0.47000000000E+01 0. -1.
        -13    1    6    6    0    0  0.95812849165E+02  0.41946599062E+02 -0.34375258886E+03  0.35931248459E+03  0.00000000000E+00 0.  1.
         14    1    6    6    0    0  0.25305223220E+02  0.77368473350E+02 -0.37777774143E+03  0.38644825903E+03  0.00000000000E+00 0. -1.
         -5    1    3    3    0  503  0.16406947217E+02 -0.40287343540E+02 -0.51040236372E+02  0.67226882238E+02  0.47000000000E+01 0.  1.
         11    1    4    4    0    0 -0.76172981844E+02 -0.44428587145E+02  0.20178879771E+02  0.90462200435E+02  0.00000000000E+00 0. -1.
        -12    1    4    4    0    0 -0.85392941844E+02 -0.70493594142E+01 -0.49930090064E+02  0.99169863763E+02  0.00000000000E+00 0.  1.
</event>
<event>
12    1  0.8258923E-002  0.2554968E+03  0.7818608E-02  0.1109897E+00
         21   -1    0    0  503  502  0.00000000000E+00  0.00000000000E+00  0.57899295447E+03  0.57899295447E+03  0.00000000000E+00 0.  1.
         21   -1    0    0  501  503 -0.00000000000E+00 -0.00000000000E+00 -0.74140108505E+03  0.74140108505E+03  0.00000000000E+00 0. -1.
          6    2    1    2  501    0  0.15213833613E+03  0.11229256762E+03 -0.68916080200E+03  0.73499742781E+03  0.17182233209E+03 0.  0.
         24    2    3    3    0    0  0.85575745972E+02  0.84725447814E+02 -0.24049610017E+03  0.28056082147E+03  0.79839780462E+02 0.  0.
         -6    2    1    2    0  502 -0.15213833613E+03 -0.11229256762E+03  0.52675267143E+03  0.58539661172E+03  0.17165407683E+03 0.  0.
        -24    2    5    5    0    0 -0.28327716164E+02 -0.88488363631E+02  0.18786885942E+03  0.22378903743E+03  0.78448549587E+02 0.  0.
          5    1    3    3  501    0  0.66562590155E+02  0.27567119805E+02 -0.44866470184E+03  0.45443660633E+03  0.47000000000E+01 0. -1.
        -13    1    4    4    0    0  0.45238539651E+02  0.85613799282E+02 -0.12433779556E+03  0.15759484605E+03  0.00000000000E+00 0.  1.
         14    1    4    4    0    0  0.40337206321E+02 -0.88835146863E+00 -0.11615830461E+03  0.12296597542E+03  0.00000000000E+00 0. -1.
         -5    1    5    5    0  502 -0.12381061996E+03 -0.23804203988E+02  0.33888381200E+03  0.36160757429E+03  0.47000000000E+01 0.  1.
         11    1    6    6    0    0 -0.26841105403E+02 -0.68660174376E+02  0.61902790248E+02  0.96263284408E+02  0.00000000000E+00 0. -1.
        -12    1    6    6    0    0 -0.14866107605E+01 -0.19828189255E+02  0.12596606917E+03  0.12752575302E+03  0.00000000000E+00 0.  1.
</event>
<event>
12    1  0.8258923E-002  0.3086884E+03  0.7818608E-02  0.1081018E+00
         21   -1    0    0  501  502  0.00000000000E+00  0.00000000000E+00  0.40165302592E+03  0.40165302592E+03  0.00000000000E+00 0. -1.
         21   -1    0    0  502  503 -0.00000000000E+00 -0.00000000000E+00 -0.33811826726E+03  0.33811826726E+03  0.00000000000E+00 0.  1.
         -6    2    1    2    0  503  0.24888556681E+03 -0.58683793521E+02 -0.17052441933E+03  0.35265718721E+03  0.17291819197E+03 0.  0.
        -24    2    3    3    0    0  0.14333470845E+03 -0.88108246959E+02 -0.56622297853E+02  0.19453519178E+03  0.79561010553E+02 0.  0.
          6    2    1    2  501    0 -0.24888556681E+03  0.58683793521E+02  0.23405917799E+03  0.38711410597E+03  0.17229573196E+03 0.  0.
         24    2    5    5    0    0 -0.10929198149E+03 -0.29428380033E+02  0.91723144808E+02  0.16909630731E+03  0.85846718537E+02 0.  0.
          5    1    5    5  501    0 -0.13959358532E+03  0.88112173554E+02  0.14233603318E+03  0.21801779866E+03  0.47000000000E+01 0. -1.
        -11    1    6    6    0    0 -0.12393384105E+03 -0.27824656968E+02  0.85450374752E+02  0.15308682189E+03  0.00000000000E+00 0.  1.
         12    1    6    6    0    0  0.14641859562E+02 -0.16037230645E+01  0.62727700565E+01  0.16009485415E+02  0.00000000000E+00 0. -1.
         -5    1    3    3    0  503  0.10555085837E+03  0.29424453438E+02 -0.11390212147E+03  0.15812199543E+03  0.47000000000E+01 0.  1.
         11    1    4    4    0    0  0.53145977075E+02 -0.23088455875E+02  0.17948480716E+02  0.60660692659E+02  0.00000000000E+00 0. -1.
        -12    1    4    4    0    0  0.90188731371E+02 -0.65019791084E+02 -0.74570778569E+02  0.13387449912E+03  0.00000000000E+00 0.  1.
</event>
<event>
12    1  0.8258923E-002  0.1803037E+03  0.7818608E-02  0.1168730E+00
         21   -1    0    0  503  502  0.00000000000E+00  0.00000000000E+00  0.35321571145E+02  0.35321571145E+02  0.00000000000E+00 0. -1.
         21   -1    0    0  501  503 -0.00000000000E+00 -0.00000000000E+00 -0.89826282510E+03  0.89826282510E+03  0.00000000000E+00 0. -1.
          6    2    1    2  501    0 -0.26270458327E+02 -0.27392256586E+02 -0.46502845773E+03  0.49875935098E+03  0.17626386752E+03 0.  0.
         24    2    3    3    0    0 -0.19874917342E+02 -0.20071180959E+02 -0.47564417672E+03  0.48361720508E+03  0.82766862649E+02 0.  0.
         -6    2    1    2    0  502  0.26270458327E+02  0.27392256586E+02 -0.39791279622E+03  0.43482504526E+03  0.17116586659E+03 0.  0.
        -24    2    5    5    0    0  0.65066592315E+02  0.66300421412E+02 -0.28340229446E+03  0.30772771910E+03  0.75829290407E+02 0.  0.
          5    1    3    3  501    0 -0.63955409850E+01 -0.73210756273E+01  0.10615718994E+02  0.15142145904E+02  0.47000000000E+01 0. -1.
        -11    1    4    4    0    0 -0.15047271866E+02  0.10330847971E+02 -0.20559254335E+02  0.27492358015E+02  0.00000000000E+00 0.  1.
         12    1    4    4    0    0 -0.48276454761E+01 -0.30402028930E+02 -0.45508492239E+03  0.45612484706E+03  0.00000000000E+00 0. -1.
         -5    1    5    5    0  502 -0.38796133989E+02 -0.38908164826E+02 -0.11451050177E+03  0.12709732616E+03  0.47000000000E+01 0.  1.
         11    1    6    6    0    0  0.53050055391E+02  0.50392782022E+01 -0.91045146156E+02  0.10549370285E+03  0.00000000000E+00 0. -1.
        -12    1    6    6    0    0  0.12016536924E+02  0.61261143210E+02 -0.19235714830E+03  0.20223401625E+03  0.00000000000E+00 0.  1.
</event>
<event>
12    1  0.8258923E-002  0.1931239E+03  0.7818608E-02  0.1155734E+00
         21   -1    0    0  501  502  0.00000000000E+00  0.00000000000E+00  0.32466829642E+03  0.32466829642E+03  0.00000000000E+00 0.  1.
         21   -1    0    0  502  503 -0.00000000000E+00 -0.00000000000E+00 -0.14030540823E+03  0.14030540823E+03  0.00000000000E+00 0. -1.
         -6    2    1    2    0  503  0.29729491176E+01 -0.87657772304E+02 -0.70564834855E+01  0.19325277320E+03  0.17205846947E+03 0.  0.
        -24    2    3    3    0    0  0.37983123204E+02  0.62634846666E+01 -0.21541866129E+02  0.91868202819E+02  0.80583905368E+02 0.  0.
          6    2    1    2  501    0 -0.29729491176E+01  0.87657772304E+02  0.19141937167E+03  0.27172093145E+03  0.17175029916E+03 0.  0.
         24    2    5    5    0    0  0.34572008443E+01  0.64708257808E+02  0.21445873433E+03  0.23824064955E+03  0.81036704652E+02 0.  0.
          5    1    5    5  501    0 -0.64301499620E+01  0.22949514496E+02 -0.23039362657E+02  0.33480281895E+02  0.47000000000E+01 0. -1.
        -13    1    6    6    0    0 -0.23306040178E+02  0.68238858375E+02  0.18353171245E+03  0.19718925624E+03  0.00000000000E+00 0.  1.
         14    1    6    6    0    0  0.26763241022E+02 -0.35306005672E+01  0.30927021881E+02  0.41051393311E+02  0.00000000000E+00 0. -1.
         -5    1    3    3    0  503 -0.35010174086E+02 -0.93921256971E+02  0.14485382643E+02  0.10138457038E+03  0.47000000000E+01 0.  1.
         13    1    4    4    0    0  0.13120373961E+02 -0.12581656778E+02  0.27963461145E+02  0.33352622975E+02  0.00000000000E+00 0. -1.
        -14    1    4    4    0    0  0.24862749243E+02  0.18845141444E+02 -0.49505327273E+02  0.58515579843E+02  0.00000000000E+00 0.  1.
</event>
<event>
12    1  0.8258923E-002  0.3378281E+03  0.7818608E-02  0.1067753E+00
         21   -1    0    0  501  502  0.00000000000E+00  0.00000000000E+00  0.31004248840E+03  0.31004248840E+03  0.00000000000E+00 0. -1.
         21   -1    0    0  502  503 -0.00000000000E+00 -0.00000000000E+00 -0.68370476301E+03  0.68370476301E+03  0.00000000000E+00 0.  1.
         -6    2    1    2    0  503  0.28206694927E+03 -0.69367354250E+02  0.15086767465E+03  0.36998500555E+03  0.17249421837E+03 0.  0.
        -24    2    3    3    0    0  0.94540012505E+02  0.26580326801E+02  0.61717493864E+02  0.14120092777E+03  0.80525307924E+02 0.  0.
          6    2    1    2  501    0 -0.28206694927E+03  0.69367354250E+02 -0.52452994926E+03  0.62376224585E+03  0.17197115447E+03 0.  0.
         24    2    5    5    0    0 -0.22028728016E+03  0.18112818498E+02 -0.27473217271E+03  0.36134125942E+03  0.78963149892E+02 0.  0.
          5    1    5    5  501    0 -0.61779669110E+02  0.51254535752E+02 -0.24979777656E+03  0.26242098644E+03  0.47000000000E+01 0. -1.
        -13    1    6    6    0    0 -0.16953993196E+03 -0.12529817894E+02 -0.16660370321E+03  0.23802852516E+03  0.00000000000E+00 0.  1.
         14    1    6    6    0    0 -0.50747348203E+02  0.30642636392E+02 -0.10812846949E+03  0.12331273426E+03  0.00000000000E+00 0. -1.
         -5    1    3    3    0  503  0.18752693677E+03 -0.95947681051E+02  0.89150180789E+02  0.22878407778E+03  0.47000000000E+01 0.  1.
         11    1    4    4    0    0  0.86027505748E+02  0.67443237034E+01  0.76271327829E+02  0.11516741334E+03  0.00000000000E+00 0. -1.
        -12    1    4    4    0    0  0.85125067577E+01  0.19836003097E+02 -0.14553833965E+02  0.26033514424E+02  0.00000000000E+00 0.  1.
</event>
<event>
12    1  0.8258923E-002  0.2115418E+03  0.7818608E-02  0.1140557E+00
         21   -1    0    0  501  502  0.00000000000E+00  0.00000000000E+00  0.96033481563E+03  0.96033481563E+03  0.00000000000E+00 0.  1.
         21   -1    0    0  502  503 -0.00000000000E+00 -0.00000000000E+00 -0.10311324592E+03  0.10311324592E+03  0.00000000000E+00 0.  1.
         -6    2    1    2    0  503 -0.83390860250E+02  0.86901946800E+02  0.34636361470E+02  0.21435860090E+03  0.17390787306E+03 0.  0.
        -24    2    3    3    0    0 -0.93726094682E+02  0.10070053881E+03  0.69556572417E+02  0.17513196015E+03  0.83113821692E+02 0.  0.
          6    2    1    2  501    0  0.83390860250E+02 -0.86901946800E+02  0.82258520825E+03  0.84908946065E+03  0.17262822315E+03 0.  0.
         24    2    5    5    0    0  0.78669686659E+02 -0.93770293273E+02  0.39445294404E+03  0.42085028762E+03  0.80870588149E+02 0.  0.
          5    1    5    5  501    0  0.47211735906E+01  0.68683464728E+01  0.42813226421E+03  0.42823917303E+03  0.47000000000E+01 0. -1.
        -13    1    6    6    0    0  0.34957486738E+02 -0.86714398892E+02  0.32747020877E+03  0.34055564962E+03  0.00000000000E+00 0.  1.
         14    1    6    6    0    0  0.43712199922E+02 -0.70558943803E+01  0.66982735265E+02  0.80294637997E+02  0.00000000000E+00 0. -1.
         -5    1    3    3    0  503  0.10335234432E+02 -0.13798592013E+02 -0.34920210947E+02  0.39226640755E+02  0.47000000000E+01 0.  1.
         13    1    4    4    0    0 -0.83269004798E+02  0.65261151762E+02  0.84374908180E+02  0.13532135907E+03  0.00000000000E+00 0. -1.
        -14    1    4    4    0    0 -0.10457089884E+02  0.35439387051E+02 -0.14818335763E+02  0.39810601078E+02  0.00000000000E+00 0.  1.
</event>
<event>
12    1  0.8258923E-002  0.1955375E+03  0.7818608E-02  0.1153592E+00
         21   -1    0    0  503  502  0.00000000000E+00  0.00000000000E+00  0.28518182819E+03  0.28518182819E+03  0.00000000000E+00 0. -1.
         21   -1    0    0  501  503 -0.00000000000E+00 -0.00000000000E+00 -0.13434007417E+03  0.13434007417E+03  0.00000000000E+00 0. -1.
          6    2    1    2  501    0 -0.91607282130E+02  0.14547449110E+02  0.86401922427E+02  0.21363989028E+03  0.17196856720E+03 0.  0.
         24    2    3    3    0    0 -0.41544624472E+02  0.50483552230E+01  0.12120806408E+03  0.15175241196E+03  0.81153915634E+02 0.  0.
         -6    2    1    2    0  502  0.91607282130E+02 -0.14547449110E+02  0.64439831589E+02  0.20588201208E+03  0.17213770240E+03 0.  0.
        -24    2    5    5    0    0  0.36754250678E+02  0.62104774136E+02  0.48620709663E+02  0.11019108771E+03  0.67603435478E+02 0.  0.
          5    1    3    3  501    0 -0.50062657658E+02  0.94990938872E+01 -0.34806141656E+02  0.61887478326E+02  0.47000000000E+01 0. -1.
        -13    1    4    4    0    0 -0.17601052917E+02 -0.31930669530E+02  0.20495386516E+02  0.41826135237E+02  0.00000000000E+00 0.  1.
         14    1    4    4    0    0 -0.23943571555E+02  0.36979024753E+02  0.10071267757E+03  0.10992627672E+03  0.00000000000E+00 0. -1.
         -5    1    5    5    0  502  0.54853031452E+02 -0.76652223246E+02  0.15819121926E+02  0.95690924369E+02  0.47000000000E+01 0.  1.
         13    1    6    6    0    0  0.50338561408E+02  0.21634298703E+02  0.18060817312E+02  0.57690612468E+02  0.00000000000E+00 0. -1.
        -14    1    6    6    0    0 -0.13584310729E+02  0.40470475433E+02  0.30559892352E+02  0.52500475239E+02  0.00000000000E+00 0.  1.
</event>
<event>
12    1  0.8258923E-002  0.2409070E+03  0.7818608E-02  0.1119787E+00
         21   -1    0    0  501  502  0.00000000000E+00  0.00000000000E+00  0.30157373709E+03  0.30157373709E+03  0.00000000000E+00 0.  1.
         21   -1    0    0  502  503 -0.00000000000E+00 -0.00000000000E+00 -0.21411392171E+03  0.21411392171E+03  0.00000000000E+00 0.  1.
         -6    2    1    2    0  503 -0.58696424337E+02 -0.15747921887E+03 -0.43225867280E+02  0.24475429489E+03  0.17260131708E+03 0.  0.
        -24    2    3    3    0    0  0.80443903815E+01 -0.14991018517E+03 -0.10535359279E+02  0.16990520716E+03  0.78860698645E+02 0.  0.
          6    2    1    2  501    0  0.58696424337E+02  0.15747921887E+03  0.13068568265E+03  0.27093336391E+03  0.16757435788E+03 0.  0.
         24    2    5    5    0    0  0.60605273907E+02  0.15136646089E+03  0.15903800314E+03  0.24148928821E+03  0.80244533589E+02 0.  0.
          5    1    5    5  501    0 -0.19088495696E+01  0.61127579841E+01 -0.28352320483E+02  0.29444075697E+02  0.47000000000E+01 0. -1.
        -11    1    6    6    0    0  0.69897861440E+02  0.13760590008E+03  0.10948993565E+03  0.18923303300E+03  0.00000000000E+00 0.  1.
         12    1    6    6    0    0 -0.92925875333E+01  0.13760560811E+02  0.49548067482E+02  0.52256255205E+02  0.00000000000E+00 0. -1.
         -5    1    3    3    0  503 -0.66740814719E+02 -0.75690337028E+01 -0.32690508001E+02  0.74849087729E+02  0.47000000000E+01 0.  1.
         11    1    4    4    0    0 -0.27129779598E+02 -0.10288301608E+03  0.11848659556E+02  0.10705760446E+03  0.00000000000E+00 0. -1.
        -12    1    4    4    0    0  0.35174169980E+02 -0.47027169092E+02 -0.22384018836E+02  0.62847602705E+02  0.00000000000E+00 0.  1.
</event>
<event>
12    1  0.8258923E-002  0.2068232E+03  0.7818608E-02  0.1144436E+00
         21   -1    0    0  501  502  0.00000000000E+00  0.00000000000E+00  0.50102318821E+03  0.50102318821E+03  0.00000000000E+00 0.  1.
         21   -1    0    0  502  503 -0.00000000000E+00 -0.00000000000E+00 -0.12912807657E+03  0.12912807657E+03  0.00000000000E+00 0.  1.
         -6    2    1    2    0  503 -0.11372126570E+03  0.51038623768E+01  0.67177355009E+00  0.20520112426E+03  0.17072924306E+03 0.  0.
        -24    2    3    3    0    0 -0.10790267222E+03  0.42690336985E+02  0.46916068570E+02  0.14514095505E+03  0.73480118396E+02 0.  0.
          6    2    1    2  501    0  0.11372126570E+03 -0.51038623768E+01  0.37122333809E+03  0.42495014053E+03  0.17267680652E+03 0.  0.
         24    2    5    5    0    0 -0.63880408839E+01  0.11966995547E+00  0.20198604362E+03  0.21730408914E+03  0.79886694462E+02 0.  0.
          5    1    5    5  501    0  0.12010930658E+03 -0.52235323323E+01  0.16923729447E+03  0.20764605139E+03  0.47000000000E+01 0. -1.
        -13    1    6    6    0    0  0.32230403389E+02  0.12718995936E+02  0.56726765157E+02  0.66471780820E+02  0.00000000000E+00 0.  1.
         14    1    6    6    0    0 -0.38618444272E+02 -0.12599325981E+02  0.14525927846E+03  0.15083230832E+03  0.00000000000E+00 0. -1.
         -5    1    3    3    0  503 -0.58185934817E+01 -0.37586474608E+02 -0.46244295020E+02  0.60060169210E+02  0.47000000000E+01 0.  1.
         13    1    4    4    0    0 -0.11521612579E+03  0.49251387037E+02  0.49900956094E+02  0.13487238482E+03  0.00000000000E+00 0. -1.
        -14    1    4    4    0    0  0.73134535784E+01 -0.65610500518E+01 -0.29848875236E+01  0.10268570229E+02  0.00000000000E+00 0.  1.
</event>
<event>
12    1  0.8258923E-002  0.1783330E+03  0.7818608E-02  0.1170123E+00
         21   -1    0    0  503  502  0.00000000000E+00  0.00000000000E+00  0.69787063578E+02  0.69787063578E+02  0.00000000000E+00 0.  1.
         21   -1    0    0  501  503 -0.00000000000E+00 -0.00000000000E+00 -0.12437004202E+04  0.12437004202E+04  0.00000000000E+00 0.  1.
          6    2    1    2  501    0 -0.36249682642E+02 -0.38319306891E+01 -0.11103945892E+04  0.11241800915E+04  0.17168579173E+03 0.  0.
         24    2    3    3    0    0 -0.85448133307E+02  0.85963163147E+01 -0.90507692632E+03  0.91263250446E+03  0.79740613761E+02 0.  0.
         -6    2    1    2    0  502  0.36249682642E+02  0.38319306891E+01 -0.63518767331E+02  0.18930739225E+03  0.17456784289E+03 0.  0.
        -24    2    5    5    0    0  0.24454553377E+02  0.70865618833E+02 -0.28710707889E+02  0.11271541210E+03  0.79123310498E+02 0.  0.
          5    1    3    3  501    0  0.49198450665E+02 -0.12428247004E+02 -0.20531766292E+03  0.21154758703E+03  0.47000000000E+01 0. -1.
        -13    1    4    4    0    0 -0.73758844379E+02 -0.12637417068E+02 -0.83756209733E+03  0.84089853034E+03  0.00000000000E+00 0.  1.
         14    1    4    4    0    0 -0.11689288928E+02  0.21233733383E+02 -0.67514828993E+02  0.71733974119E+02  0.00000000000E+00 0. -1.
         -5    1    5    5    0  502  0.11795129265E+02 -0.67033688144E+02 -0.34808059443E+02  0.76591980146E+02  0.47000000000E+01 0.  1.
         13    1    6    6    0    0  0.15719287265E+02  0.50039560977E+02 -0.56376467435E+02  0.77002335908E+02  0.00000000000E+00 0. -1.
        -14    1    6    6    0    0  0.87352661121E+01  0.20826057856E+02  0.27665759546E+02  0.35713076193E+02  0.00000000000E+00 0.  1.
</event>
<event>
12    1  0.8258923E-002  0.1839041E+03  0.7818608E-02  0.1164281E+00
         21   -1    0    0  501  502  0.00000000000E+00  0.00000000000E+00  0.13789785459E+03  0.13789785459E+03  0.00000000000E+00 0.  1.
         21   -1    0    0  502  503 -0.00000000000E+00 -0.00000000000E+00 -0.29048198264E+03  0.29048198264E+03  0.00000000000E+00 0.  1.
         -6    2    1    2    0  503  0.61705435385E+02  0.72125442053E+01 -0.16171928106E+03  0.24424900328E+03  0.17217685149E+03 0.  0.
        -24    2    3    3    0    0  0.87312957119E+02  0.17948797476E+02 -0.17521485255E+03  0.21302028647E+03  0.82046852971E+02 0.  0.
          6    2    1    2  501    0 -0.61705435385E+02 -0.72125442053E+01  0.91351530130E+01  0.18413083395E+03  0.17309284052E+03 0.  0.
         24    2    5    5    0    0 -0.43146943876E+02  0.45917086276E+02 -0.40143499242E+02  0.10917984456E+03  0.79615955370E+02 0.  0.
          5    1    5    5  501    0 -0.18558491510E+02 -0.53129630481E+02  0.49278652255E+02  0.74950989388E+02  0.47000000000E+01 0. -1.
        -13    1    6    6    0    0 -0.21150077250E+02 -0.26888348904E+01 -0.50514568741E+02  0.54829529050E+02  0.00000000000E+00 0.  1.
         14    1    6    6    0    0 -0.21996866626E+02  0.48605921166E+02  0.10371069499E+02  0.54350315513E+02  0.00000000000E+00 0. -1.
         -5    1    3    3    0  503 -0.25607521734E+02 -0.10736253271E+02  0.13495571494E+02  0.31228716810E+02  0.47000000000E+01 0.  1.
         11    1    4    4    0    0 -0.81682858325E+00  0.30279800287E+02 -0.29504384112E+02  0.42285247974E+02  0.00000000000E+00 0. -1.
        -12    1    4    4    0    0  0.88129785702E+02 -0.12331002811E+02 -0.14571046844E+03  0.17073503850E+03  0.00000000000E+00 0.  1.
</event>
<event>
12    1  0.8258923E-002  0.1757803E+03  0.7818608E-02  0.1172563E+00
         21   -1    0    0  503  502  0.00000000000E+00  0.00000000000E+00  0.17505047358E+03  0.17505047358E+03  0.00000000000E+00 0. -1.
         21   -1    0    0  501  503 -0.00000000000E+00 -0.00000000000E+00 -0.28105601559E+03  0.28105601559E+03  0.00000000000E+00 0. -1.
          6    2    1    2  501    0  0.16548493641E+02  0.20443874133E+02 -0.19392844412E+03  0.26173833508E+03  0.17380135207E+03 0.  0.
         24    2    3    3    0    0 -0.29943505573E+02 -0.40713146637E+02 -0.13402199525E+03  0.16420598251E+03  0.80296548172E+02 0.  0.
         -6    2    1    2    0  502 -0.16548493641E+02 -0.20443874133E+02  0.87922902108E+02  0.19436815409E+03  0.17133808093E+03 0.  0.
        -24    2    5    5    0    0  0.24070225569E+02 -0.69609633545E+02  0.61334388089E+02  0.12511361397E+03  0.80415374138E+02 0.  0.
          5    1    3    3  501    0  0.46491999214E+02  0.61157020770E+02 -0.59906448872E+02  0.97532352565E+02  0.47000000000E+01 0. -1.
        -13    1    4    4    0    0 -0.33863310366E+01 -0.31225742341E+02 -0.13227287432E+03  0.13595082752E+03  0.00000000000E+00 0.  1.
         14    1    4    4    0    0 -0.26557174537E+02 -0.94874042962E+01 -0.17491209257E+01  0.28255154993E+02  0.00000000000E+00 0. -1.
         -5    1    5    5    0  502 -0.40618719210E+02  0.49165759411E+02  0.26588514020E+02  0.69254540115E+02  0.47000000000E+01 0.  1.
         11    1    6    6    0    0  0.11572977921E+02 -0.64154586189E+02  0.30564733028E+01  0.65261679231E+02  0.00000000000E+00 0. -1.
        -12    1    6    6    0    0  0.12497247649E+02 -0.54550473562E+01  0.58277914786E+02  0.59851934741E+02  0.00000000000E+00 0.  1.
</event>
<event>
12    1  0.8258923E-002  0.1950639E+03  0.7818608E-02  0.1154261E+00
         21   -1    0    0  503  502  0.00000000000E+00  0.00000000000E+00  0.92669773157E+02  0.92669773157E+02  0.00000000000E+00 0. -1.
         21   -1    0    0  501  503 -0.00000000000E+00 -0.00000000000E+00 -0.42648851306E+03  0.42648851306E+03  0.00000000000E+00 0. -1.
          6    2    1    2  501    0  0.49430831616E+02 -0.76999579263E+02 -0.11205665968E+03  0.22381380145E+03  0.17077347692E+03 0.  0.
         24    2    3    3    0    0 -0.31178081787E+02 -0.20460472750E+02 -0.85091324488E+02  0.12161944355E+03  0.78485997583E+02 0.  0.
         -6    2    1    2    0  502 -0.49430831616E+02  0.76999579263E+02 -0.22176208022E+03  0.29534448477E+03  0.17227188435E+03 0.  0.
        -24    2    5    5    0    0  0.21962189989E+02  0.90110283376E+02 -0.14651527573E+03  0.19068778081E+03  0.79327818382E+02 0.  0.
          5    1    3    3  501    0  0.80608913403E+02 -0.56539106513E+02 -0.26965335191E+02  0.10219435790E+03  0.47000000000E+01 0. -1.
        -13    1    4    4    0    0 -0.49254416274E+02  0.10709577007E+02 -0.43399894341E+02  0.66514986213E+02  0.00000000000E+00 0.  1.
         14    1    4    4    0    0  0.18076334487E+02 -0.31170049757E+02 -0.41691430148E+02  0.55104457334E+02  0.00000000000E+00 0. -1.
         -5    1    5    5    0  502 -0.71393021605E+02 -0.13110704113E+02 -0.75246804490E+02  0.10465670395E+03  0.47000000000E+01 0.  1.
         11    1    6    6    0    0  0.17483069572E+02  0.77667363504E+02 -0.51633576648E+02  0.94888899840E+02  0.00000000000E+00 0. -1.
        -12    1    6    6    0    0  0.44791204168E+01  0.12442919872E+02 -0.94881699086E+02  0.95798880975E+02  0.00000000000E+00 0.  1.
</event>
<event>
12    1  0.8258923E-002  0.2111995E+03  0.7818608E-02  0.1141502E+00
         21   -1    0    0  503  502  0.00000000000E+00  0.00000000000E+00  0.49594370725E+03  0.49594370725E+03  0.00000000000E+00 0.  1.
         21   -1    0    0  501  503 -0.00000000000E+00 -0.00000000000E+00 -0.88223891685E+02  0.88223891685E+02  0.00000000000E+00 0.  1.
          6    2    1    2  501    0 -0.54621523142E+02 -0.11149438167E+03  0.21429681605E+03  0.29778028072E+03  0.16533439534E+03 0.  0.
         24    2    3    3    0    0  0.42604270720E+01 -0.47247814328E+02  0.18372628271E+03  0.20530675486E+03  0.78390110573E+02 0.  0.
         -6    2    1    2    0  502  0.54621523142E+02  0.11149438167E+03  0.19342299952E+03  0.28638731822E+03  0.17085295245E+03 0.  0.
        -24    2    5    5    0    0  0.27550783236E+02  0.11443436598E+03  0.21487128534E+03  0.25140750359E+03  0.56407391561E+02 0.  0.
          5    1    3    3  501    0 -0.58881950214E+02 -0.64246567339E+02  0.30570533335E+02  0.92473525856E+02  0.47000000000E+01 0. -1.
        -13    1    4    4    0    0 -0.20906768020E+02  0.53761564222E+00  0.11983904034E+03  0.12165022634E+03  0.00000000000E+00 0.  1.
         14    1    4    4    0    0  0.25167195092E+02 -0.47785429970E+02  0.63887242373E+02  0.83656528522E+02  0.00000000000E+00 0. -1.
         -5    1    5    5    0  502  0.27070739905E+02 -0.29399843165E+01 -0.21448285820E+02  0.34979814628E+02  0.47000000000E+01 0.  1.
         13    1    6    6    0    0  0.34011844352E+02  0.54369462624E+02  0.14795343312E+03  0.16125465076E+03  0.00000000000E+00 0. -1.
        -14    1    6    6    0    0 -0.64610611153E+01  0.60064903360E+02  0.66917852224E+02  0.90152852826E+02  0.00000000000E+00 0.  1.
</event>
<event>
12    1  0.8258923E-002  0.1751282E+03  0.7818608E-02  0.1172927E+00
         21   -1    0    0  503  502  0.00000000000E+00  0.00000000000E+00  0.10445292194E+04  0.10445292194E+04  0.00000000000E+00 0. -1.
         21   -1    0    0  501  503 -0.00000000000E+00 -0.00000000000E+00 -0.29164792409E+02  0.29164792409E+02  0.00000000000E+00 0. -1.
          6    2    1    2  501    0  0.47081926520E+01 -0.30154758518E+02  0.52277670308E+03  0.55133054331E+03  0.17244828257E+03 0.  0.
         24    2    3    3    0    0  0.55050915815E+02  0.20921228356E+02  0.37159606346E+03  0.38393633192E+03  0.76519092125E+02 0.  0.
         -6    2    1    2    0  502 -0.47081926520E+01  0.30154758518E+02  0.49258772392E+03  0.52236346851E+03  0.17114161077E+03 0.  0.
        -24    2    5    5    0    0 -0.59126524274E+02  0.23294836630E+02  0.41591361755E+03  0.42797373426E+03  0.78350396700E+02 0.  0.
          5    1    3    3  501    0 -0.50342723163E+02 -0.51075986874E+02  0.15118063962E+03  0.16739421139E+03  0.47000000000E+01 0. -1.
        -13    1    4    4    0    0 -0.91116479935E+01  0.28235321875E+02  0.15915702303E+03  0.16189877551E+03  0.00000000000E+00 0.  1.
         14    1    4    4    0    0  0.64162563809E+02 -0.73140935192E+01  0.21243904043E+03  0.22203755641E+03  0.00000000000E+00 0. -1.
         -5    1    5    5    0  502  0.54418331622E+02  0.68599218882E+01  0.76674106365E+02  0.94389734250E+02  0.47000000000E+01 0.  1.
         11    1    6    6    0    0  0.53252313883E+00  0.38084994594E+02  0.12672421050E+03  0.13232450990E+03  0.00000000000E+00 0. -1.
        -12    1    6    6    0    0 -0.59659047413E+02 -0.14790157964E+02  0.28918940705E+03  0.29564922435E+03  0.00000000000E+00 0.  1.
</event>
<event>
12    1  0.8258923E-002  0.1786555E+03  0.7818608E-02  0.1169426E+00
         21   -1    0    0  503  502  0.00000000000E+00  0.00000000000E+00  0.10648909243E+03  0.10648909243E+03  0.00000000000E+00 0.  1.
         21   -1    0    0  501  503 -0.00000000000E+00 -0.00000000000E+00 -0.31571694302E+03  0.31571694302E+03  0.00000000000E+00 0.  1.
          6    2    1    2  501    0 -0.30172926064E+02 -0.28104488856E+02 -0.15486479177E+03  0.23546252463E+03  0.17250863460E+03 0.  0.
         24    2    3    3    0    0 -0.27174346757E+02 -0.73340160420E+02 -0.15437411988E+03  0.18988195619E+03  0.78144508100E+02 0.  0.
         -6    2    1    2    0  502  0.30172926064E+02  0.28104488856E+02 -0.54363058821E+02  0.18674351083E+03  0.17383189842E+03 0.  0.
        -24    2    5    5    0    0  0.27675111166E+02  0.81583027995E+02 -0.12103142120E+02  0.11837550817E+03  0.80278095704E+02 0.  0.
          5    1    3    3  501    0 -0.29985793077E+01  0.45235671564E+02 -0.49067189205E+00  0.45580568432E+02  0.47000000000E+01 0. -1.
        -11    1    4    4    0    0  0.11095907124E+02 -0.71302355182E+02 -0.97437366731E+02  0.12124844512E+03  0.00000000000E+00 0.  1.
         12    1    4    4    0    0 -0.38270253881E+02 -0.20378052381E+01 -0.56936753151E+02  0.68633511070E+02  0.00000000000E+00 0. -1.
         -5    1    5    5    0  502  0.24978148986E+01 -0.53478539139E+02 -0.42259916702E+02  0.68368002657E+02  0.47000000000E+01 0.  1.
         11    1    6    6    0    0 -0.10811599617E+02 -0.71939323263E+01  0.13038281981E+02  0.18402177741E+02  0.00000000000E+00 0. -1.
        -12    1    6    6    0    0  0.38486710783E+02  0.88776960321E+02 -0.25141424101E+02  0.99973330427E+02  0.00000000000E+00 0.  1.
</event>
<event>
12    1  0.8258923E-002  0.1932619E+03  0.7818608E-02  0.1156141E+00
         21   -1    0    0  503  502  0.00000000000E+00  0.00000000000E+00  0.47306266104E+03  0.47306266104E+03  0.00000000000E+00 0. -1.
         21   -1    0    0  501  503 -0.00000000000E+00 -0.00000000000E+00 -0.11185179548E+03  0.11185179548E+03  0.00000000000E+00 0. -1.
          6    2    1    2  501    0 -0.88702032753E+02 -0.11959718868E+02  0.20287798883E+02  0.19432384844E+03  0.17128653712E+03 0.  0.
         24    2    3    3    0    0 -0.59063022617E+02  0.48890826965E+02  0.46334577469E+02  0.12164796162E+03  0.82295685762E+02 0.  0.
         -6    2    1    2    0  502  0.88702032753E+02  0.11959718868E+02  0.34092306667E+03  0.39059060809E+03  0.16828963202E+03 0.  0.
        -24    2    5    5    0    0  0.10714477731E+03  0.26052432324E+02  0.34019254188E+03  0.36689750644E+03  0.82000500871E+02 0.  0.
          5    1    3    3  501    0 -0.29639010136E+02 -0.60850545833E+02 -0.26046778586E+02  0.72675886817E+02  0.47000000000E+01 0. -1.
        -11    1    4    4    0    0 -0.28977191484E+02  0.37372484310E+02 -0.17274091494E+02  0.50346543543E+02  0.00000000000E+00 0.  1.
         12    1    4    4    0    0 -0.30085831134E+02  0.11518342655E+02  0.63608668963E+02  0.71301418077E+02  0.00000000000E+00 0. -1.
         -5    1    5    5    0  502 -0.18442744556E+02 -0.14092713457E+02  0.73052478972E+00  0.23693101650E+02  0.47000000000E+01 0.  1.
         11    1    6    6    0    0  0.93842612393E+02  0.12765345723E+02  0.16151712244E+03  0.18723560237E+03  0.00000000000E+00 0. -1.
        -12    1    6    6    0    0  0.13302164916E+02  0.13287086602E+02  0.17867541944E+03  0.17966190407E+03  0.00000000000E+00 0.  1.
</event>
<event>
12    1  0.8258923E-002  0.2667983E+03  0.7818608E-02  0.1103134E+00
         21   -1    0    0  503  502  0.00000000000E+00  0.00000000000E+00  0.29249936813E+03  0.29249936813E+03  0.00000000000E+00 0. -1.
         21   -1    0    0  501  503 -0.00000000000E+00 -0.00000000000E+00 -0.24337218557E+03  0.24337218557E+03  0.00000000000E+00 0.  1.
          6    2    1    2  501    0  0.17488844254E+03 -0.10620635568E+03  0.20054667421E+02  0.26755095439E+03  0.17121789098E+03 0.  0.
         24    2    3    3    0    0  0.11391982460E+03 -0.74501081094E+01 -0.28257263492E+02  0.14174912024E+03  0.79127173599E+02 0.  0.
         -6    2    1    2    0  502 -0.17488844254E+03  0.10620635568E+03  0.29072515138E+02  0.26832059931E+03  0.17112853519E+03 0.  0.
        -24    2    5    5    0    0 -0.36552941137E+02  0.92496016558E+01 -0.17121871610E+02  0.93125466768E+02  0.83411758384E+02 0.  0.
          5    1    3    3  501    0  0.60968617943E+02 -0.98756247571E+02  0.48311930913E+02  0.12580183415E+03  0.47000000000E+01 0. -1.
        -13    1    4    4    0    0  0.12231139068E+03  0.28136647277E+01 -0.34471569435E+02  0.12710736445E+03  0.00000000000E+00 0.  1.
         14    1    4    4    0    0 -0.83915660822E+01 -0.10263772837E+02  0.62143059429E+01  0.14641755787E+02  0.00000000000E+00 0. -1.
         -5    1    5    5    0  502 -0.13833550140E+03  0.96956754024E+02  0.46194386748E+02  0.17519513254E+03  0.47000000000E+01 0.  1.
         11    1    6    6    0    0 -0.39579941005E+02  0.31541237593E+02  0.16006087750E+02  0.53081223082E+02  0.00000000000E+00 0. -1.
        -12    1    6    6    0    0  0.30269998680E+01 -0.22291635938E+02 -0.33127959360E+02  0.40044243685E+02  0.00000000000E+00 0.  1.
</event>
<event>
12    1  0.8258923E-002  0.2022460E+03  0.7818608E-02  0.1148483E+00
         21   -1    0    0  501  502  0.00000000000E+00  0.00000000000E+00  0.11108223246E+03  0.11108223246E+03  0.00000000000E+00 0. -1.
         21   -1    0    0  502  503 -0.00000000000E+00 -0.00000000000E+00 -0.36598335002E+03  0.36598335002E+03  0.00000000000E+00 0. -1.
         -6    2    1    2    0  503  0.99969204182E+02 -0.55192059453E+01 -0.14870119703E+03  0.24863211112E+03  0.17228342132E+03 0.  0.
        -24    2    3    3    0    0  0.41013615437E+01 -0.35796645414E+02 -0.11352275758E+03  0.14201607482E+03  0.77349389342E+02 0.  0.
          6    2    1    2  501    0 -0.99969204182E+02  0.55192059453E+01 -0.10619992053E+03  0.22843347136E+03  0.17572456942E+03 0.  0.
         24    2    5    5    0    0 -0.45120362131E+02 -0.25452332666E+02 -0.12966222824E+03  0.16105245354E+03  0.80261641171E+02 0.  0.
          5    1    5    5  501    0 -0.54848842051E+02  0.30971538612E+02  0.23462307714E+02  0.67381017813E+02  0.47000000000E+01 0. -1.
        -13    1    6    6    0    0 -0.31284848302E+02 -0.48356644299E+02 -0.47539140013E+02  0.74679827359E+02  0.00000000000E+00 0.  1.
         14    1    6    6    0    0 -0.13835513829E+02  0.22904311632E+02 -0.82123088227E+02  0.86372626186E+02  0.00000000000E+00 0. -1.
         -5    1    3    3    0  503  0.95867842638E+02  0.30277439468E+02 -0.35178439458E+02  0.10661603630E+03  0.47000000000E+01 0.  1.
         13    1    4    4    0    0  0.14761100926E+02 -0.56927011841E+02 -0.62764355163E+02  0.86011272847E+02  0.00000000000E+00 0. -1.
        -14    1    4    4    0    0 -0.10659739382E+02  0.21130366427E+02 -0.50758402412E+02  0.56004801977E+02  0.00000000000E+00 0.  1.
</event>
<event>
12    1  0.8258923E-002  0.1903530E+03  0.7818608E-02  0.1159310E+00
         21   -1    0    0  501  502  0.00000000000E+00  0.00000000000E+00  0.12399300187E+04  0.12399300187E+04  0.00000000000E+00 0.  1.
         21   -1    0    0  502  503 -0.00000000000E+00 -0.00000000000E+00 -0.97822419116E+02  0.97822419116E+02  0.00000000000E+00 0. -1.
         -6    2    1    2    0  503 -0.67100194798E+02  0.29618846623E+01  0.55069483277E+01  0.18532226084E+03  0.17263488923E+03 0.  0.
        -24    2    3    3    0    0 -0.14102748277E+02 -0.38379294998E+02 -0.46224455255E+02  0.10037492074E+03  0.79161648895E+02 0.  0.
          6    2    1    2  501    0  0.67100194798E+02 -0.29618846623E+01  0.11366006512E+04  0.11524301769E+04  0.17810969505E+03 0.  0.
         24    2    5    5    0    0  0.78941229171E+02  0.58001196695E+02  0.84096119253E+03  0.85030191458E+03  0.78751267391E+02 0.  0.
          5    1    5    5  501    0 -0.11841034373E+02 -0.60963081358E+02  0.29563945869E+03  0.30212826236E+03  0.47000000000E+01 0. -1.
        -13    1    6    6    0    0  0.35294669574E+02 -0.11227111985E+02  0.40772540506E+03  0.40940416177E+03  0.00000000000E+00 0.  1.
         14    1    6    6    0    0  0.43646559597E+02  0.69228308681E+02  0.43323578747E+03  0.44089775281E+03  0.00000000000E+00 0. -1.
         -5    1    3    3    0  503 -0.52997446521E+02  0.41341179661E+02  0.51731403582E+02  0.84947340100E+02  0.47000000000E+01 0.  1.
         11    1    4    4    0    0  0.84154508879E+01 -0.29105451181E+01 -0.56439642178E+02  0.57137765933E+02  0.00000000000E+00 0. -1.
        -12    1    4    4    0    0 -0.22518199164E+02 -0.35468749880E+02  0.10215186924E+02  0.43237154804E+02  0.00000000000E+00 0.  1.
</event>
<event>
12    1  0.8258923E-002  0.1786028E+03  0.7818608E-02  0.1170178E+00
         21   -1    0    0  503  502  0.00000000000E+00  0.00000000000E+00  0.39279450690E+03  0.39279450690E+03  0.00000000000E+00 0. -1.
         21   -1    0    0  501  503 -0.00000000000E+00 -0.00000000000E+00 -0.17447051954E+03  0.17447051954E+03  0.00000000000E+00 0. -1.
          6    2    1    2  501    0  0.24465145703E+02  0.39697977169E+02 -0.99675417809E+02  0.20453394763E+03  0.17240787126E+03 0.  0.
         24    2    3    3    0    0 -0.45794795989E+02  0.45122542947E+02 -0.82089542440E+02  0.13175181842E+03  0.80539688709E+02 0.  0.
         -6    2    1    2    0  502 -0.24465145703E+02 -0.39697977169E+02  0.31799940517E+03  0.36273107881E+03  0.16815392085E+03 0.  0.
        -24    2    5    5    0    0 -0.50852934736E+02 -0.45981590334E+02  0.31886057770E+03  0.33518782514E+03  0.77320647256E+02 0.  0.
          5    1    3    3  501    0  0.70259941692E+02 -0.54245657780E+01 -0.17585875368E+02  0.72782129214E+02  0.47000000000E+01 0. -1.
        -11    1    4    4    0    0  0.22537649068E+01  0.88880239983E+01  0.14966807542E+02  0.17552257828E+02  0.00000000000E+00 0.  1.
         12    1    4    4    0    0 -0.48048560896E+02  0.36234518949E+02 -0.97056349982E+02  0.11419956059E+03  0.00000000000E+00 0. -1.
         -5    1    5    5    0  502  0.26387789033E+02  0.62836131645E+01 -0.86117252491E+00  0.27543253667E+02  0.47000000000E+01 0.  1.
         11    1    6    6    0    0 -0.56874307871E+02 -0.54664299414E+00  0.19472642117E+03  0.20286292125E+03  0.00000000000E+00 0. -1.
        -12    1    6    6    0    0  0.60213731349E+01 -0.45434947339E+02  0.12413415652E+03  0.13232490389E+03  0.00000000000E+00 0.  1.
</event>
<event>
12    1  0.8258923E-002  0.2565987E+03  0.7818608E-02  0.1109241E+00
         21   -1    0    0  501  502  0.00000000000E+00  0.00000000000E+00  0.12790717256E+04  0.12790717256E+04  0.00000000000E+00 0.  1.
         21   -1    0    0  502  503 -0.00000000000E+00 -0.00000000000E+00 -0.69845405229E+02  0.69845405229E+02  0.00000000000E+00 0.  1.
         -6    2    1    2    0  503 -0.92226521802E+02  0.16584264836E+03  0.95073759600E+03  0.98469285270E+03  0.17236160357E+03 0.  0.
        -24    2    3    3    0    0 -0.52535821954E+02  0.18346882509E+03  0.84996780933E+03  0.87486264891E+03  0.80737569890E+02 0.  0.
          6    2    1    2  501    0  0.92226521802E+02 -0.16584264836E+03  0.25848872433E+03  0.36422427808E+03  0.17272344600E+03 0.  0.
         24    2    5    5    0    0  0.19940446796E+02 -0.10762353731E+03  0.69425433137E+02  0.15355449001E+03  0.82332517472E+02 0.  0.
          5    1    5    5  501    0  0.72286075007E+02 -0.58219111050E+02  0.18906329119E+03  0.21066978807E+03  0.47000000000E+01 0. -1.
        -13    1    6    6    0    0  0.51384861716E+02 -0.53905430011E+02  0.42391717957E+02  0.85692806872E+02  0.00000000000E+00 0.  1.
         14    1    6    6    0    0 -0.31444414920E+02 -0.53718107297E+02  0.27033715180E+02  0.67861683133E+02  0.00000000000E+00 0. -1.
         -5    1    3    3    0  503 -0.39690699848E+02 -0.17626176730E+02  0.10076978666E+03  0.10983020379E+03  0.47000000000E+01 0.  1.
         11    1    4    4    0    0  0.19792030851E+01  0.27983366526E+02  0.43684520754E+02  0.51916504124E+02  0.00000000000E+00 0. -1.
        -12    1    4    4    0    0 -0.54515025040E+02  0.15548545856E+03  0.80628328858E+03  0.82294614479E+03  0.00000000000E+00 0.  1.
</event>
<event>
12    1  0.8258923E-002  0.1768614E+03  0.7818608E-02  0.1171723E+00
         21   -1    0    0  503  502  0.00000000000E+00  0.00000000000E+00  0.20408182493E+03  0.20408182493E+03  0.00000000000E+00 0. -1.
         21   -1    0    0  501  503 -0.00000000000E+00 -0.00000000000E+00 -0.18752239055E+03  0.18752239055E+03  0.00000000000E+00 0.  1.
          6    2    1    2  501    0  0.40122657834E+02  0.93486307990E+01 -0.78829684013E+02  0.19363385931E+03  0.17199630177E+03 0.  0.
         24    2    3    3    0    0 -0.29191857277E+02 -0.30037764365E+02 -0.27514877597E+02  0.98707100775E+02  0.85038764307E+02 0.  0.
         -6    2    1    2    0  502 -0.40122657834E+02 -0.93486307990E+01  0.95389118392E+02  0.19797035617E+03  0.16851098909E+03 0.  0.
        -24    2    5    5    0    0  0.35213158326E+02 -0.31827314509E+02  0.62421649522E+02  0.11259049659E+03  0.80791169844E+02 0.  0.
          5    1    3    3  501    0  0.69314515111E+02  0.39386395164E+02 -0.51314806415E+02  0.94926758538E+02  0.47000000000E+01 0. -1.
        -11    1    4    4    0    0 -0.80887166259E+01 -0.14393693195E+02 -0.56926223398E+02  0.59272258695E+02  0.00000000000E+00 0.  1.
         12    1    4    4    0    0 -0.21103140652E+02 -0.15644071170E+02  0.29411345800E+02  0.39434842080E+02  0.00000000000E+00 0. -1.
         -5    1    5    5    0  502 -0.75335816160E+02  0.22478683710E+02  0.32967468870E+02  0.85379859578E+02  0.47000000000E+01 0.  1.
         13    1    6    6    0    0  0.40625853463E+02 -0.51475969730E+02  0.64652887474E+02  0.92088171271E+02  0.00000000000E+00 0. -1.
        -14    1    6    6    0    0 -0.54126951372E+01  0.19648655220E+02 -0.22312379526E+01  0.20502325317E+02  0.00000000000E+00 0.  1.
</event>
<event>
12    1  0.8258923E-002  0.1975867E+03  0.7818608E-02  0.1152284E+00
         21   -1    0    0  501  502  0.00000000000E+00  0.00000000000E+00  0.16141056323E+03  0.16141056323E+03  0.00000000000E+00 0.  1.
         21   -1    0    0  502  503 -0.00000000000E+00 -0.00000000000E+00 -0.34309353264E+03  0.34309353264E+03  0.00000000000E+00 0. -1.
         -6    2    1    2    0  503 -0.57715252197E+02 -0.72358482071E+02 -0.22936199473E+03  0.30124616475E+03  0.17197536710E+03 0.  0.
        -24    2    3    3    0    0  0.68777608789E+01 -0.54361393894E+02 -0.21000071376E+03  0.23129545552E+03  0.79967638611E+02 0.  0.
          6    2    1    2  501    0  0.57715252197E+02  0.72358482071E+02  0.47679025317E+02  0.20325793112E+03  0.17456717000E+03 0.  0.
         24    2    5    5    0    0  0.17450188330E+02 -0.40313270815E+02  0.51013047333E+01  0.76170750188E+02  0.62018473036E+02 0.  0.
          5    1    5    5  501    0  0.40265063867E+02  0.11267175289E+03  0.42577720583E+02  0.12708718093E+03  0.47000000000E+01 0. -1.
        -11    1    6    6    0    0  0.35559490121E+02 -0.43411073980E+02  0.10352054528E+02  0.57062805002E+02  0.00000000000E+00 0.  1.
         12    1    6    6    0    0 -0.18109301791E+02  0.30978031650E+01 -0.52507497944E+01  0.19107945186E+02  0.00000000000E+00 0. -1.
         -5    1    3    3    0  503 -0.64593013076E+02 -0.17997088176E+02 -0.19361280972E+02  0.69950709231E+02  0.47000000000E+01 0.  1.
         11    1    4    4    0    0 -0.18621738372E+02 -0.60262100981E+02 -0.18354731725E+03  0.19408221872E+03  0.00000000000E+00 0. -1.
        -12    1    4    4    0    0  0.25499499251E+02  0.59007070866E+01 -0.26453396505E+02  0.37213236796E+02  0.00000000000E+00 0.  1.
</event>
<event>
12    1  0.8258923E-002  0.2293075E+03  0.7818608E-02  0.1127448E+00
         21   -1    0    0  501  502  0.00000000000E+00  0.00000000000E+00  0.11642488202E+04  0.11642488202E+04  0.00000000000E+00 0.  1.
         21   -1    0    0  502  503 -0.00000000000E+00 -0.00000000000E+00 -0.63973747774E+02  0.63973747774E+02  0.00000000000E+00 0. -1.
         -6    2    1    2    0  503  0.14844592148E+03 -0.24208479829E+02  0.21554306054E+03  0.31470737724E+03  0.17308864851E+03 0.  0.
        -24    2    3    3    0    0  0.15153683072E+02 -0.32239085213E+02  0.64939867667E+02  0.11337500740E+03  0.85835384102E+02 0.  0.
          6    2    1    2  501    0 -0.14844592148E+03  0.24208479829E+02  0.88473201189E+03  0.91351519074E+03  0.17069571978E+03 0.  0.
         24    2    5    5    0    0 -0.98880682685E+02  0.49660618279E+02  0.80261317383E+03  0.81416672415E+03  0.80224569198E+02 0.  0.
          5    1    5    5  501    0 -0.49565238791E+02 -0.25452138450E+02  0.82118838062E+02  0.99348466585E+02  0.47000000000E+01 0. -1.
        -11    1    6    6    0    0 -0.18782090885E+02  0.49687399532E+02  0.23491678058E+03  0.24084745879E+03  0.00000000000E+00 0.  1.
         12    1    6    6    0    0 -0.80098591800E+02 -0.26781252250E-01  0.56769639325E+03  0.57331926536E+03  0.00000000000E+00 0. -1.
         -5    1    3    3    0  503  0.13329223840E+03  0.80306053836E+01  0.15060319287E+03  0.20133236984E+03  0.47000000000E+01 0.  1.
         11    1    4    4    0    0 -0.13376003481E+02 -0.29836928451E+01 -0.16984950844E+02  0.21824491914E+02  0.00000000000E+00 0. -1.
        -12    1    4    4    0    0  0.28529686553E+02 -0.29255392367E+02  0.81924818511E+02  0.91550515484E+02  0.00000000000E+00 0.  1.
</event>
<event>
12    1  0.8258923E-002  0.2430700E+03  0.7818608E-02  0.1118289E+00
         21   -1    0    0  501  502  0.00000000000E+00  0.00000000000E+00  0.15822290278E+03  0.15822290278E+03  0.00000000000E+00 0. -1.
         21   -1    0    0  502  503 -0.00000000000E+00 -0.00000000000E+00 -0.40788528029E+03  0.40788528029E+03  0.00000000000E+00 0. -1.
         -6    2    1    2    0  503 -0.16699646582E+03  0.21471261317E+02 -0.21347536517E+03  0.32350386547E+03  0.17531167898E+03 0.  0.
        -24    2    3    3    0    0 -0.54867014438E+02  0.68488372149E+02 -0.13021814506E+03  0.17606751555E+03  0.79636413395E+02 0.  0.
          6    2    1    2  501    0  0.16699646582E+03 -0.21471261317E+02 -0.36187012344E+02  0.24260431760E+03  0.17087574550E+03 0.  0.
         24    2    5    5    0    0  0.48272134326E+02 -0.15155573113E+02  0.39071416450E+02  0.10181626445E+03  0.79246992212E+02 0.  0.
          5    1    5    5  501    0  0.11872433149E+03 -0.63156882043E+01 -0.75258428794E+02  0.14078805315E+03  0.47000000000E+01 0. -1.
        -13    1    6    6    0    0 -0.51339371743E+01  0.22790052888E+02  0.26104740783E+02  0.35031433213E+02  0.00000000000E+00 0.  1.
         14    1    6    6    0    0  0.53406071500E+02 -0.37945626001E+02  0.12966675667E+02  0.66784831238E+02  0.00000000000E+00 0. -1.
         -5    1    3    3    0  503 -0.11212945138E+03 -0.47017110831E+02 -0.83257220114E+02  0.14743634992E+03  0.47000000000E+01 0.  1.
         13    1    4    4    0    0  0.12980643854E+02  0.44480916263E+02 -0.56003166122E+02  0.72687025267E+02  0.00000000000E+00 0. -1.
        -14    1    4    4    0    0 -0.67847658291E+02  0.24007455885E+02 -0.74214978933E+02  0.10338049029E+03  0.00000000000E+00 0.  1.
</event>
<event>
12    1  0.8258923E-002  0.2131279E+03  0.7818608E-02  0.1139348E+00
         21   -1    0    0  503  502  0.00000000000E+00  0.00000000000E+00  0.23089312949E+03  0.23089312949E+03  0.00000000000E+00 0. -1.
         21   -1    0    0  501  503 -0.00000000000E+00 -0.00000000000E+00 -0.28189955002E+03  0.28189955002E+03  0.00000000000E+00 0. -1.
          6    2    1    2  501    0 -0.13047607777E+02  0.12537461268E+03 -0.16740292498E+03  0.27101148075E+03  0.17185589846E+03 0.  0.
         24    2    3    3    0    0  0.10587260922E+02  0.97346593692E+02 -0.18939162176E+03  0.22800253224E+03  0.80793062308E+02 0.  0.
         -6    2    1    2    0  502  0.13047607777E+02 -0.12537461268E+03  0.11639650445E+03  0.24178119876E+03  0.17035541744E+03 0.  0.
        -24    2    5    5    0    0  0.71978315228E+02 -0.63212041898E+02  0.60728517613E+02  0.13951669736E+03  0.81242328174E+02 0.  0.
          5    1    3    3  501    0 -0.23634868699E+02  0.28028018988E+02  0.21988696776E+02  0.43008948520E+02  0.47000000000E+01 0. -1.
        -11    1    4    4    0    0  0.23657598200E+02  0.15966021748E+02 -0.94216217695E+01  0.30055993741E+02  0.00000000000E+00 0.  1.
         12    1    4    4    0    0 -0.13070337277E+02  0.81380571944E+02 -0.17996999999E+03  0.19794653849E+03  0.00000000000E+00 0. -1.
         -5    1    5    5    0  502 -0.58930707451E+02 -0.62162570782E+02  0.55667986838E+02  0.10226450139E+03  0.47000000000E+01 0.  1.
         11    1    6    6    0    0  0.21123757393E+02 -0.56076681679E+02  0.64482130930E+02  0.88026999061E+02  0.00000000000E+00 0. -1.
        -12    1    6    6    0    0  0.50854557836E+02 -0.71353602194E+01 -0.37536133163E+01  0.51489698300E+02  0.00000000000E+00 0.  1.
</event>
<event>
12    1  0.8258923E-002  0.2198760E+03  0.7818608E-02  0.1134299E+00
         21   -1    0    0  501  502  0.00000000000E+00  0.00000000000E+00  0.43532615041E+02  0.43532615041E+02  0.00000000000E+00 0. -1.
         21   -1    0    0  502  503 -0.00000000000E+00 -0.00000000000E+00 -0.18014992465E+04  0.18014992465E+04  0.00000000000E+00 0. -1.
         -6    2    1    2    0  503 -0.94288682338E+02 -0.96153665199E+02 -0.14560048403E+04  0.14725133395E+04  0.17380896736E+03 0.  0.
        -24    2    3    3    0    0  0.15648889721E+02 -0.67341636357E+02 -0.64491700850E+03  0.65348833156E+03  0.79682293544E+02 0.  0.
          6    2    1    2  501    0  0.94288682338E+02  0.96153665199E+02 -0.30196179118E+03  0.37251852205E+03  0.17161947146E+03 0.  0.
         24    2    5    5    0    0 -0.99381871729E-01  0.91994919880E+02 -0.19681838547E+03  0.23108434091E+03  0.78736399432E+02 0.  0.
          5    1    5    5  501    0  0.94388064210E+02  0.41587453185E+01 -0.10514340571E+03  0.14143418113E+03  0.47000000000E+01 0. -1.
        -13    1    6    6    0    0 -0.18334222034E+02  0.24949472494E+01 -0.83561686106E+02  0.85585768935E+02  0.00000000000E+00 0.  1.
         14    1    6    6    0    0  0.18234840162E+02  0.89499972631E+02 -0.11325669936E+03  0.14549857198E+03  0.00000000000E+00 0. -1.
         -5    1    3    3    0  503 -0.10993757206E+03 -0.28812028842E+02 -0.81108783182E+03  0.81902500798E+03  0.47000000000E+01 0.  1.
         11    1    4    4    0    0  0.19222823512E+02 -0.22017863869E+02 -0.51531327231E+03  0.51614152312E+03  0.00000000000E+00 0. -1.
        -12    1    4    4    0    0 -0.35739337903E+01 -0.45323772488E+02 -0.12960373619E+03  0.13734680845E+03  0.00000000000E+00 0.  1.
</event>
<event>
12    1  0.8258923E-002  0.1767174E+03  0.7818608E-02  0.1171200E+00
         21   -1    0    0  501  502  0.00000000000E+00  0.00000000000E+00  0.25508165939E+03  0.25508165939E+03  0.00000000000E+00 0. -1.
         21   -1    0    0  502  503 -0.00000000000E+00 -0.00000000000E+00 -0.13185395960E+03  0.13185395960E+03  0.00000000000E+00 0. -1.
         -6    2    1    2    0  503 -0.40766728619E+01 -0.16409753380E+02  0.83992441234E+01  0.17618787439E+03  0.17517340127E+03 0.  0.
        -24    2    3    3    0    0  0.21049217624E+02 -0.63565721423E+02 -0.30627098710E+02  0.10985431479E+03  0.81524725084E+02 0.  0.
          6    2    1    2  501    0  0.40766728619E+01  0.16409753380E+02  0.11482845566E+03  0.21074774460E+03  0.17590661828E+03 0.  0.
         24    2    5    5    0    0  0.34586186685E+02  0.34878326534E+02  0.88941812353E+00  0.91265055882E+02  0.76914350997E+02 0.  0.
          5    1    5    5  501    0 -0.30509513823E+02 -0.18468573154E+02  0.11393903754E+03  0.11948268872E+03  0.47000000000E+01 0. -1.
        -11    1    6    6    0    0  0.16114869961E+02  0.25211375100E+01  0.36342248366E+02  0.39834710800E+02  0.00000000000E+00 0.  1.
         12    1    6    6    0    0  0.18471316723E+02  0.32357189024E+02 -0.35452830242E+02  0.51430345082E+02  0.00000000000E+00 0. -1.
         -5    1    3    3    0  503 -0.25125890486E+02  0.47155968043E+02  0.39026342833E+02  0.66333559604E+02  0.47000000000E+01 0.  1.
         11    1    4    4    0    0  0.37697346484E+02 -0.63164907769E+02  0.16029637275E+01  0.73576252950E+02  0.00000000000E+00 0. -1.
        -12    1    4    4    0    0 -0.16648128861E+02 -0.40081365311E+00 -0.32230062437E+02  0.36278061840E+02  0.00000000000E+00 0.  1.
</event>
<event>
12    1  0.8258923E-002  0.1868109E+03  0.7818608E-02  0.1162048E+00
         21   -1    0    0  503  502  0.00000000000E+00  0.00000000000E+00  0.31208184941E+03  0.31208184941E+03  0.00000000000E+00 0. -1.
         21   -1    0    0  501  503 -0.00000000000E+00 -0.00000000000E+00 -0.22603738369E+03  0.22603738369E+03  0.00000000000E+00 0. -1.
          6    2    1    2  501    0 -0.28471590695E+02  0.57657083964E+02 -0.14984855956E+03  0.23721420916E+03  0.17228180233E+03 0.  0.
         24    2    3    3    0    0 -0.61937312520E+01 -0.18641340930E+02 -0.13163844636E+03  0.15553525908E+03  0.80477787985E+02 0.  0.
         -6    2    1    2    0  502  0.28471590695E+02 -0.57657083964E+02  0.23589302528E+03  0.30090502395E+03  0.17539482106E+03 0.  0.
        -24    2    5    5    0    0 -0.48308711627E+02 -0.63719981916E+01  0.11190108427E+03  0.14623936427E+03  0.80559077841E+02 0.  0.
          5    1    3    3  501    0 -0.22277859443E+02  0.76298424894E+02 -0.18210113199E+02  0.81678950075E+02  0.47000000000E+01 0. -1.
        -13    1    4    4    0    0  0.27821019060E+02 -0.49845563899E+01 -0.12534388173E+02  0.30918696461E+02  0.00000000000E+00 0.  1.
         14    1    4    4    0    0 -0.34014750312E+02 -0.13656784540E+02 -0.11910405819E+03  0.12461656262E+03  0.00000000000E+00 0. -1.
         -5    1    5    5    0  502  0.76780302322E+02 -0.51285085772E+02  0.12399194101E+03  0.15466565968E+03  0.47000000000E+01 0.  1.
         11    1    6    6    0    0  0.17204473219E+02 -0.12909367868E+02  0.55583057742E+02  0.59599681085E+02  0.00000000000E+00 0. -1.
        -12    1    6    6    0    0 -0.65513184847E+02  0.65373696767E+01  0.56318026525E+02  0.86639683187E+02  0.00000000000E+00 0.  1.
</event>
<event>
12    1  0.8258923E-002  0.1980976E+03  0.7818608E-02  0.1151490E+00
         21   -1    0    0  501  502  0.00000000000E+00  0.00000000000E+00  0.99649304857E+03  0.99649304857E+03  0.00000000000E+00 0.  1.
         21   -1    0    0  502  503 -0.00000000000E+00 -0.00000000000E+00 -0.50751273999E+02  0.50751273999E+02  0.00000000000E+00 0.  1.
         -6    2    1    2    0  503 -0.52022330140E+02 -0.83517552818E+02  0.22306051102E+03  0.29790404666E+03  0.17119966406E+03 0.  0.
        -24    2    3    3    0    0 -0.70450276921E+02 -0.58603398116E+02  0.23506925301E+03  0.26433912134E+03  0.78867088030E+02 0.  0.
          6    2    1    2  501    0  0.52022330140E+02  0.83517552818E+02  0.72268126354E+03  0.74934027591E+03  0.17193352191E+03 0.  0.
         24    2    5    5    0    0  0.66249107230E+02  0.37170746097E+01  0.53279432350E+03  0.54282234083E+03  0.79897069408E+02 0.  0.
          5    1    5    5  501    0 -0.14226777091E+02  0.79800478209E+02  0.18988694005E+03  0.20651793508E+03  0.47000000000E+01 0. -1.
        -13    1    6    6    0    0  0.35337259767E+02 -0.37906892893E+02  0.25005855613E+03  0.25537215187E+03  0.00000000000E+00 0.  1.
         14    1    6    6    0    0  0.30911847464E+02  0.41623967503E+02  0.28273576737E+03  0.28745018896E+03  0.00000000000E+00 0. -1.
         -5    1    3    3    0  503  0.18427946781E+02 -0.24914154703E+02 -0.12008741986E+02  0.33564925312E+02  0.47000000000E+01 0.  1.
         13    1    4    4    0    0 -0.11588984280E+02 -0.58805442959E+02  0.94005360643E+02  0.11148718540E+03  0.00000000000E+00 0. -1.
        -14    1    4    4    0    0 -0.58861292641E+02  0.20204484332E+00  0.14106389237E+03  0.15285193595E+03  0.00000000000E+00 0.  1.
</event>
<event>
12    1  0.8258923E-002  0.2537963E+03  0.7818608E-02  0.1111267E+00
         21   -1    0    0  501  502  0.00000000000E+00  0.00000000000E+00  0.48680155865E+03  0.48680155865E+03  0.00000000000E+00 0. -1.
         21   -1    0    0  502  503 -0.00000000000E+00 -0.00000000000E+00 -0.13331789108E+03  0.13331789108E+03  0.00000000000E+00 0. -1.
         -6    2    1    2    0  503 -0.24105818511E+02  0.18497581960E+03  0.21518786906E+03  0.33108956054E+03  0.16887076061E+03 0.  0.
        -24    2    3    3    0    0  0.19267840644E+01  0.19899325641E+03  0.15740736936E+03  0.26601375031E+03  0.79901231731E+02 0.  0.
          6    2    1    2  501    0  0.24105818511E+02 -0.18497581960E+03  0.13829579852E+03  0.28902988919E+03  0.17209126832E+03 0.  0.
         24    2    5    5    0    0  0.27717580588E+02 -0.17952705374E+03  0.16753801804E+03  0.25869952030E+03  0.76539055482E+02 0.  0.
          5    1    5    5  501    0 -0.36117620771E+01 -0.54487658540E+01 -0.29242219518E+02  0.30330368890E+02  0.47000000000E+01 0. -1.
        -11    1    6    6    0    0  0.37732454173E+02 -0.41827024018E+02  0.30011160539E+02  0.63827171276E+02  0.00000000000E+00 0.  1.
         12    1    6    6    0    0 -0.10014873585E+02 -0.13770002973E+03  0.13752685750E+03  0.19487234902E+03  0.00000000000E+00 0. -1.
         -5    1    3    3    0  503 -0.26032602575E+02 -0.14017436816E+02  0.57780499697E+02  0.65075810229E+02  0.47000000000E+01 0.  1.
         11    1    4    4    0    0 -0.27063249080E+00  0.10581471333E+03  0.13244515069E+03  0.16952446649E+03  0.00000000000E+00 0. -1.
        -12    1    4    4    0    0  0.21974165552E+01  0.93178543087E+02  0.24962218670E+02  0.96489283821E+02  0.00000000000E+00 0.  1.
</event>
<event>
12    1  0.8258923E-002  0.2039929E+03  0.7818608E-02  0.1146470E+00
         21   -1    0    0  501  502  0.00000000000E+00  0.00000000000E+00  0.34630222945E+03  0.34630222945E+03  0.00000000000E+00 0. -1.
         21   -1    0    0  502  503 -0.00000000000E+00 -0.00000000000E+00 -0.17978295200E+03  0.17978295200E+03  0.00000000000E+00 0. -1.
         -6    2    1    2    0  503 -0.72619314305E+02  0.78388840615E+02 -0.68461113645E+02  0.21491174569E+03  0.17344093868E+03 0.  0.
        -24    2    3    3    0    0 -0.81253747970E+02  0.84031630690E+02  0.41776569658E+01  0.14139388717E+03  0.79443640380E+02 0.  0.
          6    2    1    2  501    0  0.72619314305E+02 -0.78388840615E+02  0.23498039110E+03  0.31117343576E+03  0.17376635975E+03 0.  0.
         24    2    5    5    0    0  0.80381695038E+02 -0.67906754929E+02  0.66647129025E+02  0.14227019188E+03  0.68748988553E+02 0.  0.
          5    1    5    5  501    0 -0.77623807327E+01 -0.10482085686E+02  0.16833326208E+03  0.16890324389E+03  0.47000000000E+01 0. -1.
        -13    1    6    6    0    0  0.19673051449E+02 -0.29806139274E+02 -0.10244471704E+02  0.37153520590E+02  0.00000000000E+00 0.  1.
         14    1    6    6    0    0  0.60708643589E+02 -0.38100615655E+02  0.76891600729E+02  0.10511667129E+03  0.00000000000E+00 0. -1.
         -5    1    3    3    0  503  0.86344336654E+01 -0.56427900753E+01 -0.72638770611E+02  0.73517858514E+02  0.47000000000E+01 0.  1.
         13    1    4    4    0    0 -0.34302686908E+02  0.43067527937E+02 -0.37333804696E+02  0.66522922852E+02  0.00000000000E+00 0. -1.
        -14    1    4    4    0    0 -0.46951061062E+02  0.40964102754E+02  0.41511461662E+02  0.74870964322E+02  0.00000000000E+00 0.  1.
</event>
<event>
12    1  0.8258923E-002  0.2047066E+03  0.7818608E-02  0.1145986E+00
         21   -1    0    0  503  502  0.00000000000E+00  0.00000000000E+00  0.22894592087E+03  0.22894592087E+03  0.00000000000E+00 0. -1.
         21   -1    0    0  501  503 -0.00000000000E+00 -0.00000000000E+00 -0.32298124654E+03  0.32298124654E+03  0.00000000000E+00 0.  1.
          6    2    1    2  501    0 -0.10832659006E+03  0.16302401907E+02 -0.22916998139E+03  0.30728433504E+03  0.17292878236E+03 0.  0.
         24    2    3    3    0    0 -0.52801808181E+02  0.71427620026E+02 -0.17863307106E+03  0.21402201477E+03  0.77496534647E+02 0.  0.
         -6    2    1    2    0  502  0.10832659006E+03 -0.16302401907E+02  0.13513465573E+03  0.24464283236E+03  0.17201256299E+03 0.  0.
        -24    2    5    5    0    0  0.74542166227E+02 -0.64178030684E+02  0.12919447030E+03  0.18555951046E+03  0.89809613057E+02 0.  0.
          5    1    3    3  501    0 -0.55524781876E+02 -0.55125218120E+02 -0.50536910334E+02  0.93262320265E+02  0.47000000000E+01 0. -1.
        -13    1    4    4    0    0 -0.45433667255E+02  0.66392401630E+01 -0.11076851963E+03  0.11990814222E+03  0.00000000000E+00 0.  1.
         14    1    4    4    0    0 -0.73681409262E+01  0.64788379863E+02 -0.67864551428E+02  0.94113872551E+02  0.00000000000E+00 0. -1.
         -5    1    5    5    0  502  0.33784423830E+02  0.47875628777E+02  0.59401854251E+01  0.59083321904E+02  0.47000000000E+01 0.  1.
         13    1    6    6    0    0  0.88558627749E+01 -0.65843279598E+02  0.53308978425E+02  0.85179874116E+02  0.00000000000E+00 0. -1.
        -14    1    6    6    0    0  0.65686303452E+02  0.16652489148E+01  0.75885491876E+02  0.10037963634E+03  0.00000000000E+00 0.  1.
</event>
<event>
12    1  0.8258923E-002  0.1975791E+03  0.7818608E-02  0.1151985E+00
         21   -1    0    0  503  502  0.00000000000E+00  0.00000000000E+00  0.11351150297E+04  0.11351150297E+04  0.00000000000E+00 0.  1.
         21   -1    0    0  501  503 -0.00000000000E+00 -0.00000000000E+00 -0.34241787417E+02  0.34241787417E+02  0.00000000000E+00 0.  1.
          6    2    1    2  501    0 -0.12794091402E+02  0.95115000548E+02  0.55668031166E+03  0.59070336900E+03  0.17270480207E+03 0.  0.
         24    2    3    3    0    0 -0.18239495707E+02 -0.10888882084E+02  0.16280506304E+03  0.18274960075E+03  0.80253853893E+02 0.  0.
         -6    2    1    2    0  502  0.12794091402E+02 -0.95115000548E+02  0.54419293063E+03  0.57865344812E+03  0.17170706208E+03 0.  0.
        -24    2    5    5    0    0 -0.28545043237E+02 -0.17102612693E+01  0.15990659436E+03  0.18099599802E+03  0.79822853205E+02 0.  0.
          5    1    3    3  501    0  0.54454043050E+01  0.10600388263E+03  0.39387524862E+03  0.40795376825E+03  0.47000000000E+01 0. -1.
        -13    1    4    4    0    0 -0.21754384880E+02  0.32518150667E+02  0.68776632711E+02  0.79125903416E+02  0.00000000000E+00 0.  1.
         14    1    4    4    0    0  0.35148891737E+01 -0.43407032751E+02  0.94028430329E+02  0.10362369733E+03  0.00000000000E+00 0. -1.
         -5    1    5    5    0  502  0.41339134638E+02 -0.93404739279E+02  0.38428633627E+03  0.39765745010E+03  0.47000000000E+01 0.  1.
         13    1    6    6    0    0  0.70665213996E+01  0.99425169695E+01 -0.40187033453E+01  0.12842871367E+02  0.00000000000E+00 0. -1.
        -14    1    6    6    0    0 -0.35611564636E+02 -0.11652778239E+02  0.16392529771E+03  0.16815312666E+03  0.00000000000E+00 0.  1.
</event>
<event>
12    1  0.8258923E-002  0.1728987E+03  0.7818608E-02  0.1175455E+00
         21   -1    0    0  501  502  0.00000000000E+00  0.00000000000E+00  0.88596699450E+02  0.88596699450E+02  0.00000000000E+00 0.  1.
         21   -1    0    0  502  503 -0.00000000000E+00 -0.00000000000E+00 -0.51580195904E+03  0.51580195904E+03  0.00000000000E+00 0.  1.
         -6    2    1    2    0  503 -0.11987158021E+02 -0.28164429513E+01 -0.39448506375E+03  0.43071151675E+03  0.17245962088E+03 0.  0.
        -24    2    3    3    0    0 -0.58294838061E+02  0.41077124923E+02 -0.21584433292E+03  0.24095997594E+03  0.79920683256E+02 0.  0.
          6    2    1    2  501    0  0.11987158021E+02  0.28164429513E+01 -0.32720195840E+02  0.17368714174E+03  0.17013226525E+03 0.  0.
         24    2    5    5    0    0  0.26879229893E+02  0.56122581839E+02 -0.53457210527E+02  0.11439606293E+03  0.79727966642E+02 0.  0.
          5    1    5    5  501    0 -0.14892071873E+02 -0.53306138888E+02  0.20737014687E+02  0.59291078806E+02  0.47000000000E+01 0. -1.
        -13    1    6    6    0    0  0.26948754767E+01  0.39512148171E+02  0.13055153226E+02  0.41700230607E+02  0.00000000000E+00 0.  1.
         14    1    6    6    0    0  0.24184354417E+02  0.16610433668E+02 -0.66512363753E+02  0.72695832324E+02  0.00000000000E+00 0. -1.
         -5    1    3    3    0  503  0.46307680040E+02 -0.43893567875E+02 -0.17864073083E+03  0.18975154082E+03  0.47000000000E+01 0.  1.
         11    1    4    4    0    0 -0.54203643038E+02  0.45859658174E+02 -0.88503490936E+02  0.11346369937E+03  0.00000000000E+00 0. -1.
        -12    1    4    4    0    0 -0.40911950229E+01 -0.47825332511E+01 -0.12734084199E+03  0.12749627657E+03  0.00000000000E+00 0.  1.
</event>
<event>
12    1  0.8258923E-002  0.2270877E+03  0.7818608E-02  0.1129362E+00
         21   -1    0    0  501  502  0.00000000000E+00  0.00000000000E+00  0.56804591102E+03  0.56804591102E+03  0.00000000000E+00 0. -1.
         21   -1    0    0  502  503 -0.00000000000E+00 -0.00000000000E+00 -0.89375003700E+02  0.89375003700E+02  0.00000000000E+00 0. -1.
         -6    2    1    2    0  503  0.11463465006E+03 -0.84169537075E+02  0.24428680842E+03  0.33107031240E+03  0.17235397593E+03 0.  0.
        -24    2    3    3    0    0  0.58449068307E+02  0.19474118324E+02  0.14380801622E+03  0.17609642885E+03  0.80831131712E+02 0.  0.
          6    2    1    2  501    0 -0.11463465006E+03  0.84169537075E+02  0.23438409890E+03  0.32635060232E+03  0.17704009673E+03 0.  0.
         24    2    5    5    0    0 -0.86632242368E+01  0.14803429190E+02  0.15842701601E+03  0.17859009184E+03  0.80629452025E+02 0.  0.
          5    1    5    5  501    0 -0.10597142582E+03  0.69366107885E+02  0.75957082895E+02  0.14776051048E+03  0.47000000000E+01 0. -1.
        -11    1    6    6    0    0 -0.24190165783E+02  0.28801302552E+02  0.15219800984E+03  0.15677663521E+03  0.00000000000E+00 0.  1.
         12    1    6    6    0    0  0.15526941547E+02 -0.13997873361E+02  0.62290061687E+01  0.21813456633E+02  0.00000000000E+00 0. -1.
         -5    1    3    3    0  503  0.56185581754E+02 -0.10364365540E+03  0.10047879220E+03  0.15497388355E+03  0.47000000000E+01 0.  1.
         13    1    4    4    0    0  0.74411405813E+02  0.10075875825E+02  0.80288091360E+02  0.10993069727E+03  0.00000000000E+00 0. -1.
        -14    1    4    4    0    0 -0.15962337507E+02  0.93982424991E+01  0.63519924859E+02  0.66165731575E+02  0.00000000000E+00 0.  1.
</event>
<event>
12    1  0.8258923E-002  0.2773983E+03  0.7818608E-02  0.1097127E+00
         21   -1    0    0  501  502  0.00000000000E+00  0.00000000000E+00  0.14446979998E+03  0.14446979998E+03  0.00000000000E+00 0.  1.
         21   -1    0    0  502  503 -0.00000000000E+00 -0.00000000000E+00 -0.79525060387E+03  0.79525060387E+03  0.00000000000E+00 0. -1.
         -6    2    1    2    0  503 -0.21620389908E+03  0.22461580328E+02 -0.59548776908E+03  0.65692884950E+03  0.17234030759E+03 0.  0.
        -24    2    3    3    0    0 -0.96276801040E+02  0.42877140126E+02 -0.18407670130E+03  0.22788286057E+03  0.83298827227E+02 0.  0.
          6    2    1    2  501    0  0.21620389908E+03 -0.22461580328E+02 -0.55293034815E+02  0.28279155434E+03  0.17223557978E+03 0.  0.
         24    2    5    5    0    0  0.39799259506E+02  0.26528329797E+02 -0.22177697355E+02  0.96680502199E+02  0.81040335058E+02 0.  0.
          5    1    5    5  501    0  0.17640463957E+03 -0.48989910125E+02 -0.33115337459E+02  0.18611105215E+03  0.47000000000E+01 0. -1.
        -11    1    6    6    0    0  0.58435328478E+02  0.42648185722E+01 -0.31065144371E+02  0.66316811493E+02  0.00000000000E+00 0.  1.
         12    1    6    6    0    0 -0.18636068973E+02  0.22263511225E+02  0.88874470153E+01  0.30363690706E+02  0.00000000000E+00 0. -1.
         -5    1    3    3    0  503 -0.11992709804E+03 -0.20415559798E+02 -0.41141106778E+03  0.42904598893E+03  0.47000000000E+01 0.  1.
         13    1    4    4    0    0 -0.98690044220E+02  0.57643780422E+02 -0.17841887193E+03  0.21188634716E+03  0.00000000000E+00 0. -1.
        -14    1    4    4    0    0  0.24132431806E+01 -0.14766640295E+02 -0.56578293628E+01  0.15996513413E+02  0.00000000000E+00 0.  1.
</event>
<event>
12    1  0.8258923E-002  0.1964686E+03  0.7818608E-02  0.1153775E+00
         21   -1    0    0  503  502  0.00000000000E+00  0.00000000000E+00  0.33516462550E+03  0.33516462550E+03  0.00000000000E+00 0. -1.
         21   -1    0    0  501  503 -0.00000000000E+00 -0.00000000000E+00 -0.30379553351E+03  0.30379553351E+03  0.00000000000E+00 0. -1.
          6    2    1    2  501    0  0.86304824619E+02 -0.41678731177E+02 -0.23779217197E+03  0.30845590401E+03  0.17150594241E+03 0.  0.
         24    2    3    3    0    0  0.31569397673E+02 -0.36294113324E+02 -0.39321762168E+02  0.10245213065E+03  0.81463786816E+02 0.  0.
         -6    2    1    2    0  502 -0.86304824619E+02  0.41678731177E+02  0.26916126396E+03  0.33050425500E+03  0.16613138527E+03 0.  0.
        -24    2    5    5    0    0 -0.88542791913E+02  0.45036479807E+02  0.10392571123E+03  0.16515262707E+03  0.81281770773E+02 0.  0.
          5    1    3    3  501    0  0.54735426946E+02 -0.53846178538E+01 -0.19847040980E+03  0.20600377336E+03  0.47000000000E+01 0. -1.
        -11    1    4    4    0    0 -0.13467092676E+01 -0.56040863799E+02 -0.26286370298E+02  0.61914176927E+02  0.00000000000E+00 0.  1.
         12    1    4    4    0    0  0.32916106940E+02  0.19746750475E+02 -0.13035391871E+02  0.40537953718E+02  0.00000000000E+00 0. -1.
         -5    1    5    5    0  502  0.22379672944E+01 -0.33577486295E+01  0.16523555273E+03  0.16535162793E+03  0.47000000000E+01 0.  1.
         13    1    6    6    0    0 -0.56267394162E+02 -0.65753940378E+01  0.83580285532E+02  0.10096989443E+03  0.00000000000E+00 0. -1.
        -14    1    6    6    0    0 -0.32275397751E+02  0.51611873845E+02  0.20345425702E+02  0.64182732637E+02  0.00000000000E+00 0.  1.
</event>
<event>
12    1  0.8258923E-002  0.2434783E+03  0.7818608E-02  0.1117557E+00
         21   -1    0    0  503  502  0.00000000000E+00  0.00000000000E+00  0.21781255325E+03  0.21781255325E+03  0.00000000000E+00 0.  1.
         21   -1    0    0  501  503 -0.00000000000E+00 -0.00000000000E+00 -0.28853062395E+03  0.28853062395E+03  0.00000000000E+00 0.  1.
          6    2    1    2  501    0  0.29007172196E+02 -0.17017433765E+03 -0.96375740352E+02  0.26151671323E+03  0.17117823090E+03 0.  0.
         24    2    3    3    0    0  0.29396248476E+02 -0.15365697555E+03 -0.13291027749E+02  0.17667489512E+03  0.81010873274E+02 0.  0.
         -6    2    1    2    0  502 -0.29007172196E+02  0.17017433765E+03  0.25657669655E+02  0.24482646398E+03  0.17170020448E+03 0.  0.
        -24    2    5    5    0    0 -0.59501927056E+02  0.16584474455E+03 -0.14644821044E+02  0.19388476979E+03  0.79573076815E+02 0.  0.
          5    1    3    3  501    0 -0.38907628097E+00 -0.16517362102E+02 -0.83084712603E+02  0.84841818106E+02  0.47000000000E+01 0. -1.
        -13    1    4    4    0    0 -0.13082138931E+02 -0.93721667870E+02  0.18850040171E+02  0.96489467829E+02  0.00000000000E+00 0.  1.
         14    1    4    4    0    0  0.42478387408E+02 -0.59935307678E+02 -0.32141067919E+02  0.80185427294E+02  0.00000000000E+00 0. -1.
         -5    1    5    5    0  502  0.30494754861E+02  0.43295931016E+01  0.40302490699E+02  0.50941694191E+02  0.47000000000E+01 0.  1.
         13    1    6    6    0    0  0.13415441130E+02  0.15651729332E+01 -0.25338478064E+01  0.13742059953E+02  0.00000000000E+00 0. -1.
        -14    1    6    6    0    0 -0.72917368187E+02  0.16427957162E+03 -0.12110973238E+02  0.18014270983E+03  0.00000000000E+00 0.  1.
</event>
<event>
12    1  0.8258923E-002  0.1731777E+03  0.7818608E-02  0.1174747E+00
         21   -1    0    0  501  502  0.00000000000E+00  0.00000000000E+00  0.15549816009E+04  0.15549816009E+04  0.00000000000E+00 0.  1.
         21   -1    0    0  502  503 -0.00000000000E+00 -0.00000000000E+00 -0.28482654405E+02  0.28482654405E+02  0.00000000000E+00 0.  1.
         -6    2    1    2    0  503  0.69188204854E+01 -0.63352080672E+01  0.31254873370E+03  0.35731951077E+03  0.17292344230E+03 0.  0.
        -24    2    3    3    0    0 -0.18940992630E+02 -0.19336900955E+02  0.61669118025E+02  0.10473201006E+03  0.80206214674E+02 0.  0.
          6    2    1    2  501    0 -0.69188204854E+01  0.63352080672E+01  0.12139502128E+04  0.12261447445E+04  0.17224346281E+03 0.  0.
         24    2    5    5    0    0 -0.15657321941E+02  0.21451060458E+02  0.12009608699E+04  0.12038812446E+04  0.79484213871E+02 0.  0.
          5    1    5    5  501    0  0.87385014552E+01 -0.15115852391E+02  0.12989342827E+02  0.22263499910E+02  0.47000000000E+01 0. -1.
        -11    1    6    6    0    0  0.91071735530E+01 -0.14225916080E+02  0.85996645724E+03  0.86013232986E+03  0.00000000000E+00 0.  1.
         12    1    6    6    0    0 -0.24764495494E+02  0.35676976538E+02  0.34099441269E+03  0.34374891473E+03  0.00000000000E+00 0. -1.
         -5    1    3    3    0  503  0.25859813116E+02  0.13001692888E+02  0.25087961568E+03  0.25258750071E+03  0.47000000000E+01 0.  1.
         11    1    4    4    0    0 -0.19412913040E+02  0.29717464445E+02  0.23419600969E+02  0.42526069596E+02  0.00000000000E+00 0. -1.
        -12    1    4    4    0    0  0.47192040908E+00 -0.49054365400E+02  0.38249517056E+02  0.62205940461E+02  0.00000000000E+00 0.  1.
</event>
<event>
12    1  0.8258923E-002  0.1936711E+03  0.7818608E-02  0.1155293E+00
         21   -1    0    0  501  502  0.00000000000E+00  0.00000000000E+00  0.41086401784E+02  0.41086401784E+02  0.00000000000E+00 0. -1.
         21   -1    0    0  502  503 -0.00000000000E+00 -0.00000000000E+00 -0.11633536380E+04  0.11633536380E+04  0.00000000000E+00 0.  1.
         -6    2    1    2    0  503 -0.88015957881E+02  0.68467806311E+01 -0.84123194923E+03  0.86313469525E+03  0.17186221951E+03 0.  0.
        -24    2    3    3    0    0 -0.59188662085E+02  0.70570207915E+02 -0.63026388394E+03  0.64082566993E+03  0.70295973391E+02 0.  0.
          6    2    1    2  501    0  0.88015957881E+02 -0.68467806311E+01 -0.28103528694E+03  0.34130534449E+03  0.17237986664E+03 0.  0.
         24    2    5    5    0    0  0.16164959736E+02  0.55041231399E+02 -0.15498759141E+03  0.18349912308E+03  0.79749179315E+02 0.  0.
          5    1    5    5  501    0  0.71850998145E+02 -0.61888012030E+02 -0.12604769553E+03  0.15780622141E+03  0.47000000000E+01 0. -1.
        -11    1    6    6    0    0  0.51847902431E+01  0.35757107408E+02 -0.15710605160E+03  0.16120720899E+03  0.00000000000E+00 0.  1.
         12    1    6    6    0    0  0.10980169493E+02  0.19284123992E+02  0.21184601889E+01  0.22291914090E+02  0.00000000000E+00 0. -1.
         -5    1    3    3    0  503 -0.28827295795E+02 -0.63723427284E+02 -0.21096806529E+03  0.22230902532E+03  0.47000000000E+01 0.  1.
         11    1    4    4    0    0 -0.32751781809E+02  0.73803407195E+02 -0.34507397198E+03  0.35439479153E+03  0.00000000000E+00 0. -1.
        -12    1    4    4    0    0 -0.26436880276E+02 -0.32331992797E+01 -0.28518991196E+03  0.28643087840E+03  0.00000000000E+00 0.  1.
</event>
<event>
12    1  0.8258923E-002  0.2350899E+03  0.7818608E-02  0.1123203E+00
         21   -1    0    0  503  502  0.00000000000E+00  0.00000000000E+00  0.12258426946E+03  0.12258426946E+03  0.00000000000E+00 0. -1.
         21   -1    0    0  501  503 -0.00000000000E+00 -0.00000000000E+00 -0.63149811517E+03  0.63149811517E+03  0.00000000000E+00 0.  1.
          6    2    1    2  501    0 -0.95731253654E+02 -0.12624508409E+03 -0.45692547428E+03  0.51385615769E+03  0.17368064823E+03 0.  0.
         24    2    3    3    0    0 -0.12406723598E+03 -0.13760701246E+03 -0.41862851475E+03  0.46465485263E+03  0.79535713944E+02 0.  0.
         -6    2    1    2    0  502  0.95731253654E+02  0.12624508409E+03 -0.51988371439E+02  0.24022622694E+03  0.17292644437E+03 0.  0.
        -24    2    5    5    0    0  0.94550138253E+02  0.97474664308E+02  0.23400492255E+02  0.15938871796E+03  0.80100821164E+02 0.  0.
          5    1    3    3  501    0  0.28335982322E+02  0.11361928368E+02 -0.38296959533E+02  0.49201305063E+02  0.47000000000E+01 0. -1.
        -11    1    4    4    0    0 -0.79944701136E+02 -0.68930059300E+02 -0.31810953552E+03  0.33516590654E+03  0.00000000000E+00 0.  1.
         12    1    4    4    0    0 -0.44122534840E+02 -0.68676953157E+02 -0.10051897922E+03  0.12948894609E+03  0.00000000000E+00 0. -1.
         -5    1    5    5    0  502  0.11811154010E+01  0.28770419781E+02 -0.75388863694E+02  0.80837508974E+02  0.47000000000E+01 0.  1.
         11    1    6    6    0    0  0.38506453403E+02  0.38358528552E+02  0.49842317595E+02  0.73745374700E+02  0.00000000000E+00 0. -1.
        -12    1    6    6    0    0  0.56043684850E+02  0.59116135755E+02 -0.26441825340E+02  0.85643343265E+02  0.00000000000E+00 0.  1.
</event>
<event>
12    1  0.8258923E-002  0.2559737E+03  0.7818608E-02  0.1110609E+00
         21   -1    0    0  503  502  0.00000000000E+00  0.00000000000E+00  0.28878456180E+03  0.28878456180E+03  0.00000000000E+00 0.  1.
         21   -1    0    0  501  503 -0.00000000000E+00 -0.00000000000E+00 -0.22568705280E+03  0.22568705280E+03  0.00000000000E+00 0.  1.
          6    2    1    2  501    0  0.16145021784E+03  0.84504972886E+02  0.67821113830E+02  0.25845432291E+03  0.17026940497E+03 0.  0.
         24    2    3    3    0    0  0.13661371860E+03  0.86894548160E+02 -0.63869114851E+01  0.18002293388E+03  0.78444206135E+02 0.  0.
         -6    2    1    2    0  502 -0.16145021784E+03 -0.84504972886E+02 -0.47236048251E+01  0.25601729169E+03  0.17976450684E+03 0.  0.
        -24    2    5    5    0    0 -0.16813731737E+02 -0.63416182096E+02 -0.27933628390E+02  0.10794553408E+03  0.81040958817E+02 0.  0.
          5    1    3    3  501    0  0.24836499237E+02 -0.23895752742E+01  0.74208025315E+02  0.78431389032E+02  0.47000000000E+01 0. -1.
        -11    1    4    4    0    0  0.11641746198E+03  0.91007725995E+02  0.17123720989E+02  0.14875702829E+03  0.00000000000E+00 0.  1.
         12    1    4    4    0    0  0.20196256620E+02 -0.41131778351E+01 -0.23510632474E+02  0.31265905595E+02  0.00000000000E+00 0. -1.
         -5    1    5    5    0  502 -0.14463648610E+03 -0.21088790790E+02  0.23210023565E+02  0.14807175761E+03  0.47000000000E+01 0.  1.
         13    1    6    6    0    0  0.28397949856E+02 -0.34090054459E+01 -0.12647388541E+02  0.31273332267E+02  0.00000000000E+00 0. -1.
        -14    1    6    6    0    0 -0.45211681593E+02 -0.60007176650E+02 -0.15286239850E+02  0.76672201812E+02  0.00000000000E+00 0.  1.
</event>
<event>
12    1  0.8258923E-002  0.3177547E+03  0.7818608E-02  0.1076714E+00
         21   -1    0    0  503  502  0.00000000000E+00  0.00000000000E+00  0.27046515205E+03  0.27046515205E+03  0.00000000000E+00 0.  1.
         21   -1    0    0  501  503 -0.00000000000E+00 -0.00000000000E+00 -0.39802687905E+03  0.39802687905E+03  0.00000000000E+00 0. -1.
          6    2    1    2  501    0  0.23704773826E+03 -0.12362874560E+03 -0.14749889230E+03  0.35011251474E+03  0.17131010708E+03 0.  0.
         24    2    3    3    0    0  0.16967383470E+03 -0.10712027288E+03 -0.36691230910E+02  0.21929890544E+03  0.80509629604E+02 0.  0.
         -6    2    1    2    0  502 -0.23704773826E+03  0.12362874560E+03  0.19937165301E+02  0.31837951636E+03  0.17173330755E+03 0.  0.
        -24    2    5    5    0    0 -0.23146854201E+03  0.68943468336E+02 -0.12524357563E+02  0.25436820917E+03  0.78838052606E+02 0.  0.
          5    1    3    3  501    0  0.67373903559E+02 -0.16508472728E+02 -0.11080766139E+03  0.13081360929E+03  0.47000000000E+01 0. -1.
        -13    1    4    4    0    0  0.28255894388E+02  0.52530921584E+01  0.13605867201E+02  0.31797958538E+02  0.00000000000E+00 0.  1.
         14    1    4    4    0    0  0.14141794032E+03 -0.11237336504E+03 -0.50297098111E+02  0.18750094691E+03  0.00000000000E+00 0. -1.
         -5    1    5    5    0  502 -0.55791962507E+01  0.54685277269E+02  0.32461522865E+02  0.64011307185E+02  0.47000000000E+01 0.  1.
         11    1    6    6    0    0 -0.32090335145E+02  0.25706347740E+02 -0.28037776391E+02  0.49766683924E+02  0.00000000000E+00 0. -1.
        -12    1    6    6    0    0 -0.19937820687E+03  0.43237120596E+02  0.15513418827E+02  0.20460152525E+03  0.00000000000E+00 0.  1.
</event>
<event>
12    1  0.8258923E-002  0.1747071E+03  0.7818608E-02  0.1173286E+00
         21   -1    0    0  501  502  0.00000000000E+00  0.00000000000E+00  0.43152801624E+03  0.43152801624E+03  0.00000000000E+00 0.  1.
         21   -1    0    0  502  503 -0.00000000000E+00 -0.00000000000E+00 -0.19690884710E+03  0.19690884710E+03  0.00000000000E+00 0.  1.
         -6    2    1    2    0  503 -0.22801605091E+02 -0.45579571911E+01 -0.13451040547E+03  0.22048948134E+03  0.17315274770E+03 0.  0.
        -24    2    3    3    0    0  0.43746297892E+01 -0.66207492661E+02 -0.70852437585E+02  0.12767978443E+03  0.82942690876E+02 0.  0.
          6    2    1    2  501    0  0.22801605091E+02  0.45579571911E+01  0.36912957461E+03  0.40794738199E+03  0.17211547128E+03 0.  0.
         24    2    5    5    0    0 -0.20529133528E+01 -0.61251740726E+01  0.37161098088E+03  0.38037704000E+03  0.80933548251E+02 0.  0.
          5    1    5    5  501    0  0.24854518444E+02  0.10683131264E+02 -0.24814062715E+01  0.27570341995E+02  0.47000000000E+01 0. -1.
        -13    1    6    6    0    0  0.24556061803E+02 -0.26284171034E+02  0.28970085109E+03  0.29192540304E+03  0.00000000000E+00 0.  1.
         14    1    6    6    0    0 -0.26608975155E+02  0.20158996962E+02  0.81910129791E+02  0.88451636953E+02  0.00000000000E+00 0. -1.
         -5    1    3    3    0  503 -0.27176234880E+02  0.61649535470E+02 -0.63657967888E+02  0.92809696916E+02  0.47000000000E+01 0.  1.
         11    1    4    4    0    0 -0.26031278358E+02 -0.22235032798E+02  0.52923407978E+01  0.34641492572E+02  0.00000000000E+00 0. -1.
        -12    1    4    4    0    0  0.30405908147E+02 -0.43972459863E+02 -0.76144778383E+02  0.93038291857E+02  0.00000000000E+00 0.  1.
</event>
<event>
12    1  0.8258923E-002  0.2066032E+03  0.7818608E-02  0.1144607E+00
         21   -1    0    0  503  502  0.00000000000E+00  0.00000000000E+00  0.85182649920E+03  0.85182649920E+03  0.00000000000E+00 0. -1.
         21   -1    0    0  501  503 -0.00000000000E+00 -0.00000000000E+00 -0.50037737190E+02  0.50037737190E+02  0.00000000000E+00 0.  1.
          6    2    1    2  501    0  0.46187370147E+02  0.10435534492E+03  0.36679014648E+03  0.42097491168E+03  0.17222529876E+03 0.  0.
         24    2    3    3    0    0  0.69710468874E+02  0.11815090031E+03  0.21575089571E+03  0.26742166751E+03  0.78400985567E+02 0.  0.
         -6    2    1    2    0  502 -0.46187370147E+02 -0.10435534492E+03  0.43499861553E+03  0.48088932471E+03  0.17031569491E+03 0.  0.
        -24    2    5    5    0    0  0.25084937697E+02 -0.73136672907E+02  0.15137075475E+03  0.18674446115E+03  0.77344433244E+02 0.  0.
          5    1    3    3  501    0 -0.23523098727E+02 -0.13795555391E+02  0.15103925077E+03  0.15355324417E+03  0.47000000000E+01 0. -1.
        -13    1    4    4    0    0  0.27758756489E+02  0.32291426970E+02  0.13739958277E+03  0.14384689834E+03  0.00000000000E+00 0.  1.
         14    1    4    4    0    0  0.41951712384E+02  0.85859473344E+02  0.78351312940E+02  0.12357476916E+03  0.00000000000E+00 0. -1.
         -5    1    5    5    0  502 -0.71272307843E+02 -0.31218672016E+02  0.28362786078E+03  0.29414486356E+03  0.47000000000E+01 0.  1.
         11    1    6    6    0    0  0.77909542628E+01 -0.12321031089E+02  0.11050141569E+03  0.11145882488E+03  0.00000000000E+00 0. -1.
        -12    1    6    6    0    0  0.17293983434E+02 -0.60815641817E+02  0.40869339060E+02  0.75285636265E+02  0.00000000000E+00 0.  1.
</event>
<event>
12    1  0.8258923E-002  0.1810987E+03  0.7818608E-02  0.1167571E+00
         21   -1    0    0  501  502  0.00000000000E+00  0.00000000000E+00  0.38668487604E+03  0.38668487604E+03  0.00000000000E+00 0. -1.
         21   -1    0    0  502  503 -0.00000000000E+00 -0.00000000000E+00 -0.16440826515E+03  0.16440826515E+03  0.00000000000E+00 0. -1.
         -6    2    1    2    0  503  0.46837574541E+02 -0.26865425287E+02 -0.81949327453E+02  0.19877733472E+03  0.17286187278E+03 0.  0.
        -24    2    3    3    0    0  0.26285064779E+02 -0.79064978937E+02 -0.84276151519E+02  0.14243283038E+03  0.79009277496E+02 0.  0.
          6    2    1    2  501    0 -0.46837574541E+02  0.26865425287E+02  0.30422593834E+03  0.35231580648E+03  0.16928525178E+03 0.  0.
         24    2    5    5    0    0 -0.79504380535E+01  0.21529239517E+02  0.52536498649E+02  0.97540712887E+02  0.78913809696E+02 0.  0.
          5    1    5    5  501    0 -0.38887136487E+02  0.53361857702E+01  0.25168943969E+03  0.25477509359E+03  0.47000000000E+01 0. -1.
        -13    1    6    6    0    0 -0.41551342058E+02  0.55580407769E+01  0.14560765445E+02  0.44378167317E+02  0.00000000000E+00 0.  1.
         14    1    6    6    0    0  0.33600904004E+02  0.15971198740E+02  0.37975733204E+02  0.53162545570E+02  0.00000000000E+00 0. -1.
         -5    1    3    3    0  503  0.20552509762E+02  0.52199553649E+02  0.23268240659E+01  0.56344504337E+02  0.47000000000E+01 0.  1.
         13    1    4    4    0    0  0.36731328120E+02 -0.81865178672E+02 -0.42508715320E+02  0.99287908743E+02  0.00000000000E+00 0. -1.
        -14    1    4    4    0    0 -0.10446263341E+02  0.28001997359E+01 -0.41767436199E+02  0.43144921636E+02  0.00000000000E+00 0.  1.
</event>
<event>
12    1  0.8258923E-002  0.1980653E+03  0.7818608E-02  0.1151750E+00
         21   -1    0    0  503  502  0.00000000000E+00  0.00000000000E+00  0.51825342841E+03  0.51825342841E+03  0.00000000000E+00 0. -1.
         21   -1    0    0  501  503 -0.00000000000E+00 -0.00000000000E+00 -0.13814340346E+03  0.13814340346E+03  0.00000000000E+00 0. -1.
          6    2    1    2  501    0 -0.64709585287E+02  0.72302711696E+02  0.41141985348E+03  0.45587205332E+03  0.17069862509E+03 0.  0.
         24    2    3    3    0    0 -0.11768335916E+02  0.71959972947E+02  0.12469252900E+03  0.16426008175E+03  0.78207520302E+02 0.  0.
         -6    2    1    2    0  502  0.64709585287E+02 -0.72302711696E+02 -0.31309828530E+02  0.20052477855E+03  0.17266982627E+03 0.  0.
        -24    2    5    5    0    0 -0.34011341455E+02 -0.31873237017E+02 -0.19806850451E+02  0.93124721269E+02  0.78148754316E+02 0.  0.
          5    1    3    3  501    0 -0.52941249371E+02  0.34273874976E+00  0.28672732448E+03  0.29161197156E+03  0.47000000000E+01 0. -1.
        -11    1    4    4    0    0  0.11186871919E+02  0.12677159481E+02 -0.67865550856E+01  0.18218501744E+02  0.00000000000E+00 0.  1.
         12    1    4    4    0    0 -0.22955207835E+02  0.59282813465E+02  0.13147908409E+03  0.14604158001E+03  0.00000000000E+00 0. -1.
         -5    1    5    5    0  502  0.98720926742E+02 -0.40429474679E+02 -0.11502978079E+02  0.10740005728E+03  0.47000000000E+01 0.  1.
         11    1    6    6    0    0 -0.32441227952E+02 -0.26523105283E+02 -0.48384872012E+02  0.64007845023E+02  0.00000000000E+00 0. -1.
        -12    1    6    6    0    0 -0.15701135026E+01 -0.53501317336E+01  0.28578021561E+02  0.29116876246E+02  0.00000000000E+00 0.  1.
</event>
<event>
12    1  0.8258923E-002  0.1912712E+03  0.7818608E-02  0.1157689E+00
         21   -1    0    0  501  502  0.00000000000E+00  0.00000000000E+00  0.12003478244E+04  0.12003478244E+04  0.00000000000E+00 0.  1.
         21   -1    0    0  502  503 -0.00000000000E+00 -0.00000000000E+00 -0.37768067887E+02  0.37768067887E+02  0.00000000000E+00 0.  1.
         -6    2    1    2    0  503 -0.80046715087E+02 -0.11525979398E+02  0.86010317978E+03  0.88111414845E+03  0.17333302609E+03 0.  0.
        -24    2    3    3    0    0 -0.24616300051E+02  0.44159373757E+02  0.64396721500E+03  0.65109190010E+03  0.81675429931E+02 0.  0.
          6    2    1    2  501    0  0.80046715087E+02  0.11525979398E+02  0.30247657677E+03  0.35700174387E+03  0.17151629904E+03 0.  0.
         24    2    5    5    0    0  0.61417333167E+02 -0.57223119931E+00  0.70410930822E+02  0.12382804339E+03  0.81260500167E+02 0.  0.
          5    1    5    5  501    0  0.18629381920E+02  0.12098210597E+02  0.23206564594E+03  0.23317370048E+03  0.47000000000E+01 0. -1.
        -11    1    6    6    0    0 -0.11417322687E+02  0.57796683954E+01 -0.91839314076E+01  0.15751330744E+02  0.00000000000E+00 0.  1.
         12    1    6    6    0    0  0.72834655854E+02 -0.63518995947E+01  0.79594862230E+02  0.10807671264E+03  0.00000000000E+00 0. -1.
         -5    1    3    3    0  503 -0.55430415037E+02 -0.55685353155E+02  0.21613596478E+03  0.23002224835E+03  0.47000000000E+01 0.  1.
         11    1    4    4    0    0  0.22377675273E+02  0.41896296297E+02  0.38096722589E+03  0.38391677118E+03  0.00000000000E+00 0. -1.
        -12    1    4    4    0    0 -0.46993975324E+02  0.22630774605E+01  0.26299998912E+03  0.26717512892E+03  0.00000000000E+00 0.  1.
</event>
<event>
12    1  0.8258923E-002  0.2083225E+03  0.7818608E-02  0.1143343E+00
         21   -1    0    0  503  502  0.00000000000E+00  0.00000000000E+00  0.45488599642E+02  0.45488599642E+02  0.00000000000E+00 0.  1.
         21   -1    0    0  501  503 -0.00000000000E+00 -0.00000000000E+00 -0.95152534416E+03  0.95152534416E+03  0.00000000000E+00 0.  1.
          6    2    1    2  501    0  0.85818512333E+02 -0.78664353294E+02 -0.40635263222E+03  0.45564303581E+03  0.17010354737E+03 0.  0.
         24    2    3    3    0    0  0.52102669053E+02 -0.11288828940E+03 -0.35864593572E+03  0.38777511421E+03  0.79272807357E+02 0.  0.
         -6    2    1    2    0  502 -0.85818512333E+02  0.78664353294E+02 -0.49968411230E+03  0.54137090799E+03  0.17275806899E+03 0.  0.
        -24    2    5    5    0    0 -0.26851344829E+02 -0.25985698237E+02 -0.19190985361E+03  0.21095322620E+03  0.79218814063E+02 0.  0.
          5    1    3    3  501    0  0.33715843280E+02  0.34223936108E+02 -0.47706696504E+02  0.67867921599E+02  0.47000000000E+01 0. -1.
        -11    1    4    4    0    0  0.61745361047E+02 -0.43615582341E+02 -0.21725009604E+03  0.23002698291E+03  0.00000000000E+00 0.  1.
         12    1    4    4    0    0 -0.96426919936E+01 -0.69272707061E+02 -0.14139583967E+03  0.15774813130E+03  0.00000000000E+00 0. -1.
         -5    1    5    5    0  502 -0.58967167504E+02  0.10465005153E+03 -0.30777425869E+03  0.33041768179E+03  0.47000000000E+01 0.  1.
         13    1    6    6    0    0  0.53626300701E+00 -0.10932010877E+01 -0.16545773511E+03  0.16546221555E+03  0.00000000000E+00 0. -1.
        -14    1    6    6    0    0 -0.27387607836E+02 -0.24892497150E+02 -0.26452118499E+02  0.45491010655E+02  0.00000000000E+00 0.  1.
</event>
<event>
12    1  0.8258923E-002  0.1862574E+03  0.7818608E-02  0.1162530E+00
         21   -1    0    0  501  502  0.00000000000E+00  0.00000000000E+00  0.24886869478E+03  0.24886869478E+03  0.00000000000E+00 0. -1.
         21   -1    0    0  502  503 -0.00000000000E+00 -0.00000000000E+00 -0.14007472550E+03  0.14007472550E+03  0.00000000000E+00 0. -1.
         -6    2    1    2    0  503  0.20357915679E+02 -0.60813897504E+02  0.26743384968E+02  0.18541428032E+03  0.17190250680E+03 0.  0.
        -24    2    3    3    0    0  0.67961795700E+02  0.12085253697E+01  0.18956224854E+02  0.10670189123E+03  0.80035547877E+02 0.  0.
          6    2    1    2  501    0 -0.20357915679E+02  0.60813897504E+02  0.82050584308E+02  0.20352913996E+03  0.17486862945E+03 0.  0.
         24    2    5    5    0    0  0.55932803987E+01  0.10143725605E+03  0.30572925751E+02  0.13284844127E+03  0.79957506573E+02 0.  0.
          5    1    5    5  501    0 -0.25951196078E+02 -0.40623358546E+02  0.51477658556E+02  0.70680698694E+02  0.47000000000E+01 0. -1.
        -11    1    6    6    0    0  0.14029618214E+02  0.59005715730E+02  0.56098910054E+02  0.82617143410E+02  0.00000000000E+00 0.  1.
         12    1    6    6    0    0 -0.84363378153E+01  0.42431540320E+02 -0.25525984303E+02  0.50231297856E+02  0.00000000000E+00 0. -1.
         -5    1    3    3    0  503 -0.47603880021E+02 -0.62022422874E+02  0.77871601139E+01  0.78712389081E+02  0.47000000000E+01 0.  1.
         13    1    4    4    0    0  0.12570985976E+02 -0.29878645824E+02  0.27631361246E+02  0.42594075750E+02  0.00000000000E+00 0. -1.
        -14    1    4    4    0    0  0.55390809725E+02  0.31087171194E+02 -0.86751363917E+01  0.64107815485E+02  0.00000000000E+00 0.  1.
</event>
<event>
12    1  0.8258923E-002  0.2268132E+03  0.7818608E-02  0.1129087E+00
         21   -1    0    0  503  502  0.00000000000E+00  0.00000000000E+00  0.52111907244E+03  0.52111907244E+03  0.00000000000E+00 0.  1.
         21   -1    0    0  501  503 -0.00000000000E+00 -0.00000000000E+00 -0.16760236577E+03  0.16760236577E+03  0.00000000000E+00 0.  1.
          6    2    1    2  501    0  0.52068827611E+02 -0.13708237613E+03 -0.44484800948E+02  0.23113446458E+03  0.17303613076E+03 0.  0.
         24    2    3    3    0    0 -0.25597443293E+02 -0.11906984235E+03 -0.29616516090E+02  0.14989619217E+03  0.82212370975E+02 0.  0.
         -6    2    1    2    0  502 -0.52068827611E+02  0.13708237613E+03  0.39800150762E+03  0.45758697363E+03  0.17169128609E+03 0.  0.
        -24    2    5    5    0    0 -0.86700924910E+02  0.24831929175E+02  0.18818031127E+03  0.21707383586E+03  0.59795865901E+02 0.  0.
          5    1    3    3  501    0  0.77666270904E+02 -0.18012533772E+02 -0.14868284858E+02  0.81238272407E+02  0.47000000000E+01 0. -1.
        -11    1    4    4    0    0  0.14264191007E+02 -0.97366962694E+02 -0.34428357943E+02  0.10425499700E+03  0.00000000000E+00 0.  1.
         12    1    4    4    0    0 -0.39861634300E+02 -0.21702879661E+02  0.48118418529E+01  0.45641195171E+02  0.00000000000E+00 0. -1.
         -5    1    5    5    0  502  0.34632097298E+02  0.11225044695E+03  0.20982119636E+03  0.24051313778E+03  0.47000000000E+01 0.  1.
         13    1    6    6    0    0 -0.53894987585E+02 -0.21567699247E+01  0.15195721226E+03  0.16124613392E+03  0.00000000000E+00 0. -1.
        -14    1    6    6    0    0 -0.32805937324E+02  0.26988699100E+02  0.36223099000E+02  0.55827701941E+02  0.00000000000E+00 0.  1.
</event>
<event>
12    1  0.8258923E-002  0.1802555E+03  0.7818608E-02  0.1167594E+00
         21   -1    0    0  501  502  0.00000000000E+00  0.00000000000E+00  0.20785801200E+03  0.20785801200E+03  0.00000000000E+00 0.  1.
         21   -1    0    0  502  503 -0.00000000000E+00 -0.00000000000E+00 -0.31616956007E+03  0.31616956007E+03  0.00000000000E+00 0.  1.
         -6    2    1    2    0  503 -0.40320157564E+02 -0.34101481932E+02 -0.24052687983E+03  0.30048125799E+03  0.17218356573E+03 0.  0.
        -24    2    3    3    0    0 -0.51788342066E+02  0.23141697192E+02 -0.21820202297E+03  0.23780119700E+03  0.75628803668E+02 0.  0.
          6    2    1    2  501    0  0.40320157564E+02  0.34101481932E+02  0.13221533175E+03  0.22354631408E+03  0.17234684336E+03 0.  0.
         24    2    5    5    0    0  0.88640260181E+02  0.49005525439E+02  0.10462769306E+03  0.16575245076E+03  0.79172492246E+02 0.  0.
          5    1    5    5  501    0 -0.48320102617E+02 -0.14904043507E+02  0.27587638692E+02  0.57793863328E+02  0.47000000000E+01 0. -1.
        -13    1    6    6    0    0  0.89564498348E+01  0.27814823581E+02  0.70866863414E+02  0.76655037243E+02  0.00000000000E+00 0.  1.
         14    1    6    6    0    0  0.79683810346E+02  0.21190701857E+02  0.33760829644E+02  0.89097413513E+02  0.00000000000E+00 0. -1.
         -5    1    3    3    0  503  0.11468184501E+02 -0.57243179124E+02 -0.22324856858E+02  0.62680060990E+02  0.47000000000E+01 0.  1.
         13    1    4    4    0    0 -0.18547652396E+02 -0.22343722981E+01 -0.34280850381E+01  0.18993672526E+02  0.00000000000E+00 0. -1.
        -14    1    4    4    0    0 -0.33240689669E+02  0.25376069490E+02 -0.21477393793E+03  0.21880752447E+03  0.00000000000E+00 0.  1.
</event>
<event>
12    1  0.8258923E-002  0.1986946E+03  0.7818608E-02  0.1151064E+00
         21   -1    0    0  503  502  0.00000000000E+00  0.00000000000E+00  0.12193811513E+03  0.12193811513E+03  0.00000000000E+00 0.  1.
         21   -1    0    0  501  503 -0.00000000000E+00 -0.00000000000E+00 -0.32484462064E+03  0.32484462064E+03  0.00000000000E+00 0.  1.
          6    2    1    2  501    0  0.20042593809E+00 -0.99674683755E+02 -0.81163941356E+02  0.21463257949E+03  0.17188506640E+03 0.  0.
         24    2    3    3    0    0  0.61437158101E+02 -0.69066239461E+02 -0.23208300505E+02  0.12481186621E+03  0.80589744419E+02 0.  0.
         -6    2    1    2    0  502 -0.20042593809E+00  0.99674683755E+02 -0.12174256415E+03  0.23215015628E+03  0.17069669119E+03 0.  0.
        -24    2    5    5    0    0 -0.63302293948E+01  0.89622628809E+01  0.19720219029E+01  0.78547725979E+02  0.77752571829E+02 0.  0.
          5    1    3    3  501    0 -0.61236732163E+02 -0.30608444294E+02 -0.57955640850E+02  0.89820713282E+02  0.47000000000E+01 0. -1.
        -11    1    4    4    0    0 -0.87378455831E+00 -0.45754179409E+02 -0.34527600212E+02  0.57326814051E+02  0.00000000000E+00 0.  1.
         12    1    4    4    0    0  0.62310942659E+02 -0.23312060052E+02  0.11319299707E+02  0.67485052158E+02  0.00000000000E+00 0. -1.
         -5    1    5    5    0  502  0.61298034567E+01  0.90712420874E+02 -0.12371458605E+03  0.15360243030E+03  0.47000000000E+01 0.  1.
         11    1    6    6    0    0  0.17941627547E+02 -0.18898025835E+02 -0.22334120782E+02  0.34319824164E+02  0.00000000000E+00 0. -1.
        -12    1    6    6    0    0 -0.24271856942E+02  0.27860288716E+02  0.24306142685E+02  0.44227901815E+02  0.00000000000E+00 0.  1.
</event>
<event>
12    1  0.8258923E-002  0.1745222E+03  0.7818608E-02  0.1173387E+00
         21   -1    0    0  501  502  0.00000000000E+00  0.00000000000E+00  0.45615586416E+03  0.45615586416E+03  0.00000000000E+00 0. -1.
         21   -1    0    0  502  503 -0.00000000000E+00 -0.00000000000E+00 -0.70037308488E+02  0.70037308488E+02  0.00000000000E+00 0. -1.
         -6    2    1    2    0  503 -0.14200885701E+01  0.24124896025E+02  0.13362144500E+03  0.21925217908E+03  0.17214180261E+03 0.  0.
        -24    2    3    3    0    0 -0.13272881536E+02  0.79658785773E+02  0.65399173571E+02  0.13036534129E+03  0.78717080556E+02 0.  0.
          6    2    1    2  501    0  0.14200885701E+01 -0.24124896025E+02  0.25249711067E+03  0.30694099358E+03  0.17284083829E+03 0.  0.
         24    2    5    5    0    0 -0.65416190455E+02  0.10078166869E+01  0.15311172269E+03  0.18447350081E+03  0.79416492022E+02 0.  0.
          5    1    5    5  501    0  0.66836279025E+02 -0.25132712712E+02  0.99385387978E+02  0.12246749277E+03  0.47000000000E+01 0. -1.
        -11    1    6    6    0    0 -0.13629390105E+02  0.14143777427E+02 -0.26349792230E+01  0.19817916895E+02  0.00000000000E+00 0.  1.
         12    1    6    6    0    0 -0.51786800350E+02 -0.13135960740E+02  0.15574670192E+03  0.16465558391E+03  0.00000000000E+00 0. -1.
         -5    1    3    3    0  503  0.11852792966E+02 -0.55533889748E+02  0.68222271434E+02  0.88886837784E+02  0.47000000000E+01 0.  1.
         11    1    4    4    0    0  0.27148490590E+02  0.77141116027E+01  0.28026696997E+02  0.39774914252E+02  0.00000000000E+00 0. -1.
        -12    1    4    4    0    0 -0.40421372127E+02  0.71944674170E+02  0.37372476573E+02  0.90590427040E+02  0.00000000000E+00 0.  1.
</event>
<event>
12    1  0.8258923E-002  0.1817389E+03  0.7818608E-02  0.1166425E+00
         21   -1    0    0  503  502  0.00000000000E+00  0.00000000000E+00  0.67585728238E+03  0.67585728238E+03  0.00000000000E+00 0.  1.
         21   -1    0    0  501  503 -0.00000000000E+00 -0.00000000000E+00 -0.10921615265E+03  0.10921615265E+03  0.00000000000E+00 0.  1.
          6    2    1    2  501    0  0.21329262922E+02 -0.57436567952E+02 -0.96858077322E+01  0.18077072868E+03  0.16979500783E+03 0.  0.
         24    2    3    3    0    0  0.58692376688E+02  0.13037920305E+02  0.11446932449E+02  0.98118817195E+02  0.76690857199E+02 0.  0.
         -6    2    1    2    0  502 -0.21329262922E+02  0.57436567952E+02  0.57632693746E+03  0.60430270634E+03  0.17109975234E+03 0.  0.
        -24    2    5    5    0    0  0.52074191277E+02  0.34866752049E+02  0.32763298527E+03  0.34397937750E+03  0.83970395486E+02 0.  0.
          5    1    3    3  501    0 -0.37363113766E+02 -0.70474488257E+02 -0.21132740182E+02  0.82651911490E+02  0.47000000000E+01 0. -1.
        -13    1    4    4    0    0 -0.18881617833E+02  0.13108500608E+01  0.36626333638E+01  0.19278192421E+02  0.00000000000E+00 0.  1.
         14    1    4    4    0    0  0.77573994521E+02  0.11727070245E+02  0.77842990856E+01  0.78840624774E+02  0.00000000000E+00 0. -1.
         -5    1    5    5    0  502 -0.73403454199E+02  0.22569815903E+02  0.24869395220E+03  0.26032332884E+03  0.47000000000E+01 0.  1.
         11    1    6    6    0    0  0.11631665374E+02  0.47212170884E+02  0.25777343830E+03  0.26231932870E+03  0.00000000000E+00 0. -1.
        -12    1    6    6    0    0  0.40442525903E+02 -0.12345418835E+02  0.69859546966E+02  0.81660048800E+02  0.00000000000E+00 0.  1.
</event>
<event>
12    1  0.8258923E-002  0.2116736E+03  0.7818608E-02  0.1140505E+00
         21   -1    0    0  501  502  0.00000000000E+00  0.00000000000E+00  0.19131651087E+03  0.19131651087E+03  0.00000000000E+00 0.  1.
         21   -1    0    0  502  503 -0.00000000000E+00 -0.00000000000E+00 -0.26105050027E+03  0.26105050027E+03  0.00000000000E+00 0. -1.
         -6    2    1    2    0  503 -0.57589798365E+02 -0.10312210889E+03 -0.10924185859E+03  0.23703797707E+03  0.17407603135E+03 0.  0.
        -24    2    3    3    0    0 -0.66644519275E+00 -0.95370714029E+02 -0.12726629267E+03  0.17664491056E+03  0.76881063562E+02 0.  0.
          6    2    1    2  501    0  0.57589798365E+02  0.10312210889E+03  0.39507869184E+02  0.21532903407E+03  0.17565581962E+03 0.  0.
         24    2    5    5    0    0  0.71049155792E+02  0.86029523300E+02  0.87796190226E+02  0.16215796361E+03  0.78345215074E+02 0.  0.
          5    1    5    5  501    0 -0.13459357427E+02  0.17092585594E+02 -0.48288321043E+02  0.53171070459E+02  0.47000000000E+01 0. -1.
        -11    1    6    6    0    0 -0.13410655670E+02  0.28351313137E+01  0.23723367927E+02  0.27398573702E+02  0.00000000000E+00 0.  1.
         12    1    6    6    0    0  0.84459811463E+02  0.83194391986E+02  0.64072822299E+02  0.13475938991E+03  0.00000000000E+00 0. -1.
         -5    1    3    3    0  503 -0.56923353172E+02 -0.77513948648E+01  0.18024434082E+02  0.60393066512E+02  0.47000000000E+01 0.  1.
         13    1    4    4    0    0 -0.28486041239E+02 -0.52169558876E+02 -0.29864926591E+02  0.66520908435E+02  0.00000000000E+00 0. -1.
        -14    1    4    4    0    0  0.27819596046E+02 -0.43201155153E+02 -0.97401366077E+02  0.11012400213E+03  0.00000000000E+00 0.  1.
</event>
<event>
12    1  0.8258923E-002  0.1858344E+03  0.7818608E-02  0.1162373E+00
         21   -1    0    0  501  502  0.00000000000E+00  0.00000000000E+00  0.60251438954E+03  0.60251438954E+03  0.00000000000E+00 0. -1.
         21   -1    0    0  502  503 -0.00000000000E+00 -0.00000000000E+00 -0.58484671844E+02  0.58484671844E+02  0.00000000000E+00 0. -1.
         -6    2    1    2    0  503 -0.66581028235E+02  0.21597622941E+02  0.22303595682E+03  0.29030923093E+03  0.17214796221E+03 0.  0.
        -24    2    3    3    0    0 -0.10049629762E+03 -0.21177850404E+02  0.14319707054E+03  0.19347780845E+03  0.79876493230E+02 0.  0.
          6    2    1    2  501    0  0.66581028235E+02 -0.21597622941E+02  0.32099376087E+03  0.37068983045E+03  0.17168128972E+03 0.  0.
         24    2    5    5    0    0  0.45759654580E+01 -0.67430387523E+02  0.14321471447E+03  0.17685291586E+03  0.78731840977E+02 0.  0.
          5    1    5    5  501    0  0.62005062777E+02  0.45832764583E+02  0.17777904640E+03  0.19383691459E+03  0.47000000000E+01 0. -1.
        -11    1    6    6    0    0 -0.13804778135E+02  0.67850930497E+00 -0.33257644743E+01  0.14215941178E+02  0.00000000000E+00 0.  1.
         12    1    6    6    0    0  0.18380743593E+02 -0.68108896828E+02  0.14654047895E+03  0.16263697468E+03  0.00000000000E+00 0. -1.
         -5    1    3    3    0  503  0.33915269381E+02  0.42775473344E+02  0.79838886280E+02  0.96831422480E+02  0.47000000000E+01 0.  1.
         13    1    4    4    0    0 -0.59710633069E+02  0.15659411482E+02  0.11767249483E+03  0.13288112322E+03  0.00000000000E+00 0. -1.
        -14    1    4    4    0    0 -0.40785664547E+02 -0.36837261886E+02  0.25524575708E+02  0.60596685230E+02  0.00000000000E+00 0.  1.
</event>
<event>
12    1  0.8258923E-002  0.2017850E+03  0.7818608E-02  0.1148254E+00
         21   -1    0    0  501  502  0.00000000000E+00  0.00000000000E+00  0.38578546668E+02  0.38578546668E+02  0.00000000000E+00 0. -1.
         21   -1    0    0  502  503 -0.00000000000E+00 -0.00000000000E+00 -0.11457310137E+04  0.11457310137E+04  0.00000000000E+00 0.  1.
         -6    2    1    2    0  503  0.10406853788E+03  0.14203641807E+02 -0.72002556846E+03  0.74774980275E+03  0.17222352993E+03 0.  0.
        -24    2    3    3    0    0  0.47219257675E+02 -0.45030156213E+02 -0.53721255293E+03  0.54729239547E+03  0.81696180121E+02 0.  0.
          6    2    1    2  501    0 -0.10406853788E+03 -0.14203641807E+02 -0.38712689858E+03  0.43655975762E+03  0.17229388369E+03 0.  0.
         24    2    5    5    0    0 -0.77430302381E+02  0.57256461925E+02 -0.24697264655E+03  0.27693066761E+03  0.80133341134E+02 0.  0.
          5    1    5    5  501    0 -0.26638235502E+02 -0.71460103733E+02 -0.14015425203E+03  0.15962909001E+03  0.47000000000E+01 0. -1.
        -11    1    6    6    0    0 -0.80656589659E+02  0.14111127276E+02 -0.15544917942E+03  0.17569592127E+03  0.00000000000E+00 0.  1.
         12    1    6    6    0    0  0.32262872774E+01  0.43145334650E+02 -0.91523467130E+02  0.10123474634E+03  0.00000000000E+00 0. -1.
         -5    1    3    3    0  503  0.56849280208E+02  0.59233798020E+02 -0.18281301553E+03  0.20045740728E+03  0.47000000000E+01 0.  1.
         11    1    4    4    0    0 -0.19441736846E+02 -0.53371587877E+01 -0.49511955181E+02  0.53459331284E+02  0.00000000000E+00 0. -1.
        -12    1    4    4    0    0  0.66660994521E+02 -0.39692997425E+02 -0.48770059775E+03  0.49383306419E+03  0.00000000000E+00 0.  1.
</event>
<event>
12    1  0.8258923E-002  0.1765738E+03  0.7818608E-02  0.1171728E+00
         21   -1    0    0  501  502  0.00000000000E+00  0.00000000000E+00  0.37349219409E+03  0.37349219409E+03  0.00000000000E+00 0.  1.
         21   -1    0    0  502  503 -0.00000000000E+00 -0.00000000000E+00 -0.25145055131E+03  0.25145055131E+03  0.00000000000E+00 0.  1.
         -6    2    1    2    0  503  0.10614175022E+02 -0.33046338476E+02 -0.19530934905E+03  0.26177616778E+03  0.17081071100E+03 0.  0.
        -24    2    3    3    0    0  0.18572439094E+02 -0.67388774006E+02 -0.20207220051E+03  0.22557446885E+03  0.71864347362E+02 0.  0.
          6    2    1    2  501    0 -0.10614175022E+02  0.33046338476E+02  0.31735099183E+03  0.36316657763E+03  0.17312882456E+03 0.  0.
         24    2    5    5    0    0 -0.72284206550E+02  0.39580565098E+02  0.19280029477E+03  0.22395143821E+03  0.78680781395E+02 0.  0.
          5    1    5    5  501    0  0.61670031528E+02 -0.65342266217E+01  0.12455069706E+03  0.13921513942E+03  0.47000000000E+01 0. -1.
        -13    1    6    6    0    0  0.39369177434E+01 -0.16031571210E+02  0.13436935164E+02  0.21285248962E+02  0.00000000000E+00 0.  1.
         14    1    6    6    0    0 -0.76221124294E+02  0.55612136308E+02  0.17936335961E+03  0.20266618925E+03  0.00000000000E+00 0. -1.
         -5    1    3    3    0  503 -0.79582640719E+01  0.34342435530E+02  0.67628514622E+01  0.36201698926E+02  0.47000000000E+01 0.  1.
         11    1    4    4    0    0  0.45617686391E+02 -0.51543501873E+02 -0.13469005533E+03  0.15125844407E+03  0.00000000000E+00 0. -1.
        -12    1    4    4    0    0 -0.27045247297E+02 -0.15845272133E+02 -0.67382145178E+02  0.74316024780E+02  0.00000000000E+00 0.  1.
</event>
<event>
12    1  0.8258923E-002  0.2243547E+03  0.7818608E-02  0.1130894E+00
         21   -1    0    0  503  502  0.00000000000E+00  0.00000000000E+00  0.20178976796E+03  0.20178976796E+03  0.00000000000E+00 0.  1.
         21   -1    0    0  501  503 -0.00000000000E+00 -0.00000000000E+00 -0.50070075975E+03  0.50070075975E+03  0.00000000000E+00 0.  1.
          6    2    1    2  501    0 -0.13295187641E+03 -0.51648170992E+02 -0.39872855409E+03  0.45693281808E+03  0.17163742420E+03 0.  0.
         24    2    3    3    0    0 -0.24290242984E+02 -0.59369958651E+02 -0.27054670111E+03  0.28864837431E+03  0.77508442215E+02 0.  0.
         -6    2    1    2    0  502  0.13295187641E+03  0.51648170992E+02  0.99817562300E+02  0.24555770962E+03  0.17317998731E+03 0.  0.
        -24    2    5    5    0    0  0.12321983124E+03 -0.50012663363E+01  0.11363992866E+03  0.18625324719E+03  0.81043810533E+02 0.  0.
          5    1    3    3  501    0 -0.10866163342E+03  0.77217876587E+01 -0.12818185298E+03  0.16828444378E+03  0.47000000000E+01 0. -1.
        -11    1    4    4    0    0 -0.20927988595E+02 -0.26243832457E+02 -0.27673253764E+02  0.43503200142E+02  0.00000000000E+00 0.  1.
         12    1    4    4    0    0 -0.33622543885E+01 -0.33126126194E+02 -0.24287344735E+03  0.24514517417E+03  0.00000000000E+00 0. -1.
         -5    1    5    5    0  502  0.97320451630E+01  0.56649437328E+02 -0.13822366362E+02  0.59304462433E+02  0.47000000000E+01 0.  1.
         13    1    6    6    0    0  0.51924886685E+01  0.18319250165E+02 -0.22901610611E+01  0.19178156921E+02  0.00000000000E+00 0. -1.
        -14    1    6    6    0    0  0.11802734258E+03 -0.23320516501E+02  0.11593008972E+03  0.16707509027E+03  0.00000000000E+00 0.  1.
</event>
<event>
12    1  0.8258923E-002  0.3087578E+03  0.7818608E-02  0.1081119E+00
         21   -1    0    0  501  502  0.00000000000E+00  0.00000000000E+00  0.32035037747E+03  0.32035037747E+03  0.00000000000E+00 0. -1.
         21   -1    0    0  502  503 -0.00000000000E+00 -0.00000000000E+00 -0.31834937908E+03  0.31834937908E+03  0.00000000000E+00 0.  1.
         -6    2    1    2    0  503 -0.19414989807E+03  0.16279487108E+03  0.85269669234E+02  0.31891066250E+03  0.17388715074E+03 0.  0.
        -24    2    3    3    0    0 -0.19013497787E+03  0.95464011489E+02  0.10260376193E+03  0.24911005357E+03  0.79142905735E+02 0.  0.
          6    2    1    2  501    0  0.19414989807E+03 -0.16279487108E+03 -0.83268670840E+02  0.31978909405E+03  0.17645124018E+03 0.  0.
         24    2    5    5    0    0  0.80397951223E+02 -0.11614249828E+03 -0.10726429664E+03  0.19443428019E+03  0.79662723492E+02 0.  0.
          5    1    5    5  501    0  0.11375194685E+03 -0.46652372799E+02  0.23995625797E+02  0.12535481386E+03  0.47000000000E+01 0. -1.
        -11    1    6    6    0    0  0.93325306761E+02 -0.11189880977E+03 -0.86016356779E+02  0.16920333963E+03  0.00000000000E+00 0.  1.
         12    1    6    6    0    0 -0.12927355538E+02 -0.42436885103E+01 -0.21247939858E+02  0.25230940561E+02  0.00000000000E+00 0. -1.
         -5    1    3    3    0  503 -0.40149202025E+01  0.67330859589E+02 -0.17334092693E+02  0.69800608928E+02  0.47000000000E+01 0.  1.
         13    1    4    4    0    0 -0.13267468323E+02 -0.78088149893E+00  0.33803272812E+02  0.36322124723E+02  0.00000000000E+00 0. -1.
        -14    1    4    4    0    0 -0.17686750955E+03  0.96244892988E+02  0.68800489115E+02  0.21278792885E+03  0.00000000000E+00 0.  1.
</event>
<event>
12    1  0.8258923E-002  0.1909780E+03  0.7818608E-02  0.1158002E+00
         21   -1    0    0  501  502  0.00000000000E+00  0.00000000000E+00  0.18908894831E+02  0.18908894831E+02  0.00000000000E+00 0.  1.
         21   -1    0    0  502  503 -0.00000000000E+00 -0.00000000000E+00 -0.20425164970E+04  0.20425164970E+04  0.00000000000E+00 0.  1.
         -6    2    1    2    0  503 -0.59579061820E+02 -0.56637839074E+02 -0.12696092490E+04  0.12836168525E+04  0.17031461916E+03 0.  0.
        -24    2    3    3    0    0 -0.28097086046E+02 -0.44399148836E+02 -0.38487834591E+03  0.39822893685E+03  0.87716670756E+02 0.  0.
          6    2    1    2  501    0  0.59579061820E+02  0.56637839074E+02 -0.75399835321E+03  0.77780853935E+03  0.17238067707E+03 0.  0.
         24    2    5    5    0    0  0.51129254391E+02  0.77237720027E+02 -0.28685329014E+03  0.31010953969E+03  0.72823419929E+02 0.  0.
          5    1    5    5  501    0  0.84498074282E+01 -0.20599880954E+02 -0.46714506307E+03  0.46769899967E+03  0.47000000000E+01 0. -1.
        -11    1    6    6    0    0 -0.67238214541E+01  0.39067938100E+02 -0.52900402420E+02  0.66105719409E+02  0.00000000000E+00 0.  1.
         12    1    6    6    0    0  0.57853075846E+02  0.38169781927E+02 -0.23395288772E+03  0.24400382028E+03  0.00000000000E+00 0. -1.
         -5    1    3    3    0  503 -0.31481975774E+02 -0.12238690237E+02 -0.88473090307E+03  0.88538791565E+03  0.47000000000E+01 0.  1.
         11    1    4    4    0    0  0.27264324889E+02 -0.36063236608E+02 -0.14400454600E+03  0.15093445503E+03  0.00000000000E+00 0. -1.
        -12    1    4    4    0    0 -0.55361410935E+02 -0.83359122285E+01 -0.24087379991E+03  0.24729448182E+03  0.00000000000E+00 0.  1.
</event>
<event>
12    1  0.8258923E-002  0.1758527E+03  0.7818608E-02  0.1172174E+00
         21   -1    0    0  503  502  0.00000000000E+00  0.00000000000E+00  0.94389049527E+02  0.94389049527E+02  0.00000000000E+00 0. -1.
         21   -1    0    0  501  503 -0.00000000000E+00 -0.00000000000E+00 -0.32577434508E+03  0.32577434508E+03  0.00000000000E+00 0. -1.
          6    2    1    2  501    0  0.32711391499E+02 -0.13922747100E+02 -0.10924038922E+03  0.20702088067E+03  0.17222167220E+03 0.  0.
         24    2    3    3    0    0 -0.46822222911E+02 -0.84573034348E+01 -0.35633727125E+02  0.98413801709E+02  0.78432565418E+02 0.  0.
         -6    2    1    2    0  502 -0.32711391499E+02  0.13922747100E+02 -0.12214490634E+03  0.21314251394E+03  0.17101600827E+03 0.  0.
        -24    2    5    5    0    0 -0.78178285801E+02  0.25623221336E+02 -0.47850276478E+02  0.12513159643E+03  0.81239606255E+02 0.  0.
          5    1    3    3  501    0  0.79533614410E+02 -0.54654436651E+01 -0.73606662091E+02  0.10860707896E+03  0.47000000000E+01 0. -1.
        -11    1    4    4    0    0 -0.36239775268E+02  0.23471836881E+02 -0.46123163165E+02  0.63179067882E+02  0.00000000000E+00 0.  1.
         12    1    4    4    0    0 -0.10582447644E+02 -0.31929140315E+02  0.10489436040E+02  0.35234733827E+02  0.00000000000E+00 0. -1.
         -5    1    5    5    0  502  0.45466894302E+02 -0.11700474236E+02 -0.74294629858E+02  0.88010917508E+02  0.47000000000E+01 0.  1.
         11    1    6    6    0    0 -0.90783536334E+02  0.43448229421E+01 -0.37315175968E+02  0.98249429073E+02  0.00000000000E+00 0. -1.
        -12    1    6    6    0    0  0.12605250533E+02  0.21278398394E+02 -0.10535100510E+02  0.26882167360E+02  0.00000000000E+00 0.  1.
</event>
<event>
12    1  0.8258923E-002  0.2010442E+03  0.7818608E-02  0.1149522E+00
         21   -1    0    0  503  502  0.00000000000E+00  0.00000000000E+00  0.39550989519E+03  0.39550989519E+03  0.00000000000E+00 0.  1.
         21   -1    0    0  501  503 -0.00000000000E+00 -0.00000000000E+00 -0.17075389646E+03  0.17075389646E+03  0.00000000000E+00 0.  1.
          6    2    1    2  501    0  0.14915076271E+02  0.10297992448E+03 -0.68565954665E+02  0.21241487487E+03  0.17202169799E+03 0.  0.
         24    2    3    3    0    0  0.30470671260E+02  0.26158482814E+02  0.20656475140E+02  0.93561004862E+02  0.81940488377E+02 0.  0.
         -6    2    1    2    0  502 -0.14915076271E+02 -0.10297992448E+03  0.29332195340E+03  0.35384891678E+03  0.16835665479E+03 0.  0.
        -24    2    5    5    0    0 -0.47713347314E+02 -0.37115871602E+01  0.14668150200E+03  0.17369497881E+03  0.79775580498E+02 0.  0.
          5    1    3    3  501    0 -0.15555594989E+02  0.76821441669E+02 -0.89222429804E+02  0.11885387001E+03  0.47000000000E+01 0. -1.
        -11    1    4    4    0    0  0.42014580649E+01  0.13038459170E+02 -0.31140293159E+02  0.34020163513E+02  0.00000000000E+00 0.  1.
         12    1    4    4    0    0  0.26269213195E+02  0.13120023644E+02  0.51796768299E+02  0.59540841349E+02  0.00000000000E+00 0. -1.
         -5    1    5    5    0  502  0.32798271043E+02 -0.99268337323E+02  0.14664045140E+03  0.18015393797E+03  0.47000000000E+01 0.  1.
         13    1    6    6    0    0  0.16925869674E+02  0.17717887001E+02  0.46475417336E+02  0.52539251998E+02  0.00000000000E+00 0. -1.
        -14    1    6    6    0    0 -0.64639216988E+02 -0.21429474161E+02  0.10020608466E+03  0.12115572681E+03  0.00000000000E+00 0.  1.
</event>
<event>
12    1  0.8258923E-002  0.2080640E+03  0.7818608E-02  0.1143557E+00
         21   -1    0    0  503  502  0.00000000000E+00  0.00000000000E+00  0.49631815271E+03  0.49631815271E+03  0.00000000000E+00 0. -1.
         21   -1    0    0  501  503 -0.00000000000E+00 -0.00000000000E+00 -0.46943484726E+03  0.46943484726E+03  0.00000000000E+00 0. -1.
          6    2    1    2  501    0 -0.89847016839E+02  0.73131863338E+02 -0.42278687354E+03  0.47121054017E+03  0.17282903939E+03 0.  0.
         24    2    3    3    0    0 -0.25225062807E+02  0.22977671731E+02 -0.76038915080E+02  0.11491336564E+03  0.79113132945E+02 0.  0.
         -6    2    1    2    0  502  0.89847016839E+02 -0.73131863338E+02  0.44967017900E+03  0.49454245981E+03  0.17014176090E+03 0.  0.
        -24    2    5    5    0    0  0.64345349163E+02 -0.91571135113E+01  0.97327681928E+02  0.13550147480E+03  0.68291985751E+02 0.  0.
          5    1    3    3  501    0 -0.64621954031E+02  0.50154191607E+02 -0.34674795846E+03  0.35629717453E+03  0.47000000000E+01 0. -1.
        -11    1    4    4    0    0 -0.14163863678E+02  0.49140871561E+02 -0.25992510779E+02  0.57367681744E+02  0.00000000000E+00 0.  1.
         12    1    4    4    0    0 -0.11061199129E+02 -0.26163199831E+02 -0.50046404301E+02  0.57545683896E+02  0.00000000000E+00 0. -1.
         -5    1    5    5    0  502  0.25501667676E+02 -0.63974749826E+02  0.35234249707E+03  0.35904098500E+03  0.47000000000E+01 0.  1.
         11    1    6    6    0    0  0.33601756569E+02  0.29079703236E+02  0.54954078330E+02  0.70672893742E+02  0.00000000000E+00 0. -1.
        -12    1    6    6    0    0  0.30743592594E+02 -0.38236816748E+02  0.42373603598E+02  0.64828581062E+02  0.00000000000E+00 0.  1.
</event>
<event>
12    1  0.8258923E-002  0.1900728E+03  0.7818608E-02  0.1160991E+00
         21   -1    0    0  503  502  0.00000000000E+00  0.00000000000E+00  0.34891032158E+02  0.34891032158E+02  0.00000000000E+00 0.  1.
         21   -1    0    0  501  503 -0.00000000000E+00 -0.00000000000E+00 -0.10134917328E+04  0.10134917328E+04  0.00000000000E+00 0.  1.
          6    2    1    2  501    0 -0.56426469006E+01 -0.45171865130E+02 -0.37374150144E+03  0.41436200210E+03  0.17303416433E+03 0.  0.
         24    2    3    3    0    0 -0.45583306199E+02 -0.70024133322E+02 -0.17356809838E+03  0.20868173374E+03  0.80255617698E+02 0.  0.
         -6    2    1    2    0  502  0.56426469006E+01  0.45171865130E+02 -0.60485919918E+03  0.63402076283E+03  0.18454088979E+03 0.  0.
        -24    2    5    5    0    0 -0.45773614069E+02  0.34672371595E+02 -0.20053814764E+03  0.22628129458E+03  0.87694233096E+02 0.  0.
          5    1    3    3  501    0  0.39940659299E+02  0.24852268192E+02 -0.20017340306E+03  0.20568026836E+03  0.47000000000E+01 0. -1.
        -13    1    4    4    0    0 -0.57233881028E+02 -0.29564245783E+02 -0.14241159062E+03  0.15630362410E+03  0.00000000000E+00 0.  1.
         14    1    4    4    0    0  0.11650574828E+02 -0.40459887539E+02 -0.31156507760E+02  0.52378109639E+02  0.00000000000E+00 0. -1.
         -5    1    5    5    0  502  0.51416260970E+02  0.10499493535E+02 -0.40432105154E+03  0.40773946825E+03  0.47000000000E+01 0.  1.
         11    1    6    6    0    0  0.55882230907E+01 -0.25213832117E+02 -0.45259464225E+02  0.52109352992E+02  0.00000000000E+00 0. -1.
        -12    1    6    6    0    0 -0.51361837160E+02  0.59886203711E+02 -0.15527868342E+03  0.17417194159E+03  0.00000000000E+00 0.  1.
</event>
<event>
12    1  0.8258923E-002  0.1838663E+03  0.7818608E-02  0.1165848E+00
         21   -1    0    0  503  502  0.00000000000E+00  0.00000000000E+00  0.43209320052E+03  0.43209320052E+03  0.00000000000E+00 0.  1.
         21   -1    0    0  501  503 -0.00000000000E+00 -0.00000000000E+00 -0.14863251737E+03  0.14863251737E+03  0.00000000000E+00 0.  1.
          6    2    1    2  501    0 -0.20342688290E+02 -0.52618608927E+02 -0.63778935056E+02  0.18781075366E+03  0.16739947331E+03 0.  0.
         24    2    3    3    0    0  0.20496273144E+02 -0.49365340889E+02 -0.95685613280E+02  0.13567122318E+03  0.79961929167E+02 0.  0.
         -6    2    1    2    0  502  0.20342688290E+02  0.52618608927E+02  0.34723961820E+03  0.39291496423E+03  0.17499792481E+03 0.  0.
        -24    2    5    5    0    0  0.43070960064E+02  0.81729111058E+02  0.32535850639E+03  0.34973083836E+03  0.88987338588E+02 0.  0.
          5    1    3    3  501    0 -0.40838961434E+02 -0.32532680377E+01  0.31906678225E+02  0.52139530486E+02  0.47000000000E+01 0. -1.
        -11    1    4    4    0    0 -0.28694990555E+02 -0.33775086661E+02 -0.49202664119E+02  0.66219794007E+02  0.00000000000E+00 0.  1.
         12    1    4    4    0    0  0.49191263700E+02 -0.15590254228E+02 -0.46482949161E+02  0.69451429172E+02  0.00000000000E+00 0. -1.
         -5    1    5    5    0  502 -0.22728271774E+02 -0.29110502130E+02  0.21881111819E+02  0.43184125863E+02  0.47000000000E+01 0.  1.
         11    1    6    6    0    0  0.48522997091E+02  0.16932138812E+02  0.73985608361E+02  0.90083565738E+02  0.00000000000E+00 0. -1.
        -12    1    6    6    0    0 -0.54520370276E+01  0.64796972246E+02  0.25137289802E+03  0.25964727262E+03  0.00000000000E+00 0.  1.
</event>
<event>
12    1  0.8258923E-002  0.1826455E+03  0.7818608E-02  0.1167294E+00
         21   -1    0    0  503  502  0.00000000000E+00  0.00000000000E+00  0.13775657441E+03  0.13775657441E+03  0.00000000000E+00 0.  1.
         21   -1    0    0  501  503 -0.00000000000E+00 -0.00000000000E+00 -0.27693682270E+03  0.27693682270E+03  0.00000000000E+00 0.  1.
          6    2    1    2  501    0 -0.28807710643E+02 -0.53631088766E+02  0.15966882731E+02  0.17504779651E+03  0.16334200881E+03 0.  0.
         24    2    3    3    0    0  0.23495284703E+01 -0.82149328034E+02 -0.24030603393E+02  0.11668725833E+03  0.79274295810E+02 0.  0.
         -6    2    1    2    0  502  0.28807710643E+02  0.53631088766E+02 -0.15514713101E+03  0.23964560061E+03  0.17220105619E+03 0.  0.
        -24    2    5    5    0    0  0.16991793583E+02 -0.38107905832E+02 -0.88232658438E+02  0.12538582787E+03  0.78712580187E+02 0.  0.
          5    1    3    3  501    0 -0.31157239113E+02  0.28518239268E+02  0.39997486124E+02  0.58360538177E+02  0.47000000000E+01 0. -1.
        -11    1    4    4    0    0 -0.31630962072E+02 -0.70412268543E+02 -0.23658435683E+02  0.80734917489E+02  0.00000000000E+00 0.  1.
         12    1    4    4    0    0  0.33980490543E+02 -0.11737059491E+02 -0.37216770985E+00  0.35952340839E+02  0.00000000000E+00 0. -1.
         -5    1    5    5    0  502  0.11815917060E+02  0.91738994598E+02 -0.66914472576E+02  0.11425977274E+03  0.47000000000E+01 0.  1.
         13    1    6    6    0    0 -0.57018638383E+00 -0.11823070310E+02 -0.92706283300E+02  0.93458895069E+02  0.00000000000E+00 0. -1.
        -14    1    6    6    0    0  0.17561979966E+02 -0.26284835522E+02  0.44736248621E+01  0.31926932802E+02  0.00000000000E+00 0.  1.
</event>
<event>
12    1  0.8258923E-002  0.2289086E+03  0.7818608E-02  0.1128309E+00
         21   -1    0    0  501  502  0.00000000000E+00  0.00000000000E+00  0.32348496280E+03  0.32348496280E+03  0.00000000000E+00 0. -1.
         21   -1    0    0  502  503 -0.00000000000E+00 -0.00000000000E+00 -0.16590518796E+03  0.16590518796E+03  0.00000000000E+00 0. -1.
         -6    2    1    2    0  503 -0.63810660188E+01 -0.15063345764E+03  0.26096742496E+02  0.22540730886E+03  0.16551815114E+03 0.  0.
        -24    2    3    3    0    0 -0.31000381898E+02 -0.10946809950E+03 -0.38969284770E+02  0.14443586124E+03  0.79992651987E+02 0.  0.
          6    2    1    2  501    0  0.63810660188E+01  0.15063345764E+03  0.13148303235E+03  0.26398284190E+03  0.17224400268E+03 0.  0.
         24    2    5    5    0    0  0.63859620775E+02  0.10002217062E+03  0.11477408409E+03  0.18545535892E+03  0.84487359968E+02 0.  0.
          5    1    5    5  501    0 -0.57478554756E+02  0.50611287017E+02  0.16708948261E+02  0.78527482975E+02  0.47000000000E+01 0. -1.
        -11    1    6    6    0    0 -0.34396952881E+01 -0.35819725561E+01 -0.91867226598E+01  0.10443079253E+02  0.00000000000E+00 0.  1.
         12    1    6    6    0    0  0.67299316063E+02  0.10360414318E+03  0.12396080675E+03  0.17501227967E+03  0.00000000000E+00 0. -1.
         -5    1    3    3    0  503  0.24619315879E+02 -0.41165358137E+02  0.65066027265E+02  0.80971447616E+02  0.47000000000E+01 0.  1.
         11    1    4    4    0    0  0.32715388007E+01 -0.79258002301E+02  0.69895865018E+01  0.79632833771E+02  0.00000000000E+00 0. -1.
        -12    1    4    4    0    0 -0.34271920699E+02 -0.30210097198E+02 -0.45958871272E+02  0.64803027473E+02  0.00000000000E+00 0.  1.
</event>
<event>
12    1  0.8258923E-002  0.1841527E+03  0.7818608E-02  0.1164158E+00
         21   -1    0    0  503  502  0.00000000000E+00  0.00000000000E+00  0.16611948860E+02  0.16611948860E+02  0.00000000000E+00 0. -1.
         21   -1    0    0  501  503 -0.00000000000E+00 -0.00000000000E+00 -0.20389236545E+04  0.20389236545E+04  0.00000000000E+00 0. -1.
          6    2    1    2  501    0 -0.64550260521E+02 -0.13709215340E+02 -0.92781246837E+03  0.94565236270E+03  0.17049262711E+03 0.  0.
         24    2    3    3    0    0 -0.10803373368E+03 -0.23224148829E+02 -0.74666230679E+03  0.75905435243E+03  0.80301063861E+02 0.  0.
         -6    2    1    2    0  502  0.64550260521E+02  0.13709215340E+02 -0.10944992372E+04  0.11098832406E+04  0.17192308976E+03 0.  0.
        -24    2    5    5    0    0 -0.11816674111E+02 -0.21800379088E+02 -0.77483847869E+03  0.77928086532E+03  0.79303900818E+02 0.  0.
          5    1    3    3  501    0  0.43483473160E+02  0.95149334891E+01 -0.18115016158E+03  0.18659801027E+03  0.47000000000E+01 0. -1.
        -13    1    4    4    0    0 -0.90991467659E+02 -0.37393808498E+02 -0.70530527701E+03  0.71213290745E+03  0.00000000000E+00 0.  1.
         14    1    4    4    0    0 -0.17042266022E+02  0.14169659669E+02 -0.41357029787E+02  0.46921444981E+02  0.00000000000E+00 0. -1.
         -5    1    5    5    0  502  0.76366934632E+02  0.35509594428E+02 -0.31966075856E+03  0.33060237532E+03  0.47000000000E+01 0.  1.
         11    1    6    6    0    0  0.13891595958E+01  0.29645174969E+02 -0.31023277355E+03  0.31164906538E+03  0.00000000000E+00 0. -1.
        -12    1    6    6    0    0 -0.13205833707E+02 -0.51445554057E+02 -0.46460570513E+03  0.46763179994E+03  0.00000000000E+00 0.  1.
</event>
<event>
12    1  0.8258923E-002  0.2519354E+03  0.7818608E-02  0.1113670E+00
         21   -1    0    0  501  502  0.00000000000E+00  0.00000000000E+00  0.44791918821E+03  0.44791918821E+03  0.00000000000E+00 0. -1.
         21   -1    0    0  502  503 -0.00000000000E+00 -0.00000000000E+00 -0.38042001556E+03  0.38042001556E+03  0.00000000000E+00 0. -1.
         -6    2    1    2    0  503  0.19973720945E+02  0.16478092682E+03 -0.29832325864E+03  0.38415738461E+03  0.17614887492E+03 0.  0.
        -24    2    3    3    0    0  0.76488115064E+02  0.87827381190E+02 -0.21763612271E+03  0.25906450379E+03  0.78643846451E+02 0.  0.
          6    2    1    2  501    0 -0.19973720945E+02 -0.16478092682E+03  0.36582243128E+03  0.44418181916E+03  0.18952502175E+03 0.  0.
         24    2    5    5    0    0 -0.12670176946E+02 -0.19925844556E+03  0.30192963858E+03  0.37106260135E+03  0.81617926709E+02 0.  0.
          5    1    5    5  501    0 -0.73035439988E+01  0.34477518734E+02  0.63892792704E+02  0.73119217806E+02  0.47000000000E+01 0. -1.
        -11    1    6    6    0    0 -0.27928939306E+01 -0.65403933821E+02  0.39918529395E+02  0.76674401236E+02  0.00000000000E+00 0.  1.
         12    1    6    6    0    0 -0.98772830153E+01 -0.13385451173E+03  0.26201110919E+03  0.29438820012E+03  0.00000000000E+00 0. -1.
         -5    1    3    3    0  503 -0.56514394119E+02  0.76953545631E+02 -0.80687135923E+02  0.12509288082E+03  0.47000000000E+01 0.  1.
         11    1    4    4    0    0  0.10987769447E+02 -0.11244446587E+02 -0.58006870385E+02  0.60099631183E+02  0.00000000000E+00 0. -1.
        -12    1    4    4    0    0  0.65500345617E+02  0.99071827777E+02 -0.15962925233E+03  0.19896487261E+03  0.00000000000E+00 0.  1.
</event>
<event>
12    1  0.8258923E-002  0.2723516E+03  0.7818608E-02  0.1100114E+00
         21   -1    0    0  501  502  0.00000000000E+00  0.00000000000E+00  0.95423740243E+02  0.95423740243E+02  0.00000000000E+00 0.  1.
         21   -1    0    0  502  503 -0.00000000000E+00 -0.00000000000E+00 -0.12680614695E+04  0.12680614695E+04  0.00000000000E+00 0. -1.
         -6    2    1    2    0  503  0.20099912666E+03 -0.61629250132E+02 -0.10111186055E+04  0.10468405719E+04  0.17121780035E+03 0.  0.
        -24    2    3    3    0    0  0.22184845645E+03 -0.38758553562E+02 -0.86833941367E+03  0.90067029127E+03  0.80465353678E+02 0.  0.
          6    2    1    2  501    0 -0.20099912666E+03  0.61629250132E+02 -0.16151912381E+03  0.31664463791E+03  0.17313747708E+03 0.  0.
         24    2    5    5    0    0 -0.12523802811E+03  0.84997850436E+02 -0.16424715039E+03  0.23717535036E+03  0.79786102452E+02 0.  0.
          5    1    5    5  501    0 -0.75761098554E+02 -0.23368600304E+02  0.27280265846E+01  0.79469287548E+02  0.47000000000E+01 0. -1.
        -13    1    6    6    0    0 -0.79792354545E+01 -0.11831640310E+02 -0.13606465080E+01  0.14335524747E+02  0.00000000000E+00 0.  1.
         14    1    6    6    0    0 -0.11725879265E+03  0.96829490746E+02 -0.16288650388E+03  0.22283982562E+03  0.00000000000E+00 0. -1.
         -5    1    3    3    0  503 -0.20849329787E+02 -0.22870696570E+02 -0.14277919181E+03  0.14617028059E+03  0.47000000000E+01 0.  1.
         13    1    4    4    0    0  0.11381247196E+03 -0.22862813975E+02 -0.59700148528E+03  0.60818316358E+03  0.00000000000E+00 0. -1.
        -14    1    4    4    0    0  0.10803598449E+03 -0.15895739588E+02 -0.27133792839E+03  0.29248712769E+03  0.00000000000E+00 0.  1.
</event>
<event>
12    1  0.8258923E-002  0.2540952E+03  0.7818608E-02  0.1110935E+00
         21   -1    0    0  501  502  0.00000000000E+00  0.00000000000E+00  0.81129112296E+03  0.81129112296E+03  0.00000000000E+00 0.  1.
         21   -1    0    0  502  503 -0.00000000000E+00 -0.00000000000E+00 -0.10477801320E+03  0.10477801320E+03  0.00000000000E+00 0.  1.
         -6    2    1    2    0  503  0.25065916847E+02  0.18518654873E+03  0.12758450834E+03  0.28432759501E+03  0.17216857000E+03 0.  0.
        -24    2    3    3    0    0  0.12772925836E+02  0.20136189069E+03  0.78376499950E+02  0.23088344279E+03  0.80340088089E+02 0.  0.
          6    2    1    2  501    0 -0.25065916847E+02 -0.18518654873E+03  0.57892860141E+03  0.63174154115E+03  0.17034286386E+03 0.  0.
         24    2    5    5    0    0 -0.40064340784E+02 -0.20462328349E+03  0.47025271465E+03  0.52022796466E+03  0.77612370331E+02 0.  0.
          5    1    5    5  501    0  0.14998423937E+02  0.19436734763E+02  0.10867588677E+03  0.11151357650E+03  0.47000000000E+01 0. -1.
        -11    1    6    6    0    0 -0.14686943011E+02 -0.15499163231E+03  0.26315300338E+03  0.30575744565E+03  0.00000000000E+00 0.  1.
         12    1    6    6    0    0 -0.25377397772E+02 -0.49631651178E+02  0.20709971127E+03  0.21447051901E+03  0.00000000000E+00 0. -1.
         -5    1    3    3    0  503  0.12292991011E+02 -0.16175341968E+02  0.49208008394E+02  0.53444152214E+02  0.47000000000E+01 0.  1.
         11    1    4    4    0    0 -0.26457251212E+01 -0.70449384388E+01  0.63384522341E+01  0.98390546165E+01  0.00000000000E+00 0. -1.
        -12    1    4    4    0    0  0.15418650957E+02  0.20840682913E+03  0.72038047716E+02  0.22104438818E+03  0.00000000000E+00 0.  1.
</event>
<event>
12    1  0.8258923E-002  0.1920786E+03  0.7818608E-02  0.1156784E+00
         21   -1    0    0  503  502  0.00000000000E+00  0.00000000000E+00  0.13006974810E+04  0.13006974810E+04  0.00000000000E+00 0. -1.
         21   -1    0    0  501  503 -0.00000000000E+00 -0.00000000000E+00 -0.38787825901E+02  0.38787825901E+02  0.00000000000E+00 0. -1.
          6    2    1    2  501    0  0.61900540061E+02  0.57250580185E+02  0.28075366628E+03  0.33970470139E+03  0.17166058727E+03 0.  0.
         24    2    3    3    0    0  0.12782027066E+02  0.33666233683E+02  0.26681864641E+03  0.28326779416E+03  0.88043498493E+02 0.  0.
         -6    2    1    2    0  502 -0.61900540061E+02 -0.57250580185E+02  0.98115598882E+03  0.99978060551E+03  0.17258296261E+03 0.  0.
        -24    2    5    5    0    0 -0.93266692243E+02 -0.13163779750E+02  0.83346028817E+03  0.84241608770E+03  0.78338061586E+02 0.  0.
          5    1    3    3  501    0  0.49118512995E+02  0.23584346502E+02  0.13935019870E+02  0.56436907229E+02  0.47000000000E+01 0. -1.
        -11    1    4    4    0    0 -0.13968971491E+02 -0.16508433601E+02  0.16696562812E+03  0.16836027298E+03  0.00000000000E+00 0.  1.
         12    1    4    4    0    0  0.26750998557E+02  0.50174667284E+02  0.99853018293E+02  0.11490752118E+03  0.00000000000E+00 0. -1.
         -5    1    5    5    0  502  0.31366152182E+02 -0.44086800435E+02  0.14769570065E+03  0.15736451781E+03  0.47000000000E+01 0.  1.
         13    1    6    6    0    0 -0.79312518563E+02 -0.40023546206E+02  0.52383558129E+03  0.53131542052E+03  0.00000000000E+00 0. -1.
        -14    1    6    6    0    0 -0.13954173679E+02  0.26859766456E+02  0.30962470687E+03  0.31110066718E+03  0.00000000000E+00 0.  1.
</event>
<event>
12    1  0.8258923E-002  0.5010887E+03  0.7818608E-02  0.1013558E+00
         21   -1    0    0  501  502  0.00000000000E+00  0.00000000000E+00  0.33871814275E+03  0.33871814275E+03  0.00000000000E+00 0. -1.
         21   -1    0    0  502  503 -0.00000000000E+00 -0.00000000000E+00 -0.15925251309E+04  0.15925251309E+04  0.00000000000E+00 0. -1.
         -6    2    1    2    0  503 -0.27359864985E+03 -0.38283757872E+03 -0.13337465462E+04  0.14247700472E+04  0.17224693087E+03 0.  0.
        -24    2    3    3    0    0 -0.16739020471E+03 -0.33859967953E+03 -0.10019723169E+04  0.10735814159E+04  0.77196562096E+02 0.  0.
          6    2    1    2  501    0  0.27359864985E+03  0.38283757872E+03  0.79939558004E+02  0.50647322643E+03  0.16942244028E+03 0.  0.
         24    2    5    5    0    0  0.82317638427E+02  0.22225973033E+03  0.40396826512E+02  0.25357129219E+03  0.80566216923E+02 0.  0.
          5    1    5    5  501    0  0.19128101143E+03  0.16057784840E+03  0.39542731492E+02  0.25290193424E+03  0.47000000000E+01 0. -1.
        -11    1    6    6    0    0  0.24230945875E+02  0.23856040019E+02 -0.18370559335E+02  0.38648762382E+02  0.00000000000E+00 0.  1.
         12    1    6    6    0    0  0.58086692552E+02  0.19840369031E+03  0.58767385847E+02  0.21492252981E+03  0.00000000000E+00 0. -1.
         -5    1    3    3    0  503 -0.10620844514E+03 -0.44237899190E+02 -0.33177422933E+03  0.35118863135E+03  0.47000000000E+01 0.  1.
         13    1    4    4    0    0 -0.14880688565E+03 -0.22078458934E+03 -0.69338377284E+03  0.74274516528E+03  0.00000000000E+00 0. -1.
        -14    1    4    4    0    0 -0.18583319057E+02 -0.11781509020E+03 -0.30858854402E+03  0.33083625062E+03  0.00000000000E+00 0.  1.
</event>
<event>
12    1  0.8258923E-002  0.1783783E+03  0.7818608E-02  0.1169713E+00
         21   -1    0    0  503  502  0.00000000000E+00  0.00000000000E+00  0.20143032749E+03  0.20143032749E+03  0.00000000000E+00 0.  1.
         21   -1    0    0  501  503 -0.00000000000E+00 -0.00000000000E+00 -0.20617241310E+03  0.20617241310E+03  0.00000000000E+00 0.  1.
          6    2    1    2  501    0  0.47304338919E+02 -0.71240109781E+01 -0.10213539730E+03  0.20554918440E+03  0.17184404504E+03 0.  0.
         24    2    3    3    0    0  0.38966367700E+02 -0.13542422486E+02 -0.14064545812E+03  0.16535176464E+03  0.76539441866E+02 0.  0.
         -6    2    1    2    0  502 -0.47304338919E+02  0.71240109781E+01  0.97393311684E+02  0.20205355620E+03  0.17044568166E+03 0.  0.
        -24    2    5    5    0    0 -0.69670732836E+02  0.59444908587E+02  0.69988126348E+02  0.13872215729E+03  0.77186727640E+02 0.  0.
          5    1    3    3  501    0  0.83379712188E+01  0.64184115075E+01  0.38510060827E+02  0.40197419759E+02  0.47000000000E+01 0. -1.
        -13    1    4    4    0    0  0.41626315976E+02  0.24753673238E+02 -0.82920486026E+02  0.96027608130E+02  0.00000000000E+00 0.  1.
         14    1    4    4    0    0 -0.26599482761E+01 -0.38296095723E+02 -0.57724972099E+02  0.69324156513E+02  0.00000000000E+00 0. -1.
         -5    1    5    5    0  502  0.22366393917E+02 -0.52320897609E+02  0.27405185337E+02  0.63331398902E+02  0.47000000000E+01 0.  1.
         13    1    6    6    0    0 -0.10229299164E+01  0.31750184028E+02  0.54519998699E+02  0.63099531136E+02  0.00000000000E+00 0. -1.
        -14    1    6    6    0    0 -0.68647802919E+02  0.27694724560E+02  0.15468127649E+02  0.75622626158E+02  0.00000000000E+00 0.  1.
</event>
<event>
12    1  0.8258923E-002  0.1952004E+03  0.7818608E-02  0.1153943E+00
         21   -1    0    0  501  502  0.00000000000E+00  0.00000000000E+00  0.92826629157E+03  0.92826629157E+03  0.00000000000E+00 0.  1.
         21   -1    0    0  502  503 -0.00000000000E+00 -0.00000000000E+00 -0.49553200490E+02  0.49553200490E+02  0.00000000000E+00 0. -1.
         -6    2    1    2    0  503 -0.87764577692E+02 -0.29894974967E+02  0.64333306185E+03  0.67229505143E+03  0.17177565917E+03 0.  0.
        -24    2    3    3    0    0 -0.70702823022E+02 -0.10430019058E+02  0.63587753753E+03  0.64495162766E+03  0.80713597361E+02 0.  0.
          6    2    1    2  501    0  0.87764577692E+02  0.29894974967E+02  0.23538002922E+03  0.30552444062E+03  0.17130410105E+03 0.  0.
         24    2    5    5    0    0  0.12480978364E+03 -0.51319246411E+01  0.17393819971E+03  0.22554682254E+03  0.70802917312E+02 0.  0.
          5    1    5    5  501    0 -0.37045205943E+02  0.35026899608E+02  0.61441829518E+02  0.79977618082E+02  0.47000000000E+01 0. -1.
        -13    1    6    6    0    0  0.97084946367E+02 -0.90843375271E+01  0.17169532010E+03  0.19745200668E+03  0.00000000000E+00 0.  1.
         14    1    6    6    0    0  0.27724837268E+02  0.39524128860E+01  0.22428796073E+01  0.28094815858E+02  0.00000000000E+00 0. -1.
         -5    1    3    3    0  503 -0.17061754670E+02 -0.19464955909E+02  0.74555243208E+01  0.27343423777E+02  0.47000000000E+01 0.  1.
         13    1    4    4    0    0  0.11999908357E+02  0.16879054968E+02  0.12053830608E+03  0.12230447060E+03  0.00000000000E+00 0. -1.
        -14    1    4    4    0    0 -0.82702731379E+02 -0.27309074026E+02  0.51533923145E+03  0.52264715705E+03  0.00000000000E+00 0.  1.
</event>
<event>
12    1  0.8258923E-002  0.1810451E+03  0.7818608E-02  0.1166834E+00
         21   -1    0    0  501  502  0.00000000000E+00  0.00000000000E+00  0.93435316790E+02  0.93435316790E+02  0.00000000000E+00 0. -1.
         21   -1    0    0  502  503 -0.00000000000E+00 -0.00000000000E+00 -0.46259383489E+03  0.46259383489E+03  0.00000000000E+00 0. -1.
         -6    2    1    2    0  503  0.44453346477E+02 -0.32726078060E+02 -0.32137766821E+03  0.36878511482E+03  0.17225492473E+03 0.  0.
        -24    2    3    3    0    0 -0.11274946640E+02 -0.50747978213E+01 -0.28591505668E+03  0.29702215245E+03  0.79510134028E+02 0.  0.
          6    2    1    2  501    0 -0.44453346477E+02  0.32726078060E+02 -0.47780849889E+02  0.18724403685E+03  0.17242454443E+03 0.  0.
         24    2    5    5    0    0  0.35896705031E+02 -0.12799763204E+02 -0.32179909058E+02  0.93466574983E+02  0.79044586923E+02 0.  0.
          5    1    5    5  501    0 -0.80350051508E+02  0.45525841265E+02 -0.15600940831E+02  0.93777461871E+02  0.47000000000E+01 0. -1.
        -13    1    6    6    0    0  0.18908141737E+01 -0.40334543328E+02 -0.22259913055E+01  0.40440148381E+02  0.00000000000E+00 0.  1.
         14    1    6    6    0    0  0.34005890857E+02  0.27534780124E+02 -0.29953917753E+02  0.53026426602E+02  0.00000000000E+00 0. -1.
         -5    1    3    3    0  503  0.55728293117E+02 -0.27651280239E+02 -0.35462611528E+02  0.71762962376E+02  0.47000000000E+01 0.  1.
         13    1    4    4    0    0  0.32638470085E+01 -0.75152414504E+01 -0.28151937414E+03  0.28163857969E+03  0.00000000000E+00 0. -1.
        -14    1    4    4    0    0 -0.14538793649E+02  0.24404436291E+01 -0.43956825386E+01  0.15383572759E+02  0.00000000000E+00 0.  1.
</event>
<event>
12    1  0.8258923E-002  0.3154918E+03  0.7818608E-02  0.1078244E+00
         21   -1    0    0  501  502  0.00000000000E+00  0.00000000000E+00  0.20744933249E+04  0.20744933249E+04  0.00000000000E+00 0. -1.
         21   -1    0    0  502  503 -0.00000000000E+00 -0.00000000000E+00 -0.49397217217E+02  0.49397217217E+02  0.00000000000E+00 0.  1.
         -6    2    1    2    0  503 -0.11671045316E+03  0.23123662286E+03  0.80223000966E+03  0.86203716472E+03  0.18012045785E+03 0.  0.
        -24    2    3    3    0    0 -0.11362293268E+03  0.78987677397E+02  0.47937317431E+03  0.50503870491E+03  0.78206324529E+02 0.  0.
          6    2    1    2  501    0  0.11671045316E+03 -0.23123662286E+03  0.12228660980E+04  0.12618533774E+04  0.17257099035E+03 0.  0.
         24    2    5    5    0    0 -0.75525996763E+00 -0.79841875719E+02  0.62405875268E+03  0.63311584069E+03  0.70788737786E+02 0.  0.
          5    1    5    5  501    0  0.11746571313E+03 -0.15139474715E+03  0.59880734534E+03  0.62873753670E+03  0.47000000000E+01 0. -1.
        -11    1    6    6    0    0  0.48402018847E+01 -0.63912244048E+02  0.23192562841E+03  0.24061940820E+03  0.00000000000E+00 0.  1.
         12    1    6    6    0    0 -0.55954618523E+01 -0.15929631671E+02  0.39213312428E+03  0.39249643249E+03  0.00000000000E+00 0. -1.
         -5    1    3    3    0  503 -0.30875204810E+01  0.15224894547E+03  0.32285683534E+03  0.35699845981E+03  0.47000000000E+01 0.  1.
         13    1    4    4    0    0 -0.22337345252E+02  0.22748000956E+02  0.32670179537E+02  0.45648320576E+02  0.00000000000E+00 0. -1.
        -14    1    4    4    0    0 -0.91285587425E+02  0.56239676441E+02  0.44670299478E+03  0.45939038433E+03  0.00000000000E+00 0.  1.
</event>
<event>
12    1  0.8258923E-002  0.1870084E+03  0.7818608E-02  0.1161313E+00
         21   -1    0    0  501  502  0.00000000000E+00  0.00000000000E+00  0.57958876127E+02  0.57958876127E+02  0.00000000000E+00 0.  1.
         21   -1    0    0  502  503 -0.00000000000E+00 -0.00000000000E+00 -0.69327650206E+03  0.69327650206E+03  0.00000000000E+00 0.  1.
         -6    2    1    2    0  503 -0.20409149016E+02 -0.68086441587E+02 -0.18069085146E+03  0.25964850772E+03  0.17238290770E+03 0.  0.
        -24    2    3    3    0    0 -0.63310662635E+02 -0.76591253641E+02 -0.17355851830E+03  0.21508583415E+03  0.79151100055E+02 0.  0.
          6    2    1    2  501    0  0.20409149016E+02  0.68086441587E+02 -0.45462677448E+03  0.49158687047E+03  0.17297355363E+03 0.  0.
         24    2    5    5    0    0 -0.42451586694E+02  0.27044610793E+02 -0.35250059958E+03  0.36474937772E+03  0.79068879176E+02 0.  0.
          5    1    5    5  501    0  0.62860735709E+02  0.41041830794E+02 -0.10212617489E+03  0.12683749275E+03  0.47000000000E+01 0. -1.
        -11    1    6    6    0    0  0.52700811949E+01 -0.19857810211E+02 -0.15191009417E+03  0.15329312800E+03  0.00000000000E+00 0.  1.
         12    1    6    6    0    0 -0.47721667889E+02  0.46902421004E+02 -0.20059050541E+03  0.21145624971E+03  0.00000000000E+00 0. -1.
         -5    1    3    3    0  503  0.42901513619E+02  0.85048120540E+01 -0.71323331513E+01  0.44562673563E+02  0.47000000000E+01 0.  1.
         13    1    4    4    0    0 -0.80624693256E+02 -0.53475454461E+02 -0.14614215093E+03  0.17526406839E+03  0.00000000000E+00 0. -1.
        -14    1    4    4    0    0  0.17314030621E+02 -0.23115799179E+02 -0.27416367377E+02  0.39821765759E+02  0.00000000000E+00 0.  1.
</event>
<event>
12    1  0.8258923E-002  0.1904024E+03  0.7818608E-02  0.1158295E+00
         21   -1    0    0  501  502  0.00000000000E+00  0.00000000000E+00  0.31128938095E+03  0.31128938095E+03  0.00000000000E+00 0.  1.
         21   -1    0    0  502  503 -0.00000000000E+00 -0.00000000000E+00 -0.13374840968E+03  0.13374840968E+03  0.00000000000E+00 0.  1.
         -6    2    1    2    0  503 -0.73336290633E+02 -0.33794342309E+02  0.73741966790E+01  0.18967571144E+03  0.17147077779E+03 0.  0.
        -24    2    3    3    0    0 -0.10154832007E+01 -0.72053953162E+02  0.11460862865E+02  0.10762153512E+03  0.79109039128E+02 0.  0.
          6    2    1    2  501    0  0.73336290633E+02  0.33794342309E+02  0.17016677459E+03  0.25536207919E+03  0.17243199012E+03 0.  0.
         24    2    5    5    0    0  0.59981759535E+02  0.86492219793E+02  0.10201724402E+03  0.16805882432E+03  0.82204226138E+02 0.  0.
          5    1    5    5  501    0  0.13354531098E+02 -0.52697877484E+02  0.68149530573E+02  0.87303254862E+02  0.47000000000E+01 0. -1.
        -11    1    6    6    0    0  0.71527848203E+02  0.63596667207E+02  0.10519470062E+03  0.14222058286E+03  0.00000000000E+00 0.  1.
         12    1    6    6    0    0 -0.11546088668E+02  0.22895552586E+02 -0.31774566066E+01  0.25838241470E+02  0.00000000000E+00 0. -1.
         -5    1    3    3    0  503 -0.72320807432E+02  0.38259610853E+02 -0.40866661859E+01  0.82054176315E+02  0.47000000000E+01 0.  1.
         13    1    4    4    0    0  0.10814501551E+02 -0.42754846146E+02  0.43977701007E+02  0.62281365581E+02  0.00000000000E+00 0. -1.
        -14    1    4    4    0    0 -0.11829984752E+02 -0.29299107015E+02 -0.32516838142E+02  0.45340169540E+02  0.00000000000E+00 0.  1.
</event>
<event>
12    1  0.8258923E-002  0.2659092E+03  0.7818608E-02  0.1103960E+00
         21   -1    0    0  501  502  0.00000000000E+00  0.00000000000E+00  0.76800217743E+03  0.76800217743E+03  0.00000000000E+00 0.  1.
         21   -1    0    0  502  503 -0.00000000000E+00 -0.00000000000E+00 -0.13157101374E+03  0.13157101374E+03  0.00000000000E+00 0. -1.
         -6    2    1    2    0  503  0.15813594480E+03  0.12632577097E+03  0.70341970710E+02  0.27505578243E+03  0.17246017846E+03 0.  0.
        -24    2    3    3    0    0  0.72154127178E+02  0.12966046674E+03  0.66745067934E+01  0.16791275130E+03  0.78307651637E+02 0.  0.
          6    2    1    2  501    0 -0.15813594480E+03 -0.12632577097E+03  0.56608919299E+03  0.62451740874E+03  0.16911487799E+03 0.  0.
         24    2    5    5    0    0 -0.36990269045E+02 -0.71905950552E+01  0.13492503021E+03  0.16105857545E+03  0.79467705942E+02 0.  0.
          5    1    5    5  501    0 -0.12114567575E+03 -0.11913517591E+03  0.43116416278E+03  0.46345883329E+03  0.47000000000E+01 0. -1.
        -11    1    6    6    0    0 -0.54745406289E+02  0.17249930359E+02  0.81493979894E+02  0.99678926389E+02  0.00000000000E+00 0.  1.
         12    1    6    6    0    0  0.17755137243E+02 -0.24440525414E+02  0.53431050315E+02  0.61379649061E+02  0.00000000000E+00 0. -1.
         -5    1    3    3    0  503  0.85981817619E+02 -0.33346957741E+01  0.63667463916E+02  0.10714303112E+03  0.47000000000E+01 0.  1.
         13    1    4    4    0    0  0.72534624478E+02  0.74041588780E+02 -0.21048958497E+02  0.10576619153E+03  0.00000000000E+00 0. -1.
        -14    1    4    4    0    0 -0.38049729971E+00  0.55618877959E+02  0.27723465290E+02  0.62146559771E+02  0.00000000000E+00 0.  1.
</event>
<event>
12    1  0.8258923E-002  0.2777274E+03  0.7818608E-02  0.1097119E+00
         21   -1    0    0  501  502  0.00000000000E+00  0.00000000000E+00  0.22714947694E+03  0.22714947694E+03  0.00000000000E+00 0.  1.
         21   -1    0    0  502  503 -0.00000000000E+00 -0.00000000000E+00 -0.38257207813E+03  0.38257207813E+03  0.00000000000E+00 0.  1.
         -6    2    1    2    0  503 -0.14882689464E+03 -0.15876700525E+03 -0.18198056837E+03  0.33203833219E+03  0.17255758533E+03 0.  0.
        -24    2    3    3    0    0 -0.92930257965E+01 -0.24302708987E+02 -0.45204774544E+02  0.94804154002E+02  0.79166747956E+02 0.  0.
          6    2    1    2  501    0  0.14882689464E+03  0.15876700525E+03  0.26557967192E+02  0.27768322288E+03  0.17042957525E+03 0.  0.
         24    2    5    5    0    0  0.90998788330E+02  0.26063191716E+02  0.44384604763E+02  0.13175765619E+03  0.80187389188E+02 0.  0.
          5    1    5    5  501    0  0.57828106310E+02  0.13270381353E+03 -0.17826637572E+02  0.14592556669E+03  0.47000000000E+01 0. -1.
        -13    1    6    6    0    0  0.88926256382E+02  0.32599223424E+02  0.61765418375E+02  0.11307323003E+03  0.00000000000E+00 0.  1.
         14    1    6    6    0    0  0.20725319476E+01 -0.65360317086E+01 -0.17380813612E+02  0.18684426161E+02  0.00000000000E+00 0. -1.
         -5    1    3    3    0  503 -0.13953386884E+03 -0.13446429626E+03 -0.13677579383E+03  0.23723417819E+03  0.47000000000E+01 0.  1.
         11    1    4    4    0    0 -0.44161945442E+01 -0.43776583455E+01  0.22872904271E+02  0.23703088757E+02  0.00000000000E+00 0. -1.
        -12    1    4    4    0    0 -0.48768312524E+01 -0.19925050641E+02 -0.68077678815E+02  0.71101065245E+02  0.00000000000E+00 0.  1.
</event>
<event>
12    1  0.8258923E-002  0.1732006E+03  0.7818608E-02  0.1174578E+00
         21   -1    0    0  503  502  0.00000000000E+00  0.00000000000E+00  0.35689094283E+03  0.35689094283E+03  0.00000000000E+00 0.  1.
         21   -1    0    0  501  503 -0.00000000000E+00 -0.00000000000E+00 -0.20908010542E+03  0.20908010542E+03  0.00000000000E+00 0.  1.
          6    2    1    2  501    0  0.32065647416E+01  0.22073087853E+02 -0.14498011460E+03  0.22578730519E+03  0.17164839146E+03 0.  0.
         24    2    3    3    0    0 -0.25551296150E+02 -0.41258702311E+02 -0.38421780187E+02  0.98450355165E+02  0.76557755896E+02 0.  0.
         -6    2    1    2    0  502 -0.32065647416E+01 -0.22073087853E+02  0.29279095202E+03  0.34018374306E+03  0.17175835989E+03 0.  0.
        -24    2    5    5    0    0  0.19988058716E+02  0.50031588788E+02  0.18410916317E+03  0.20762848599E+03  0.79440051992E+02 0.  0.
          5    1    3    3  501    0  0.28757860892E+02  0.63331790164E+02 -0.10655833442E+03  0.12733695003E+03  0.47000000000E+01 0. -1.
        -13    1    4    4    0    0 -0.22084968292E+02  0.19640572070E+02 -0.14617651886E+02  0.32972316303E+02  0.00000000000E+00 0.  1.
         14    1    4    4    0    0 -0.34663278584E+01 -0.60899274381E+02 -0.23804128301E+02  0.65478038862E+02  0.00000000000E+00 0. -1.
         -5    1    5    5    0  502 -0.23194623458E+02 -0.72104676641E+02  0.10868178884E+03  0.13255525707E+03  0.47000000000E+01 0.  1.
         11    1    6    6    0    0 -0.44940922864E+00  0.25113933703E+02  0.49590342847E+01  0.25602805622E+02  0.00000000000E+00 0. -1.
        -12    1    6    6    0    0  0.20437467945E+02  0.24917655085E+02  0.17915012889E+03  0.18202568036E+03  0.00000000000E+00 0.  1.
</event>
<event>
12    1  0.8258923E-002  0.2086140E+03  0.7818608E-02  0.1142809E+00
         21   -1    0    0  501  502  0.00000000000E+00  0.00000000000E+00  0.40862422153E+03  0.40862422153E+03  0.00000000000E+00 0. -1.
         21   -1    0    0  502  503 -0.00000000000E+00 -0.00000000000E+00 -0.14816762031E+03  0.14816762031E+03  0.00000000000E+00 0.  1.
         -6    2    1    2    0  503 -0.11855368532E+03  0.38174696379E+01 -0.17875622055E+02  0.20937848883E+03  0.17161079320E+03 0.  0.
        -24    2    3    3    0    0 -0.47993145135E+02  0.66263361464E+02 -0.90368803594E+01  0.11462358082E+03  0.79766691171E+02 0.  0.
          6    2    1    2  501    0  0.11855368532E+03 -0.38174696379E+01  0.27833222327E+03  0.34741335302E+03  0.17075614767E+03 0.  0.
         24    2    5    5    0    0  0.91614459514E+02  0.22697848448E+02  0.10204916475E+03  0.16706205499E+03  0.92667667899E+02 0.  0.
          5    1    5    5  501    0  0.26939225803E+02 -0.26515318086E+02  0.17628305852E+03  0.18035129803E+03  0.47000000000E+01 0. -1.
        -13    1    6    6    0    0  0.55466130333E+02  0.55341430526E+02  0.39383345748E+02  0.87693862209E+02  0.00000000000E+00 0.  1.
         14    1    6    6    0    0  0.36148329181E+02 -0.32643582079E+02  0.62665819004E+02  0.79368192779E+02  0.00000000000E+00 0. -1.
         -5    1    3    3    0  503 -0.70560540182E+02 -0.62445891826E+02 -0.88387416957E+01  0.94754908008E+02  0.47000000000E+01 0.  1.
         13    1    4    4    0    0 -0.75184396664E+01 -0.30089343077E+01  0.25885425598E+02  0.27122608265E+02  0.00000000000E+00 0. -1.
        -14    1    4    4    0    0 -0.40474705468E+02  0.69272295772E+02 -0.34922305958E+02  0.87500972553E+02  0.00000000000E+00 0.  1.
</event>
<event>
12    1  0.8258923E-002  0.1793029E+03  0.7818608E-02  0.1168560E+00
         21   -1    0    0  503  502  0.00000000000E+00  0.00000000000E+00  0.22267530675E+03  0.22267530675E+03  0.00000000000E+00 0. -1.
         21   -1    0    0  501  503 -0.00000000000E+00 -0.00000000000E+00 -0.14890852727E+03  0.14890852727E+03  0.00000000000E+00 0. -1.
          6    2    1    2  501    0 -0.45655800246E+01 -0.49654450192E+02  0.35752208003E+01  0.17933855062E+03  0.17222985975E+03 0.  0.
         24    2    3    3    0    0  0.45969225848E+02  0.88097414698E+01  0.36953740228E+02  0.95029334809E+02  0.73987933391E+02 0.  0.
         -6    2    1    2    0  502  0.45655800246E+01  0.49654450192E+02  0.70191558678E+02  0.19224528340E+03  0.17188654728E+03 0.  0.
        -24    2    5    5    0    0  0.48503349373E+02  0.17850038790E+01 -0.42615707388E+01  0.93314146013E+02  0.79583966486E+02 0.  0.
          5    1    3    3  501    0 -0.50534805873E+02 -0.58464191661E+02 -0.33378519428E+02  0.84309215809E+02  0.47000000000E+01 0. -1.
        -11    1    4    4    0    0  0.22993170136E+02  0.35448123882E+02  0.41899969703E+02  0.59505149531E+02  0.00000000000E+00 0.  1.
         12    1    4    4    0    0  0.22976055712E+02 -0.26638382412E+02 -0.49462294751E+01  0.35524185277E+02  0.00000000000E+00 0. -1.
         -5    1    5    5    0  502 -0.43937769349E+02  0.47869446313E+02  0.74453129416E+02  0.98931137391E+02  0.47000000000E+01 0.  1.
         13    1    6    6    0    0  0.46464126584E+02  0.35604628502E+02 -0.85664658557E+01  0.59160704587E+02  0.00000000000E+00 0. -1.
        -14    1    6    6    0    0  0.20392227894E+01 -0.33819624623E+02  0.43048951169E+01  0.34153441426E+02  0.00000000000E+00 0.  1.
</event>
<event>
12    1  0.8258923E-002  0.2492353E+03  0.7818608E-02  0.1113791E+00
         21   -1    0    0  503  502  0.00000000000E+00  0.00000000000E+00  0.16988735760E+04  0.16988735760E+04  0.00000000000E+00 0. -1.
         21   -1    0    0  501  503 -0.00000000000E+00 -0.00000000000E+00 -0.36615341111E+02  0.36615341111E+02  0.00000000000E+00 0.  1.
          6    2    1    2  501    0 -0.11266613109E+03 -0.14106097020E+03  0.86403754154E+03  0.89926256114E+03  0.17181509323E+03 0.  0.
         24    2    3    3    0    0  0.10178988272E+02 -0.62249698913E+02  0.39496074577E+03  0.40798130751E+03  0.80474342260E+02 0.  0.
         -6    2    1    2    0  502  0.11266613109E+03  0.14106097020E+03  0.79822069337E+03  0.83622635600E+03  0.17183244377E+03 0.  0.
        -24    2    5    5    0    0  0.54906635866E+02  0.11189686383E+03  0.30612325724E+03  0.33987095809E+03  0.79152844111E+02 0.  0.
          5    1    3    3  501    0 -0.12284511936E+03 -0.78811271287E+02  0.46907679577E+03  0.49128125362E+03  0.47000000000E+01 0. -1.
        -11    1    4    4    0    0 -0.30717087961E+02 -0.33475062940E+02  0.26237215957E+03  0.26627667838E+03  0.00000000000E+00 0.  1.
         12    1    4    4    0    0  0.40896076233E+02 -0.28774635973E+02  0.13258858620E+03  0.14170462913E+03  0.00000000000E+00 0. -1.
         -5    1    5    5    0  502  0.57759495223E+02  0.29164106369E+02  0.49209743613E+03  0.49635539791E+03  0.47000000000E+01 0.  1.
         11    1    6    6    0    0  0.35356556281E+02  0.77009966763E+02  0.27891069609E+03  0.29149922374E+03  0.00000000000E+00 0. -1.
        -12    1    6    6    0    0  0.19550079586E+02  0.34886897067E+02  0.27212561155E+02  0.48371734344E+02  0.00000000000E+00 0.  1.
</event>
<event>
12    1  0.8258923E-002  0.2448541E+03  0.7818608E-02  0.1116651E+00
         21   -1    0    0  503  502  0.00000000000E+00  0.00000000000E+00  0.37688747735E+04  0.37688747735E+04  0.00000000000E+00 0.  1.
         21   -1    0    0  501  503 -0.00000000000E+00 -0.00000000000E+00 -0.57054197996E+02  0.57054197996E+02  0.00000000000E+00 0. -1.
          6    2    1    2  501    0 -0.45220395650E+02 -0.16792766387E+03  0.23064429379E+03  0.33615221421E+03  0.17192130870E+03 0.  0.
         24    2    3    3    0    0 -0.61537412644E+02 -0.30349404296E+02  0.11568318048E+03  0.15606287492E+03  0.79152278479E+02 0.  0.
         -6    2    1    2    0  502  0.45220395650E+02  0.16792766387E+03  0.34811762817E+04  0.34897767573E+04  0.17236277688E+03 0.  0.
        -24    2    5    5    0    0  0.19949483971E+02  0.17066130655E+03  0.21526656207E+04  0.21610146423E+04  0.80571373663E+02 0.  0.
          5    1    3    3  501    0  0.16317016993E+02 -0.13757825957E+03  0.11496111332E+03  0.18008933929E+03  0.47000000000E+01 0. -1.
        -11    1    4    4    0    0 -0.73753246110E+02 -0.41852467146E+02  0.79771185897E+02  0.11642427761E+03  0.00000000000E+00 0.  1.
         12    1    4    4    0    0  0.12215833466E+02  0.11503062850E+02  0.35911994580E+02  0.39638597313E+02  0.00000000000E+00 0. -1.
         -5    1    5    5    0  502  0.25270911679E+02 -0.27336426788E+01  0.13285106611E+04  0.13287621150E+04  0.47000000000E+01 0.  1.
         13    1    6    6    0    0 -0.15633065956E+02  0.54424688630E+02  0.38116587516E+03  0.38534901566E+03  0.00000000000E+00 0. -1.
        -14    1    6    6    0    0  0.35582549927E+02  0.11623661792E+03  0.17714997455E+04  0.17756656266E+04  0.00000000000E+00 0.  1.
</event>
<event>
12    1  0.8258923E-002  0.2962625E+03  0.7818608E-02  0.1087503E+00
         21   -1    0    0  501  502  0.00000000000E+00  0.00000000000E+00  0.73504203603E+03  0.73504203603E+03  0.00000000000E+00 0.  1.
         21   -1    0    0  502  503 -0.00000000000E+00 -0.00000000000E+00 -0.11937323534E+03  0.11937323534E+03  0.00000000000E+00 0.  1.
         -6    2    1    2    0  503  0.37438449048E+02  0.23790134305E+03  0.35141089529E+03  0.45963146018E+03  0.17254789298E+03 0.  0.
        -24    2    3    3    0    0 -0.18158002966E+02  0.22501288410E+03  0.28969584442E+03  0.37544170217E+03  0.77924825137E+02 0.  0.
          6    2    1    2  501    0 -0.37438449048E+02 -0.23790134305E+03  0.26425790541E+03  0.39478381118E+03  0.16740170403E+03 0.  0.
         24    2    5    5    0    0 -0.45870943310E+02 -0.25621357041E+03  0.24368804489E+03  0.36560070319E+03  0.80811347276E+02 0.  0.
          5    1    5    5  501    0  0.84324942619E+01  0.18312227361E+02  0.20569860521E+02  0.29183107995E+02  0.47000000000E+01 0. -1.
        -11    1    6    6    0    0 -0.17811354586E+02 -0.10352190431E+03  0.15367366494E+03  0.18614409558E+03  0.00000000000E+00 0.  1.
         12    1    6    6    0    0 -0.28059588725E+02 -0.15269166610E+03  0.90014379946E+02  0.17945660761E+03  0.00000000000E+00 0. -1.
         -5    1    3    3    0  503  0.55596452014E+02  0.12888458954E+02  0.61715050870E+02  0.84189758016E+02  0.47000000000E+01 0.  1.
         11    1    4    4    0    0 -0.19885934539E+02  0.19411538687E+02  0.65980861219E+02  0.71594219556E+02  0.00000000000E+00 0. -1.
        -12    1    4    4    0    0  0.17279315723E+01  0.20560134541E+03  0.22371498320E+03  0.30384748261E+03  0.00000000000E+00 0.  1.
</event>
<event>
12    1  0.8258923E-002  0.2324988E+03  0.7818608E-02  0.1126371E+00
         21   -1    0    0  503  502  0.00000000000E+00  0.00000000000E+00  0.17900203058E+03  0.17900203058E+03  0.00000000000E+00 0.  1.
         21   -1    0    0  501  503 -0.00000000000E+00 -0.00000000000E+00 -0.36565382972E+03  0.36565382972E+03  0.00000000000E+00 0. -1.
          6    2    1    2  501    0 -0.15575884455E+03 -0.36177381285E+00 -0.21480890940E+03  0.31045825612E+03  0.16118471608E+03 0.  0.
         24    2    3    3    0    0 -0.99829320153E+02 -0.58528775979E+02 -0.11506207639E+03  0.18207199308E+03  0.80742915865E+02 0.  0.
         -6    2    1    2    0  502  0.15575884455E+03  0.36177381285E+00  0.28157110258E+02  0.23419760418E+03  0.17261154773E+03 0.  0.
        -24    2    5    5    0    0  0.45862767620E+02 -0.12442358717E+02  0.61225486194E+02  0.11862640958E+03  0.89807901355E+02 0.  0.
          5    1    3    3  501    0 -0.55929524396E+02  0.58167002166E+02 -0.99746833010E+02  0.12838626303E+03  0.47000000000E+01 0. -1.
        -13    1    4    4    0    0 -0.58275518798E+00 -0.24745548937E+02  0.21128023593E+01  0.24842417950E+02  0.00000000000E+00 0.  1.
         14    1    4    4    0    0 -0.99246564965E+02 -0.33783227042E+02 -0.11717487875E+03  0.15722957513E+03  0.00000000000E+00 0. -1.
         -5    1    5    5    0  502  0.10989607693E+03  0.12804132529E+02 -0.33068375936E+02  0.11557119460E+03  0.47000000000E+01 0.  1.
         11    1    6    6    0    0  0.96618024947E+01  0.30963692503E+02 -0.35834259203E+01  0.32633443309E+02  0.00000000000E+00 0. -1.
        -12    1    6    6    0    0  0.36200965125E+02 -0.43406051220E+02  0.64808912114E+02  0.85992966270E+02  0.00000000000E+00 0.  1.
</event>
<event>
12    1  0.8258923E-002  0.2531024E+03  0.7818608E-02  0.1111564E+00
         21   -1    0    0  503  502  0.00000000000E+00  0.00000000000E+00  0.24458639298E+03  0.24458639298E+03  0.00000000000E+00 0.  1.
         21   -1    0    0  501  503 -0.00000000000E+00 -0.00000000000E+00 -0.34840098903E+03  0.34840098903E+03  0.00000000000E+00 0.  1.
          6    2    1    2  501    0 -0.14138752424E+03 -0.11891933095E+03 -0.20088513277E+03  0.32313410908E+03  0.17299877629E+03 0.  0.
         24    2    3    3    0    0 -0.13811452203E+03 -0.12133459244E+03 -0.22346497163E+03  0.29971434917E+03  0.78066593579E+02 0.  0.
         -6    2    1    2    0  502  0.14138752424E+03  0.11891933095E+03  0.97070536726E+02  0.26985327293E+03  0.17107267615E+03 0.  0.
        -24    2    5    5    0    0  0.34315829762E+02  0.10165238695E+03  0.88043681169E+02  0.16092178421E+03  0.81445361405E+02 0.  0.
          5    1    3    3  501    0 -0.32730022064E+01  0.24152614859E+01  0.22579838858E+02  0.23419759912E+02  0.47000000000E+01 0. -1.
        -11    1    4    4    0    0 -0.57408803532E+02 -0.77603258663E+01 -0.45303857317E+02  0.73542048301E+02  0.00000000000E+00 0.  1.
         12    1    4    4    0    0 -0.80705718502E+02 -0.11357426657E+03 -0.17816111431E+03  0.22617230087E+03  0.00000000000E+00 0. -1.
         -5    1    5    5    0  502  0.10707169448E+03  0.17266944010E+02  0.90268555562E+01  0.10893148872E+03  0.47000000000E+01 0.  1.
         11    1    6    6    0    0  0.74555354817E+00  0.50087916325E+02 -0.39489033874E+01  0.50248871130E+02  0.00000000000E+00 0. -1.
        -12    1    6    6    0    0  0.33570276214E+02  0.51564470621E+02  0.91992584557E+02  0.11067291308E+03  0.00000000000E+00 0.  1.
</event>
<event>
12    1  0.8258923E-002  0.2327738E+03  0.7818608E-02  0.1124961E+00
         21   -1    0    0  503  502  0.00000000000E+00  0.00000000000E+00  0.27355425903E+03  0.27355425903E+03  0.00000000000E+00 0. -1.
         21   -1    0    0  501  503 -0.00000000000E+00 -0.00000000000E+00 -0.46915533186E+03  0.46915533186E+03  0.00000000000E+00 0. -1.
          6    2    1    2  501    0  0.28016133532E+02  0.15336621335E+03 -0.38060526548E+03  0.44537109209E+03  0.17084771705E+03 0.  0.
         24    2    3    3    0    0  0.43628321080E+02  0.64402884099E+02 -0.90607895123E+02  0.14159686809E+03  0.76083641564E+02 0.  0.
         -6    2    1    2    0  502 -0.28016133532E+02 -0.15336621335E+03  0.18500419265E+03  0.29733849880E+03  0.17285118581E+03 0.  0.
        -24    2    5    5    0    0 -0.47861720158E+02 -0.37079750521E+02  0.33933899001E+02  0.10560766568E+03  0.79597847924E+02 0.  0.
          5    1    3    3  501    0 -0.15612187548E+02  0.88963329247E+02 -0.28999737036E+03  0.30377422400E+03  0.47000000000E+01 0. -1.
        -13    1    4    4    0    0  0.41718965185E+02  0.54319011418E+02 -0.10412097549E+03  0.12462826563E+03  0.00000000000E+00 0.  1.
         14    1    4    4    0    0  0.19093558952E+01  0.10083872681E+02  0.13513080370E+02  0.16968602455E+02  0.00000000000E+00 0. -1.
         -5    1    5    5    0  502  0.19845586626E+02 -0.11628646283E+03  0.15107029365E+03  0.19173083312E+03  0.47000000000E+01 0.  1.
         13    1    6    6    0    0 -0.46989745109E+02 -0.53662720869E+02  0.46181921402E+02  0.84973487753E+02  0.00000000000E+00 0. -1.
        -14    1    6    6    0    0 -0.87197504898E+00  0.16582970348E+02 -0.12248022401E+02  0.20634177929E+02  0.00000000000E+00 0.  1.
</event>
<event>
12    1  0.8258923E-002  0.1824740E+03  0.7818608E-02  0.1166101E+00
         21   -1    0    0  501  502  0.00000000000E+00  0.00000000000E+00  0.75064030684E+02  0.75064030684E+02  0.00000000000E+00 0.  1.
         21   -1    0    0  502  503 -0.00000000000E+00 -0.00000000000E+00 -0.14375175879E+04  0.14375175879E+04  0.00000000000E+00 0.  1.
         -6    2    1    2    0  503  0.60879802798E+02  0.10029344120E+02 -0.13106338327E+04  0.13228922411E+04  0.16874803699E+03 0.  0.
        -24    2    3    3    0    0  0.70139946489E+02 -0.47651073263E+02 -0.74665535605E+03  0.75587672725E+03  0.81640487538E+02 0.  0.
          6    2    1    2  501    0 -0.60879802798E+02 -0.10029344120E+02 -0.51819724534E+02  0.18968937751E+03  0.17172605498E+03 0.  0.
         24    2    5    5    0    0 -0.23577328260E-01  0.52431540743E+02 -0.27998195710E+02  0.99166465761E+02  0.79378976738E+02 0.  0.
          5    1    5    5  501    0 -0.60856225469E+02 -0.62460884862E+02 -0.23821528824E+02  0.90522911750E+02  0.47000000000E+01 0. -1.
        -11    1    6    6    0    0 -0.15353455714E+02 -0.16946951385E+02 -0.19518599677E+00  0.22868446847E+02  0.00000000000E+00 0.  1.
         12    1    6    6    0    0  0.15329878386E+02  0.69378492127E+02 -0.27803009713E+02  0.76298018915E+02  0.00000000000E+00 0. -1.
         -5    1    3    3    0  503 -0.92601436916E+01  0.57680417382E+02 -0.56397847663E+03  0.56701551382E+03  0.47000000000E+01 0.  1.
         11    1    4    4    0    0  0.42021749194E+02  0.12960023684E+02 -0.17990897533E+03  0.18520536986E+03  0.00000000000E+00 0. -1.
        -12    1    4    4    0    0  0.28118197295E+02 -0.60611096947E+02 -0.56674638071E+03  0.57067135739E+03  0.00000000000E+00 0.  1.
</event>
<event>
12    1  0.8258923E-002  0.1914498E+03  0.7818608E-02  0.1157425E+00
         21   -1    0    0  501  502  0.00000000000E+00  0.00000000000E+00  0.77222776688E+02  0.77222776688E+02  0.00000000000E+00 0.  1.
         21   -1    0    0  502  503 -0.00000000000E+00 -0.00000000000E+00 -0.47179474721E+03  0.47179474721E+03  0.00000000000E+00 0.  1.
         -6    2    1    2    0  503 -0.19742251451E+02 -0.78472228193E+02 -0.20159721222E+03  0.27801883209E+03  0.17350904280E+03 0.  0.
        -24    2    3    3    0    0 -0.22640036946E+01 -0.13589105392E+02 -0.19317299223E+03  0.21013388346E+03  0.81551545356E+02 0.  0.
          6    2    1    2  501    0  0.19742251451E+02  0.78472228193E+02 -0.19297475829E+03  0.27099869180E+03  0.17220158689E+03 0.  0.
         24    2    5    5    0    0 -0.26322110283E+02  0.99040373820E+02 -0.17369359627E+03  0.21678774046E+03  0.79533702868E+02 0.  0.
          5    1    5    5  501    0  0.46064361733E+02 -0.20568145627E+02 -0.19281162026E+02  0.54210951343E+02  0.47000000000E+01 0. -1.
        -11    1    6    6    0    0 -0.40102961216E+02  0.39590297743E+02 -0.13012958548E+03  0.14180743348E+03  0.00000000000E+00 0.  1.
         12    1    6    6    0    0  0.13780850933E+02  0.59450076077E+02 -0.43564010786E+02  0.74980306973E+02  0.00000000000E+00 0. -1.
         -5    1    3    3    0  503 -0.17478247756E+02 -0.64883122801E+02 -0.84242199912E+01  0.67884948637E+02  0.47000000000E+01 0.  1.
         11    1    4    4    0    0  0.31305682557E+02 -0.10785392157E+02 -0.15799701219E+03  0.16142932294E+03  0.00000000000E+00 0. -1.
        -12    1    4    4    0    0 -0.33569686252E+02 -0.28037132350E+01 -0.35175980044E+02  0.48704560515E+02  0.00000000000E+00 0.  1.
</event>
<event>
12    1  0.8258923E-002  0.3216622E+03  0.7818608E-02  0.1075107E+00
         21   -1    0    0  503  502  0.00000000000E+00  0.00000000000E+00  0.29469029085E+03  0.29469029085E+03  0.00000000000E+00 0.  1.
         21   -1    0    0  501  503 -0.00000000000E+00 -0.00000000000E+00 -0.36584766706E+03  0.36584766706E+03  0.00000000000E+00 0.  1.
          6    2    1    2  501    0  0.16602777458E+03  0.21335983273E+03 -0.10654194480E+03  0.33884772327E+03  0.17429559205E+03 0.  0.
         24    2    3    3    0    0  0.11689595693E+02  0.69926076516E+02 -0.11094010253E+02  0.10749104173E+03  0.80030895059E+02 0.  0.
         -6    2    1    2    0  502 -0.16602777458E+03 -0.21335983273E+03  0.35384568586E+02  0.32169023465E+03  0.17071877231E+03 0.  0.
        -24    2    5    5    0    0 -0.36395914043E+02 -0.15439307237E+03  0.21792279795E+02  0.17855275386E+03  0.79020877595E+02 0.  0.
          5    1    3    3  501    0  0.15433817888E+03  0.14343375622E+03 -0.95447934543E+02  0.23135668154E+03  0.47000000000E+01 0. -1.
        -13    1    4    4    0    0  0.44993027392E+02  0.28501844402E+02 -0.10767806845E+02  0.54338506719E+02  0.00000000000E+00 0.  1.
         14    1    4    4    0    0 -0.33303431699E+02  0.41424232115E+02 -0.32620340717E+00  0.53152535009E+02  0.00000000000E+00 0. -1.
         -5    1    5    5    0  502 -0.12963186053E+03 -0.58966760365E+02  0.13592288791E+02  0.14313748079E+03  0.47000000000E+01 0.  1.
         11    1    6    6    0    0  0.19834962103E+02 -0.10861930158E+02 -0.14351019561E+01  0.22659805074E+02  0.00000000000E+00 0. -1.
        -12    1    6    6    0    0 -0.56230876146E+02 -0.14353114221E+03  0.23227381751E+02  0.15589294878E+03  0.00000000000E+00 0.  1.
</event>
<event>
12    1  0.8258923E-002  0.2072069E+03  0.7818608E-02  0.1144196E+00
         21   -1    0    0  501  502  0.00000000000E+00  0.00000000000E+00  0.20595740176E+02  0.20595740176E+02  0.00000000000E+00 0. -1.
         21   -1    0    0  502  503 -0.00000000000E+00 -0.00000000000E+00 -0.22648915723E+04  0.22648915723E+04  0.00000000000E+00 0. -1.
         -6    2    1    2    0  503  0.11598245177E+03 -0.15489332472E+02 -0.14666462690E+04  0.14812109807E+04  0.17100538723E+03 0.  0.
        -24    2    3    3    0    0  0.10165995653E+03 -0.55041567832E+02 -0.13468335236E+04  0.13541413260E+04  0.79836517317E+02 0.  0.
          6    2    1    2  501    0 -0.11598245177E+03  0.15489332472E+02 -0.77764956315E+03  0.80427633180E+03  0.16861116890E+03 0.  0.
         24    2    5    5    0    0 -0.11033561919E+02 -0.17429624582E+02 -0.20122331694E+03  0.21743117800E+03  0.79749373560E+02 0.  0.
          5    1    5    5  501    0 -0.10494888985E+03  0.32918957054E+02 -0.57642624621E+03  0.58684515380E+03  0.47000000000E+01 0. -1.
        -13    1    6    6    0    0  0.81228282306E+01 -0.19679847087E+02 -0.19639807570E+03  0.19754867972E+03  0.00000000000E+00 0.  1.
         14    1    6    6    0    0 -0.19156390150E+02  0.22502225046E+01 -0.48252412436E+01  0.19882498282E+02  0.00000000000E+00 0. -1.
         -5    1    3    3    0  503  0.14322495235E+02  0.39552235360E+02 -0.11981274543E+03  0.12706965476E+03  0.47000000000E+01 0.  1.
         11    1    4    4    0    0  0.49807380016E+02  0.87505647498E+01 -0.74568938450E+03  0.74740217128E+03  0.00000000000E+00 0. -1.
        -12    1    4    4    0    0  0.51852576515E+02 -0.63792132582E+02 -0.60114413908E+03  0.60673915468E+03  0.00000000000E+00 0.  1.
</event>
<event>
12    1  0.8258923E-002  0.3021706E+03  0.7818608E-02  0.1084988E+00
         21   -1    0    0  503  502  0.00000000000E+00  0.00000000000E+00  0.25049034933E+03  0.25049034933E+03  0.00000000000E+00 0. -1.
         21   -1    0    0  501  503 -0.00000000000E+00 -0.00000000000E+00 -0.55312731196E+03  0.55312731196E+03  0.00000000000E+00 0.  1.
          6    2    1    2  501    0  0.23919401653E+03  0.18411888867E+02 -0.39190010138E+03  0.49486641294E+03  0.18372343888E+03 0.  0.
         24    2    3    3    0    0  0.25823052053E+03  0.39292578143E+02 -0.35969632296E+03  0.45176693483E+03  0.80529561139E+02 0.  0.
         -6    2    1    2    0  502 -0.23919401653E+03 -0.18411888867E+02  0.89263138754E+02  0.30875124835E+03  0.17264602580E+03 0.  0.
        -24    2    5    5    0    0 -0.24349839866E+03  0.14564055210E+02  0.56563175702E+02  0.26187568781E+03  0.76654426909E+02 0.  0.
          5    1    3    3  501    0 -0.19036503999E+02 -0.20880689276E+02 -0.32203778420E+02  0.43099478113E+02  0.47000000000E+01 0. -1.
        -13    1    4    4    0    0  0.96825881874E+02 -0.16365787557E+02 -0.17182891098E+03  0.19790973966E+03  0.00000000000E+00 0.  1.
         14    1    4    4    0    0  0.16140463866E+03  0.55658365699E+02 -0.18786741198E+03  0.25385719516E+03  0.00000000000E+00 0. -1.
         -5    1    5    5    0  502  0.43043821246E+01 -0.32975944077E+02  0.32699963052E+02  0.46875560549E+02  0.47000000000E+01 0.  1.
         11    1    6    6    0    0 -0.16437103012E+03 -0.25529365283E+02  0.45717042736E+02  0.17250980271E+03  0.00000000000E+00 0. -1.
        -12    1    6    6    0    0 -0.79127368537E+02  0.40093420493E+02  0.10846132967E+02  0.89365885094E+02  0.00000000000E+00 0.  1.
</event>
<event>
12    1  0.8258923E-002  0.1879888E+03  0.7818608E-02  0.1160970E+00
         21   -1    0    0  503  502  0.00000000000E+00  0.00000000000E+00  0.11327085143E+03  0.11327085143E+03  0.00000000000E+00 0. -1.
         21   -1    0    0  501  503 -0.00000000000E+00 -0.00000000000E+00 -0.43982226569E+03  0.43982226569E+03  0.00000000000E+00 0. -1.
          6    2    1    2  501    0  0.48836857435E+02  0.46419920357E+02 -0.31609244850E+03  0.36776927331E+03  0.17549915881E+03 0.  0.
         24    2    3    3    0    0  0.28823689215E+02 -0.33030418447E+02 -0.85439562572E+02  0.12295153085E+03  0.76781159687E+02 0.  0.
         -6    2    1    2    0  502 -0.48836857435E+02 -0.46419920357E+02 -0.10458965753E+02  0.18532384380E+03  0.17232437282E+03 0.  0.
        -24    2    5    5    0    0 -0.81818522279E+02 -0.66838699338E+02 -0.35266978308E+02  0.13903945942E+03  0.83225772441E+02 0.  0.
          5    1    3    3  501    0  0.20013168220E+02  0.79450338803E+02 -0.23065288593E+03  0.24481774247E+03  0.47000000000E+01 0. -1.
        -13    1    4    4    0    0 -0.22165430563E+02  0.66910576075E+01 -0.16368101233E+02  0.28354740379E+02  0.00000000000E+00 0.  1.
         14    1    4    4    0    0  0.50989119779E+02 -0.39721476054E+02 -0.69071461339E+02  0.94596790470E+02  0.00000000000E+00 0. -1.
         -5    1    5    5    0  502  0.32981664844E+02  0.20418778982E+02  0.24808012555E+02  0.46284384385E+02  0.47000000000E+01 0.  1.
         13    1    6    6    0    0 -0.42959628765E+02 -0.66696114546E+02  0.93379259147E+01  0.79881776768E+02  0.00000000000E+00 0. -1.
        -14    1    6    6    0    0 -0.38858893514E+02 -0.14258479204E+00 -0.44604904223E+02  0.59157682648E+02  0.00000000000E+00 0.  1.
</event>
<event>
12    1  0.8258923E-002  0.2151540E+03  0.7818608E-02  0.1137781E+00
         21   -1    0    0  503  502  0.00000000000E+00  0.00000000000E+00  0.14985486798E+03  0.14985486798E+03  0.00000000000E+00 0. -1.
         21   -1    0    0  501  503 -0.00000000000E+00 -0.00000000000E+00 -0.30733399811E+03  0.30733399811E+03  0.00000000000E+00 0. -1.
          6    2    1    2  501    0  0.81897299756E+02  0.10140094735E+03 -0.84182826334E+02  0.23103674563E+03  0.17117800603E+03 0.  0.
         24    2    3    3    0    0 -0.52431966741E+01  0.80336238668E+02 -0.84957389475E+01  0.11361522602E+03  0.79717248121E+02 0.  0.
         -6    2    1    2    0  502 -0.81897299756E+02 -0.10140094735E+03 -0.73296303791E+02  0.22615212047E+03  0.16965586819E+03 0.  0.
        -24    2    5    5    0    0 -0.11597556788E+03 -0.10427793938E+03 -0.76303012928E+02  0.19150048644E+03  0.80784067356E+02 0.  0.
          5    1    3    3  501    0  0.87140496431E+02  0.21064708684E+02 -0.75687087387E+02  0.11742151961E+03  0.47000000000E+01 0. -1.
        -11    1    4    4    0    0 -0.12042530343E+02  0.25127247145E+02  0.33749723793E+02  0.43765796488E+02  0.00000000000E+00 0.  1.
         12    1    4    4    0    0  0.67993336684E+01  0.55208991523E+02 -0.42245462741E+02  0.69849429529E+02  0.00000000000E+00 0. -1.
         -5    1    5    5    0  502  0.34078268119E+02  0.28769920289E+01  0.30067091373E+01  0.34651634030E+02  0.47000000000E+01 0.  1.
         11    1    6    6    0    0 -0.69293749068E+02 -0.57687747079E+02 -0.86282426014E+02  0.12479646174E+03  0.00000000000E+00 0. -1.
        -12    1    6    6    0    0 -0.46681818807E+02 -0.46590192302E+02  0.99794130863E+01  0.66704024701E+02  0.00000000000E+00 0.  1.
</event>
<event>
12    1  0.8258923E-002  0.2208041E+03  0.7818608E-02  0.1133462E+00
         21   -1    0    0  503  502  0.00000000000E+00  0.00000000000E+00  0.95094210009E+03  0.95094210009E+03  0.00000000000E+00 0. -1.
         21   -1    0    0  501  503 -0.00000000000E+00 -0.00000000000E+00 -0.52899680438E+02  0.52899680438E+02  0.00000000000E+00 0.  1.
          6    2    1    2  501    0 -0.74662050359E+02 -0.11651404606E+03  0.35606806479E+03  0.41897363867E+03  0.17205957818E+03 0.  0.
         24    2    3    3    0    0 -0.89042176271E+02 -0.14589259241E+03  0.28342156077E+03  0.33916454425E+03  0.74105662983E+02 0.  0.
         -6    2    1    2    0  502  0.74662050359E+02  0.11651404606E+03  0.54197435486E+03  0.58486814186E+03  0.17083500033E+03 0.  0.
        -24    2    5    5    0    0  0.47580283217E+02 -0.35753195462E+00  0.14214590968E+03  0.16740285774E+03  0.74526813721E+02 0.  0.
          5    1    3    3  501    0  0.14380125912E+02  0.29378546351E+02  0.72646504016E+02  0.79809094423E+02  0.47000000000E+01 0. -1.
        -11    1    4    4    0    0 -0.15431415804E+02 -0.95151695810E+02  0.15933186215E+03  0.18622195388E+03  0.00000000000E+00 0.  1.
         12    1    4    4    0    0 -0.73610760467E+02 -0.50740896604E+02  0.12408969862E+03  0.15294259037E+03  0.00000000000E+00 0. -1.
         -5    1    5    5    0  502  0.27081767142E+02  0.11687157802E+03  0.39982844519E+03  0.41746528411E+03  0.47000000000E+01 0.  1.
         11    1    6    6    0    0 -0.92606608186E+01  0.10772359791E+02  0.84496988588E+02  0.85682814231E+02  0.00000000000E+00 0. -1.
        -12    1    6    6    0    0  0.56840944036E+02 -0.11129891746E+02  0.57648921088E+02  0.81720043513E+02  0.00000000000E+00 0.  1.
</event>
<event>
12    1  0.8258923E-002  0.2590638E+03  0.7818608E-02  0.1107789E+00
         21   -1    0    0  501  502  0.00000000000E+00  0.00000000000E+00  0.71046186054E+03  0.71046186054E+03  0.00000000000E+00 0.  1.
         21   -1    0    0  502  503 -0.00000000000E+00 -0.00000000000E+00 -0.24299690759E+03  0.24299690759E+03  0.00000000000E+00 0. -1.
         -6    2    1    2    0  503  0.16140530309E+02 -0.19297400281E+03 -0.13913889974E+03  0.29406407820E+03  0.17208883226E+03 0.  0.
        -24    2    3    3    0    0  0.67738331932E+02 -0.12782396450E+03 -0.52262745906E+02  0.17374609647E+03  0.80801385595E+02 0.  0.
          6    2    1    2  501    0 -0.16140530309E+02  0.19297400281E+03  0.60660385269E+03  0.65939468993E+03  0.17127066455E+03 0.  0.
         24    2    5    5    0    0  0.55376129783E+02  0.12040538800E+03  0.32317503807E+03  0.35817248046E+03  0.79255582226E+02 0.  0.
          5    1    5    5  501    0 -0.71516660092E+02  0.72568614810E+02  0.28342881462E+03  0.30122220947E+03  0.47000000000E+01 0. -1.
        -13    1    6    6    0    0  0.23943052060E+02  0.12009625017E+03  0.26843638818E+03  0.29504995093E+03  0.00000000000E+00 0.  1.
         14    1    6    6    0    0  0.31433077723E+02  0.30913783156E+00  0.54738649896E+02  0.63122529527E+02  0.00000000000E+00 0. -1.
         -5    1    3    3    0  503 -0.51597801623E+02 -0.65150038313E+02 -0.86876153832E+02  0.12031798174E+03  0.47000000000E+01 0.  1.
         11    1    4    4    0    0  0.20140120877E+02 -0.20645984277E+02 -0.48482710142E+02  0.56413245948E+02  0.00000000000E+00 0. -1.
        -12    1    4    4    0    0  0.47598211055E+02 -0.10717798022E+03 -0.37800357649E+01  0.11733285052E+03  0.00000000000E+00 0.  1.
</event>
<event>
12    1  0.8258923E-002  0.2859657E+03  0.7818608E-02  0.1092907E+00
         21   -1    0    0  501  502  0.00000000000E+00  0.00000000000E+00  0.49285207160E+03  0.49285207160E+03  0.00000000000E+00 0. -1.
         21   -1    0    0  502  503 -0.00000000000E+00 -0.00000000000E+00 -0.17844980490E+03  0.17844980490E+03  0.00000000000E+00 0. -1.
         -6    2    1    2    0  503 -0.13980868358E+03 -0.18198667440E+03  0.62682403884E+02  0.29275497600E+03  0.17061879895E+03 0.  0.
        -24    2    3    3    0    0 -0.13687091666E+03 -0.18104048602E+03  0.95830864033E+02  0.25913301655E+03  0.80355835877E+02 0.  0.
          6    2    1    2  501    0  0.13980868358E+03  0.18198667440E+03  0.25171986282E+03  0.37854690050E+03  0.16513403306E+03 0.  0.
         24    2    5    5    0    0  0.69519403430E+02  0.39428365218E+02  0.43208617684E+02  0.11632088392E+03  0.72636216571E+02 0.  0.
          5    1    5    5  501    0  0.70289280149E+02  0.14255830918E+03  0.20851124513E+03  0.26222601657E+03  0.47000000000E+01 0. -1.
        -11    1    6    6    0    0  0.48506131328E+02  0.97277462260E+01  0.58709256773E+02  0.76774023301E+02  0.00000000000E+00 0.  1.
         12    1    6    6    0    0  0.21013272102E+02  0.29700618992E+02 -0.15500639089E+02  0.39546860623E+02  0.00000000000E+00 0. -1.
         -5    1    3    3    0  503 -0.29377669157E+01 -0.94618837745E+00 -0.33148460149E+02  0.33621959448E+02  0.47000000000E+01 0.  1.
         13    1    4    4    0    0 -0.74337713634E+02 -0.79373847898E+02  0.87327363727E+02  0.13947176006E+03  0.00000000000E+00 0. -1.
        -14    1    4    4    0    0 -0.62533203029E+02 -0.10166663812E+03  0.85035003064E+01  0.11966125649E+03  0.00000000000E+00 0.  1.
</event>
<event>
12    1  0.8258923E-002  0.2454802E+03  0.7818608E-02  0.1116330E+00
         21   -1    0    0  501  502  0.00000000000E+00  0.00000000000E+00  0.13168017147E+03  0.13168017147E+03  0.00000000000E+00 0. -1.
         21   -1    0    0  502  503 -0.00000000000E+00 -0.00000000000E+00 -0.71307776062E+03  0.71307776062E+03  0.00000000000E+00 0.  1.
         -6    2    1    2    0  503  0.70301005939E+02 -0.16000047715E+03 -0.54458467935E+03  0.59735499568E+03  0.17238948272E+03 0.  0.
        -24    2    3    3    0    0  0.23713549331E+02 -0.11557495259E+03 -0.19446478414E+03  0.24133526396E+03  0.80661361725E+02 0.  0.
          6    2    1    2  501    0 -0.70301005939E+02  0.16000047715E+03 -0.36812909799E+02  0.24740293640E+03  0.17120350022E+03 0.  0.
         24    2    5    5    0    0 -0.91206023467E+02  0.92517107886E+02 -0.71625241033E+02  0.16850418298E+03  0.79909514838E+02 0.  0.
          5    1    5    5  501    0  0.20905017528E+02  0.67483369266E+02  0.34812331235E+02  0.78898753421E+02  0.47000000000E+01 0. -1.
        -13    1    6    6    0    0 -0.56782648671E+02  0.34624175449E+02 -0.76021598806E+02  0.10100686215E+03  0.00000000000E+00 0.  1.
         14    1    6    6    0    0 -0.34423374796E+02  0.57892932437E+02  0.43963577730E+01  0.67497320837E+02  0.00000000000E+00 0. -1.
         -5    1    3    3    0  503  0.46587456608E+02 -0.44425524565E+02 -0.35011989522E+03  0.35601973172E+03  0.47000000000E+01 0.  1.
         11    1    4    4    0    0 -0.75754124625E+01  0.10117564133E+02 -0.25243494276E+02  0.28230940140E+02  0.00000000000E+00 0. -1.
        -12    1    4    4    0    0  0.31288961794E+02 -0.12569251672E+03 -0.16922128986E+03  0.21310432382E+03  0.00000000000E+00 0.  1.
</event>
<event>
12    1  0.8258923E-002  0.2191822E+03  0.7818608E-02  0.1134738E+00
         21   -1    0    0  501  502  0.00000000000E+00  0.00000000000E+00  0.23547733921E+04  0.23547733921E+04  0.00000000000E+00 0.  1.
         21   -1    0    0  502  503 -0.00000000000E+00 -0.00000000000E+00 -0.20598724207E+02  0.20598724207E+02  0.00000000000E+00 0. -1.
         -6    2    1    2    0  503  0.22642657879E+00  0.13568400172E+03  0.10229202503E+04  0.10461389329E+04  0.17213549549E+03 0.  0.
        -24    2    3    3    0    0 -0.49420128015E+02  0.85887525387E+02  0.40390490136E+03  0.42312483860E+03  0.77951546671E+02 0.  0.
          6    2    1    2  501    0 -0.22642657879E+00 -0.13568400172E+03  0.13112544176E+04  0.13292331835E+04  0.17047729671E+03 0.  0.
         24    2    5    5    0    0  0.23482132152E+02 -0.12789601708E+03  0.12789233100E+04  0.12881218835E+04  0.81880109178E+02 0.  0.
          5    1    5    5  501    0 -0.23708558731E+02 -0.77879846398E+01  0.32331107658E+02  0.41111299958E+02  0.47000000000E+01 0. -1.
        -13    1    6    6    0    0 -0.67300651548E+01 -0.12159269669E+03  0.95542752759E+03  0.96315722400E+03  0.00000000000E+00 0.  1.
         14    1    6    6    0    0  0.30212197307E+02 -0.63033203960E+01  0.32349578238E+03  0.32496465951E+03  0.00000000000E+00 0. -1.
         -5    1    3    3    0  503  0.49646554593E+02  0.49796476335E+02  0.61901534892E+03  0.62301409426E+03  0.47000000000E+01 0.  1.
         11    1    4    4    0    0 -0.44532121358E+02  0.96653723322E+02  0.29552768968E+03  0.31410454857E+03  0.00000000000E+00 0. -1.
        -12    1    4    4    0    0 -0.48880066569E+01 -0.10766197934E+02  0.10837721168E+03  0.10902029003E+03  0.00000000000E+00 0.  1.
</event>
<event>
12    1  0.8258923E-002  0.1898035E+03  0.7818608E-02  0.1159596E+00
         21   -1    0    0  503  502  0.00000000000E+00  0.00000000000E+00  0.29798801944E+03  0.29798801944E+03  0.00000000000E+00 0. -1.
         21   -1    0    0  501  503 -0.00000000000E+00 -0.00000000000E+00 -0.34546003767E+03  0.34546003767E+03  0.00000000000E+00 0. -1.
          6    2    1    2  501    0 -0.48617551930E+02  0.36895548196E+02 -0.28474042806E+03  0.34220237241E+03  0.17972313284E+03 0.  0.
         24    2    3    3    0    0 -0.70788387748E+02  0.50275051938E+02 -0.99628569928E+02  0.15522898633E+03  0.81434695079E+02 0.  0.
         -6    2    1    2    0  502  0.48617551930E+02 -0.36895548196E+02  0.23726840983E+03  0.30124568471E+03  0.17529322982E+03 0.  0.
        -24    2    5    5    0    0 -0.27221860713E+02  0.21775358591E+02  0.13308750067E+03  0.15957831498E+03  0.80856414922E+02 0.  0.
          5    1    3    3  501    0  0.22170835818E+02 -0.13379503742E+02 -0.18511185813E+03  0.18697338608E+03  0.47000000000E+01 0. -1.
        -11    1    4    4    0    0 -0.16086488141E+02 -0.88148635267E+01  0.86588156686E+01  0.20284279837E+02  0.00000000000E+00 0.  1.
         12    1    4    4    0    0 -0.54701899607E+02  0.59089915465E+02 -0.10828738560E+03  0.13494470649E+03  0.00000000000E+00 0. -1.
         -5    1    5    5    0  502  0.75839412643E+02 -0.58670906787E+02  0.10418090915E+03  0.14166736973E+03  0.47000000000E+01 0.  1.
         13    1    6    6    0    0  0.18198488530E+02  0.35856748073E+02  0.67429812816E+02  0.78509050584E+02  0.00000000000E+00 0. -1.
        -14    1    6    6    0    0 -0.45420349242E+02 -0.14081389482E+02  0.65657687857E+02  0.81069264396E+02  0.00000000000E+00 0.  1.
</event>
<event>
12    1  0.8258923E-002  0.1866766E+03  0.7818608E-02  0.1161872E+00
         21   -1    0    0  501  502  0.00000000000E+00  0.00000000000E+00  0.11002744436E+03  0.11002744436E+03  0.00000000000E+00 0.  1.
         21   -1    0    0  502  503 -0.00000000000E+00 -0.00000000000E+00 -0.31668689518E+03  0.31668689518E+03  0.00000000000E+00 0. -1.
         -6    2    1    2    0  503 -0.32172856695E+02 -0.59709684346E+02 -0.12269232402E+03  0.22202278970E+03  0.17216379893E+03 0.  0.
        -24    2    3    3    0    0 -0.79976991164E+02 -0.69330769190E+02 -0.69547306557E+02  0.14974358504E+03  0.79895173435E+02 0.  0.
          6    2    1    2  501    0  0.32172856695E+02  0.59709684346E+02 -0.83967126803E+02  0.20469154984E+03  0.17391898424E+03 0.  0.
         24    2    5    5    0    0  0.64802336142E+02  0.33000419429E+02  0.17610702124E+01  0.10903862764E+03  0.81227769249E+02 0.  0.
          5    1    5    5  501    0 -0.32629479448E+02  0.26709264917E+02 -0.85728197015E+02  0.95652922198E+02  0.47000000000E+01 0. -1.
        -13    1    6    6    0    0  0.11367448300E+02  0.49315893067E+02  0.12536793204E+02  0.52138731991E+02  0.00000000000E+00 0.  1.
         14    1    6    6    0    0  0.53434887842E+02 -0.16315473638E+02 -0.10775722992E+02  0.56899895648E+02  0.00000000000E+00 0. -1.
         -5    1    3    3    0  503  0.47804134469E+02  0.96210848443E+01 -0.53145017461E+02  0.72279204664E+02  0.47000000000E+01 0.  1.
         13    1    4    4    0    0  0.66596978922E+01 -0.73941774216E+01 -0.37099807233E+02  0.38411211026E+02  0.00000000000E+00 0. -1.
        -14    1    4    4    0    0 -0.86636689056E+02 -0.61936591768E+02 -0.32447499323E+02  0.11133237401E+03  0.00000000000E+00 0.  1.
</event>
<event>
12    1  0.8258923E-002  0.1987388E+03  0.7818608E-02  0.1151195E+00
         21   -1    0    0  501  502  0.00000000000E+00  0.00000000000E+00  0.31138583469E+02  0.31138583469E+02  0.00000000000E+00 0.  1.
         21   -1    0    0  502  503 -0.00000000000E+00 -0.00000000000E+00 -0.15844551891E+04  0.15844551891E+04  0.00000000000E+00 0. -1.
         -6    2    1    2    0  503 -0.71525513521E+02  0.64533087319E+02 -0.11411271385E+04  0.11579943023E+04  0.17175342693E+03 0.  0.
        -24    2    3    3    0    0 -0.11314346360E+03  0.32888980827E+02 -0.76421890995E+03  0.77744823946E+03  0.80697548334E+02 0.  0.
          6    2    1    2  501    0  0.71525513521E+02 -0.64533087319E+02 -0.41218946719E+03  0.45759947026E+03  0.17382951381E+03 0.  0.
         24    2    5    5    0    0 -0.12674564350E+02 -0.45943371615E+01 -0.99734803367E+02  0.12846072470E+03  0.79833415757E+02 0.  0.
          5    1    5    5  501    0  0.84200077871E+02 -0.59938750157E+02 -0.31245466383E+03  0.32913874556E+03  0.47000000000E+01 0. -1.
        -13    1    6    6    0    0 -0.33568059756E+01 -0.32408290951E+02 -0.92751523471E+02  0.98307734055E+02  0.00000000000E+00 0.  1.
         14    1    6    6    0    0 -0.93177583746E+01  0.27813953789E+02 -0.69832798956E+01  0.30152990642E+02  0.00000000000E+00 0. -1.
         -5    1    3    3    0  503  0.41617950082E+02  0.31644106492E+02 -0.37690822852E+03  0.38054606287E+03  0.47000000000E+01 0.  1.
         13    1    4    4    0    0 -0.13865616344E+02 -0.23467034362E+02 -0.10883721637E+03  0.11219847007E+03  0.00000000000E+00 0. -1.
        -14    1    4    4    0    0 -0.99277847259E+02  0.56356015189E+02 -0.65538169357E+03  0.66524976939E+03  0.00000000000E+00 0.  1.
</event>
<event>
12    1  0.8258923E-002  0.2375493E+03  0.7818608E-02  0.1121495E+00
         21   -1    0    0  503  502  0.00000000000E+00  0.00000000000E+00  0.11398689705E+04  0.11398689705E+04  0.00000000000E+00 0. -1.
         21   -1    0    0  501  503 -0.00000000000E+00 -0.00000000000E+00 -0.55252417420E+02  0.55252417420E+02  0.00000000000E+00 0. -1.
          6    2    1    2  501    0 -0.16139886450E+03 -0.24975306371E+02  0.34802863723E+03  0.42117601700E+03  0.17202309604E+03 0.  0.
         24    2    3    3    0    0 -0.13810160923E+03 -0.12437258746E+02  0.14235510063E+03  0.21375456584E+03  0.78735632762E+02 0.  0.
         -6    2    1    2    0  502  0.16139886450E+03  0.24975306371E+02  0.73658791588E+03  0.77394537095E+03  0.17250020292E+03 0.  0.
        -24    2    5    5    0    0  0.12680627303E+03 -0.28025793825E+02  0.64287775990E+03  0.66076654192E+03  0.80345085421E+02 0.  0.
          5    1    3    3  501    0 -0.23297255277E+02 -0.12538047624E+02  0.20567353661E+03  0.20742145116E+03  0.47000000000E+01 0. -1.
        -11    1    4    4    0    0 -0.22727485994E+02  0.92015540711E+01 -0.53384952560E+01  0.25093958407E+02  0.00000000000E+00 0.  1.
         12    1    4    4    0    0 -0.11537412323E+03 -0.21638812817E+02  0.14769359588E+03  0.18866060743E+03  0.00000000000E+00 0. -1.
         -5    1    5    5    0  502  0.34592591477E+02  0.53001100196E+02  0.93710155982E+02  0.11317882903E+03  0.47000000000E+01 0.  1.
         11    1    6    6    0    0  0.12187410970E+03 -0.41666502815E+01  0.44541515101E+03  0.46180657892E+03  0.00000000000E+00 0. -1.
        -12    1    6    6    0    0  0.49321633251E+01 -0.23859143544E+02  0.19746260889E+03  0.19895996300E+03  0.00000000000E+00 0.  1.
</event>
<event>
12    1  0.8258923E-002  0.1950278E+03  0.7818608E-02  0.1154009E+00
         21   -1    0    0  501  502  0.00000000000E+00  0.00000000000E+00  0.13146064063E+03  0.13146064063E+03  0.00000000000E+00 0.  1.
         21   -1    0    0  502  503 -0.00000000000E+00 -0.00000000000E+00 -0.39578683051E+03  0.39578683051E+03  0.00000000000E+00 0.  1.
         -6    2    1    2    0  503 -0.47849079649E+01  0.93338318582E+02 -0.26890433650E+03  0.33216594110E+03  0.17114243536E+03 0.  0.
        -24    2    3    3    0    0  0.77864506097E+01 -0.52867000931E+01 -0.57158242437E+02  0.98192797954E+02  0.79285451885E+02 0.  0.
          6    2    1    2  501    0  0.47849079649E+01 -0.93338318582E+02  0.45781466245E+01  0.19508153004E+03  0.17117507668E+03 0.  0.
         24    2    5    5    0    0 -0.10920903046E+00 -0.13272418076E+03 -0.95279071184E+01  0.15269911301E+03  0.74903391222E+02 0.  0.
          5    1    5    5  501    0  0.48941169953E+01  0.39385862177E+02  0.14106053743E+02  0.42382417024E+02  0.47000000000E+01 0. -1.
        -13    1    6    6    0    0  0.33585311393E+02 -0.62229698934E+02  0.11835644886E+02  0.71697915316E+02  0.00000000000E+00 0.  1.
         14    1    6    6    0    0 -0.33694520423E+02 -0.70494481825E+02 -0.21363552005E+02  0.81001197699E+02  0.00000000000E+00 0. -1.
         -5    1    3    3    0  503 -0.12571358575E+02  0.98625018675E+02 -0.21174609406E+03  0.23397314315E+03  0.47000000000E+01 0.  1.
         13    1    4    4    0    0  0.39295708181E+02 -0.78098379814E+01 -0.97852409558E+01  0.41241934863E+02  0.00000000000E+00 0. -1.
        -14    1    4    4    0    0 -0.31509257571E+02  0.25231378883E+01 -0.47373001481E+02  0.56950863091E+02  0.00000000000E+00 0.  1.
</event>
<event>
12    1  0.8258923E-002  0.1800491E+03  0.7818608E-02  0.1168030E+00
         21   -1    0    0  503  502  0.00000000000E+00  0.00000000000E+00  0.14037906213E+03  0.14037906213E+03  0.00000000000E+00 0. -1.
         21   -1    0    0  501  503 -0.00000000000E+00 -0.00000000000E+00 -0.24623615697E+03  0.24623615697E+03  0.00000000000E+00 0. -1.
          6    2    1    2  501    0 -0.25515240297E+02  0.41091655741E+02 -0.10319799572E+03  0.20654643921E+03  0.17225577950E+03 0.  0.
         24    2    3    3    0    0 -0.47664128469E+02  0.13086021581E+02 -0.13169202420E+03  0.16062380371E+03  0.77550654255E+02 0.  0.
         -6    2    1    2    0  502  0.25515240297E+02 -0.41091655741E+02 -0.26590991205E+01  0.18006877989E+03  0.17343051353E+03 0.  0.
        -24    2    5    5    0    0 -0.51624849221E+02 -0.32208543493E+02 -0.79489390799E+01  0.10209714722E+03  0.81597343751E+02 0.  0.
          5    1    3    3  501    0  0.22148888172E+02  0.28005634160E+02  0.28494028484E+02  0.45922635500E+02  0.47000000000E+01 0. -1.
        -11    1    4    4    0    0 -0.38972231530E+01 -0.23720942691E+02 -0.97548131146E+01  0.25942780294E+02  0.00000000000E+00 0.  1.
         12    1    4    4    0    0 -0.43766905316E+02  0.36806964272E+02 -0.12193721109E+03  0.13468102341E+03  0.00000000000E+00 0. -1.
         -5    1    5    5    0  502  0.77140089517E+02 -0.88831122481E+01  0.52898399594E+01  0.77971632667E+02  0.47000000000E+01 0.  1.
         11    1    6    6    0    0 -0.33296226148E+01 -0.36065782427E+02  0.24552134826E+02  0.43756535207E+02  0.00000000000E+00 0. -1.
        -12    1    6    6    0    0 -0.48295226606E+02  0.38572389347E+01 -0.32501073906E+02  0.58340612014E+02  0.00000000000E+00 0.  1.
</event>
<event>
12    1  0.8258923E-002  0.3394375E+03  0.7818608E-02  0.1067110E+00
         21   -1    0    0  501  502  0.00000000000E+00  0.00000000000E+00  0.33468078338E+03  0.33468078338E+03  0.00000000000E+00 0. -1.
         21   -1    0    0  502  503 -0.00000000000E+00 -0.00000000000E+00 -0.37390509943E+03  0.37390509943E+03  0.00000000000E+00 0.  1.
         -6    2    1    2    0  503 -0.16941744586E+03 -0.23802869666E+03 -0.12053150661E+03  0.35954624727E+03  0.17142266023E+03 0.  0.
        -24    2    3    3    0    0 -0.28624161281E+02 -0.14739412229E+03 -0.41316153464E+02  0.17425043720E+03  0.78178132695E+02 0.  0.
          6    2    1    2  501    0  0.16941744586E+03  0.23802869666E+03  0.81307190557E+02  0.34903963554E+03  0.17279431862E+03 0.  0.
         24    2    5    5    0    0  0.65588284673E+02  0.67822408249E+02  0.87163663155E+02  0.14952255958E+03  0.76536197333E+02 0.  0.
          5    1    5    5  501    0  0.10382916119E+03  0.17020628841E+03 -0.58564725978E+01  0.19951707596E+03  0.47000000000E+01 0. -1.
        -11    1    6    6    0    0  0.40881893442E+02  0.47652042916E+01  0.26816571294E+01  0.41245941234E+02  0.00000000000E+00 0.  1.
         12    1    6    6    0    0  0.24706391231E+02  0.63057203958E+02  0.84482006025E+02  0.10827661835E+03  0.00000000000E+00 0. -1.
         -5    1    3    3    0  503 -0.14079328458E+03 -0.90634574370E+02 -0.79215353151E+02  0.18529581007E+03  0.47000000000E+01 0.  1.
         13    1    4    4    0    0 -0.53649294268E+02 -0.12189607362E+03 -0.27787692332E+02  0.13604798927E+03  0.00000000000E+00 0. -1.
        -14    1    4    4    0    0  0.25025132987E+02 -0.25498048670E+02 -0.13528461132E+02  0.38202447926E+02  0.00000000000E+00 0.  1.
</event>
<event>
12    1  0.8258923E-002  0.1904747E+03  0.7818608E-02  0.1158520E+00
         21   -1    0    0  503  502  0.00000000000E+00  0.00000000000E+00  0.54793875969E+03  0.54793875969E+03  0.00000000000E+00 0. -1.
         21   -1    0    0  501  503 -0.00000000000E+00 -0.00000000000E+00 -0.17274776333E+03  0.17274776333E+03  0.00000000000E+00 0. -1.
          6    2    1    2  501    0 -0.63766550242E+02  0.44427751906E+02 -0.95967380491E+02  0.21328470503E+03  0.17389833010E+03 0.  0.
         24    2    3    3    0    0 -0.89738228609E+02  0.49702169701E+02 -0.12011924744E+03  0.17712187553E+03  0.80126586344E+02 0.  0.
         -6    2    1    2    0  502  0.63766550242E+02 -0.44427751906E+02  0.47115837686E+03  0.50740181799E+03  0.17154122173E+03 0.  0.
        -24    2    5    5    0    0  0.71976966388E+02 -0.68958852557E+02  0.46362974098E+03  0.48005303026E+03  0.74581285190E+02 0.  0.
          5    1    3    3  501    0  0.25971678367E+02 -0.52744177950E+01  0.24151866947E+02  0.36162829498E+02  0.47000000000E+01 0. -1.
        -13    1    4    4    0    0 -0.13859549132E+02  0.43698257695E+02 -0.16870758184E+02  0.48849230387E+02  0.00000000000E+00 0.  1.
         14    1    4    4    0    0 -0.75878679478E+02  0.60039120058E+01 -0.10324848925E+03  0.12827264514E+03  0.00000000000E+00 0. -1.
         -5    1    5    5    0  502 -0.82104161456E+01  0.24531100652E+02  0.75286358751E+01  0.27348787735E+02  0.47000000000E+01 0.  1.
         11    1    6    6    0    0  0.12502729616E+02  0.78325478583E+00  0.20993439287E+03  0.21030782450E+03  0.00000000000E+00 0. -1.
        -12    1    6    6    0    0  0.59474236772E+02 -0.69742107343E+02  0.25369534811E+03  0.26974520576E+03  0.00000000000E+00 0.  1.
</event>
<event>
12    1  0.8258923E-002  0.2138150E+03  0.7818608E-02  0.1138741E+00
         21   -1    0    0  501  502  0.00000000000E+00  0.00000000000E+00  0.88262803239E+03  0.88262803239E+03  0.00000000000E+00 0. -1.
         21   -1    0    0  502  503 -0.00000000000E+00 -0.00000000000E+00 -0.12652395161E+03  0.12652395161E+03  0.00000000000E+00 0. -1.
         -6    2    1    2    0  503  0.84490071260E+02  0.98118422417E+02 -0.10542756862E+02  0.21324732313E+03  0.16910787723E+03 0.  0.
        -24    2    3    3    0    0  0.11170805018E+03  0.11158897840E+03  0.89578800575E+01  0.17685173143E+03  0.79154928571E+02 0.  0.
          6    2    1    2  501    0 -0.84490071260E+02 -0.98118422417E+02  0.76664683764E+03  0.79590466086E+03  0.17015010596E+03 0.  0.
         24    2    5    5    0    0 -0.11298391241E+03 -0.11540401351E+03  0.63457835315E+03  0.65961502355E+03  0.79491145482E+02 0.  0.
          5    1    5    5  501    0  0.28493841150E+02  0.17285591090E+02  0.13206848449E+03  0.13628963731E+03  0.47000000000E+01 0. -1.
        -11    1    6    6    0    0 -0.44224738499E+02 -0.41223073462E+02  0.11139334859E+03  0.12674244510E+03  0.00000000000E+00 0.  1.
         12    1    6    6    0    0 -0.68759173910E+02 -0.74180940046E+02  0.52318500457E+03  0.53287257845E+03  0.00000000000E+00 0. -1.
         -5    1    3    3    0  503 -0.27217978925E+02 -0.13470555983E+02 -0.19500636920E+02  0.36395591705E+02  0.47000000000E+01 0.  1.
         11    1    4    4    0    0  0.10917366549E+03  0.59262125220E+02  0.73670402064E+01  0.12443939089E+03  0.00000000000E+00 0. -1.
        -12    1    4    4    0    0  0.25343846915E+01  0.52326853180E+02  0.15908398511E+01  0.52412340540E+02  0.00000000000E+00 0.  1.
</event>
<event>
12    1  0.8258923E-002  0.2142226E+03  0.7818608E-02  0.1138323E+00
         21   -1    0    0  501  502  0.00000000000E+00  0.00000000000E+00  0.84116119178E+02  0.84116119178E+02  0.00000000000E+00 0. -1.
         21   -1    0    0  502  503 -0.00000000000E+00 -0.00000000000E+00 -0.62032983335E+03  0.62032983335E+03  0.00000000000E+00 0.  1.
         -6    2    1    2    0  503  0.10314449278E+03 -0.73643433279E+02 -0.39084126545E+03  0.44555514403E+03  0.17233789467E+03 0.  0.
        -24    2    3    3    0    0  0.56837856230E+02 -0.14007044812E+02 -0.86639708495E+02  0.13208827071E+03  0.80710178823E+02 0.  0.
          6    2    1    2  501    0 -0.10314449278E+03  0.73643433279E+02 -0.14537244873E+03  0.25889080850E+03  0.17271120468E+03 0.  0.
         24    2    5    5    0    0 -0.80249608659E+02  0.24653389342E+02 -0.16505293609E+03  0.20115337085E+03  0.78564735066E+02 0.  0.
          5    1    5    5  501    0 -0.22894884120E+02  0.48990043937E+02  0.19680487362E+02  0.57737437652E+02  0.47000000000E+01 0. -1.
        -11    1    6    6    0    0 -0.22257413381E+02  0.11912512670E+02 -0.12952125190E+03  0.13195853555E+03  0.00000000000E+00 0.  1.
         12    1    6    6    0    0 -0.57992195278E+02  0.12740876672E+02 -0.35531684186E+02  0.69194835303E+02  0.00000000000E+00 0. -1.
         -5    1    3    3    0  503  0.46306636549E+02 -0.59636388467E+02 -0.30420155695E+03  0.31346687332E+03  0.47000000000E+01 0.  1.
         11    1    4    4    0    0  0.68595561780E+02 -0.32540375322E+02 -0.76938930007E+02  0.10809174840E+03  0.00000000000E+00 0. -1.
        -12    1    4    4    0    0 -0.11757705550E+02  0.18533330510E+02 -0.97007784884E+01  0.23996522308E+02  0.00000000000E+00 0.  1.
</event>
<event>
12    1  0.8258923E-002  0.2288852E+03  0.7818608E-02  0.1127489E+00
         21   -1    0    0  503  502  0.00000000000E+00  0.00000000000E+00  0.29230115936E+03  0.29230115936E+03  0.00000000000E+00 0. -1.
         21   -1    0    0  501  503 -0.00000000000E+00 -0.00000000000E+00 -0.20834706653E+03  0.20834706653E+03  0.00000000000E+00 0. -1.
          6    2    1    2  501    0 -0.50705385895E+02  0.14201902412E+03 -0.52073582694E+02  0.23439277303E+03  0.17172033853E+03 0.  0.
         24    2    3    3    0    0  0.58931023187E+01  0.25487511343E+02 -0.57722003542E+02  0.10463539561E+03  0.83261001868E+02 0.  0.
         -6    2    1    2    0  502  0.50705385895E+02 -0.14201902412E+03  0.13602767553E+03  0.26625545285E+03  0.17218594105E+03 0.  0.
        -24    2    5    5    0    0  0.10258751264E+03 -0.11328020240E+03  0.12469035118E+03  0.20568896152E+03  0.58340922238E+02 0.  0.
          5    1    3    3  501    0 -0.56598488214E+02  0.11653151278E+03  0.56484208474E+01  0.12975737743E+03  0.47000000000E+01 0. -1.
        -13    1    4    4    0    0 -0.18452567831E+02  0.68681205746E+01  0.15629104190E+02  0.25138361871E+02  0.00000000000E+00 0.  1.
         14    1    4    4    0    0  0.24345670150E+02  0.18619390768E+02 -0.73351107732E+02  0.79497033738E+02  0.00000000000E+00 0. -1.
         -5    1    5    5    0  502 -0.51882126744E+02 -0.28738821723E+02  0.11337324342E+02  0.60566491336E+02  0.47000000000E+01 0.  1.
         13    1    6    6    0    0  0.68227426803E+02 -0.10743508245E+03  0.10857645957E+03  0.16729054451E+03  0.00000000000E+00 0. -1.
        -14    1    6    6    0    0  0.34360085836E+02 -0.58451199462E+01  0.16113891611E+02  0.38398417008E+02  0.00000000000E+00 0.  1.
</event>
<event>
12    1  0.8258923E-002  0.1890417E+03  0.7818608E-02  0.1162018E+00
         21   -1    0    0  503  502  0.00000000000E+00  0.00000000000E+00  0.30346162531E+03  0.30346162531E+03  0.00000000000E+00 0. -1.
         21   -1    0    0  501  503 -0.00000000000E+00 -0.00000000000E+00 -0.11633415724E+03  0.11633415724E+03  0.00000000000E+00 0.  1.
          6    2    1    2  501    0 -0.35621114532E+02 -0.13624106607E+02  0.44749657338E+02  0.18313523467E+03  0.17344019795E+03 0.  0.
         24    2    3    3    0    0 -0.81653914905E+02  0.23871636347E+02  0.18122074644E+02  0.11789669078E+03  0.79586451519E+02 0.  0.
         -6    2    1    2    0  502  0.35621114532E+02  0.13624106607E+02  0.14237781072E+03  0.23666054787E+03  0.18515478350E+03 0.  0.
        -24    2    5    5    0    0  0.42265743539E+02 -0.52153503225E+02  0.33072521358E+02  0.10883026456E+03  0.79018060206E+02 0.  0.
          5    1    3    3  501    0  0.46032800373E+02 -0.37495742954E+02  0.26627582694E+02  0.65238543898E+02  0.47000000000E+01 0. -1.
        -13    1    4    4    0    0 -0.69097827191E+01 -0.20803202276E+02 -0.12927629782E+02  0.25448810069E+02  0.00000000000E+00 0.  1.
         14    1    4    4    0    0 -0.74744132186E+02  0.44674838623E+02  0.31049704426E+02  0.92447880706E+02  0.00000000000E+00 0. -1.
         -5    1    5    5    0  502 -0.66446290073E+01  0.65777609832E+02  0.10930528937E+03  0.12783028332E+03  0.47000000000E+01 0.  1.
         11    1    6    6    0    0 -0.79817910856E+01 -0.22032862219E+02  0.43419467684E+02  0.49339701869E+02  0.00000000000E+00 0. -1.
        -12    1    6    6    0    0  0.50247534625E+02 -0.30120641006E+02 -0.10346946327E+02  0.59490562687E+02  0.00000000000E+00 0.  1.
</event>
<event>
12    1  0.8258923E-002  0.2006817E+03  0.7818608E-02  0.1149218E+00
         21   -1    0    0  501  502  0.00000000000E+00  0.00000000000E+00  0.52593246487E+03  0.52593246487E+03  0.00000000000E+00 0. -1.
         21   -1    0    0  502  503 -0.00000000000E+00 -0.00000000000E+00 -0.96804375790E+02  0.96804375790E+02  0.00000000000E+00 0.  1.
         -6    2    1    2    0  503  0.62596777084E+02 -0.81399910444E+02  0.71782307397E+02  0.21289642990E+03  0.17212753495E+03 0.  0.
        -24    2    3    3    0    0  0.84204898359E+02 -0.68686601870E+02  0.10506202083E+03  0.17096591063E+03  0.79893680570E+02 0.  0.
          6    2    1    2  501    0 -0.62596777084E+02  0.81399910444E+02  0.35734578169E+03  0.40984041076E+03  0.17242056921E+03 0.  0.
         24    2    5    5    0    0 -0.44259546274E+02  0.32047326827E+02  0.71139819720E+02  0.11879423881E+03  0.77879770364E+02 0.  0.
          5    1    5    5  501    0 -0.18337230810E+02  0.49352583618E+02  0.28620596197E+03  0.29104617195E+03  0.47000000000E+01 0. -1.
        -13    1    6    6    0    0 -0.50775909252E+02  0.44194993595E+02  0.26959889012E+02  0.72513626546E+02  0.00000000000E+00 0.  1.
         14    1    6    6    0    0  0.65163629780E+01 -0.12147666768E+02  0.44179930708E+02  0.46280612266E+02  0.00000000000E+00 0. -1.
         -5    1    3    3    0  503 -0.21608121274E+02 -0.12713308574E+02 -0.33279713428E+02  0.41930519264E+02  0.47000000000E+01 0.  1.
         13    1    4    4    0    0  0.59414962954E+02 -0.27996244426E+01  0.71416697112E+02  0.92942564771E+02  0.00000000000E+00 0. -1.
        -14    1    4    4    0    0  0.24789935404E+02 -0.65886977427E+02  0.33645323713E+02  0.78023345863E+02  0.00000000000E+00 0.  1.
</event>
<event>
12    1  0.8258923E-002  0.2868230E+03  0.7818608E-02  0.1092062E+00
         21   -1    0    0  501  502  0.00000000000E+00  0.00000000000E+00  0.26497708373E+03  0.26497708373E+03  0.00000000000E+00 0.  1.
         21   -1    0    0  502  503 -0.00000000000E+00 -0.00000000000E+00 -0.79882282624E+03  0.79882282624E+03  0.00000000000E+00 0. -1.
         -6    2    1    2    0  503 -0.38575049744E+02 -0.22578362654E+03 -0.68301192425E+03  0.74079193870E+03  0.17263003009E+03 0.  0.
        -24    2    3    3    0    0  0.20889214897E+01 -0.14681748507E+03 -0.58583757093E+03  0.60905676875E+03  0.78643184944E+02 0.  0.
          6    2    1    2  501    0  0.38575049744E+02  0.22578362654E+03  0.14916618175E+03  0.32300797128E+03  0.17209683103E+03 0.  0.
         24    2    5    5    0    0  0.67155373866E+02  0.75086395643E+02  0.40071846103E+02  0.13472585742E+03  0.79984328198E+02 0.  0.
          5    1    5    5  501    0 -0.28580324122E+02  0.15069723090E+03  0.10909433565E+03  0.18828211386E+03  0.47000000000E+01 0. -1.
        -11    1    6    6    0    0  0.68188805049E+02  0.85924071023E+02  0.19446912823E+02  0.11140395654E+03  0.00000000000E+00 0.  1.
         12    1    6    6    0    0 -0.10334311825E+01 -0.10837675380E+02  0.20624933280E+02  0.23321900876E+02  0.00000000000E+00 0. -1.
         -5    1    3    3    0  503 -0.40663971234E+02 -0.78966141474E+02 -0.97174353325E+02  0.13173516994E+03  0.47000000000E+01 0.  1.
         13    1    4    4    0    0  0.26855032941E+02 -0.13396233603E+03 -0.51773768581E+03  0.53546186753E+03  0.00000000000E+00 0. -1.
        -14    1    4    4    0    0 -0.24766111451E+02 -0.12855149039E+02 -0.68099885117E+02  0.73594901224E+02  0.00000000000E+00 0.  1.
</event>
<event>
12    1  0.8258923E-002  0.2126803E+03  0.7818608E-02  0.1139838E+00
         21   -1    0    0  501  502  0.00000000000E+00  0.00000000000E+00  0.14206397919E+03  0.14206397919E+03  0.00000000000E+00 0.  1.
         21   -1    0    0  502  503 -0.00000000000E+00 -0.00000000000E+00 -0.31873119738E+03  0.31873119738E+03  0.00000000000E+00 0. -1.
         -6    2    1    2    0  503  0.96503755164E+02  0.78961187301E+02 -0.64795965555E+02  0.22048683340E+03  0.16990609963E+03 0.  0.
        -24    2    3    3    0    0  0.12352605655E+02  0.50102684869E+02 -0.86771082922E+02  0.12873049896E+03  0.79871488247E+02 0.  0.
          6    2    1    2  501    0 -0.96503755164E+02 -0.78961187301E+02 -0.11187125263E+03  0.24030834317E+03  0.17229358308E+03 0.  0.
         24    2    5    5    0    0 -0.82605349641E+02 -0.10301216534E+03 -0.13397186585E+03  0.20450132814E+03  0.80232053289E+02 0.  0.
          5    1    5    5  501    0 -0.13898405523E+02  0.24050978040E+02  0.22100613215E+02  0.35807015029E+02  0.47000000000E+01 0. -1.
        -11    1    6    6    0    0 -0.33157172955E+02 -0.48712931101E+02 -0.90873670080E+01  0.59623217071E+02  0.00000000000E+00 0.  1.
         12    1    6    6    0    0 -0.49448176686E+02 -0.54299234240E+02 -0.12488449884E+03  0.14487811107E+03  0.00000000000E+00 0. -1.
         -5    1    3    3    0  503  0.84151149509E+02  0.28858502432E+02  0.21975117366E+02  0.91756334439E+02  0.47000000000E+01 0.  1.
         11    1    4    4    0    0  0.42830490622E+02  0.91269426087E+01 -0.35601189772E+02  0.56437547090E+02  0.00000000000E+00 0. -1.
        -12    1    4    4    0    0 -0.30477884967E+02  0.40975742260E+02 -0.51169893150E+02  0.72292951875E+02  0.00000000000E+00 0.  1.
</event>
<event>
12    1  0.8258923E-002  0.1743457E+03  0.7818608E-02  0.1173791E+00
         21   -1    0    0  501  502  0.00000000000E+00  0.00000000000E+00  0.46384919373E+02  0.46384919373E+02  0.00000000000E+00 0.  1.
         21   -1    0    0  502  503 -0.00000000000E+00 -0.00000000000E+00 -0.65154804960E+03  0.65154804960E+03  0.00000000000E+00 0.  1.
         -6    2    1    2    0  503  0.36523529210E+01  0.37980504565E+02 -0.32135276490E+03  0.36484929370E+03  0.16849792046E+03 0.  0.
        -24    2    3    3    0    0 -0.62505636579E+02  0.30538848321E+02 -0.19366001355E+03  0.22076672512E+03  0.79963555517E+02 0.  0.
          6    2    1    2  501    0 -0.36523529210E+01 -0.37980504565E+02 -0.28381036533E+03  0.33308367527E+03  0.17011923129E+03 0.  0.
         24    2    5    5    0    0 -0.50868933618E+02 -0.31821218940E+01 -0.95882048949E+02  0.13615862601E+03  0.82146392613E+02 0.  0.
          5    1    5    5  501    0  0.47216580697E+02 -0.34798382671E+02 -0.18792831638E+03  0.19692504926E+03  0.47000000000E+01 0. -1.
        -11    1    6    6    0    0 -0.43643738707E+02 -0.30143487996E+02 -0.94309006559E+02  0.10820163823E+03  0.00000000000E+00 0.  1.
         12    1    6    6    0    0 -0.72251949110E+01  0.26961366102E+02 -0.15730423902E+01  0.27956987784E+02  0.00000000000E+00 0. -1.
         -5    1    3    3    0  503  0.66157989500E+02  0.74416562433E+01 -0.12769275134E+03  0.14408256858E+03  0.47000000000E+01 0.  1.
         13    1    4    4    0    0 -0.26049975475E+02 -0.27171872915E+02 -0.73151859007E+02  0.82268501726E+02  0.00000000000E+00 0. -1.
        -14    1    4    4    0    0 -0.36455661103E+02  0.57710721236E+02 -0.12050815454E+03  0.13849822340E+03  0.00000000000E+00 0.  1.
</event>
<event>
12    1  0.8258923E-002  0.1815962E+03  0.7818608E-02  0.1166513E+00
         21   -1    0    0  503  502  0.00000000000E+00  0.00000000000E+00  0.12756332439E+04  0.12756332439E+04  0.00000000000E+00 0. -1.
         21   -1    0    0  501  503 -0.00000000000E+00 -0.00000000000E+00 -0.34301309246E+02  0.34301309246E+02  0.00000000000E+00 0. -1.
          6    2    1    2  501    0 -0.58185409361E+02 -0.30725247682E+01  0.29147684543E+03  0.34287619164E+03  0.17091035399E+03 0.  0.
         24    2    3    3    0    0 -0.78344104567E+02 -0.14854217315E+02  0.10361251834E+03  0.15350809331E+03  0.80440874336E+02 0.  0.
         -6    2    1    2    0  502  0.58185409361E+02  0.30725247682E+01  0.94985508924E+03  0.96705836152E+03  0.17199477247E+03 0.  0.
        -24    2    5    5    0    0 -0.10528954177E+02  0.42877268711E+02  0.30938426076E+03  0.32166619118E+03  0.76165600479E+02 0.  0.
          5    1    3    3  501    0  0.20158695206E+02  0.11781692547E+02  0.18786432708E+03  0.18936809832E+03  0.47000000000E+01 0. -1.
        -11    1    4    4    0    0 -0.87052914934E+02 -0.24822975390E+02  0.10668964899E+03  0.13991808785E+03  0.00000000000E+00 0.  1.
         12    1    4    4    0    0  0.87088103668E+01  0.99687580750E+01 -0.30771306483E+01  0.13590005467E+02  0.00000000000E+00 0. -1.
         -5    1    5    5    0  502  0.68714363538E+02 -0.39804743943E+02  0.64047082848E+03  0.64539217034E+03  0.47000000000E+01 0.  1.
         11    1    6    6    0    0 -0.29773318741E+02 -0.91303906181E+01  0.84816485253E+02  0.90352923098E+02  0.00000000000E+00 0. -1.
        -12    1    6    6    0    0  0.19244364563E+02  0.52007659329E+02  0.22456777551E+03  0.23131326809E+03  0.00000000000E+00 0.  1.
</event>
<event>
12    1  0.8258923E-002  0.1919935E+03  0.7818608E-02  0.1157900E+00
         21   -1    0    0  503  502  0.00000000000E+00  0.00000000000E+00  0.94714684579E+03  0.94714684579E+03  0.00000000000E+00 0. -1.
         21   -1    0    0  501  503 -0.00000000000E+00 -0.00000000000E+00 -0.60050049200E+02  0.60050049200E+02  0.00000000000E+00 0. -1.
          6    2    1    2  501    0 -0.14744622831E+02 -0.43818869498E+02  0.13321430349E+03  0.22925067329E+03  0.18075487081E+03 0.  0.
         24    2    3    3    0    0 -0.29085195830E+02 -0.24447159201E+02  0.16580214454E+03  0.18844659778E+03  0.81105837478E+02 0.  0.
         -6    2    1    2    0  502  0.14744622831E+02  0.43818869498E+02  0.75388249310E+03  0.77794622170E+03  0.18634380386E+03 0.  0.
        -24    2    5    5    0    0  0.27815524665E+02  0.16370331483E+02  0.73477596641E+03  0.74173268727E+03  0.96072719265E+02 0.  0.
          5    1    3    3  501    0  0.14340572999E+02 -0.19371710297E+02 -0.32587841046E+02  0.40804075505E+02  0.47000000000E+01 0. -1.
        -13    1    4    4    0    0  0.12321253941E+02  0.15508170800E+02  0.95822459344E+02  0.97848149573E+02  0.00000000000E+00 0.  1.
         14    1    4    4    0    0 -0.41406449771E+02 -0.39955330001E+02  0.69979685194E+02  0.90598448210E+02  0.00000000000E+00 0. -1.
         -5    1    5    5    0  502 -0.13070901835E+02  0.27448538015E+02  0.19106526686E+02  0.36213534430E+02  0.47000000000E+01 0.  1.
         11    1    6    6    0    0  0.21814538027E+02  0.25659546921E+02  0.79200659994E+02  0.86064109598E+02  0.00000000000E+00 0. -1.
        -12    1    6    6    0    0  0.60009866382E+01 -0.92892154379E+01  0.65557530642E+03  0.65566857768E+03  0.00000000000E+00 0.  1.
</event>
<event>
12    1  0.8258923E-002  0.1847376E+03  0.7818608E-02  0.1163910E+00
         21   -1    0    0  503  502  0.00000000000E+00  0.00000000000E+00  0.13068262212E+04  0.13068262212E+04  0.00000000000E+00 0.  1.
         21   -1    0    0  501  503 -0.00000000000E+00 -0.00000000000E+00 -0.25749903926E+02  0.25749903926E+02  0.00000000000E+00 0.  1.
          6    2    1    2  501    0  0.45024109586E+01  0.56413925846E+02  0.64194547953E+03  0.66728205489E+03  0.17311423789E+03 0.  0.
         24    2    3    3    0    0 -0.16584644183E+02  0.95437347405E+02  0.30984435527E+03  0.33219887409E+03  0.70492763813E+02 0.  0.
         -6    2    1    2    0  502 -0.45024109586E+01 -0.56413925846E+02  0.63913083776E+03  0.66529407025E+03  0.17585553559E+03 0.  0.
        -24    2    5    5    0    0  0.46085653072E+02 -0.45401972585E+02  0.56372810704E+03  0.57370762399E+03  0.84651241169E+02 0.  0.
          5    1    3    3  501    0  0.21087055142E+02 -0.39023421559E+02  0.33210112426E+03  0.33508318080E+03  0.47000000000E+01 0. -1.
        -13    1    4    4    0    0  0.19659092050E+00  0.16784515053E+02  0.58965001765E+01  0.17791214345E+02  0.00000000000E+00 0.  1.
         14    1    4    4    0    0 -0.16781235104E+02  0.78652832352E+02  0.30394785509E+03  0.31440765974E+03  0.00000000000E+00 0. -1.
         -5    1    5    5    0  502 -0.50588064031E+02 -0.11011953262E+02  0.75402730725E+02  0.91586446256E+02  0.47000000000E+01 0.  1.
         11    1    6    6    0    0  0.44473541738E+02  0.12371407222E+02  0.18942303917E+03  0.19496675460E+03  0.00000000000E+00 0. -1.
        -12    1    6    6    0    0  0.16121113341E+01 -0.57773379806E+02  0.37430506787E+03  0.37874086940E+03  0.00000000000E+00 0.  1.
</event>
<event>
12    1  0.8258923E-002  0.1815299E+03  0.7818608E-02  0.1167010E+00
         21   -1    0    0  503  502  0.00000000000E+00  0.00000000000E+00  0.34056634357E+03  0.34056634357E+03  0.00000000000E+00 0.  1.
         21   -1    0    0  501  503 -0.00000000000E+00 -0.00000000000E+00 -0.16755732812E+03  0.16755732812E+03  0.00000000000E+00 0.  1.
          6    2    1    2  501    0 -0.54244851091E+02  0.24646622799E+02 -0.80756209757E+02  0.19611419995E+03  0.16849110993E+03 0.  0.
         24    2    3    3    0    0 -0.10612715103E+02 -0.32532459345E+02 -0.54240076701E+00  0.88273781380E+02  0.81369377825E+02 0.  0.
         -6    2    1    2    0  502  0.54244851091E+02 -0.24646622799E+02  0.25376522521E+03  0.31200947173E+03  0.17147349952E+03 0.  0.
        -24    2    5    5    0    0  0.10163795397E+03 -0.47454497907E+01  0.16797083085E+03  0.21188489437E+03  0.79550081497E+02 0.  0.
          5    1    3    3  501    0 -0.43632135988E+02  0.57179082144E+02 -0.80213808990E+02  0.10784041857E+03  0.47000000000E+01 0. -1.
        -13    1    4    4    0    0  0.23055263034E+01  0.17789180109E+02 -0.25066031989E+02  0.30823308391E+02  0.00000000000E+00 0.  1.
         14    1    4    4    0    0 -0.12918241406E+02 -0.50321639454E+02  0.24523631222E+02  0.57450472989E+02  0.00000000000E+00 0. -1.
         -5    1    5    5    0  502 -0.47393102879E+02 -0.19901173008E+02  0.85794394362E+02  0.10012457736E+03  0.47000000000E+01 0.  1.
         13    1    6    6    0    0  0.25375312656E+02 -0.10807171977E+01 -0.20768476304E+01  0.25483087296E+02  0.00000000000E+00 0. -1.
        -14    1    6    6    0    0  0.76262641314E+02 -0.36647325930E+01  0.17004767848E+03  0.18640180708E+03  0.00000000000E+00 0.  1.
</event>
<event>
12    1  0.8258923E-002  0.2192186E+03  0.7818608E-02  0.1135618E+00
         21   -1    0    0  501  502  0.00000000000E+00  0.00000000000E+00  0.44458163270E+02  0.44458163270E+02  0.00000000000E+00 0.  1.
         21   -1    0    0  502  503 -0.00000000000E+00 -0.00000000000E+00 -0.13795199212E+04  0.13795199212E+04  0.00000000000E+00 0.  1.
         -6    2    1    2    0  503  0.13110234534E+03  0.26081293912E+02 -0.10076738362E+04  0.10299734576E+04  0.16604428413E+03 0.  0.
        -24    2    3    3    0    0  0.21174703136E+02 -0.72786650776E-01 -0.64269197931E+03  0.64787141844E+03  0.78968482372E+02 0.  0.
          6    2    1    2  501    0 -0.13110234534E+03 -0.26081293912E+02 -0.32738792178E+03  0.39400462695E+03  0.17374906010E+03 0.  0.
         24    2    5    5    0    0 -0.92563258158E+01 -0.11197959120E+01 -0.20184698558E+03  0.21722186332E+03  0.79725772529E+02 0.  0.
          5    1    5    5  501    0 -0.12184601952E+03 -0.24961498000E+02 -0.12554093620E+03  0.17678276363E+03  0.47000000000E+01 0. -1.
        -13    1    6    6    0    0 -0.42950161315E+02  0.11038198266E+02 -0.11709753449E+03  0.12521338092E+03  0.00000000000E+00 0.  1.
         14    1    6    6    0    0  0.33693835499E+02 -0.12157994178E+02 -0.84749451087E+02  0.92008482395E+02  0.00000000000E+00 0. -1.
         -5    1    3    3    0  503  0.10992764220E+03  0.26154080563E+02 -0.36498185687E+03  0.38210203911E+03  0.47000000000E+01 0.  1.
         11    1    4    4    0    0  0.31084109599E+02  0.33453152252E+02 -0.30956391643E+03  0.31291397160E+03  0.00000000000E+00 0. -1.
        -12    1    4    4    0    0 -0.99094064634E+01 -0.33525938903E+02 -0.33312806288E+03  0.33495744684E+03  0.00000000000E+00 0.  1.
</event>
<event>
12    1  0.8258923E-002  0.1738078E+03  0.7818608E-02  0.1174236E+00
         21   -1    0    0  501  502  0.00000000000E+00  0.00000000000E+00  0.23414850864E+02  0.23414850864E+02  0.00000000000E+00 0.  1.
         21   -1    0    0  502  503 -0.00000000000E+00 -0.00000000000E+00 -0.12855843927E+04  0.12855843927E+04  0.00000000000E+00 0.  1.
         -6    2    1    2    0  503 -0.94168925692E+01  0.24648342246E+02 -0.67070843159E+03  0.69286287263E+03  0.17179331017E+03 0.  0.
        -24    2    3    3    0    0 -0.94451476863E+01 -0.36049229174E+00 -0.13758020716E+03  0.15912769833E+03  0.79397545321E+02 0.  0.
          6    2    1    2  501    0  0.94168925692E+01 -0.24648342246E+02 -0.59146111025E+03  0.61613637094E+03  0.17059180524E+03 0.  0.
         24    2    5    5    0    0 -0.78298785031E+00 -0.58165364905E+02 -0.30561628065E+03  0.32811417566E+03  0.10427741137E+03 0.  0.
          5    1    5    5  501    0  0.10199880420E+02  0.33517022659E+02 -0.28584482960E+03  0.28802219528E+03  0.47000000000E+01 0. -1.
        -11    1    6    6    0    0 -0.45794472806E+02 -0.45404830270E+02 -0.23276946318E+03  0.24153748227E+03  0.00000000000E+00 0.  1.
         12    1    6    6    0    0  0.45011484955E+02 -0.12760534635E+02 -0.72846817476E+02  0.86576693390E+02  0.00000000000E+00 0. -1.
         -5    1    3    3    0  503  0.28255117147E-01  0.25008834537E+02 -0.53312822443E+03  0.53373517430E+03  0.47000000000E+01 0.  1.
         11    1    4    4    0    0 -0.41120022384E+02 -0.16275781686E+02 -0.69632758548E+02  0.82489262170E+02  0.00000000000E+00 0. -1.
        -12    1    4    4    0    0  0.31674874698E+02  0.15915289394E+02 -0.67947448615E+02  0.76638436159E+02  0.00000000000E+00 0.  1.
</event>
<event>
12    1  0.8258923E-002  0.2181921E+03  0.7818608E-02  0.1136017E+00
         21   -1    0    0  501  502  0.00000000000E+00  0.00000000000E+00  0.13242847731E+03  0.13242847731E+03  0.00000000000E+00 0.  1.
         21   -1    0    0  502  503 -0.00000000000E+00 -0.00000000000E+00 -0.11601074258E+04  0.11601074258E+04  0.00000000000E+00 0.  1.
         -6    2    1    2    0  503 -0.76078841197E+02  0.10986441315E+03 -0.10514741917E+04  0.10730501125E+04  0.16727339533E+03 0.  0.
        -24    2    3    3    0    0 -0.47298388614E+02  0.53101426306E+01 -0.29229369930E+03  0.30614919323E+03  0.77629805423E+02 0.  0.
          6    2    1    2  501    0  0.76078841197E+02 -0.10986441315E+03  0.23795243230E+02  0.21948579059E+03  0.17248077955E+03 0.  0.
         24    2    5    5    0    0  0.89009986342E+02 -0.97058228079E+02 -0.34821448874E+02  0.15792915420E+03  0.79912496750E+02 0.  0.
          5    1    5    5  501    0 -0.12931145145E+02 -0.12806185067E+02  0.58616692104E+02  0.61556636392E+02  0.47000000000E+01 0. -1.
        -13    1    6    6    0    0  0.87744588970E+02 -0.92420860153E+02 -0.48043917046E+01  0.12752964543E+03  0.00000000000E+00 0.  1.
         14    1    6    6    0    0  0.12653973719E+01 -0.46373679253E+01 -0.30017057169E+02  0.30399508761E+02  0.00000000000E+00 0. -1.
         -5    1    3    3    0  503 -0.28780452584E+02  0.10455427051E+03 -0.75918049240E+03  0.76690091927E+03  0.47000000000E+01 0.  1.
         11    1    4    4    0    0 -0.78308012739E+01  0.38233832248E+02 -0.10856339008E+03  0.11536531993E+03  0.00000000000E+00 0. -1.
        -12    1    4    4    0    0 -0.39467587340E+02 -0.32923689618E+02 -0.18373030922E+03  0.19078387331E+03  0.00000000000E+00 0.  1.
</event>
<event>
12    1  0.8258923E-002  0.1852902E+03  0.7818608E-02  0.1162811E+00
         21   -1    0    0  503  502  0.00000000000E+00  0.00000000000E+00  0.19937458130E+03  0.19937458130E+03  0.00000000000E+00 0.  1.
         21   -1    0    0  501  503 -0.00000000000E+00 -0.00000000000E+00 -0.17335450465E+03  0.17335450465E+03  0.00000000000E+00 0.  1.
          6    2    1    2  501    0 -0.55423256314E+02  0.40840796125E+02  0.29019945902E+02  0.18741464758E+03  0.17187898330E+03 0.  0.
         24    2    3    3    0    0  0.31466389807E+02  0.17975834757E+02 -0.14731069169E+02  0.87370365484E+02  0.78123697066E+02 0.  0.
         -6    2    1    2    0  502  0.55423256314E+02 -0.40840796125E+02 -0.29998692512E+01  0.18531443837E+03  0.17202538732E+03 0.  0.
        -24    2    5    5    0    0 -0.21884985001E+02 -0.61536683133E+02  0.12737602227E+02  0.10361595660E+03  0.79424832470E+02 0.  0.
          5    1    3    3  501    0 -0.86889646121E+02  0.22864961367E+02  0.43751015071E+02  0.10004428210E+03  0.47000000000E+01 0. -1.
        -13    1    4    4    0    0 -0.22946434761E+02 -0.52826245830E+01 -0.15499599766E+02  0.28190114998E+02  0.00000000000E+00 0.  1.
         14    1    4    4    0    0  0.54412824568E+02  0.23258459340E+02  0.76853059710E+00  0.59180250486E+02  0.00000000000E+00 0. -1.
         -5    1    5    5    0  502  0.77308241315E+02  0.20695887008E+02 -0.15737471478E+02  0.81698481765E+02  0.47000000000E+01 0.  1.
         11    1    6    6    0    0 -0.81119557982E+01 -0.58562756644E+02  0.41060490946E+02  0.71981693571E+02  0.00000000000E+00 0. -1.
        -12    1    6    6    0    0 -0.13773029203E+02 -0.29739264887E+01 -0.28322888719E+02  0.31634263032E+02  0.00000000000E+00 0.  1.
</event>
<event>
12    1  0.8258923E-002  0.2139155E+03  0.7818608E-02  0.1138717E+00
         21   -1    0    0  501  502  0.00000000000E+00  0.00000000000E+00  0.77539104993E+02  0.77539104993E+02  0.00000000000E+00 0.  1.
         21   -1    0    0  502  503 -0.00000000000E+00 -0.00000000000E+00 -0.61490623963E+03  0.61490623963E+03  0.00000000000E+00 0.  1.
         -6    2    1    2    0  503  0.11375023829E+03  0.55939436218E+02 -0.34297886098E+03  0.40422066343E+03  0.17231224107E+03 0.  0.
        -24    2    3    3    0    0  0.74829971780E+01 -0.20733141672E+02 -0.12946951674E+03  0.15366180644E+03  0.79773031682E+02 0.  0.
          6    2    1    2  501    0 -0.11375023829E+03 -0.55939436218E+02 -0.19438827366E+03  0.28822468120E+03  0.17093369674E+03 0.  0.
         24    2    5    5    0    0 -0.10272847662E+03  0.12065767618E+02 -0.75382103422E+02  0.15063563536E+03  0.79434944889E+02 0.  0.
          5    1    5    5  501    0 -0.11021761678E+02 -0.68005203836E+02 -0.11900617023E+03  0.13758904583E+03  0.47000000000E+01 0. -1.
        -11    1    6    6    0    0 -0.90892119491E+02  0.23764505687E+02 -0.88788472289E+02  0.12926531603E+03  0.00000000000E+00 0.  1.
         12    1    6    6    0    0 -0.11836357124E+02 -0.11698738069E+02  0.13406368867E+02  0.21370319337E+02  0.00000000000E+00 0. -1.
         -5    1    3    3    0  503  0.10626724112E+03  0.76672577890E+02 -0.21350934424E+03  0.25055885698E+03  0.47000000000E+01 0.  1.
         13    1    4    4    0    0 -0.12013464537E+02  0.13795491655E+02 -0.10603605702E+03  0.10760243635E+03  0.00000000000E+00 0. -1.
        -14    1    4    4    0    0  0.19496461715E+02 -0.34528633326E+02 -0.23433459720E+02  0.46059370092E+02  0.00000000000E+00 0.  1.
</event>
<event>
12    1  0.8258923E-002  0.2486690E+03  0.7818608E-02  0.1114271E+00
         21   -1    0    0  503  502  0.00000000000E+00  0.00000000000E+00  0.82198352433E+02  0.82198352433E+02  0.00000000000E+00 0. -1.
         21   -1    0    0  501  503 -0.00000000000E+00 -0.00000000000E+00 -0.84714251040E+03  0.84714251040E+03  0.00000000000E+00 0. -1.
          6    2    1    2  501    0  0.17759682882E+03  0.23072082972E+02 -0.54038126987E+03  0.59485138113E+03  0.17252041673E+03 0.  0.
         24    2    3    3    0    0  0.33450171013E+02  0.23364431418E+02 -0.31087348949E+03  0.32379003074E+03  0.80826028845E+02 0.  0.
         -6    2    1    2    0  502 -0.17759682882E+03 -0.23072082972E+02 -0.22456288810E+03  0.33448948171E+03  0.17141110827E+03 0.  0.
        -24    2    5    5    0    0 -0.18239033030E+03 -0.24268956082E+02 -0.24267425061E+03  0.31513692080E+03  0.81026366871E+02 0.  0.
          5    1    3    3  501    0  0.14414665781E+03 -0.29234844569E+00 -0.22950778038E+03  0.27106135039E+03  0.47000000000E+01 0. -1.
        -11    1    4    4    0    0  0.55586732397E+02 -0.32930774303E+01 -0.18083986970E+03  0.18921888819E+03  0.00000000000E+00 0.  1.
         12    1    4    4    0    0 -0.22136561384E+02  0.26657508848E+02 -0.13003361979E+03  0.13457114254E+03  0.00000000000E+00 0. -1.
         -5    1    5    5    0  502  0.47935014809E+01  0.11968731097E+01  0.18111362506E+02  0.19352560903E+02  0.47000000000E+01 0.  1.
         13    1    6    6    0    0 -0.83470437537E+02 -0.18549074719E+02 -0.17610589789E+03  0.19576687510E+03  0.00000000000E+00 0. -1.
        -14    1    6    6    0    0 -0.98919892763E+02 -0.57198813627E+01 -0.66568352721E+02  0.11937004570E+03  0.00000000000E+00 0.  1.
</event>
<event>
12    1  0.8258923E-002  0.1726360E+03  0.7818608E-02  0.1175319E+00
         21   -1    0    0  501  502  0.00000000000E+00  0.00000000000E+00  0.27228000320E+03  0.27228000320E+03  0.00000000000E+00 0. -1.
         21   -1    0    0  502  503 -0.00000000000E+00 -0.00000000000E+00 -0.11027715658E+03  0.11027715658E+03  0.00000000000E+00 0. -1.
         -6    2    1    2    0  503 -0.17281678928E+02 -0.16935615732E+02  0.60452028905E+02  0.18291426578E+03  0.17093188503E+03 0.  0.
        -24    2    3    3    0    0  0.82819017661E+01 -0.46721365132E+02 -0.20433006581E+02  0.92885567626E+02  0.77192908085E+02 0.  0.
          6    2    1    2  501    0  0.17281678928E+02  0.16935615732E+02  0.10155081771E+03  0.19964289401E+03  0.17017416092E+03 0.  0.
         24    2    5    5    0    0 -0.44507449700E+02  0.28671126774E+02  0.23068688429E+02  0.98959463134E+02  0.80360838526E+02 0.  0.
          5    1    5    5  501    0  0.61789128628E+02 -0.11735511042E+02  0.78482129285E+02  0.10068343088E+03  0.47000000000E+01 0. -1.
        -13    1    6    6    0    0 -0.46257884519E+02 -0.87088066451E+01 -0.11015976411E+02  0.48342392676E+02  0.00000000000E+00 0.  1.
         14    1    6    6    0    0  0.17504348192E+01  0.37379933419E+02  0.34084664840E+02  0.50617070458E+02  0.00000000000E+00 0. -1.
         -5    1    3    3    0  503 -0.25563580694E+02  0.29785749400E+02  0.80885035485E+02  0.90028698151E+02  0.47000000000E+01 0.  1.
         11    1    4    4    0    0 -0.34235623747E+02 -0.17974273138E+02 -0.14166451354E+02  0.41180587321E+02  0.00000000000E+00 0. -1.
        -12    1    4    4    0    0  0.42517525513E+02 -0.28747091994E+02 -0.62665552270E+01  0.51704980304E+02  0.00000000000E+00 0.  1.
</event>
<event>
12    1  0.8258923E-002  0.3256130E+03  0.7818608E-02  0.1073143E+00
         21   -1    0    0  503  502  0.00000000000E+00  0.00000000000E+00  0.16459400879E+04  0.16459400879E+04  0.00000000000E+00 0. -1.
         21   -1    0    0  501  503 -0.00000000000E+00 -0.00000000000E+00 -0.72520595288E+02  0.72520595288E+02  0.00000000000E+00 0. -1.
          6    2    1    2  501    0 -0.20218851573E+03 -0.18810672386E+03  0.49750118537E+03  0.59435036484E+03  0.17169913012E+03 0.  0.
         24    2    3    3    0    0 -0.15728888505E+03 -0.85647022512E+02  0.21897253006E+03  0.29415997682E+03  0.80659266123E+02 0.  0.
         -6    2    1    2    0  502  0.20218851573E+03  0.18810672386E+03  0.10759183072E+04  0.11241103183E+04  0.17250932872E+03 0.  0.
        -24    2    5    5    0    0  0.20989740687E+03  0.12264544438E+03  0.91549071137E+03  0.95060611197E+03  0.80186726236E+02 0.  0.
          5    1    3    3  501    0 -0.44899630681E+02 -0.10245970135E+03  0.27852865530E+03  0.30019038802E+03  0.47000000000E+01 0. -1.
        -13    1    4    4    0    0 -0.16037020144E+02  0.15000004601E+02  0.35019929006E+02  0.41334992207E+02  0.00000000000E+00 0.  1.
         14    1    4    4    0    0 -0.14125186491E+03 -0.10064702711E+03  0.18395260106E+03  0.25282498461E+03  0.00000000000E+00 0. -1.
         -5    1    5    5    0  502 -0.77088911327E+01  0.65461279481E+02  0.16042759582E+03  0.17350420633E+03  0.47000000000E+01 0.  1.
         13    1    6    6    0    0  0.19324768440E+03  0.12623560511E+03  0.76254975896E+03  0.79671966865E+03  0.00000000000E+00 0. -1.
        -14    1    6    6    0    0  0.16649722472E+02 -0.35901607317E+01  0.15294095242E+03  0.15388644332E+03  0.00000000000E+00 0.  1.
</event>
<event>
12    1  0.8258923E-002  0.2151327E+03  0.7818608E-02  0.1137591E+00
         21   -1    0    0  503  502  0.00000000000E+00  0.00000000000E+00  0.12821588499E+04  0.12821588499E+04  0.00000000000E+00 0. -1.
         21   -1    0    0  501  503 -0.00000000000E+00 -0.00000000000E+00 -0.68102587939E+02  0.68102587939E+02  0.00000000000E+00 0. -1.
          6    2    1    2  501    0  0.70325785554E+02 -0.10814386011E+03  0.14393020640E+03  0.25872498273E+03  0.17199390041E+03 0.  0.
         24    2    3    3    0    0  0.25215402167E+00 -0.11475983600E+03  0.71283368611E+02  0.15746424002E+03  0.80893662931E+02 0.  0.
         -6    2    1    2    0  502 -0.70325785554E+02  0.10814386011E+03  0.10701260556E+04  0.10915364551E+04  0.17216633662E+03 0.  0.
        -24    2    5    5    0    0 -0.22430357477E+02  0.12934342120E+03  0.63559822128E+03  0.65383801762E+03  0.79285640877E+02 0.  0.
          5    1    3    3  501    0  0.70073631533E+02  0.66159758888E+01  0.72646837794E+02  0.10126074271E+03  0.47000000000E+01 0. -1.
        -11    1    4    4    0    0  0.23839219697E+02 -0.12712395679E+02 -0.55317299611E+01  0.27577408073E+02  0.00000000000E+00 0.  1.
         12    1    4    4    0    0 -0.23587065675E+02 -0.10204744032E+03  0.76815098572E+02  0.12988683194E+03  0.00000000000E+00 0. -1.
         -5    1    5    5    0  502 -0.47895428078E+02 -0.21199561085E+02  0.43452783431E+03  0.43769843752E+03  0.47000000000E+01 0.  1.
         11    1    6    6    0    0 -0.21230990845E+02  0.28233646197E+02  0.33132784102E+03  0.33320569021E+03  0.00000000000E+00 0. -1.
        -12    1    6    6    0    0 -0.11993666317E+01  0.10110977500E+03  0.30427038026E+03  0.32063232741E+03  0.00000000000E+00 0.  1.
</event>
<event>
12    1  0.8258923E-002  0.1996446E+03  0.7818608E-02  0.1150606E+00
         21   -1    0    0  503  502  0.00000000000E+00  0.00000000000E+00  0.16795693284E+03  0.16795693284E+03  0.00000000000E+00 0. -1.
         21   -1    0    0  501  503 -0.00000000000E+00 -0.00000000000E+00 -0.26538019981E+03  0.26538019981E+03  0.00000000000E+00 0. -1.
          6    2    1    2  501    0  0.26961549808E+02 -0.97062188783E+02 -0.12331448669E+03  0.23465808419E+03  0.17236577441E+03 0.  0.
         24    2    3    3    0    0 -0.48464344097E+02 -0.65145070755E+02 -0.47243913529E+02  0.12278051720E+03  0.79059440590E+02 0.  0.
         -6    2    1    2    0  502 -0.26961549808E+02  0.97062188783E+02  0.25891219719E+02  0.19867904846E+03  0.16927792349E+03 0.  0.
        -24    2    5    5    0    0 -0.28839851793E+02  0.12133155163E+03  0.57431685213E+02  0.15856145937E+03  0.79311130725E+02 0.  0.
          5    1    3    3  501    0  0.75425893906E+02 -0.31917118028E+02 -0.76070573156E+02  0.11187756699E+03  0.47000000000E+01 0. -1.
        -11    1    4    4    0    0 -0.31107549080E+02 -0.85738840112E+01  0.16130620371E+02  0.36074755860E+02  0.00000000000E+00 0.  1.
         12    1    4    4    0    0 -0.17356795017E+02 -0.56571186744E+02 -0.63374533900E+02  0.86705761342E+02  0.00000000000E+00 0. -1.
         -5    1    5    5    0  502  0.18783019844E+01 -0.24269362850E+02 -0.31540465494E+02  0.40117589098E+02  0.47000000000E+01 0.  1.
         13    1    6    6    0    0  0.18076109255E+01  0.10400494785E+03  0.17768938861E+02  0.10552739844E+03  0.00000000000E+00 0. -1.
        -14    1    6    6    0    0 -0.30647462718E+02  0.17326603786E+02  0.39662746351E+02  0.53034060923E+02  0.00000000000E+00 0.  1.
</event>
<event>
12    1  0.8258923E-002  0.2727213E+03  0.7818608E-02  0.1101833E+00
         21   -1    0    0  501  502  0.00000000000E+00  0.00000000000E+00  0.10117338199E+03  0.10117338199E+03  0.00000000000E+00 0.  1.
         21   -1    0    0  502  503 -0.00000000000E+00 -0.00000000000E+00 -0.72195154402E+03  0.72195154402E+03  0.00000000000E+00 0.  1.
         -6    2    1    2    0  503  0.19247412512E+03 -0.77813424461E+01 -0.39546948810E+03  0.48038839877E+03  0.19305455064E+03 0.  0.
        -24    2    3    3    0    0  0.21742658662E+03  0.12783481569E+02 -0.29873276584E+03  0.37828246968E+03  0.80116312369E+02 0.  0.
          6    2    1    2  501    0 -0.19247412512E+03  0.77813424461E+01 -0.22530867393E+03  0.34273652724E+03  0.17203921189E+03 0.  0.
         24    2    5    5    0    0 -0.17599345635E+03 -0.45829380091E+02 -0.19352910545E+03  0.27810098758E+03  0.82538572085E+02 0.  0.
          5    1    5    5  501    0 -0.16480668769E+02  0.53610722538E+02 -0.31779568481E+02  0.64635539658E+02  0.47000000000E+01 0. -1.
        -13    1    6    6    0    0 -0.13750057610E+03 -0.59526807557E+02 -0.11254219238E+03  0.18739155347E+03  0.00000000000E+00 0.  1.
         14    1    6    6    0    0 -0.38492880250E+02  0.13697427465E+02 -0.80986913069E+02  0.90709434115E+02  0.00000000000E+00 0. -1.
         -5    1    3    3    0  503 -0.24952461502E+02 -0.20564824016E+02 -0.96736722261E+02  0.10210592909E+03  0.47000000000E+01 0.  1.
         11    1    4    4    0    0  0.29980837850E+02  0.31450376739E+02 -0.62988876963E+02  0.76521731922E+02  0.00000000000E+00 0. -1.
        -12    1    4    4    0    0  0.18744574877E+03 -0.18666895170E+02 -0.23574388888E+03  0.30176073776E+03  0.00000000000E+00 0.  1.
</event>
<event>
12    1  0.8258923E-002  0.2489277E+03  0.7818608E-02  0.1114675E+00
         21   -1    0    0  503  502  0.00000000000E+00  0.00000000000E+00  0.12036274683E+03  0.12036274683E+03  0.00000000000E+00 0.  1.
         21   -1    0    0  501  503 -0.00000000000E+00 -0.00000000000E+00 -0.57892672061E+03  0.57892672061E+03  0.00000000000E+00 0. -1.
          6    2    1    2  501    0  0.17728123848E+03 -0.26575285014E+02 -0.10340221856E+03  0.26557885668E+03  0.16644887209E+03 0.  0.
         24    2    3    3    0    0  0.11629843886E+03 -0.68883241222E+02 -0.27577897370E+02  0.15937018146E+03  0.79800291425E+02 0.  0.
         -6    2    1    2    0  502 -0.17728123848E+03  0.26575285014E+02 -0.35516175521E+03  0.43371061077E+03  0.17271403602E+03 0.  0.
        -24    2    5    5    0    0 -0.16071289965E+03  0.65593833143E+02 -0.21642087155E+03  0.28856213592E+03  0.79365770887E+02 0.  0.
          5    1    3    3  501    0  0.60982799615E+02  0.42307956208E+02 -0.75824321193E+02  0.10620867522E+03  0.47000000000E+01 0. -1.
        -11    1    4    4    0    0  0.31726624228E+02 -0.55341317780E+02  0.12180241063E+02  0.64943039742E+02  0.00000000000E+00 0.  1.
         12    1    4    4    0    0  0.84571814634E+02 -0.13541923442E+02 -0.39758138432E+02  0.94427141716E+02  0.00000000000E+00 0. -1.
         -5    1    5    5    0  502 -0.16568338831E+02 -0.39018548130E+02 -0.13874088366E+03  0.14514847484E+03  0.47000000000E+01 0.  1.
         13    1    6    6    0    0 -0.77005920679E+02 -0.78692432181E+00 -0.13022920566E+03  0.15129500017E+03  0.00000000000E+00 0. -1.
        -14    1    6    6    0    0 -0.83706978966E+02  0.66380757465E+02 -0.86191665883E+02  0.13726713575E+03  0.00000000000E+00 0.  1.
</event>
<event>
12    1  0.8258923E-002  0.1900572E+03  0.7818608E-02  0.1158865E+00
         21   -1    0    0  503  502  0.00000000000E+00  0.00000000000E+00  0.10775259421E+03  0.10775259421E+03  0.00000000000E+00 0. -1.
         21   -1    0    0  501  503 -0.00000000000E+00 -0.00000000000E+00 -0.12658960026E+04  0.12658960026E+04  0.00000000000E+00 0. -1.
          6    2    1    2  501    0  0.74465911761E+02  0.20682210020E+02 -0.11682836174E+04  0.11833210468E+04  0.17143267841E+03 0.  0.
         24    2    3    3    0    0  0.69279912193E+02  0.30395683854E+02 -0.40013035719E+03  0.41507449304E+03  0.80367457284E+02 0.  0.
         -6    2    1    2    0  502 -0.74465911761E+02 -0.20682210020E+02  0.10140208986E+02  0.19032755006E+03  0.17363417476E+03 0.  0.
        -24    2    5    5    0    0 -0.38646278050E+02  0.54352107859E+02  0.18395026660E+02  0.10664106947E+03  0.81155740740E+02 0.  0.
          5    1    3    3  501    0  0.51859995684E+01 -0.97134738335E+01 -0.76815326019E+03  0.76824655373E+03  0.47000000000E+01 0. -1.
        -13    1    4    4    0    0  0.23644831435E+02 -0.25267748638E+02 -0.18538139561E+03  0.18858366582E+03  0.00000000000E+00 0.  1.
         14    1    4    4    0    0  0.45635080758E+02  0.55663432492E+02 -0.21474896158E+03  0.22649082722E+03  0.00000000000E+00 0. -1.
         -5    1    5    5    0  502 -0.35819633711E+02 -0.75034317879E+02 -0.82548176741E+01  0.83686480590E+02  0.47000000000E+01 0.  1.
         11    1    6    6    0    0 -0.45404094196E+02  0.24237134290E+01 -0.10733759358E+02  0.46718516099E+02  0.00000000000E+00 0. -1.
        -12    1    6    6    0    0  0.67578161455E+01  0.51928394430E+02  0.29128786018E+02  0.59922553367E+02  0.00000000000E+00 0.  1.
</event>
<event>
12    1  0.8258923E-002  0.1952198E+03  0.7818608E-02  0.1154166E+00
         21   -1    0    0  501  502  0.00000000000E+00  0.00000000000E+00  0.11531578678E+03  0.11531578678E+03  0.00000000000E+00 0.  1.
         21   -1    0    0  502  503 -0.00000000000E+00 -0.00000000000E+00 -0.32795947041E+03  0.32795947041E+03  0.00000000000E+00 0.  1.
         -6    2    1    2    0  503 -0.70800146039E+02 -0.55862579189E+02 -0.10426744566E+03  0.21999026470E+03  0.17143724189E+03 0.  0.
        -24    2    3    3    0    0  0.20610584467E+02 -0.51881649285E+02 -0.56204843251E+02  0.11653074022E+03  0.85463017075E+02 0.  0.
          6    2    1    2  501    0  0.70800146039E+02  0.55862579189E+02 -0.10837623798E+03  0.22328499249E+03  0.17314008918E+03 0.  0.
         24    2    5    5    0    0  0.10537618018E+03  0.54827677836E+02 -0.43167881048E+02  0.14932018348E+03  0.79516272770E+02 0.  0.
          5    1    5    5  501    0 -0.34576034141E+02  0.10349013526E+01 -0.65208356932E+02  0.73964809007E+02  0.47000000000E+01 0. -1.
        -11    1    6    6    0    0  0.29958767472E+01  0.35474198195E+02 -0.25130917466E+02  0.43577024081E+02  0.00000000000E+00 0.  1.
         12    1    6    6    0    0  0.10238030343E+03  0.19353479641E+02 -0.18036963582E+02  0.10574315940E+03  0.00000000000E+00 0. -1.
         -5    1    3    3    0  503 -0.91410730506E+02 -0.39809299038E+01 -0.48062602405E+02  0.10345952447E+03  0.47000000000E+01 0.  1.
         13    1    4    4    0    0  0.51884819684E+02 -0.38667810513E+02 -0.22024807005E+02  0.68354416150E+02  0.00000000000E+00 0. -1.
        -14    1    4    4    0    0 -0.31274235217E+02 -0.13213838772E+02 -0.34180036245E+02  0.48176324074E+02  0.00000000000E+00 0.  1.
</event>
<event>
12    1  0.8258923E-002  0.1951712E+03  0.7818608E-02  0.1153904E+00
         21   -1    0    0  501  502  0.00000000000E+00  0.00000000000E+00  0.73752784222E+02  0.73752784222E+02  0.00000000000E+00 0. -1.
         21   -1    0    0  502  503 -0.00000000000E+00 -0.00000000000E+00 -0.10858008178E+04  0.10858008178E+04  0.00000000000E+00 0. -1.
         -6    2    1    2    0  503 -0.61682317673E+02 -0.69031286860E+02 -0.92588716227E+03  0.94620996531E+03  0.17168644183E+03 0.  0.
        -24    2    3    3    0    0 -0.79278928607E+02 -0.35069355043E+02 -0.35378321291E+03  0.37280951849E+03  0.79431524971E+02 0.  0.
          6    2    1    2  501    0  0.61682317673E+02  0.69031286860E+02 -0.86160871338E+02  0.21334363675E+03  0.17181904642E+03 0.  0.
         24    2    5    5    0    0 -0.19680918012E+02  0.39425800431E+02 -0.87960859119E+02  0.12661537778E+03  0.79703255137E+02 0.  0.
          5    1    5    5  501    0  0.81363235685E+02  0.29605486429E+02  0.17999877816E+01  0.86728258969E+02  0.47000000000E+01 0. -1.
        -13    1    6    6    0    0 -0.15793731252E+02  0.48043322868E+02 -0.14586193484E+02  0.52634208073E+02  0.00000000000E+00 0.  1.
         14    1    6    6    0    0 -0.38871867605E+01 -0.86175224376E+01 -0.73374665635E+02  0.73981169705E+02  0.00000000000E+00 0. -1.
         -5    1    3    3    0  503  0.17596610934E+02 -0.33961931816E+02 -0.57210394936E+03  0.57340044681E+03  0.47000000000E+01 0.  1.
         13    1    4    4    0    0  0.79249040037E+01 -0.66227077297E+01 -0.13739678400E+03  0.13778439903E+03  0.00000000000E+00 0. -1.
        -14    1    4    4    0    0 -0.87203832610E+02 -0.28446647314E+02 -0.21638642891E+03  0.23502511947E+03  0.00000000000E+00 0.  1.
</event>
<event>
12    1  0.8258923E-002  0.2094426E+03  0.7818608E-02  0.1142168E+00
         21   -1    0    0  501  502  0.00000000000E+00  0.00000000000E+00  0.91866247042E+02  0.91866247042E+02  0.00000000000E+00 0. -1.
         21   -1    0    0  502  503 -0.00000000000E+00 -0.00000000000E+00 -0.70602674346E+03  0.70602674346E+03  0.00000000000E+00 0. -1.
         -6    2    1    2    0  503 -0.95884518547E+02 -0.70773243885E+02 -0.53535762891E+03  0.57486868368E+03  0.17223100680E+03 0.  0.
        -24    2    3    3    0    0 -0.12130977594E+03 -0.17748649830E+02 -0.32650774016E+03  0.35784698588E+03  0.80100465721E+02 0.  0.
          6    2    1    2  501    0  0.95884518547E+02  0.70773243885E+02 -0.78802867513E+02  0.22302430682E+03  0.17125202643E+03 0.  0.
         24    2    5    5    0    0  0.83156157820E+02 -0.19019684004E+02 -0.47333138696E+02  0.12691387608E+03  0.81178882472E+02 0.  0.
          5    1    5    5  501    0  0.12728360727E+02  0.89792927889E+02 -0.31469728817E+02  0.96110430742E+02  0.47000000000E+01 0. -1.
        -13    1    6    6    0    0  0.54351408206E+02 -0.44408492284E+01 -0.69063672613E+02  0.87997656733E+02  0.00000000000E+00 0.  1.
         14    1    6    6    0    0  0.28804749615E+02 -0.14578834775E+02  0.21730533917E+02  0.38916219345E+02  0.00000000000E+00 0. -1.
         -5    1    3    3    0  503  0.25425257394E+02 -0.53024594056E+02 -0.20884988875E+03  0.21702169781E+03  0.47000000000E+01 0.  1.
         13    1    4    4    0    0 -0.13265739215E+03 -0.20085542503E+02 -0.30877242016E+03  0.33666276920E+03  0.00000000000E+00 0. -1.
        -14    1    4    4    0    0  0.11347616211E+02  0.23368926728E+01 -0.17735319993E+02  0.21184216678E+02  0.00000000000E+00 0.  1.
</event>
<event>
12    1  0.8258923E-002  0.1841220E+03  0.7818608E-02  0.1164160E+00
         21   -1    0    0  503  502  0.00000000000E+00  0.00000000000E+00  0.89308721217E+02  0.89308721217E+02  0.00000000000E+00 0. -1.
         21   -1    0    0  501  503 -0.00000000000E+00 -0.00000000000E+00 -0.40711327765E+03  0.40711327765E+03  0.00000000000E+00 0. -1.
          6    2    1    2  501    0 -0.43614012588E+02  0.46853336400E+02 -0.22582953962E+03  0.29060576274E+03  0.17133391710E+03 0.  0.
         24    2    3    3    0    0 -0.44051898072E+01 -0.39287845184E+02 -0.16768616786E+03  0.17942853203E+03  0.50129898646E+02 0.  0.
         -6    2    1    2    0  502  0.43614012588E+02 -0.46853336400E+02 -0.91975016814E+02  0.20581623613E+03  0.17263690831E+03 0.  0.
        -24    2    5    5    0    0  0.69490838048E+02 -0.51809121323E+02 -0.82040841318E+01  0.11787404453E+03  0.79459560489E+02 0.  0.
          5    1    3    3  501    0 -0.39208822780E+02  0.86141181584E+02 -0.58143371754E+02  0.11117723071E+03  0.47000000000E+01 0. -1.
        -13    1    4    4    0    0 -0.24256032780E+02 -0.11102592546E+02 -0.99621810351E+02  0.10313160420E+03  0.00000000000E+00 0.  1.
         14    1    4    4    0    0  0.19850842973E+02 -0.28185252638E+02 -0.68064357513E+02  0.76296927833E+02  0.00000000000E+00 0. -1.
         -5    1    5    5    0  502 -0.25876825460E+02  0.49557849223E+01 -0.83770932682E+02  0.87942191595E+02  0.47000000000E+01 0.  1.
         13    1    6    6    0    0  0.77691331164E+01 -0.58574580623E+01  0.30303912332E+02  0.31827603538E+02  0.00000000000E+00 0. -1.
        -14    1    6    6    0    0  0.61721704931E+02 -0.45951663260E+02 -0.38507996464E+02  0.86046440994E+02  0.00000000000E+00 0.  1.
</event>
<event>
12    1  0.8258923E-002  0.2274373E+03  0.7818608E-02  0.1128477E+00
         21   -1    0    0  503  502  0.00000000000E+00  0.00000000000E+00  0.20511728582E+03  0.20511728582E+03  0.00000000000E+00 0. -1.
         21   -1    0    0  501  503 -0.00000000000E+00 -0.00000000000E+00 -0.25441997637E+03  0.25441997637E+03  0.00000000000E+00 0. -1.
          6    2    1    2  501    0  0.67445991458E+02  0.13153416743E+03 -0.46788930550E+02  0.23220014826E+03  0.17285110895E+03 0.  0.
         24    2    3    3    0    0  0.58018913240E+01  0.11210564081E+03 -0.77505923410E+02  0.16048483345E+03  0.84539203694E+02 0.  0.
         -6    2    1    2    0  502 -0.67445991458E+02 -0.13153416743E+03 -0.25137599970E+01  0.22733711392E+03  0.17270102898E+03 0.  0.
        -24    2    5    5    0    0 -0.26761605714E+02 -0.55378191873E+01  0.33818258611E+02  0.89960243271E+02  0.78754807930E+02 0.  0.
          5    1    3    3  501    0  0.61644100134E+02  0.19428526620E+02  0.30716992859E+02  0.71715314810E+02  0.47000000000E+01 0. -1.
        -13    1    4    4    0    0  0.25683047332E+02  0.98696576222E+02 -0.87624479816E+02  0.13445699142E+03  0.00000000000E+00 0.  1.
         14    1    4    4    0    0 -0.19881156008E+02  0.13409064585E+02  0.10118556406E+02  0.26027842035E+02  0.00000000000E+00 0. -1.
         -5    1    5    5    0  502 -0.40684385745E+02 -0.12599634824E+03 -0.36332018608E+02  0.13737687065E+03  0.47000000000E+01 0.  1.
         11    1    6    6    0    0 -0.96872323645E+01 -0.32826560491E+02  0.44413438965E+02  0.56071196752E+02  0.00000000000E+00 0. -1.
        -12    1    6    6    0    0 -0.17074373349E+02  0.27288741303E+02 -0.10595180354E+02  0.33889046519E+02  0.00000000000E+00 0.  1.
</event>
<event>
12    1  0.8258923E-002  0.4355256E+03  0.7818608E-02  0.1032183E+00
         21   -1    0    0  503  502  0.00000000000E+00  0.00000000000E+00  0.64072090459E+03  0.64072090459E+03  0.00000000000E+00 0.  1.
         21   -1    0    0  501  503 -0.00000000000E+00 -0.00000000000E+00 -0.30569281236E+03  0.30569281236E+03  0.00000000000E+00 0. -1.
          6    2    1    2  501    0 -0.35040724796E+03 -0.19272224985E+03  0.25376795243E+03  0.50406417670E+03  0.17249758126E+03 0.  0.
         24    2    3    3    0    0 -0.28742398854E+03 -0.10117749234E+03  0.23218992857E+03  0.39077236452E+03  0.77080761498E+02 0.  0.
         -6    2    1    2    0  502  0.35040724796E+03  0.19272224985E+03  0.81260139797E+02  0.44234954025E+03  0.17071262527E+03 0.  0.
        -24    2    5    5    0    0  0.15059583226E+03  0.75375557776E+02 -0.23582732595E+02  0.18796996977E+03  0.80099843041E+02 0.  0.
          5    1    3    3  501    0 -0.62983259420E+02 -0.91544757505E+02  0.21578023857E+02  0.11329181218E+03  0.47000000000E+01 0. -1.
        -11    1    4    4    0    0 -0.15504276149E+03 -0.94077939636E+02  0.12453193294E+03  0.21999345203E+03  0.00000000000E+00 0.  1.
         12    1    4    4    0    0 -0.13238122705E+03 -0.70995527053E+01  0.10765799564E+03  0.17077891248E+03  0.00000000000E+00 0. -1.
         -5    1    5    5    0  502  0.19981141570E+03  0.11734669207E+03  0.10484287239E+03  0.25437957048E+03  0.47000000000E+01 0.  1.
         13    1    6    6    0    0  0.10316131083E+03  0.22889988821E+02  0.16047104598E+02  0.10688179081E+03  0.00000000000E+00 0. -1.
        -14    1    6    6    0    0  0.47434521433E+02  0.52485568955E+02 -0.39629837192E+02  0.81088178966E+02  0.00000000000E+00 0.  1.
</event>
<event>
12    1  0.8258923E-002  0.2582619E+03  0.7818608E-02  0.1108250E+00
         21   -1    0    0  501  502  0.00000000000E+00  0.00000000000E+00  0.13862385979E+03  0.13862385979E+03  0.00000000000E+00 0.  1.
         21   -1    0    0  502  503 -0.00000000000E+00 -0.00000000000E+00 -0.53054140819E+03  0.53054140819E+03  0.00000000000E+00 0. -1.
         -6    2    1    2    0  503 -0.19229469043E+03 -0.64693893233E+01 -0.29891284037E+03  0.39502925739E+03  0.17227921258E+03 0.  0.
        -24    2    3    3    0    0 -0.14823111196E+03 -0.66359451250E+02 -0.18491928276E+03  0.25884908393E+03  0.80197679478E+02 0.  0.
          6    2    1    2  501    0  0.19229469043E+03  0.64693893233E+01 -0.93004708032E+02  0.27413601060E+03  0.17170199657E+03 0.  0.
         24    2    5    5    0    0  0.15925992636E+03  0.58083946568E+01 -0.13221263091E+03  0.22264733449E+03  0.81818055416E+02 0.  0.
          5    1    5    5  501    0  0.33034764070E+02  0.66099466653E+00  0.39207922876E+02  0.51488676108E+02  0.47000000000E+01 0. -1.
        -11    1    6    6    0    0  0.93536394801E+02  0.21496221786E+02 -0.30818745213E+02  0.10080148689E+03  0.00000000000E+00 0.  1.
         12    1    6    6    0    0  0.65723531559E+02 -0.15687827129E+02 -0.10139388569E+03  0.12184584760E+03  0.00000000000E+00 0. -1.
         -5    1    3    3    0  503 -0.44063578469E+02  0.59890061926E+02 -0.11399355761E+03  0.13618017345E+03  0.47000000000E+01 0.  1.
         11    1    4    4    0    0 -0.14310757237E+03 -0.43093133098E+02 -0.12666027848E+03  0.19590717581E+03  0.00000000000E+00 0. -1.
        -12    1    4    4    0    0 -0.51235395889E+01 -0.23266318151E+02 -0.58259004278E+02  0.62941908119E+02  0.00000000000E+00 0.  1.
</event>
<event>
12    1  0.8258923E-002  0.4465426E+03  0.7818608E-02  0.1028773E+00
         21   -1    0    0  503  502  0.00000000000E+00  0.00000000000E+00  0.38293541539E+03  0.38293541539E+03  0.00000000000E+00 0.  1.
         21   -1    0    0  501  503 -0.00000000000E+00 -0.00000000000E+00 -0.61906977817E+03  0.61906977817E+03  0.00000000000E+00 0. -1.
          6    2    1    2  501    0  0.36484483052E+03 -0.19143501761E+03  0.81835696368E+02  0.45397945615E+03  0.17216605091E+03 0.  0.
         24    2    3    3    0    0  0.96041749558E+02 -0.34008957522E+02  0.51027803526E+02  0.14091512253E+03  0.82901195252E+02 0.  0.
         -6    2    1    2    0  502 -0.36484483052E+03  0.19143501761E+03 -0.31797005915E+03  0.54802573741E+03  0.17166284987E+03 0.  0.
        -24    2    5    5    0    0 -0.17073007128E+03  0.15820023613E+03 -0.15883409767E+03  0.29478388721E+03  0.86563257951E+02 0.  0.
          5    1    3    3  501    0  0.26880308096E+03 -0.15742606009E+03  0.30807892842E+02  0.31306433363E+03  0.47000000000E+01 0. -1.
        -13    1    4    4    0    0  0.69736988522E+02  0.11318707756E+02  0.44314680277E+01  0.70788407400E+02  0.00000000000E+00 0.  1.
         14    1    4    4    0    0  0.26304761036E+02 -0.45327665277E+02  0.46596335498E+02  0.70126715127E+02  0.00000000000E+00 0. -1.
         -5    1    5    5    0  502 -0.19411475924E+03  0.33234781475E+02 -0.15913596147E+03  0.25324185019E+03  0.47000000000E+01 0.  1.
         11    1    6    6    0    0 -0.28701099573E+02  0.57414347847E+01 -0.54256096088E+02  0.61647718147E+02  0.00000000000E+00 0. -1.
        -12    1    6    6    0    0 -0.14202897170E+03  0.15245880135E+03 -0.10457800158E+03  0.23313616907E+03  0.00000000000E+00 0.  1.
</event>
<event>
12    1  0.8258923E-002  0.2085228E+03  0.7818608E-02  0.1142753E+00
         21   -1    0    0  503  502  0.00000000000E+00  0.00000000000E+00  0.28330903155E+02  0.28330903155E+02  0.00000000000E+00 0.  1.
         21   -1    0    0  501  503 -0.00000000000E+00 -0.00000000000E+00 -0.20635630809E+04  0.20635630809E+04  0.00000000000E+00 0.  1.
          6    2    1    2  501    0  0.11001081669E+03  0.38707399450E+02 -0.15474127648E+04  0.15613993788E+04  0.17286154269E+03 0.  0.
         24    2    3    3    0    0  0.41191764866E+02  0.54928487864E+02 -0.12875180465E+04  0.12920176048E+04  0.83023313742E+02 0.  0.
         -6    2    1    2    0  502 -0.11001081669E+03 -0.38707399450E+02 -0.48781941298E+03  0.53049460528E+03  0.17278918943E+03 0.  0.
        -24    2    5    5    0    0 -0.67639715080E+02  0.41498507536E+02 -0.34583122970E+03  0.36193888167E+03  0.71437087347E+02 0.  0.
          5    1    3    3  501    0  0.68819051824E+02 -0.16221088414E+02 -0.25989471826E+03  0.26938177404E+03  0.47000000000E+01 0. -1.
        -11    1    4    4    0    0  0.27635650733E+02  0.53333162312E+02 -0.40841845709E+03  0.41281205347E+03  0.00000000000E+00 0.  1.
         12    1    4    4    0    0  0.13556114132E+02  0.15953255522E+01 -0.87909958946E+03  0.87920555132E+03  0.00000000000E+00 0. -1.
         -5    1    5    5    0  502 -0.42371101609E+02 -0.80205906986E+02 -0.14198818329E+03  0.16855572360E+03  0.47000000000E+01 0.  1.
         11    1    6    6    0    0 -0.77445616761E+02  0.50882313217E+02 -0.28819993416E+03  0.30273096208E+03  0.00000000000E+00 0. -1.
        -12    1    6    6    0    0  0.98059016808E+01 -0.93838056814E+01 -0.57631295537E+02  0.59207919589E+02  0.00000000000E+00 0.  1.
</event>
<event>
12    1  0.8258923E-002  0.2100487E+03  0.7818608E-02  0.1141681E+00
         21   -1    0    0  503  502  0.00000000000E+00  0.00000000000E+00  0.72574019512E+03  0.72574019512E+03  0.00000000000E+00 0. -1.
         21   -1    0    0  501  503 -0.00000000000E+00 -0.00000000000E+00 -0.63844204300E+02  0.63844204300E+02  0.00000000000E+00 0.  1.
          6    2    1    2  501    0 -0.63409650816E+02 -0.10121424518E+03  0.24097184726E+03  0.31916161931E+03  0.17184760930E+03 0.  0.
         24    2    3    3    0    0 -0.32734682977E+02 -0.54592632955E+02  0.24184094323E+03  0.26314935542E+03  0.81906204853E+02 0.  0.
         -6    2    1    2    0  502  0.63409650816E+02  0.10121424518E+03  0.42092414356E+03  0.47042278011E+03  0.17278700812E+03 0.  0.
        -24    2    5    5    0    0 -0.31176068135E+02  0.62846432176E+02  0.18439039201E+03  0.21276243600E+03  0.79664397615E+02 0.  0.
          5    1    3    3  501    0 -0.30674967840E+02 -0.46621612220E+02 -0.86909596813E+00  0.56012263887E+02  0.47000000000E+01 0. -1.
        -11    1    4    4    0    0  0.22446633942E+02  0.15230016496E+01  0.32714394737E+02  0.39703935981E+02  0.00000000000E+00 0.  1.
         12    1    4    4    0    0 -0.55181316919E+02 -0.56115634604E+02  0.20912654849E+03  0.22344541944E+03  0.00000000000E+00 0. -1.
         -5    1    5    5    0  502  0.94585718951E+02  0.38367812999E+02  0.23653375155E+03  0.25766034411E+03  0.47000000000E+01 0.  1.
         13    1    6    6    0    0  0.18967530044E+02  0.39626915959E+02  0.12067278423E+03  0.12842110620E+03  0.00000000000E+00 0. -1.
        -14    1    6    6    0    0 -0.50143598179E+02  0.23219516217E+02  0.63717607781E+02  0.84341329804E+02  0.00000000000E+00 0.  1.
</event>
<event>
12    1  0.8258923E-002  0.1948253E+03  0.7818608E-02  0.1155056E+00
         21   -1    0    0  503  502  0.00000000000E+00  0.00000000000E+00  0.54525853304E+03  0.54525853304E+03  0.00000000000E+00 0. -1.
         21   -1    0    0  501  503 -0.00000000000E+00 -0.00000000000E+00 -0.82854712050E+03  0.82854712050E+03  0.00000000000E+00 0.  1.
          6    2    1    2  501    0 -0.44566909898E+01  0.90482844579E+02 -0.79978624382E+03  0.82317368942E+03  0.17248153493E+03 0.  0.
         24    2    3    3    0    0 -0.12492675636E+02 -0.74619418674E+01 -0.51693548935E+03  0.52370015545E+03  0.82630534022E+02 0.  0.
         -6    2    1    2    0  502  0.44566909898E+01 -0.90482844579E+02  0.51649765636E+03  0.55063196412E+03  0.16798429576E+03 0.  0.
        -24    2    5    5    0    0 -0.27718877988E+02 -0.63785716231E+01  0.35988455812E+03  0.36991520090E+03  0.80692864045E+02 0.  0.
          5    1    3    3  501    0  0.80359846462E+01  0.97944786446E+02 -0.28285075447E+03  0.29947353397E+03  0.47000000000E+01 0. -1.
        -13    1    4    4    0    0  0.23330480808E+02  0.11561224146E+02 -0.37981404452E+03  0.38070550516E+03  0.00000000000E+00 0.  1.
         14    1    4    4    0    0 -0.35823156444E+02 -0.19023166013E+02 -0.13712144482E+03  0.14299465029E+03  0.00000000000E+00 0. -1.
         -5    1    5    5    0  502  0.32175568977E+02 -0.84104272956E+02  0.15661309824E+03  0.18071676322E+03  0.47000000000E+01 0.  1.
         13    1    6    6    0    0 -0.84256955647E+01  0.12258810210E+02  0.77735920855E+01  0.16783906203E+02  0.00000000000E+00 0. -1.
        -14    1    6    6    0    0 -0.19293182423E+02 -0.18637381834E+02  0.35211096604E+03  0.35313129469E+03  0.00000000000E+00 0.  1.
</event>
<event>
12    1  0.8258923E-002  0.1764855E+03  0.7818608E-02  0.1171369E+00
         21   -1    0    0  503  502  0.00000000000E+00  0.00000000000E+00  0.32491950694E+03  0.32491950694E+03  0.00000000000E+00 0. -1.
         21   -1    0    0  501  503 -0.00000000000E+00 -0.00000000000E+00 -0.11452480455E+03  0.11452480455E+03  0.00000000000E+00 0. -1.
          6    2    1    2  501    0  0.40279746709E+02  0.31659836451E+01  0.15996544287E+02  0.17720893731E+03  0.17179824384E+03 0.  0.
         24    2    3    3    0    0 -0.11858629553E+02 -0.48509175589E+02 -0.15317904934E+02  0.97262598491E+02  0.82046374950E+02 0.  0.
         -6    2    1    2    0  502 -0.40279746709E+02 -0.31659836451E+01  0.19439815810E+03  0.26223537418E+03  0.17130168170E+03 0.  0.
        -24    2    5    5    0    0 -0.53352518287E+02 -0.27582666521E+02  0.43991498983E+02  0.10922777677E+03  0.79925969091E+02 0.  0.
          5    1    3    3  501    0  0.52138376263E+02  0.51675159234E+02  0.31314449221E+02  0.79946338823E+02  0.47000000000E+01 0. -1.
        -13    1    4    4    0    0 -0.11057715585E+02 -0.31159134016E+02  0.32516021254E+02  0.46373013109E+02  0.00000000000E+00 0.  1.
         14    1    4    4    0    0 -0.80091396843E+00 -0.17350041573E+02 -0.47833926188E+02  0.50889585382E+02  0.00000000000E+00 0. -1.
         -5    1    5    5    0  502  0.13072771578E+02  0.24416682876E+02  0.15040665911E+03  0.15300759741E+03  0.47000000000E+01 0.  1.
         13    1    6    6    0    0 -0.68144073136E+02 -0.18730364823E+01  0.19898530503E+02  0.71014607550E+02  0.00000000000E+00 0. -1.
        -14    1    6    6    0    0  0.14791554849E+02 -0.25709630038E+02  0.24092968480E+02  0.38213169219E+02  0.00000000000E+00 0.  1.
</event>
<event>
12    1  0.8258923E-002  0.2659179E+03  0.7818608E-02  0.1103924E+00
         21   -1    0    0  503  502  0.00000000000E+00  0.00000000000E+00  0.75719723860E+03  0.75719723860E+03  0.00000000000E+00 0.  1.
         21   -1    0    0  501  503 -0.00000000000E+00 -0.00000000000E+00 -0.10035111953E+03  0.10035111953E+03  0.00000000000E+00 0.  1.
          6    2    1    2  501    0 -0.20184051834E+03 -0.58104165744E+01  0.44789911026E+03  0.52088955397E+03  0.17302877991E+03 0.  0.
         24    2    3    3    0    0 -0.17597450011E+03  0.64397048900E+01  0.45228517137E+03  0.49155622980E+03  0.77827734943E+02 0.  0.
         -6    2    1    2    0  502  0.20184051834E+03  0.58104165744E+01  0.20894700881E+03  0.33665880416E+03  0.17002041683E+03 0.  0.
        -24    2    5    5    0    0  0.20696140860E+03  0.25579721120E+02  0.13499734788E+03  0.25979729707E+03  0.76046070575E+02 0.  0.
          5    1    3    3  501    0 -0.25866018231E+02 -0.12250121464E+02 -0.43860611039E+01  0.29333324173E+02  0.47000000000E+01 0. -1.
        -11    1    4    4    0    0 -0.46897411983E+02  0.32967835508E+02  0.97693396544E+02  0.11327067210E+03  0.00000000000E+00 0.  1.
         12    1    4    4    0    0 -0.12907708813E+03 -0.26528130618E+02  0.35459177482E+03  0.37828555770E+03  0.00000000000E+00 0. -1.
         -5    1    5    5    0  502 -0.51208902584E+01 -0.19769304546E+02  0.73949660931E+02  0.76861507083E+02  0.47000000000E+01 0.  1.
         11    1    6    6    0    0  0.12692076320E+03  0.15612057420E+02  0.37504129771E+02  0.13326355923E+03  0.00000000000E+00 0. -1.
        -12    1    6    6    0    0  0.80040645395E+02  0.99676636996E+01  0.97493218109E+02  0.12653373784E+03  0.00000000000E+00 0.  1.
</event>
<event>
12    1  0.8258923E-002  0.2601594E+03  0.7818608E-02  0.1107302E+00
         21   -1    0    0  501  502  0.00000000000E+00  0.00000000000E+00  0.90751608824E+03  0.90751608824E+03  0.00000000000E+00 0.  1.
         21   -1    0    0  502  503 -0.00000000000E+00 -0.00000000000E+00 -0.11438973759E+03  0.11438973759E+03  0.00000000000E+00 0. -1.
         -6    2    1    2    0  503 -0.18901119619E+03  0.49619906409E+02  0.92479626242E+02  0.27451786673E+03  0.16917508826E+03 0.  0.
        -24    2    3    3    0    0 -0.17504645995E+03  0.25908427380E+02  0.19777616409E+02  0.19664026835E+03  0.83448974074E+02 0.  0.
          6    2    1    2  501    0  0.18901119619E+03 -0.49619906409E+02  0.70064672440E+03  0.74738795910E+03  0.17174271918E+03 0.  0.
         24    2    5    5    0    0  0.13620524582E+03  0.33504323748E+02  0.42328248036E+03  0.45302233626E+03  0.79917271443E+02 0.  0.
          5    1    5    5  501    0  0.52805950364E+02 -0.83124230158E+02  0.27736424404E+03  0.29436562284E+03  0.47000000000E+01 0. -1.
        -13    1    6    6    0    0  0.23096997191E+02  0.22179692403E+02  0.19918718682E+03  0.20174475316E+03  0.00000000000E+00 0.  1.
         14    1    6    6    0    0  0.11310824863E+03  0.11324631345E+02  0.22409529354E+03  0.25127758310E+03  0.00000000000E+00 0. -1.
         -5    1    3    3    0  503 -0.13964736234E+02  0.23711479030E+02  0.72702009833E+02  0.77877598381E+02  0.47000000000E+01 0.  1.
         13    1    4    4    0    0 -0.16005852135E+03  0.99653818555E+01  0.41663087840E+02  0.16569203958E+03  0.00000000000E+00 0. -1.
        -14    1    4    4    0    0 -0.14987938607E+02  0.15943045524E+02 -0.21885471431E+02  0.30948228770E+02  0.00000000000E+00 0.  1.
</event>
<event>
12    1  0.8258923E-002  0.2245411E+03  0.7818608E-02  0.1134145E+00
         21   -1    0    0  501  502  0.00000000000E+00  0.00000000000E+00  0.83971600534E+02  0.83971600534E+02  0.00000000000E+00 0.  1.
         21   -1    0    0  502  503 -0.00000000000E+00 -0.00000000000E+00 -0.89559167706E+03  0.89559167706E+03  0.00000000000E+00 0.  1.
         -6    2    1    2    0  503  0.18895326931E+02  0.11055206870E+03 -0.72049301256E+03  0.75467136643E+03  0.19452479759E+03 0.  0.
        -24    2    3    3    0    0 -0.37318757088E+02  0.12338749441E+03 -0.37434159974E+03  0.40371885967E+03  0.78994436228E+02 0.  0.
          6    2    1    2  501    0 -0.18895326931E+02 -0.11055206870E+03 -0.91127063967E+02  0.22489191117E+03  0.17231783613E+03 0.  0.
         24    2    5    5    0    0  0.55318610852E+01 -0.10579081428E+03 -0.20118490370E+01  0.13224759893E+03  0.79139636172E+02 0.  0.
          5    1    5    5  501    0 -0.24427188016E+02 -0.47612544164E+01 -0.89115214930E+02  0.92644312237E+02  0.47000000000E+01 0. -1.
        -11    1    6    6    0    0 -0.23049705035E+02 -0.21973524447E+02  0.24083140036E+02  0.39926461311E+02  0.00000000000E+00 0.  1.
         12    1    6    6    0    0  0.28581566120E+02 -0.83817289836E+02 -0.26094989072E+02  0.92321137623E+02  0.00000000000E+00 0. -1.
         -5    1    3    3    0  503  0.56214084020E+02 -0.12835425707E+02 -0.34615141283E+03  0.35095250675E+03  0.47000000000E+01 0.  1.
         13    1    4    4    0    0  0.18049546031E+01 -0.66408347887E+01 -0.71479538861E+02  0.71810048207E+02  0.00000000000E+00 0. -1.
        -14    1    4    4    0    0 -0.39123711692E+02  0.13002832920E+03 -0.30286206088E+03  0.33190881147E+03  0.00000000000E+00 0.  1.
</event>
<event>
12    1  0.8258923E-002  0.1757222E+03  0.7818608E-02  0.1172392E+00
         21   -1    0    0  503  502  0.00000000000E+00  0.00000000000E+00  0.98063562494E+02  0.98063562494E+02  0.00000000000E+00 0. -1.
         21   -1    0    0  501  503 -0.00000000000E+00 -0.00000000000E+00 -0.31541388019E+03  0.31541388019E+03  0.00000000000E+00 0. -1.
          6    2    1    2  501    0 -0.41126361375E+01  0.28506882135E+02 -0.13019038001E+03  0.21869573652E+03  0.17334570667E+03 0.  0.
         24    2    3    3    0    0  0.27409674845E+02 -0.18534281593E+02 -0.13590978247E+03  0.16158769209E+03  0.80896868881E+02 0.  0.
         -6    2    1    2    0  502  0.41126361375E+01 -0.28506882135E+02 -0.87159937684E+02  0.19478170616E+03  0.17179494233E+03 0.  0.
        -24    2    5    5    0    0  0.83965109237E+00  0.40301688975E+02 -0.86526058750E+02  0.12573227682E+03  0.81834683623E+02 0.  0.
          5    1    3    3  501    0 -0.31522310982E+02  0.47041163728E+02  0.57194024604E+01  0.57108044433E+02  0.47000000000E+01 0. -1.
        -11    1    4    4    0    0  0.39868680922E+02  0.11233133433E+02 -0.30747934540E+02  0.51586146238E+02  0.00000000000E+00 0.  1.
         12    1    4    4    0    0 -0.12459006078E+02 -0.29767415026E+02 -0.10516184793E+03  0.11000154585E+03  0.00000000000E+00 0. -1.
         -5    1    5    5    0  502  0.32729850451E+01 -0.68808571110E+02 -0.63387893376E+00  0.69049429337E+02  0.47000000000E+01 0.  1.
         13    1    6    6    0    0  0.22330105004E+02 -0.17735784810E+02 -0.35401562959E+02  0.45458358002E+02  0.00000000000E+00 0. -1.
        -14    1    6    6    0    0 -0.21490453911E+02  0.58037473785E+02 -0.51124495791E+02  0.80273918819E+02  0.00000000000E+00 0.  1.
</event>
<event>
12    1  0.8258923E-002  0.2284971E+03  0.7818608E-02  0.1127762E+00
         21   -1    0    0  503  502  0.00000000000E+00  0.00000000000E+00  0.45046247903E+03  0.45046247903E+03  0.00000000000E+00 0. -1.
         21   -1    0    0  501  503 -0.00000000000E+00 -0.00000000000E+00 -0.11822520493E+03  0.11822520493E+03  0.00000000000E+00 0. -1.
          6    2    1    2  501    0 -0.74857537167E+02  0.13061272899E+03  0.12472627567E+03  0.26002644809E+03  0.17144612571E+03 0.  0.
         24    2    3    3    0    0 -0.62277190606E+02  0.12107055129E+03  0.25430929723E+02  0.15937370843E+03  0.78846178683E+02 0.  0.
         -6    2    1    2    0  502  0.74857537167E+02 -0.13061272899E+03  0.20751099843E+03  0.30866123586E+03  0.17189417736E+03 0.  0.
        -24    2    5    5    0    0  0.75893456451E+02 -0.12430159059E+03  0.23075952800E+03  0.28409524873E+03  0.79053453036E+02 0.  0.
          5    1    3    3  501    0 -0.12580346561E+02  0.95421776965E+01  0.99295345942E+02  0.10065273966E+03  0.47000000000E+01 0. -1.
        -13    1    4    4    0    0 -0.22786554117E+02 -0.56077527973E+01 -0.30402808691E+01  0.23662570606E+02  0.00000000000E+00 0.  1.
         14    1    4    4    0    0 -0.39490636490E+02  0.12667830409E+03  0.28471210592E+02  0.13571113783E+03  0.00000000000E+00 0. -1.
         -5    1    5    5    0  502 -0.10359192837E+01 -0.63111384005E+01 -0.23248529564E+02  0.24565987128E+02  0.47000000000E+01 0.  1.
         13    1    6    6    0    0  0.63984243270E+02 -0.56012722350E+02  0.74132674891E+02  0.11281428074E+03  0.00000000000E+00 0. -1.
        -14    1    6    6    0    0  0.11909213181E+02 -0.68288868240E+02  0.15662685311E+03  0.17128096800E+03  0.00000000000E+00 0.  1.
</event>
<event>
12    1  0.8258923E-002  0.1878305E+03  0.7818608E-02  0.1160514E+00
         21   -1    0    0  501  502  0.00000000000E+00  0.00000000000E+00  0.52212622541E+03  0.52212622541E+03  0.00000000000E+00 0.  1.
         21   -1    0    0  502  503 -0.00000000000E+00 -0.00000000000E+00 -0.67605193417E+02  0.67605193417E+02  0.00000000000E+00 0.  1.
         -6    2    1    2    0  503  0.69058857843E+02  0.27445147756E+02  0.21260982422E+03  0.28346137206E+03  0.17211929036E+03 0.  0.
        -24    2    3    3    0    0  0.38637726939E+02  0.53137326472E+02  0.50702493612E+02  0.11666326968E+03  0.81994671941E+02 0.  0.
          6    2    1    2  501    0 -0.69058857843E+02 -0.27445147756E+02  0.24191120777E+03  0.30627004677E+03  0.17250491911E+03 0.  0.
         24    2    5    5    0    0 -0.88733190526E+02  0.30844613879E+02  0.13277513601E+03  0.18090040196E+03  0.79188063381E+02 0.  0.
          5    1    5    5  501    0  0.19674332683E+02 -0.58289761635E+02  0.10913607177E+03  0.12536964481E+03  0.47000000000E+01 0. -1.
        -13    1    6    6    0    0 -0.72975845719E+02  0.36577216777E+01  0.13028897628E+03  0.14937894874E+03  0.00000000000E+00 0.  1.
         14    1    6    6    0    0 -0.15757344807E+02  0.27186892202E+02  0.24861597238E+01  0.31521453220E+02  0.00000000000E+00 0. -1.
         -5    1    3    3    0  503  0.30421130904E+02 -0.25692178716E+02  0.16190733061E+03  0.16679810238E+03  0.47000000000E+01 0.  1.
         11    1    4    4    0    0 -0.13235995631E+02  0.49156753676E+02  0.36787195543E+02  0.62808246021E+02  0.00000000000E+00 0. -1.
        -12    1    4    4    0    0  0.51873722570E+02  0.39805727953E+01  0.13915298069E+02  0.53855023660E+02  0.00000000000E+00 0.  1.
</event>
<event>
12    1  0.8258923E-002  0.2084272E+03  0.7818608E-02  0.1143091E+00
         21   -1    0    0  503  502  0.00000000000E+00  0.00000000000E+00  0.26552014492E+03  0.26552014492E+03  0.00000000000E+00 0. -1.
         21   -1    0    0  501  503 -0.00000000000E+00 -0.00000000000E+00 -0.32176489839E+03  0.32176489839E+03  0.00000000000E+00 0.  1.
          6    2    1    2  501    0  0.98355771099E+02  0.62486096895E+02 -0.23473165217E+03  0.31391215557E+03  0.17281065612E+03 0.  0.
         24    2    3    3    0    0  0.12613456853E+03  0.80257955516E+02 -0.22012409731E+03  0.27753948445E+03  0.78881419922E+02 0.  0.
         -6    2    1    2    0  502 -0.98355771099E+02 -0.62486096895E+02  0.17848689870E+03  0.27337288773E+03  0.17116305888E+03 0.  0.
        -24    2    5    5    0    0 -0.68521539389E+02 -0.85566238040E+02  0.56415365540E+02  0.14552014625E+03  0.77308712588E+02 0.  0.
          5    1    3    3  501    0 -0.27778797428E+02 -0.17771858622E+02 -0.14607554863E+02  0.36372671121E+02  0.47000000000E+01 0. -1.
        -11    1    4    4    0    0  0.74403012983E+02  0.41779492458E+01 -0.75127377980E+02  0.10581770420E+03  0.00000000000E+00 0.  1.
         12    1    4    4    0    0  0.51731555545E+02  0.76080006271E+02 -0.14499671933E+03  0.17172178024E+03  0.00000000000E+00 0. -1.
         -5    1    5    5    0  502 -0.29834231711E+02  0.23080141145E+02  0.12207153316E+03  0.12785274149E+03  0.47000000000E+01 0.  1.
         13    1    6    6    0    0 -0.28569629917E+02 -0.53615956676E+02  0.69904732071E+02  0.92615150650E+02  0.00000000000E+00 0. -1.
        -14    1    6    6    0    0 -0.39951909472E+02 -0.31950281364E+02 -0.13489366531E+02  0.52904995596E+02  0.00000000000E+00 0.  1.
</event>
<event>
12    1  0.8258923E-002  0.1739896E+03  0.7818608E-02  0.1174390E+00
         21   -1    0    0  501  502  0.00000000000E+00  0.00000000000E+00  0.45847358964E+02  0.45847358964E+02  0.00000000000E+00 0. -1.
         21   -1    0    0  502  503 -0.00000000000E+00 -0.00000000000E+00 -0.13607516896E+04  0.13607516896E+04  0.00000000000E+00 0. -1.
         -6    2    1    2    0  503  0.12677862252E+02 -0.21958465656E+02 -0.11631643421E+04  0.11757367167E+04  0.16959551284E+03 0.  0.
        -24    2    3    3    0    0 -0.39510253936E+02  0.27139261217E+02 -0.85217082280E+03  0.85656083217E+03  0.72137010591E+02 0.  0.
          6    2    1    2  501    0 -0.12677862252E+02  0.21958465656E+02 -0.15173998852E+03  0.23086233180E+03  0.17213218677E+03 0.  0.
         24    2    5    5    0    0 -0.36259533730E+01  0.29051330273E+02 -0.18099303852E+03  0.19908062767E+03  0.77572475747E+02 0.  0.
          5    1    5    5  501    0 -0.90519088786E+01 -0.70928646164E+01  0.29253050000E+02  0.31781704125E+02  0.47000000000E+01 0. -1.
        -13    1    6    6    0    0 -0.37462518992E+02  0.30508093514E+02 -0.93128162239E+02  0.10491443514E+03  0.00000000000E+00 0.  1.
         14    1    6    6    0    0  0.33836565619E+02 -0.14567632409E+01 -0.87864876281E+02  0.94166192531E+02  0.00000000000E+00 0. -1.
         -5    1    3    3    0  503  0.52188116187E+02 -0.49097726874E+02 -0.31099351927E+03  0.31917588456E+03  0.47000000000E+01 0.  1.
         13    1    4    4    0    0 -0.84800644496E+01  0.44520527151E+02 -0.31877880290E+03  0.32198433815E+03  0.00000000000E+00 0. -1.
        -14    1    4    4    0    0 -0.31030189486E+02 -0.17381265934E+02 -0.53339201990E+03  0.53457649402E+03  0.00000000000E+00 0.  1.
</event>
<event>
12    1  0.8258923E-002  0.5704542E+03  0.7818608E-02  0.9970150E-01
         21   -1    0    0  501  502  0.00000000000E+00  0.00000000000E+00  0.65877713522E+03  0.65877713522E+03  0.00000000000E+00 0.  1.
         21   -1    0    0  502  503 -0.00000000000E+00 -0.00000000000E+00 -0.54575178646E+03  0.54575178646E+03  0.00000000000E+00 0. -1.
         -6    2    1    2    0  503 -0.53611843171E+03  0.77398796781E+02 -0.13319825409E+03  0.58320451722E+03  0.17021218361E+03 0.  0.
        -24    2    3    3    0    0 -0.34513587806E+03  0.10273108438E+03 -0.46526439608E+02  0.37189868669E+03  0.80445469421E+02 0.  0.
          6    2    1    2  501    0  0.53611843171E+03 -0.77398796781E+02  0.24622360284E+03  0.62132440446E+03  0.17889775409E+03 0.  0.
         24    2    5    5    0    0  0.31921402764E+03  0.25775987078E+02  0.15189088419E+03  0.36322886336E+03  0.79387464530E+02 0.  0.
          5    1    5    5  501    0  0.21690440407E+03 -0.10317478386E+03  0.94332718657E+02  0.25809554111E+03  0.47000000000E+01 0. -1.
        -11    1    6    6    0    0  0.22656615191E+03 -0.11671826806E+02  0.12799158701E+03  0.26048089964E+03  0.00000000000E+00 0.  1.
         12    1    6    6    0    0  0.92647875731E+02  0.37447813884E+02  0.23899297171E+02  0.10274796371E+03  0.00000000000E+00 0. -1.
         -5    1    3    3    0  503 -0.19098255365E+03 -0.25332287601E+02 -0.86671814479E+02  0.21130583053E+03  0.47000000000E+01 0.  1.
         11    1    4    4    0    0 -0.18686922359E+03  0.60785411615E+02 -0.65352390712E+02  0.20708913048E+03  0.00000000000E+00 0. -1.
        -12    1    4    4    0    0 -0.15826665447E+03  0.41945672766E+02  0.18825951104E+02  0.16480955621E+03  0.00000000000E+00 0.  1.
</event>
<event>
12    1  0.8258923E-002  0.1836200E+03  0.7818608E-02  0.1164606E+00
         21   -1    0    0  503  502  0.00000000000E+00  0.00000000000E+00  0.18790691698E+03  0.18790691698E+03  0.00000000000E+00 0.  1.
         21   -1    0    0  501  503 -0.00000000000E+00 -0.00000000000E+00 -0.18947710804E+03  0.18947710804E+03  0.00000000000E+00 0.  1.
          6    2    1    2  501    0 -0.16952953769E+02  0.63301787470E+02  0.44935726983E+02  0.18796624940E+03  0.17034545023E+03 0.  0.
         24    2    3    3    0    0  0.26392502436E+02 -0.23061555759E+02  0.27923597772E+02  0.89737138808E+02  0.77747200786E+02 0.  0.
         -6    2    1    2    0  502  0.16952953769E+02 -0.63301787470E+02 -0.46505918047E+02  0.18941777562E+03  0.17152776559E+03 0.  0.
        -24    2    5    5    0    0  0.54410216817E+02 -0.87978441003E+02 -0.57382237655E+02  0.14302415415E+03  0.80389736271E+02 0.  0.
          5    1    3    3  501    0 -0.43345456205E+02  0.86363343229E+02  0.17012129211E+02  0.98229110591E+02  0.47000000000E+01 0. -1.
        -13    1    4    4    0    0  0.35902680388E+02  0.57618278428E+01  0.42612246599E+02  0.56017896063E+02  0.00000000000E+00 0.  1.
         14    1    4    4    0    0 -0.95101779513E+01 -0.28823383602E+02 -0.14688648827E+02  0.33719242745E+02  0.00000000000E+00 0. -1.
         -5    1    5    5    0  502 -0.37457263048E+02  0.24676653533E+02  0.10876319608E+02  0.46393621467E+02  0.47000000000E+01 0.  1.
         13    1    6    6    0    0  0.26709216679E+02 -0.63706880314E+02  0.63968164095E+01  0.69374837767E+02  0.00000000000E+00 0. -1.
        -14    1    6    6    0    0  0.27701000138E+02 -0.24271560689E+02 -0.63779054064E+02  0.73649316387E+02  0.00000000000E+00 0.  1.
</event>
<event>
12    1  0.8258923E-002  0.1974676E+03  0.7818608E-02  0.1151898E+00
         21   -1    0    0  503  502  0.00000000000E+00  0.00000000000E+00  0.57578415439E+03  0.57578415439E+03  0.00000000000E+00 0.  1.
         21   -1    0    0  501  503 -0.00000000000E+00 -0.00000000000E+00 -0.17400374492E+03  0.17400374492E+03  0.00000000000E+00 0.  1.
          6    2    1    2  501    0 -0.92714865565E+02  0.29030748412E+02 -0.92116327402E+02  0.21787864162E+03  0.17189198367E+03 0.  0.
         24    2    3    3    0    0 -0.86177540208E+02  0.73668610654E+02 -0.38052980748E+02  0.14730803287E+03  0.86011595559E+02 0.  0.
         -6    2    1    2    0  502  0.92714865565E+02 -0.29030748412E+02  0.49389673686E+03  0.53190925769E+03  0.17191463313E+03 0.  0.
        -24    2    5    5    0    0  0.86549524696E+00 -0.51092155545E+02  0.17188660333E+03  0.19629693877E+03  0.79851902458E+02 0.  0.
          5    1    3    3  501    0 -0.65373253568E+01 -0.44637862242E+02 -0.54063346653E+02  0.70570608753E+02  0.47000000000E+01 0. -1.
        -13    1    4    4    0    0 -0.78394243189E+02  0.70853858971E+02 -0.61624671942E+02  0.12232549566E+03  0.00000000000E+00 0.  1.
         14    1    4    4    0    0 -0.77832970193E+01  0.28147516835E+01  0.23571691194E+02  0.24982537206E+02  0.00000000000E+00 0. -1.
         -5    1    5    5    0  502  0.91849370318E+02  0.22061407133E+02  0.32201013354E+03  0.33561231892E+03  0.47000000000E+01 0.  1.
         11    1    6    6    0    0  0.83775538856E+01 -0.69653617466E+02  0.15486971999E+03  0.17001894014E+03  0.00000000000E+00 0. -1.
        -12    1    6    6    0    0 -0.75120586386E+01  0.18561461921E+02  0.17016883337E+02  0.26277998632E+02  0.00000000000E+00 0.  1.
</event>
<event>
12    1  0.8258923E-002  0.2003512E+03  0.7818608E-02  0.1149626E+00
         21   -1    0    0  501  502  0.00000000000E+00  0.00000000000E+00  0.27390520670E+03  0.27390520670E+03  0.00000000000E+00 0. -1.
         21   -1    0    0  502  503 -0.00000000000E+00 -0.00000000000E+00 -0.14596357500E+03  0.14596357500E+03  0.00000000000E+00 0.  1.
         -6    2    1    2    0  503 -0.46060974614E+02  0.91852334847E+02  0.67952611484E+02  0.21156125466E+03  0.17199459952E+03 0.  0.
        -24    2    3    3    0    0 -0.40500731369E+02  0.11090777807E+03  0.99565876976E+02  0.17393792710E+03  0.80001213415E+02 0.  0.
          6    2    1    2  501    0  0.46060974614E+02 -0.91852334847E+02  0.59989020211E+02  0.20830752704E+03  0.17098209987E+03 0.  0.
         24    2    5    5    0    0  0.26172251130E+02 -0.13089972862E+03  0.32486216214E+02  0.15635798892E+03  0.74650792181E+02 0.  0.
          5    1    5    5  501    0  0.19888723484E+02  0.39047393778E+02  0.27502803997E+02  0.51949538115E+02  0.47000000000E+01 0. -1.
        -13    1    6    6    0    0  0.19261702440E+02 -0.85724463056E+02 -0.16463076193E+02  0.89390881106E+02  0.00000000000E+00 0.  1.
         14    1    6    6    0    0  0.69105486906E+01 -0.45175265569E+02  0.48949292407E+02  0.66967107819E+02  0.00000000000E+00 0. -1.
         -5    1    3    3    0  503 -0.55602432451E+01 -0.19055443223E+02 -0.31613265492E+02  0.37623327557E+02  0.47000000000E+01 0.  1.
         11    1    4    4    0    0 -0.24136234606E+02  0.18048675373E+02  0.68208954011E+02  0.74570596826E+02  0.00000000000E+00 0. -1.
        -12    1    4    4    0    0 -0.16364496763E+02  0.92859102697E+02  0.31356922965E+02  0.99367330274E+02  0.00000000000E+00 0.  1.
</event>
<event>
12    1  0.8258923E-002  0.2250166E+03  0.7818608E-02  0.1130364E+00
         21   -1    0    0  503  502  0.00000000000E+00  0.00000000000E+00  0.36911922927E+03  0.36911922927E+03  0.00000000000E+00 0. -1.
         21   -1    0    0  501  503 -0.00000000000E+00 -0.00000000000E+00 -0.17118354466E+03  0.17118354466E+03  0.00000000000E+00 0.  1.
          6    2    1    2  501    0 -0.13487136911E+03  0.52201665920E+02 -0.22596389904E+02  0.22523633943E+03  0.17118852658E+03 0.  0.
         24    2    3    3    0    0 -0.15798221417E+02 -0.20721452304E+02  0.31413645779E+00  0.83662408599E+02  0.79500550597E+02 0.  0.
         -6    2    1    2    0  502  0.13487136911E+03 -0.52201665920E+02  0.22053207452E+03  0.31506643450E+03  0.17238666458E+03 0.  0.
        -24    2    5    5    0    0  0.81302350047E+02  0.14661600002E+02  0.19390945884E+03  0.22522663375E+03  0.79379617562E+02 0.  0.
          5    1    3    3  501    0 -0.11907314769E+03  0.72923118225E+02 -0.22910526362E+02  0.14157393083E+03  0.47000000000E+01 0. -1.
        -13    1    4    4    0    0 -0.23722253012E+02 -0.47875688265E+02 -0.83485616367E+01  0.54078880316E+02  0.00000000000E+00 0.  1.
         14    1    4    4    0    0  0.79240315956E+01  0.27154235961E+02  0.86626980945E+01  0.29583528282E+02  0.00000000000E+00 0. -1.
         -5    1    5    5    0  502  0.53569019061E+02 -0.66863265922E+02  0.26622615681E+02  0.89839800749E+02  0.47000000000E+01 0.  1.
         13    1    6    6    0    0 -0.18235805258E+01  0.29707214566E+02  0.43285248226E+02  0.52530531667E+02  0.00000000000E+00 0. -1.
        -14    1    6    6    0    0  0.83125930573E+02 -0.15045614563E+02  0.15062421061E+03  0.17269610208E+03  0.00000000000E+00 0.  1.
</event>
<event>
12    1  0.8258923E-002  0.2224275E+03  0.7818608E-02  0.1132187E+00
         21   -1    0    0  501  502  0.00000000000E+00  0.00000000000E+00  0.49256342575E+03  0.49256342575E+03  0.00000000000E+00 0.  1.
         21   -1    0    0  502  503 -0.00000000000E+00 -0.00000000000E+00 -0.18581982181E+03  0.18581982181E+03  0.00000000000E+00 0.  1.
         -6    2    1    2    0  503 -0.76977854025E+02  0.11724714296E+03  0.38372337611E+03  0.44352860079E+03  0.17263113220E+03 0.  0.
        -24    2    3    3    0    0 -0.29964973071E+02  0.10538335591E+03  0.36867148011E+03  0.39254223014E+03  0.78531464289E+02 0.  0.
          6    2    1    2  501    0  0.76977854025E+02 -0.11724714296E+03 -0.76979772165E+02  0.23485464677E+03  0.17192538278E+03 0.  0.
         24    2    5    5    0    0  0.61243754264E+02 -0.92722618180E+02  0.15937638166E+02  0.13736234270E+03  0.79158849933E+02 0.  0.
          5    1    5    5  501    0  0.15734099761E+02 -0.24524524783E+02 -0.92917410331E+02  0.97492304074E+02  0.47000000000E+01 0. -1.
        -13    1    6    6    0    0  0.75151610647E+02 -0.94343545122E+02  0.71448428036E+01  0.12082846464E+03  0.00000000000E+00 0.  1.
         14    1    6    6    0    0 -0.13907856382E+02  0.16209269420E+01  0.87927953620E+01  0.16533878056E+02  0.00000000000E+00 0. -1.
         -5    1    3    3    0  503 -0.47012880955E+02  0.11863787053E+02  0.15051895996E+02  0.50986370649E+02  0.47000000000E+01 0.  1.
         13    1    4    4    0    0  0.23799464501E+02  0.50865016318E+02  0.19073758764E+03  0.19883282358E+03  0.00000000000E+00 0. -1.
        -14    1    4    4    0    0 -0.53764437571E+02  0.54518339592E+02  0.17793389247E+03  0.19370940656E+03  0.00000000000E+00 0.  1.
</event>
<event>
12    1  0.8258923E-002  0.1893985E+03  0.7818608E-02  0.1159240E+00
         21   -1    0    0  503  502  0.00000000000E+00  0.00000000000E+00  0.11335870221E+03  0.11335870221E+03  0.00000000000E+00 0.  1.
         21   -1    0    0  501  503 -0.00000000000E+00 -0.00000000000E+00 -0.42837498218E+03  0.42837498218E+03  0.00000000000E+00 0.  1.
          6    2    1    2  501    0 -0.56916007847E+01 -0.74336928400E+02 -0.29734745071E+03  0.35254402343E+03  0.17410746328E+03 0.  0.
         24    2    3    3    0    0  0.27600694490E+02 -0.39994636136E+02 -0.28896747170E+03  0.30375791874E+03  0.80033144625E+02 0.  0.
         -6    2    1    2    0  502  0.56916007847E+01  0.74336928400E+02 -0.17668829271E+02  0.18918966096E+03  0.17298025044E+03 0.  0.
        -24    2    5    5    0    0  0.61501422921E+02  0.41117890774E+02  0.24071222038E+02  0.11184263393E+03  0.80350762725E+02 0.  0.
          5    1    3    3  501    0 -0.33292295275E+02 -0.34342292264E+02 -0.83799790033E+01  0.48786104689E+02  0.47000000000E+01 0. -1.
        -13    1    4    4    0    0  0.23449535117E+02 -0.31472672068E+02 -0.45428937681E+02  0.60034974499E+02  0.00000000000E+00 0.  1.
         14    1    4    4    0    0  0.41511593735E+01 -0.85219640683E+01 -0.24353853402E+03  0.24372294424E+03  0.00000000000E+00 0. -1.
         -5    1    5    5    0  502 -0.55809822136E+02  0.33219037626E+02 -0.41740051309E+02  0.77347027034E+02  0.47000000000E+01 0.  1.
         11    1    6    6    0    0  0.14924594575E+02 -0.24520688243E+02  0.51564288819E+01  0.29164986439E+02  0.00000000000E+00 0. -1.
        -12    1    6    6    0    0  0.46576828346E+02  0.65638579017E+02  0.18914793156E+02  0.82677647489E+02  0.00000000000E+00 0.  1.
</event>
<event>
12    1  0.8258923E-002  0.2186080E+03  0.7818608E-02  0.1135014E+00
         21   -1    0    0  501  502  0.00000000000E+00  0.00000000000E+00  0.42246934178E+03  0.42246934178E+03  0.00000000000E+00 0. -1.
         21   -1    0    0  502  503 -0.00000000000E+00 -0.00000000000E+00 -0.25018975444E+03  0.25018975444E+03  0.00000000000E+00 0. -1.
         -6    2    1    2    0  503  0.22152798154E+02  0.13254136606E+03 -0.16306935426E+03  0.27234874516E+03  0.17182626257E+03 0.  0.
        -24    2    3    3    0    0  0.50890646769E+02  0.50932534976E+02 -0.25232860226E+02  0.10953948762E+03  0.78601660701E+02 0.  0.
          6    2    1    2  501    0 -0.22152798154E+02 -0.13254136606E+03  0.33534894159E+03  0.40031035106E+03  0.17242825858E+03 0.  0.
         24    2    5    5    0    0  0.55359488689E+01  0.34615133639E+01  0.11602971215E+03  0.14072132139E+03  0.79353433369E+02 0.  0.
          5    1    5    5  501    0 -0.27688747022E+02 -0.13600287943E+03  0.21931922944E+03  0.25958902967E+03  0.47000000000E+01 0. -1.
        -13    1    6    6    0    0  0.63131932914E+01 -0.24922807373E+02  0.50946120170E+01  0.26209879978E+02  0.00000000000E+00 0.  1.
         14    1    6    6    0    0 -0.77724442246E+00  0.28384320737E+02  0.11093510013E+03  0.11451144141E+03  0.00000000000E+00 0. -1.
         -5    1    3    3    0  503 -0.28737848615E+02  0.81608831087E+02 -0.13783649403E+03  0.16280925754E+03  0.47000000000E+01 0.  1.
         13    1    4    4    0    0  0.32974552788E+02  0.71847845951E+02 -0.18560975945E+02  0.81203102942E+02  0.00000000000E+00 0. -1.
        -14    1    4    4    0    0  0.17916093980E+02 -0.20915310975E+02 -0.66718842812E+01  0.28336384677E+02  0.00000000000E+00 0.  1.
</event>
<event>
12    1  0.8258923E-002  0.1772014E+03  0.7818608E-02  0.1171906E+00
         21   -1    0    0  503  502  0.00000000000E+00  0.00000000000E+00  0.52624672099E+03  0.52624672099E+03  0.00000000000E+00 0.  1.
         21   -1    0    0  501  503 -0.00000000000E+00 -0.00000000000E+00 -0.96527587996E+02  0.96527587996E+02  0.00000000000E+00 0. -1.
          6    2    1    2  501    0 -0.32993216977E+02  0.20695530265E+02  0.15755702941E+02  0.17247880098E+03  0.16728370295E+03 0.  0.
         24    2    3    3    0    0  0.25279996762E+02  0.58953642414E+02  0.27643908925E+01  0.10141323425E+03  0.78500904674E+02 0.  0.
         -6    2    1    2    0  502  0.32993216977E+02 -0.20695530265E+02  0.41396343005E+03  0.45029550801E+03  0.17286834810E+03 0.  0.
        -24    2    5    5    0    0  0.59203072651E+02 -0.35747561756E+02  0.40496732541E+03  0.41841228225E+03  0.79293198341E+02 0.  0.
          5    1    3    3  501    0 -0.58273213739E+02 -0.38258112150E+02  0.12991312049E+02  0.71065566722E+02  0.47000000000E+01 0. -1.
        -11    1    4    4    0    0 -0.17431669534E+02 -0.10097129677E+02  0.16547091430E+01  0.20212698801E+02  0.00000000000E+00 0.  1.
         12    1    4    4    0    0  0.42711666296E+02  0.69050772092E+02  0.11096817495E+01  0.81200535453E+02  0.00000000000E+00 0. -1.
         -5    1    5    5    0  502 -0.26209855674E+02  0.15052031492E+02  0.89961046454E+01  0.31883225766E+02  0.47000000000E+01 0.  1.
         13    1    6    6    0    0  0.54968461399E+02  0.45739048263E+01  0.14197726604E+03  0.15231545039E+03  0.00000000000E+00 0. -1.
        -14    1    6    6    0    0  0.42346112521E+01 -0.40321466582E+02  0.26299005937E+03  0.26609683186E+03  0.00000000000E+00 0.  1.
</event>
<event>
12    1  0.8258923E-002  0.1727489E+03  0.7818608E-02  0.1175218E+00
         21   -1    0    0  501  502  0.00000000000E+00  0.00000000000E+00  0.14116947674E+03  0.14116947674E+03  0.00000000000E+00 0.  1.
         21   -1    0    0  502  503 -0.00000000000E+00 -0.00000000000E+00 -0.21692663035E+03  0.21692663035E+03  0.00000000000E+00 0.  1.
         -6    2    1    2    0  503 -0.12180252094E+02  0.61641689748E+01 -0.69012995522E+02  0.18602411928E+03  0.17220866379E+03 0.  0.
        -24    2    3    3    0    0  0.27139115353E+02 -0.14664658279E+02 -0.99803150543E+02  0.13171043457E+03  0.80220857206E+02 0.  0.
          6    2    1    2  501    0  0.12180252094E+02 -0.61641689748E+01 -0.67441580800E+01  0.17207198781E+03  0.17139699472E+03 0.  0.
         24    2    5    5    0    0  0.67438080378E+02  0.15407612307E+02 -0.27851944687E+02  0.10893405951E+03  0.79407866712E+02 0.  0.
          5    1    5    5  501    0 -0.55257828284E+02 -0.21571781282E+02  0.21107786607E+02  0.63137928298E+02  0.47000000000E+01 0. -1.
        -13    1    6    6    0    0  0.34623120280E+01 -0.48367266685E+01 -0.40257489054E+02  0.40694556815E+02  0.00000000000E+00 0.  1.
         14    1    6    6    0    0  0.63975768350E+02  0.20244338976E+02  0.12405544368E+02  0.68239502692E+02  0.00000000000E+00 0. -1.
         -5    1    3    3    0  503 -0.39319367447E+02  0.20828827253E+02  0.30790155021E+02  0.54313684716E+02  0.47000000000E+01 0.  1.
         13    1    4    4    0    0  0.25213337791E+02 -0.40598841772E+02 -0.93417395190E+02  0.10493230237E+03  0.00000000000E+00 0. -1.
        -14    1    4    4    0    0  0.19257775621E+01  0.25934183494E+02 -0.63857553524E+01  0.26778132200E+02  0.00000000000E+00 0.  1.
</event>
<event>
12    1  0.8258923E-002  0.1812360E+03  0.7818608E-02  0.1166832E+00
         21   -1    0    0  501  502  0.00000000000E+00  0.00000000000E+00  0.14524838175E+04  0.14524838175E+04  0.00000000000E+00 0.  1.
         21   -1    0    0  502  503 -0.00000000000E+00 -0.00000000000E+00 -0.11706606120E+03  0.11706606120E+03  0.00000000000E+00 0.  1.
         -6    2    1    2    0  503 -0.49241423556E+02  0.28974596109E+02 -0.37953413711E+02  0.18427197890E+03  0.17103056914E+03 0.  0.
        -24    2    3    3    0    0  0.28535900958E+01 -0.40074274010E+02  0.17127363767E+01  0.88998003569E+02  0.79395344697E+02 0.  0.
          6    2    1    2  501    0  0.49241423556E+02 -0.28974596109E+02  0.13733711700E+04  0.13852778998E+04  0.17199489546E+03 0.  0.
         24    2    5    5    0    0  0.37043536364E+02  0.31437794393E+02  0.11492072764E+04  0.11527483606E+04  0.76097702781E+02 0.  0.
          5    1    5    5  501    0  0.12197887192E+02 -0.60412390502E+02  0.22416389361E+03  0.23252953915E+03  0.47000000000E+01 0. -1.
        -11    1    6    6    0    0  0.20568282657E+02  0.38268532560E+02  0.27934943277E+03  0.28270769432E+03  0.00000000000E+00 0.  1.
         12    1    6    6    0    0  0.16475253707E+02 -0.68307381668E+01  0.86985784359E+03  0.87004066631E+03  0.00000000000E+00 0. -1.
         -5    1    3    3    0  503 -0.52095013652E+02  0.69048870119E+02 -0.39666150087E+02  0.95273975328E+02  0.47000000000E+01 0.  1.
         13    1    4    4    0    0 -0.33610923280E+00  0.19273989630E+02  0.19035049871E+02  0.27091193574E+02  0.00000000000E+00 0. -1.
        -14    1    4    4    0    0  0.31896993286E+01 -0.59348263640E+02 -0.17322313495E+02  0.61906809995E+02  0.00000000000E+00 0.  1.
</event>
<event>
12    1  0.8258923E-002  0.2945114E+03  0.7818608E-02  0.1088023E+00
         21   -1    0    0  501  502  0.00000000000E+00  0.00000000000E+00  0.10729158693E+04  0.10729158693E+04  0.00000000000E+00 0. -1.
         21   -1    0    0  502  503 -0.00000000000E+00 -0.00000000000E+00 -0.99386150694E+02  0.99386150694E+02  0.00000000000E+00 0.  1.
         -6    2    1    2    0  503 -0.19123198375E+02  0.23803636005E+03  0.23345881717E+03  0.37578338661E+03  0.17228792447E+03 0.  0.
        -24    2    3    3    0    0 -0.68541415767E+01  0.22813585742E+03  0.25263512078E+03  0.35051739510E+03  0.83336614521E+02 0.  0.
          6    2    1    2  501    0  0.19123198375E+02 -0.23803636005E+03  0.74007090143E+03  0.79651863338E+03  0.17236585728E+03 0.  0.
         24    2    5    5    0    0  0.10772268636E+02 -0.80709961324E+02  0.46709680301E+03  0.48130714537E+03  0.82746632414E+02 0.  0.
          5    1    5    5  501    0  0.83509297389E+01 -0.15732639872E+03  0.27297409843E+03  0.31521148801E+03  0.47000000000E+01 0. -1.
        -11    1    6    6    0    0 -0.67716828821E+01  0.46499089930E+01  0.24686412386E+01  0.85773849316E+01  0.00000000000E+00 0.  1.
         12    1    6    6    0    0  0.17543951518E+02 -0.85359870317E+02  0.46462816177E+03  0.47272976044E+03  0.00000000000E+00 0. -1.
         -5    1    3    3    0  503 -0.12269056798E+02  0.99005026327E+01 -0.19176303608E+02  0.25265991513E+02  0.47000000000E+01 0.  1.
         11    1    4    4    0    0  0.38038239237E+02  0.94848579346E+02  0.10044123327E+03  0.14328852706E+03  0.00000000000E+00 0. -1.
        -12    1    4    4    0    0 -0.44892380814E+02  0.13328727807E+03  0.15219388752E+03  0.20722886804E+03  0.00000000000E+00 0.  1.
</event>
<event>
12    1  0.8258923E-002  0.1855264E+03  0.7818608E-02  0.1163248E+00
         21   -1    0    0  501  502  0.00000000000E+00  0.00000000000E+00  0.55234107088E+03  0.55234107088E+03  0.00000000000E+00 0.  1.
         21   -1    0    0  502  503 -0.00000000000E+00 -0.00000000000E+00 -0.61756226134E+02  0.61756226134E+02  0.00000000000E+00 0.  1.
         -6    2    1    2    0  503  0.44126422648E+02  0.41280874620E+02  0.27262776378E+03  0.32976649495E+03  0.17541035267E+03 0.  0.
        -24    2    3    3    0    0 -0.32036196064E+02  0.60938644156E+02  0.15806917984E+03  0.19072358234E+03  0.81546201850E+02 0.  0.
          6    2    1    2  501    0 -0.44126422648E+02 -0.41280874620E+02  0.21795708096E+03  0.28433080206E+03  0.17230050515E+03 0.  0.
         24    2    5    5    0    0  0.19938429629E+02  0.10751259213E+02  0.49618490031E+02  0.96789821353E+02  0.79957141106E+02 0.  0.
          5    1    5    5  501    0 -0.64064852278E+02 -0.52032133833E+02  0.16833859093E+03  0.18754098071E+03  0.47000000000E+01 0. -1.
        -13    1    6    6    0    0 -0.14007403929E+02 -0.10360023202E+02  0.53843551602E+02  0.56592097457E+02  0.00000000000E+00 0.  1.
         14    1    6    6    0    0  0.33945833558E+02  0.21111282414E+02 -0.42250615706E+01  0.40197723896E+02  0.00000000000E+00 0. -1.
         -5    1    3    3    0  503  0.76162618712E+02 -0.19657769536E+02  0.11455858394E+03  0.13904291261E+03  0.47000000000E+01 0.  1.
         13    1    4    4    0    0 -0.49324466104E+02  0.20812867490E+02  0.12482934996E+03  0.13582505299E+03  0.00000000000E+00 0. -1.
        -14    1    4    4    0    0  0.17288270040E+02  0.40125776666E+02  0.33239829881E+02  0.54898529348E+02  0.00000000000E+00 0.  1.
</event>
<event>
12    1  0.8258923E-002  0.1767835E+03  0.7818608E-02  0.1171994E+00
         21   -1    0    0  503  502  0.00000000000E+00  0.00000000000E+00  0.79656227563E+02  0.79656227563E+02  0.00000000000E+00 0. -1.
         21   -1    0    0  501  503 -0.00000000000E+00 -0.00000000000E+00 -0.42391710808E+03  0.42391710808E+03  0.00000000000E+00 0.  1.
          6    2    1    2  501    0 -0.24765343211E+02 -0.28916803829E+02 -0.24832658923E+03  0.30243707097E+03  0.16838225326E+03 0.  0.
         24    2    3    3    0    0 -0.20738211097E+02  0.37583709592E+02 -0.20119763742E+03  0.22069501217E+03  0.79894871354E+02 0.  0.
         -6    2    1    2    0  502  0.24765343211E+02  0.28916803829E+02 -0.95934291291E+02  0.20113626467E+03  0.17263517878E+03 0.  0.
        -24    2    5    5    0    0 -0.42628907795E+02  0.66463753254E+02 -0.66918634950E+02  0.11857866785E+03  0.57863135842E+02 0.  0.
          5    1    3    3  501    0 -0.40271321146E+01 -0.66500513421E+02 -0.47128951809E+02  0.81742058800E+02  0.47000000000E+01 0. -1.
        -13    1    4    4    0    0 -0.30399197494E+02 -0.16970326050E+02 -0.88903217512E+02  0.95477145216E+02  0.00000000000E+00 0.  1.
         14    1    4    4    0    0  0.96609863971E+01  0.54554035643E+02 -0.11229441991E+03  0.12521786696E+03  0.00000000000E+00 0. -1.
         -5    1    5    5    0  502  0.67394251006E+02 -0.37546949426E+02 -0.29015656341E+02  0.82557596821E+02  0.47000000000E+01 0.  1.
         13    1    6    6    0    0 -0.37089577667E+02  0.33291542884E+02 -0.68729734069E+02  0.84898409551E+02  0.00000000000E+00 0. -1.
        -14    1    6    6    0    0 -0.55393301277E+01  0.33172210371E+02  0.18110991197E+01  0.33680258300E+02  0.00000000000E+00 0.  1.
</event>
<event>
12    1  0.8258923E-002  0.2839547E+03  0.7818608E-02  0.1093771E+00
         21   -1    0    0  503  502  0.00000000000E+00  0.00000000000E+00  0.11084505655E+03  0.11084505655E+03  0.00000000000E+00 0.  1.
         21   -1    0    0  501  503 -0.00000000000E+00 -0.00000000000E+00 -0.96677174632E+03  0.96677174632E+03  0.00000000000E+00 0. -1.
          6    2    1    2  501    0  0.12273860956E+03  0.18746956150E+03 -0.69748742711E+03  0.75245026773E+03  0.17170641126E+03 0.  0.
         24    2    3    3    0    0  0.20193275698E+01  0.46021968294E+02 -0.29529904450E+03  0.30932708873E+03  0.79747243752E+02 0.  0.
         -6    2    1    2    0  502 -0.12273860956E+03 -0.18746956150E+03 -0.15843926266E+03  0.32516653514E+03  0.17441523116E+03 0.  0.
        -24    2    5    5    0    0 -0.57490020042E+02 -0.17935073947E+03 -0.16076850035E+03  0.25920587222E+03  0.76611900752E+02 0.  0.
          5    1    3    3  501    0  0.12071928199E+03  0.14144759321E+03 -0.40218838260E+03  0.44312317900E+03  0.47000000000E+01 0. -1.
        -13    1    4    4    0    0  0.11925870354E+02  0.61707779660E+02 -0.14699936038E+03  0.15987147464E+03  0.00000000000E+00 0.  1.
         14    1    4    4    0    0 -0.99065427840E+01 -0.15685811367E+02 -0.14829968413E+03  0.14945561408E+03  0.00000000000E+00 0. -1.
         -5    1    5    5    0  502 -0.65248589518E+02 -0.81188220308E+01  0.23292376895E+01  0.65960662925E+02  0.47000000000E+01 0.  1.
         11    1    6    6    0    0 -0.44117956748E+02 -0.38076611902E+02 -0.27143420457E+02  0.64288317412E+02  0.00000000000E+00 0. -1.
        -12    1    6    6    0    0 -0.13372063294E+02 -0.14127412757E+03 -0.13362507989E+03  0.19491755481E+03  0.00000000000E+00 0.  1.
</event>
<event>
12    1  0.8258923E-002  0.1825834E+03  0.7818608E-02  0.1165387E+00
         21   -1    0    0  503  502  0.00000000000E+00  0.00000000000E+00  0.96232274207E+03  0.96232274207E+03  0.00000000000E+00 0.  1.
         21   -1    0    0  501  503 -0.00000000000E+00 -0.00000000000E+00 -0.34755842925E+02  0.34755842925E+02  0.00000000000E+00 0.  1.
          6    2    1    2  501    0  0.49748509874E+02  0.31733541326E+02  0.49758240517E+03  0.52993476577E+03  0.17251282319E+03 0.  0.
         24    2    3    3    0    0  0.93218911984E+02  0.12693936041E+02  0.42799701415E+03  0.44557601358E+03  0.80657536482E+02 0.  0.
         -6    2    1    2    0  502 -0.49748509874E+02 -0.31733541326E+02  0.42998449398E+03  0.46714381922E+03  0.17278527396E+03 0.  0.
        -24    2    5    5    0    0 -0.43716486647E+02 -0.85974200387E+02  0.25422564769E+03  0.28304684356E+03  0.78626594539E+02 0.  0.
          5    1    3    3  501    0 -0.43470402110E+02  0.19039605285E+02  0.69585391021E+02  0.84358752198E+02  0.47000000000E+01 0. -1.
        -11    1    4    4    0    0  0.96741988342E+02 -0.10549541588E+02  0.29850853602E+03  0.31397078083E+03  0.00000000000E+00 0.  1.
         12    1    4    4    0    0 -0.35230763575E+01  0.23243477628E+02  0.12948847813E+03  0.13160523275E+03  0.00000000000E+00 0. -1.
         -5    1    5    5    0  502 -0.60320232279E+01  0.54240659061E+02  0.17575884629E+03  0.18409697566E+03  0.47000000000E+01 0.  1.
         13    1    6    6    0    0 -0.21740746469E+01 -0.40125450484E+02  0.18868517005E+03  0.19291674830E+03  0.00000000000E+00 0. -1.
        -14    1    6    6    0    0 -0.41542412000E+02 -0.45848749903E+02  0.65540477635E+02  0.90130095257E+02  0.00000000000E+00 0.  1.
</event>
<event>
12    1  0.8258923E-002  0.1906417E+03  0.7818608E-02  0.1158202E+00
         21   -1    0    0  503  502  0.00000000000E+00  0.00000000000E+00  0.77186936743E+02  0.77186936743E+02  0.00000000000E+00 0.  1.
         21   -1    0    0  501  503 -0.00000000000E+00 -0.00000000000E+00 -0.52314763612E+03  0.52314763612E+03  0.00000000000E+00 0.  1.
          6    2    1    2  501    0 -0.71921491364E+02 -0.30432641774E+02 -0.32172472421E+03  0.37396665030E+03  0.17391207768E+03 0.  0.
         24    2    3    3    0    0 -0.57460141385E+02 -0.65096911645E+02 -0.11003728676E+03  0.15892153080E+03  0.74890404718E+02 0.  0.
         -6    2    1    2    0  502  0.71921491364E+02  0.30432641774E+02 -0.12423597517E+03  0.22636792257E+03  0.17236302456E+03 0.  0.
        -24    2    5    5    0    0 -0.77091206542E+01 -0.37494224022E+02 -0.64311911232E+02  0.10566963382E+03  0.74597601901E+02 0.  0.
          5    1    3    3  501    0 -0.14461349979E+02  0.34664269870E+02 -0.21168743745E+03  0.21504511950E+03  0.47000000000E+01 0. -1.
        -13    1    4    4    0    0 -0.65437162885E+02 -0.49005134583E+02 -0.49036289598E+02  0.95331438673E+02  0.00000000000E+00 0.  1.
         14    1    4    4    0    0  0.79770215008E+01 -0.16091777061E+02 -0.61000997166E+02  0.63590092124E+02  0.00000000000E+00 0. -1.
         -5    1    5    5    0  502  0.79630612018E+02  0.67926865796E+02 -0.59924063936E+02  0.12069828874E+03  0.47000000000E+01 0.  1.
         11    1    6    6    0    0  0.28853574286E+02 -0.17431463114E+02 -0.52381499952E+02  0.62291301099E+02  0.00000000000E+00 0. -1.
        -12    1    6    6    0    0 -0.36562694940E+02 -0.20062760908E+02 -0.11930411280E+02  0.43378332723E+02  0.00000000000E+00 0.  1.
</event>
<event>
12    1  0.8258923E-002  0.2739201E+03  0.7818608E-02  0.1099180E+00
         21   -1    0    0  501  502  0.00000000000E+00  0.00000000000E+00  0.72552504672E+03  0.72552504672E+03  0.00000000000E+00 0. -1.
         21   -1    0    0  502  503 -0.00000000000E+00 -0.00000000000E+00 -0.21732748688E+03  0.21732748688E+03  0.00000000000E+00 0.  1.
         -6    2    1    2    0  503  0.34143476998E+02  0.21022863760E+03 -0.87502405701E+02  0.28755677450E+03  0.17225089396E+03 0.  0.
        -24    2    3    3    0    0  0.35551278908E+02  0.53062377768E+02  0.10610669638E+02  0.10221525004E+03  0.79094005238E+02 0.  0.
          6    2    1    2  501    0 -0.34143476998E+02 -0.21022863760E+03  0.59569996554E+03  0.65529575910E+03  0.17085732606E+03 0.  0.
         24    2    5    5    0    0 -0.23106473632E+02 -0.50188286040E+02  0.13379534154E+03  0.16630424462E+03  0.81872676637E+02 0.  0.
          5    1    5    5  501    0 -0.11037003366E+02 -0.16004035156E+03  0.46190462400E+03  0.48899151448E+03  0.47000000000E+01 0. -1.
        -11    1    6    6    0    0 -0.29595173612E+02 -0.11487532078E+01  0.10493331821E+03  0.10903300053E+03  0.00000000000E+00 0.  1.
         12    1    6    6    0    0  0.64886999801E+01 -0.49039532832E+02  0.28862023333E+02  0.57271244082E+02  0.00000000000E+00 0. -1.
         -5    1    3    3    0  503 -0.14078019105E+01  0.15716625983E+03 -0.98113075339E+02  0.18534152445E+03  0.47000000000E+01 0.  1.
         13    1    4    4    0    0  0.29917925657E+02  0.71121981577E+02 -0.55177576711E+01  0.77355440589E+02  0.00000000000E+00 0. -1.
        -14    1    4    4    0    0  0.56333532512E+01 -0.18059603809E+02  0.16128427309E+02  0.24859809453E+02  0.00000000000E+00 0.  1.
</event>
<event>
12    1  0.8258923E-002  0.2214824E+03  0.7818608E-02  0.1132847E+00
         21   -1    0    0  503  502  0.00000000000E+00  0.00000000000E+00  0.81277576619E+03  0.81277576619E+03  0.00000000000E+00 0. -1.
         21   -1    0    0  501  503 -0.00000000000E+00 -0.00000000000E+00 -0.87075140465E+02  0.87075140465E+02  0.00000000000E+00 0. -1.
          6    2    1    2  501    0  0.12286156846E+03 -0.63410139487E+02  0.11296693762E+03  0.24831655117E+03  0.17257974909E+03 0.  0.
         24    2    3    3    0    0  0.50359376922E+02 -0.36156881525E+02  0.13388718730E+03  0.16794830686E+03  0.80233832813E+02 0.  0.
         -6    2    1    2    0  502 -0.12286156846E+03  0.63410139487E+02  0.61273368811E+03  0.65153435548E+03  0.17302783891E+03 0.  0.
        -24    2    5    5    0    0 -0.14195706296E+03  0.38146421825E+02  0.36646540530E+03  0.40319376183E+03  0.81617149388E+02 0.  0.
          5    1    3    3  501    0  0.72502191541E+02 -0.27253257962E+02 -0.20920249679E+02  0.80368244316E+02  0.47000000000E+01 0. -1.
        -13    1    4    4    0    0  0.69921708457E+02 -0.16495671682E+02  0.10979599218E+03  0.13121094617E+03  0.00000000000E+00 0.  1.
         14    1    4    4    0    0 -0.19562331535E+02 -0.19661209843E+02  0.24091195121E+02  0.36737360683E+02  0.00000000000E+00 0. -1.
         -5    1    5    5    0  502  0.19095494494E+02  0.25263717662E+02  0.24626828281E+03  0.24834059366E+03  0.47000000000E+01 0.  1.
         13    1    6    6    0    0 -0.64174686655E+02  0.43709999144E+02  0.25918641255E+03  0.27056709128E+03  0.00000000000E+00 0. -1.
        -14    1    6    6    0    0 -0.77782376301E+02 -0.55635773183E+01  0.10727899275E+03  0.13262667055E+03  0.00000000000E+00 0.  1.
</event>
<event>
12    1  0.8258923E-002  0.1888532E+03  0.7818608E-02  0.1162124E+00
         21   -1    0    0  503  502  0.00000000000E+00  0.00000000000E+00  0.53410739575E+03  0.53410739575E+03  0.00000000000E+00 0. -1.
         21   -1    0    0  501  503 -0.00000000000E+00 -0.00000000000E+00 -0.76509060950E+02  0.76509060950E+02  0.00000000000E+00 0.  1.
          6    2    1    2  501    0 -0.77706698214E+02 -0.66383117242E+01  0.10573466894E+03  0.21643788084E+03  0.17199749392E+03 0.  0.
         24    2    3    3    0    0 -0.65567891537E+01 -0.48037607276E+02  0.19004894733E+02  0.96770195285E+02  0.81563971671E+02 0.  0.
         -6    2    1    2    0  502  0.77706698214E+02  0.66383117242E+01  0.35186366585E+03  0.39417857586E+03  0.15964433027E+03 0.  0.
        -24    2    5    5    0    0  0.46329091130E+02  0.41391078025E+02  0.33339713449E+03  0.34362749503E+03  0.55376890768E+02 0.  0.
          5    1    3    3  501    0 -0.71149909060E+02  0.41399295551E+02  0.86729774207E+02  0.11966768555E+03  0.47000000000E+01 0. -1.
        -13    1    4    4    0    0  0.30731470092E+01  0.12729350561E+01 -0.27863474244E+02  0.28061322014E+02  0.00000000000E+00 0.  1.
         14    1    4    4    0    0 -0.96299361629E+01 -0.49310542332E+02  0.46868368977E+02  0.68708873271E+02  0.00000000000E+00 0. -1.
         -5    1    5    5    0  502  0.31377607084E+02 -0.34752766301E+02  0.18466531363E+02  0.50551080824E+02  0.47000000000E+01 0.  1.
         13    1    6    6    0    0 -0.18871899582E+01  0.27561796781E+02  0.65709692765E+02  0.71280978185E+02  0.00000000000E+00 0. -1.
        -14    1    6    6    0    0  0.48216281088E+02  0.13829281245E+02  0.26768744173E+03  0.27234651685E+03  0.00000000000E+00 0.  1.
</event>
<event>
12    1  0.8258923E-002  0.2878619E+03  0.7818608E-02  0.1091658E+00
         21   -1    0    0  501  502  0.00000000000E+00  0.00000000000E+00  0.25194800060E+03  0.25194800060E+03  0.00000000000E+00 0.  1.
         21   -1    0    0  502  503 -0.00000000000E+00 -0.00000000000E+00 -0.41132207805E+03  0.41132207805E+03  0.00000000000E+00 0. -1.
         -6    2    1    2    0  503 -0.97165845952E+02 -0.20815959798E+03 -0.22943552160E+03  0.36700483288E+03  0.17111478292E+03 0.  0.
        -24    2    3    3    0    0 -0.11585396083E+03 -0.19049217638E+03 -0.24152356979E+03  0.33820215361E+03  0.79609374065E+02 0.  0.
          6    2    1    2  501    0  0.97165845952E+02  0.20815959798E+03  0.70061444151E+02  0.29626524577E+03  0.17347296632E+03 0.  0.
         24    2    5    5    0    0  0.12013853381E+03  0.10237316064E+03  0.23504341578E+02  0.17833234742E+03  0.79601763418E+02 0.  0.
          5    1    5    5  501    0 -0.22972687853E+02  0.10578643734E+03  0.46557102573E+02  0.11793289835E+03  0.47000000000E+01 0. -1.
        -11    1    6    6    0    0  0.51786409990E+02  0.94163657513E+02  0.20645031729E+02  0.10942963032E+03  0.00000000000E+00 0.  1.
         12    1    6    6    0    0  0.68352123815E+02  0.82095031269E+01  0.28593098492E+01  0.68902717105E+02  0.00000000000E+00 0. -1.
         -5    1    3    3    0  503  0.18688114881E+02 -0.17667421605E+02  0.12088048195E+02  0.28802679270E+02  0.47000000000E+01 0.  1.
         11    1    4    4    0    0  0.10371446382E+02 -0.33909071860E+02 -0.31897004155E+02  0.47694978022E+02  0.00000000000E+00 0. -1.
        -12    1    4    4    0    0 -0.12622540722E+03 -0.15658310452E+03 -0.20962656564E+03  0.29050717559E+03  0.00000000000E+00 0.  1.
</event>
<event>
12    1  0.8258923E-002  0.2124769E+03  0.7818608E-02  0.1139673E+00
         21   -1    0    0  503  502  0.00000000000E+00  0.00000000000E+00  0.94110615334E+02  0.94110615334E+02  0.00000000000E+00 0.  1.
         21   -1    0    0  501  503 -0.00000000000E+00 -0.00000000000E+00 -0.13200211152E+04  0.13200211152E+04  0.00000000000E+00 0.  1.
          6    2    1    2  501    0 -0.10323727338E+03  0.69010874357E+02 -0.11774486648E+04  0.11964663770E+04  0.17241228963E+03 0.  0.
         24    2    3    3    0    0 -0.74511369082E+02  0.46056514478E+02 -0.37171757343E+03  0.38988298897E+03  0.78496140315E+02 0.  0.
         -6    2    1    2    0  502  0.10323727338E+03 -0.69010874357E+02 -0.48461835035E+02  0.21766535352E+03  0.17207330204E+03 0.  0.
        -24    2    5    5    0    0  0.72270856652E+02 -0.12802970977E+02 -0.90771805656E+02  0.14065580229E+03  0.78470002086E+02 0.  0.
          5    1    3    3  501    0 -0.28725904299E+02  0.22954359879E+02 -0.80573109139E+03  0.80658338803E+03  0.47000000000E+01 0. -1.
        -13    1    4    4    0    0 -0.80387293580E+01  0.28653732513E+02 -0.23492388232E+03  0.23680136833E+03  0.00000000000E+00 0.  1.
         14    1    4    4    0    0 -0.66472639724E+02  0.17402781965E+02 -0.13679369111E+03  0.15308162064E+03  0.00000000000E+00 0. -1.
         -5    1    5    5    0  502  0.30966416729E+02 -0.56207903380E+02  0.42309970622E+02  0.77009551235E+02  0.47000000000E+01 0.  1.
         13    1    6    6    0    0 -0.16849161888E+02  0.22124888053E+01 -0.16336818551E+02  0.23572887040E+02  0.00000000000E+00 0. -1.
        -14    1    6    6    0    0  0.89120018540E+02 -0.15015459783E+02 -0.74434987105E+02  0.11708291525E+03  0.00000000000E+00 0.  1.
</event>
<event>
12    1  0.8258923E-002  0.1802225E+03  0.7818608E-02  0.1168185E+00
         21   -1    0    0  503  502  0.00000000000E+00  0.00000000000E+00  0.43530831202E+03  0.43530831202E+03  0.00000000000E+00 0.  1.
         21   -1    0    0  501  503 -0.00000000000E+00 -0.00000000000E+00 -0.81971036604E+02  0.81971036604E+02  0.00000000000E+00 0.  1.
          6    2    1    2  501    0  0.43195700199E+02 -0.18277921219E+01  0.95111423658E+02  0.20378013808E+03  0.17495985947E+03 0.  0.
         24    2    3    3    0    0  0.52098912028E+02  0.57852139943E+02  0.30675539389E+02  0.11537745343E+03  0.79434257796E+02 0.  0.
         -6    2    1    2    0  502 -0.43195700199E+02  0.18277921219E+01  0.25822585176E+03  0.31349921055E+03  0.17242956579E+03 0.  0.
        -24    2    5    5    0    0 -0.42586796615E+01 -0.60646788049E+02  0.17555895253E+03  0.20270629126E+03  0.81072347018E+02 0.  0.
          5    1    3    3  501    0 -0.89032118291E+01 -0.59679932064E+02  0.64435884269E+02  0.88402684651E+02  0.47000000000E+01 0. -1.
        -13    1    4    4    0    0 -0.11279962100E+02 -0.12106833138E+02  0.75440407584E+01  0.18185860017E+02  0.00000000000E+00 0.  1.
         14    1    4    4    0    0  0.63378874129E+02  0.69958973080E+02  0.23131498631E+02  0.97191593408E+02  0.00000000000E+00 0. -1.
         -5    1    5    5    0  502 -0.38937020538E+02  0.62474580171E+02  0.82666899234E+02  0.11079291929E+03  0.47000000000E+01 0.  1.
         11    1    6    6    0    0 -0.21182669544E+02 -0.21880865925E+02  0.10345257450E+02  0.32163677252E+02  0.00000000000E+00 0. -1.
        -12    1    6    6    0    0  0.16923989883E+02 -0.38765922124E+02  0.16521369508E+03  0.17054261401E+03  0.00000000000E+00 0.  1.
</event>
<event>
12    1  0.8258923E-002  0.2223649E+03  0.7818608E-02  0.1133118E+00
         21   -1    0    0  501  502  0.00000000000E+00  0.00000000000E+00  0.59233127167E+03  0.59233127167E+03  0.00000000000E+00 0. -1.
         21   -1    0    0  502  503 -0.00000000000E+00 -0.00000000000E+00 -0.88350502059E+02  0.88350502059E+02  0.00000000000E+00 0. -1.
         -6    2    1    2    0  503 -0.11919063836E+03  0.74320854550E+02  0.15444324155E+03  0.26640817882E+03  0.16550107307E+03 0.  0.
        -24    2    3    3    0    0 -0.15197866218E+03  0.53288681550E+02  0.10301764023E+03  0.20172364219E+03  0.64363003981E+02 0.  0.
          6    2    1    2  501    0  0.11919063836E+03 -0.74320854550E+02  0.34953752806E+03  0.41427359491E+03  0.17238367157E+03 0.  0.
         24    2    5    5    0    0  0.36118156197E+02 -0.44542543204E+02  0.29724076167E+03  0.31158558737E+03  0.73789894238E+02 0.  0.
          5    1    5    5  501    0  0.83072482161E+02 -0.29778311347E+02  0.52296766392E+02  0.10268800755E+03  0.47000000000E+01 0. -1.
        -11    1    6    6    0    0  0.56484523181E+02 -0.19989375662E+02  0.16471260075E+03  0.17527212369E+03  0.00000000000E+00 0.  1.
         12    1    6    6    0    0 -0.20366366984E+02 -0.24553167541E+02  0.13252816093E+03  0.13631346368E+03  0.00000000000E+00 0. -1.
         -5    1    3    3    0  503  0.32788023821E+02  0.21032173000E+02  0.51425601321E+02  0.64684536625E+02  0.47000000000E+01 0.  1.
         13    1    4    4    0    0 -0.30947874057E+02  0.37281268760E+02  0.13382341894E+02  0.50266798024E+02  0.00000000000E+00 0. -1.
        -14    1    4    4    0    0 -0.12103078812E+03  0.16007412791E+02  0.89635298332E+02  0.15145684417E+03  0.00000000000E+00 0.  1.
</event>
<event>
12    1  0.8258923E-002  0.2470175E+03  0.7818608E-02  0.1115379E+00
         21   -1    0    0  501  502  0.00000000000E+00  0.00000000000E+00  0.10238739939E+04  0.10238739939E+04  0.00000000000E+00 0. -1.
         21   -1    0    0  502  503 -0.00000000000E+00 -0.00000000000E+00 -0.66796032801E+03  0.66796032801E+03  0.00000000000E+00 0.  1.
         -6    2    1    2    0  503  0.98542716005E+02 -0.14611413686E+03 -0.62948184919E+03  0.67621375489E+03  0.17308274314E+03 0.  0.
        -24    2    3    3    0    0  0.45853100867E+02 -0.13685886073E+03 -0.29629796606E+03  0.33872976171E+03  0.78182556579E+02 0.  0.
          6    2    1    2  501    0 -0.98542716005E+02  0.14611413686E+03  0.98539551507E+03  0.10156205670E+04  0.17152494622E+03 0.  0.
         24    2    5    5    0    0 -0.70644139883E+02  0.16282908308E+03  0.93701356795E+03  0.95713447650E+03  0.81290065822E+02 0.  0.
          5    1    5    5  501    0 -0.27898576121E+02 -0.16714946223E+02  0.48381947126E+02  0.58486090522E+02  0.47000000000E+01 0. -1.
        -11    1    6    6    0    0 -0.11863167938E+02  0.11616256040E+03  0.47995683912E+03  0.49395651895E+03  0.00000000000E+00 0.  1.
         12    1    6    6    0    0 -0.58780971945E+02  0.46666522683E+02  0.45705672883E+03  0.46317795756E+03  0.00000000000E+00 0. -1.
         -5    1    3    3    0  503  0.52689615137E+02 -0.92552761336E+01 -0.33318388312E+03  0.33748399318E+03  0.47000000000E+01 0.  1.
         11    1    4    4    0    0 -0.12891906841E+02 -0.77206467311E+02 -0.11597225712E+03  0.13991641890E+03  0.00000000000E+00 0. -1.
        -12    1    4    4    0    0  0.58745007709E+02 -0.59652393414E+02 -0.18032570895E+03  0.19881334281E+03  0.00000000000E+00 0.  1.
</event>
<event>
12    1  0.8258923E-002  0.1952561E+03  0.7818608E-02  0.1153967E+00
         21   -1    0    0  501  502  0.00000000000E+00  0.00000000000E+00  0.84393730534E+03  0.84393730534E+03  0.00000000000E+00 0. -1.
         21   -1    0    0  502  503 -0.00000000000E+00 -0.00000000000E+00 -0.47459867536E+02  0.47459867536E+02  0.00000000000E+00 0. -1.
         -6    2    1    2    0  503 -0.35016407272E+02 -0.83551180534E+02  0.29609054406E+03  0.35426403729E+03  0.17212335486E+03 0.  0.
        -24    2    3    3    0    0 -0.88889080696E+02 -0.53672361823E+02  0.19762049104E+03  0.23801667134E+03  0.82559592199E+02 0.  0.
          6    2    1    2  501    0  0.35016407272E+02  0.83551180534E+02  0.50038689374E+03  0.53713313558E+03  0.17296824381E+03 0.  0.
         24    2    5    5    0    0  0.52118903188E+01  0.41862172061E+02  0.46893888638E+03  0.47682269018E+03  0.75343171276E+02 0.  0.
          5    1    5    5  501    0  0.29804516954E+02  0.41689008473E+02  0.31448007363E+02  0.60310445409E+02  0.47000000000E+01 0. -1.
        -11    1    6    6    0    0 -0.73706414392E+01  0.69780693514E-01  0.35083136056E+03  0.35090878412E+03  0.00000000000E+00 0.  1.
         12    1    6    6    0    0  0.12582531758E+02  0.41792391368E+02  0.11810752582E+03  0.12591390605E+03  0.00000000000E+00 0. -1.
         -5    1    3    3    0  503  0.53872673424E+02 -0.29878818712E+02  0.98470053022E+02  0.11624736596E+03  0.47000000000E+01 0.  1.
         13    1    4    4    0    0 -0.23488994677E+02 -0.47444664282E+02  0.14331777563E+03  0.15278322503E+03  0.00000000000E+00 0. -1.
        -14    1    4    4    0    0 -0.65400086019E+02 -0.62276975412E+01  0.54302715414E+02  0.85233446307E+02  0.00000000000E+00 0.  1.
</event>
<event>
12    1  0.8258923E-002  0.1775230E+03  0.7818608E-02  0.1171691E+00
         21   -1    0    0  501  502  0.00000000000E+00  0.00000000000E+00  0.16861543384E+03  0.16861543384E+03  0.00000000000E+00 0.  1.
         21   -1    0    0  502  503 -0.00000000000E+00 -0.00000000000E+00 -0.22278832300E+03  0.22278832300E+03  0.00000000000E+00 0.  1.
         -6    2    1    2    0  503 -0.22978952384E+02  0.34856945414E+02 -0.11168027058E+03  0.20479848008E+03  0.16651395050E+03 0.  0.
        -24    2    3    3    0    0  0.48558417961E+02 -0.14024985791E+02 -0.32420763279E+02  0.87277426431E+02  0.63337375154E+02 0.  0.
          6    2    1    2  501    0  0.22978952384E+02 -0.34856945414E+02  0.57507381419E+02  0.18660527676E+03  0.17254388282E+03 0.  0.
         24    2    5    5    0    0 -0.26630381955E+02 -0.18717708324E+02  0.89875587370E+02  0.12503132298E+03  0.80595785698E+02 0.  0.
          5    1    5    5  501    0  0.49609334339E+02 -0.16139237090E+02 -0.32368205952E+02  0.61573953778E+02  0.47000000000E+01 0. -1.
        -13    1    6    6    0    0 -0.22311973492E+02  0.38183003782E+01  0.98083322681E+02  0.10066152079E+03  0.00000000000E+00 0.  1.
         14    1    6    6    0    0 -0.43184084633E+01 -0.22536008702E+02 -0.82077353106E+01  0.24369802191E+02  0.00000000000E+00 0. -1.
         -5    1    3    3    0  503 -0.71537370345E+02  0.48881931206E+02 -0.79259507302E+02  0.11752105365E+03  0.47000000000E+01 0.  1.
         11    1    4    4    0    0  0.51080161667E+02  0.83719521652E+00  0.47816975455E+00  0.51089259713E+02  0.00000000000E+00 0. -1.
        -12    1    4    4    0    0 -0.25217437055E+01 -0.14862181008E+02 -0.32898933034E+02  0.36188166718E+02  0.00000000000E+00 0.  1.
</event>
<event>
12    1  0.8258923E-002  0.2367707E+03  0.7818608E-02  0.1122010E+00
         21   -1    0    0  503  502  0.00000000000E+00  0.00000000000E+00  0.82577510616E+02  0.82577510616E+02  0.00000000000E+00 0.  1.
         21   -1    0    0  501  503 -0.00000000000E+00 -0.00000000000E+00 -0.11605851313E+04  0.11605851313E+04  0.00000000000E+00 0. -1.
          6    2    1    2  501    0 -0.36053252097E+02 -0.15763734354E+03 -0.93996873545E+03  0.96933047835E+03  0.17294792154E+03 0.  0.
         24    2    3    3    0    0  0.17612647641E+01 -0.67378690313E+02 -0.22936368097E+03  0.25200335937E+03  0.79718285379E+02 0.  0.
         -6    2    1    2    0  502  0.36053252097E+02  0.15763734354E+03 -0.13803888525E+03  0.27383216358E+03  0.17256868460E+03 0.  0.
        -24    2    5    5    0    0  0.15532196163E+02  0.18570285291E+03 -0.90465622827E+02  0.21472131982E+03  0.56519178819E+02 0.  0.
          5    1    3    3  501    0 -0.37814516861E+02 -0.90258653231E+02 -0.71060505448E+03  0.71732711898E+03  0.47000000000E+01 0. -1.
        -11    1    4    4    0    0  0.18173218472E+02  0.12428779763E+02 -0.63487000203E+02  0.67196276912E+02  0.00000000000E+00 0.  1.
         12    1    4    4    0    0 -0.16411953708E+02 -0.79807470076E+02 -0.16587668077E+03  0.18480708246E+03  0.00000000000E+00 0. -1.
         -5    1    5    5    0  502  0.20521055934E+02 -0.28065509369E+02 -0.47573262422E+02  0.59110843762E+02  0.47000000000E+01 0.  1.
         13    1    6    6    0    0 -0.68600437840E+01  0.22389419812E+02  0.53991091003E+01  0.24031161007E+02  0.00000000000E+00 0. -1.
        -14    1    6    6    0    0  0.22392239947E+02  0.16331343310E+03 -0.95864731928E+02  0.19069015881E+03  0.00000000000E+00 0.  1.
</event>
<event>
12    1  0.8258923E-002  0.1788139E+03  0.7818608E-02  0.1170076E+00
         21   -1    0    0  503  502  0.00000000000E+00  0.00000000000E+00  0.39968065639E+02  0.39968065639E+02  0.00000000000E+00 0. -1.
         21   -1    0    0  501  503 -0.00000000000E+00 -0.00000000000E+00 -0.22622067499E+04  0.22622067499E+04  0.00000000000E+00 0. -1.
          6    2    1    2  501    0 -0.23221356651E+02 -0.17888819222E+02 -0.20477916970E+04  0.20555839152E+04  0.17639488853E+03 0.  0.
         24    2    3    3    0    0  0.26626921951E+02 -0.54291526548E+02 -0.16467380175E+04  0.16497808203E+04  0.79837922243E+02 0.  0.
         -6    2    1    2    0  502  0.23221356651E+02  0.17888819222E+02 -0.17444698728E+03  0.24659090040E+03  0.17180244332E+03 0.  0.
        -24    2    5    5    0    0  0.80067371211E+02  0.20222023839E+02 -0.93970305171E+02  0.14792226517E+03  0.78935822651E+02 0.  0.
          5    1    3    3  501    0 -0.49848278601E+02  0.36402707326E+02 -0.40105367954E+03  0.40580309492E+03  0.47000000000E+01 0. -1.
        -13    1    4    4    0    0  0.35809543622E+02  0.46026223277E+01 -0.40254089122E+03  0.40415674763E+03  0.00000000000E+00 0.  1.
         14    1    4    4    0    0 -0.91826216716E+01 -0.58894148876E+02 -0.12441971263E+04  0.12456240726E+04  0.00000000000E+00 0. -1.
         -5    1    5    5    0  502 -0.56846014560E+02 -0.23332046166E+01 -0.80476682107E+02  0.98668635230E+02  0.47000000000E+01 0.  1.
         11    1    6    6    0    0  0.67105654583E+02  0.45032950287E+02 -0.47697723082E+02  0.93841399583E+02  0.00000000000E+00 0. -1.
        -12    1    6    6    0    0  0.12961716628E+02 -0.24810926448E+02 -0.46272582089E+02  0.54080865584E+02  0.00000000000E+00 0.  1.
</event>
<event>
12    1  0.8258923E-002  0.1782630E+03  0.7818608E-02  0.1169693E+00
         21   -1    0    0  503  502  0.00000000000E+00  0.00000000000E+00  0.75325167878E+02  0.75325167878E+02  0.00000000000E+00 0. -1.
         21   -1    0    0  501  503 -0.00000000000E+00 -0.00000000000E+00 -0.43105134577E+03  0.43105134577E+03  0.00000000000E+00 0. -1.
          6    2    1    2  501    0 -0.23686823205E+02 -0.34142288722E+02 -0.21886422175E+03  0.28227510455E+03  0.17335202800E+03 0.  0.
         24    2    3    3    0    0 -0.69135279761E+02 -0.69196236633E+02 -0.13353640265E+03  0.17933207088E+03  0.68994309495E+02 0.  0.
         -6    2    1    2    0  502  0.23686823205E+02  0.34142288722E+02 -0.13686195614E+03  0.22410140910E+03  0.17252096988E+03 0.  0.
        -24    2    5    5    0    0  0.81364807902E+02  0.20015850091E+02 -0.71299677709E+02  0.13551919565E+03  0.79126115334E+02 0.  0.
          5    1    3    3  501    0  0.45448456556E+02  0.35053947911E+02 -0.85327819107E+02  0.10294303367E+03  0.47000000000E+01 0. -1.
        -13    1    4    4    0    0 -0.70028542176E+02 -0.49966707562E+02 -0.64115320733E+02  0.10729139265E+03  0.00000000000E+00 0.  1.
         14    1    4    4    0    0  0.89326241448E+00 -0.19229529071E+02 -0.69421081913E+02  0.72040678231E+02  0.00000000000E+00 0. -1.
         -5    1    5    5    0  502 -0.57677984697E+02  0.14126438630E+02 -0.65562278435E+02  0.88582213455E+02  0.47000000000E+01 0.  1.
         11    1    6    6    0    0 -0.78192244388E+01  0.23786471163E+02 -0.87579353635E+01  0.26526174113E+02  0.00000000000E+00 0. -1.
        -12    1    6    6    0    0  0.89184032341E+02 -0.37706210719E+01 -0.62541742346E+02  0.10899302154E+03  0.00000000000E+00 0.  1.
</event>
<event>
12    1  0.8258923E-002  0.1780536E+03  0.7818608E-02  0.1170199E+00
         21   -1    0    0  503  502  0.00000000000E+00  0.00000000000E+00  0.37958774220E+03  0.37958774220E+03  0.00000000000E+00 0.  1.
         21   -1    0    0  501  503 -0.00000000000E+00 -0.00000000000E+00 -0.88305390111E+02  0.88305390111E+02  0.00000000000E+00 0.  1.
          6    2    1    2  501    0 -0.27227870290E+02 -0.29275355373E+02  0.20601508057E+03  0.27229633822E+03  0.17350699995E+03 0.  0.
         24    2    3    3    0    0  0.83499835645E+01  0.16585491451E+02  0.30469139619E+02  0.87343727148E+02  0.79723004526E+02 0.  0.
         -6    2    1    2    0  502  0.27227870290E+02  0.29275355373E+02  0.85267271519E+02  0.19559679410E+03  0.17143277083E+03 0.  0.
        -24    2    5    5    0    0  0.55667414793E+02  0.29074746143E+02  0.11598519377E+03  0.15347163910E+03  0.78465131761E+02 0.  0.
          5    1    3    3  501    0 -0.35577853855E+02 -0.45860846824E+02  0.17554594095E+03  0.18495261107E+03  0.47000000000E+01 0. -1.
        -11    1    4    4    0    0  0.43758946160E+02  0.85196027572E+01  0.23390512650E+02  0.50344265634E+02  0.00000000000E+00 0.  1.
         12    1    4    4    0    0 -0.35408962596E+02  0.80658886937E+01  0.70786269686E+01  0.36999461514E+02  0.00000000000E+00 0. -1.
         -5    1    5    5    0  502 -0.28439544503E+02  0.20060922943E+00 -0.30717922252E+02  0.42125154992E+02  0.47000000000E+01 0.  1.
         13    1    6    6    0    0 -0.99099912185E+01  0.13685294008E+02  0.69759954058E+02  0.71777060320E+02  0.00000000000E+00 0. -1.
        -14    1    6    6    0    0  0.65577406011E+02  0.15389452135E+02  0.46225239713E+02  0.81694578784E+02  0.00000000000E+00 0.  1.
</event>
<event>
12    1  0.8258923E-002  0.2517862E+03  0.7818608E-02  0.1112197E+00
         21   -1    0    0  503  502  0.00000000000E+00  0.00000000000E+00  0.52737852537E+02  0.52737852537E+02  0.00000000000E+00 0.  1.
         21   -1    0    0  501  503 -0.00000000000E+00 -0.00000000000E+00 -0.13735150600E+04  0.13735150600E+04  0.00000000000E+00 0.  1.
          6    2    1    2  501    0 -0.12217252708E+03 -0.14148960098E+03 -0.91277137953E+03  0.94686212589E+03  0.16867382905E+03 0.  0.
         24    2    3    3    0    0 -0.92341814295E+02 -0.10854736329E+03 -0.39752187957E+03  0.42967821310E+03  0.79310663393E+02 0.  0.
         -6    2    1    2    0  502  0.12217252708E+03  0.14148960098E+03 -0.40800582796E+03  0.47939078667E+03  0.16852696263E+03 0.  0.
        -24    2    5    5    0    0  0.18248073677E+01  0.17763522324E+02 -0.14982296033E+03  0.16879104533E+03  0.75661250946E+02 0.  0.
          5    1    3    3  501    0 -0.29830712785E+02 -0.32942237690E+02 -0.51524949995E+03  0.51718391279E+03  0.47000000000E+01 0. -1.
        -11    1    4    4    0    0 -0.59337999230E+02 -0.35713843553E+02 -0.27335129114E+03  0.28198830675E+03  0.00000000000E+00 0.  1.
         12    1    4    4    0    0 -0.33003815065E+02 -0.72833519742E+02 -0.12417058843E+03  0.14768990635E+03  0.00000000000E+00 0. -1.
         -5    1    5    5    0  502  0.12034771971E+03  0.12372607866E+03 -0.25818286763E+03  0.31059974134E+03  0.47000000000E+01 0.  1.
         11    1    6    6    0    0 -0.35790124327E+02  0.18070848376E+02 -0.74944764875E+02  0.84995331298E+02  0.00000000000E+00 0. -1.
        -12    1    6    6    0    0  0.37614931694E+02 -0.30732605264E+00 -0.74878195454E+02  0.83795714032E+02  0.00000000000E+00 0.  1.
</event>
<event>
12    1  0.8258923E-002  0.1748679E+03  0.7818608E-02  0.1173052E+00
         21   -1    0    0  501  502  0.00000000000E+00  0.00000000000E+00  0.55797279654E+03  0.55797279654E+03  0.00000000000E+00 0.  1.
         21   -1    0    0  502  503 -0.00000000000E+00 -0.00000000000E+00 -0.54654794889E+02  0.54654794889E+02  0.00000000000E+00 0.  1.
         -6    2    1    2    0  503 -0.28233788023E+02  0.29239314784E+01  0.26428473290E+03  0.31689932989E+03  0.17254874406E+03 0.  0.
        -24    2    3    3    0    0  0.21171542173E+02  0.42551517633E+02  0.83602753563E+02  0.12538092374E+03  0.80449299458E+02 0.  0.
          6    2    1    2  501    0  0.28233788023E+02 -0.29239314784E+01  0.23903326874E+03  0.29572826154E+03  0.17179233087E+03 0.  0.
         24    2    5    5    0    0 -0.16701781003E+02  0.63146565633E+02  0.15771235039E+03  0.18162437153E+03  0.62030545935E+02 0.  0.
          5    1    5    5  501    0  0.44935569026E+02 -0.66070497112E+02  0.81320918353E+02  0.11410389000E+03  0.47000000000E+01 0. -1.
        -11    1    6    6    0    0  0.61842895314E+00  0.20704656839E+02  0.12137271737E+03  0.12312758339E+03  0.00000000000E+00 0.  1.
         12    1    6    6    0    0 -0.17320209957E+02  0.42441908794E+02  0.36339633018E+02  0.58496788141E+02  0.00000000000E+00 0. -1.
         -5    1    3    3    0  503 -0.49405330196E+02 -0.39627586155E+02  0.18068197934E+03  0.19151840615E+03  0.47000000000E+01 0.  1.
         11    1    4    4    0    0 -0.25079972196E+02  0.39880297302E+02  0.42101559690E+02  0.63182152912E+02  0.00000000000E+00 0. -1.
        -12    1    4    4    0    0  0.46251514369E+02  0.26712203313E+01  0.41501193873E+02  0.62198770826E+02  0.00000000000E+00 0.  1.
</event>
<event>
12    1  0.8258923E-002  0.1762308E+03  0.7818608E-02  0.1173631E+00
         21   -1    0    0  503  502  0.00000000000E+00  0.00000000000E+00  0.43973455911E+03  0.43973455911E+03  0.00000000000E+00 0. -1.
         21   -1    0    0  501  503 -0.00000000000E+00 -0.00000000000E+00 -0.82633471311E+02  0.82633471311E+02  0.00000000000E+00 0. -1.
          6    2    1    2  501    0  0.69624928670E+01  0.17590484594E+01  0.69682582856E+02  0.18950715204E+03  0.17608443362E+03 0.  0.
         24    2    3    3    0    0 -0.22929535055E+02  0.62714232891E+02  0.66369558891E+02  0.12137394450E+03  0.76602072236E+02 0.  0.
         -6    2    1    2    0  502 -0.69624928670E+01 -0.17590484594E+01  0.28741850494E+03  0.33286087838E+03  0.16773609276E+03 0.  0.
        -24    2    5    5    0    0 -0.36017060992E+02 -0.52432832601E+01  0.29021224261E+03  0.30309171999E+03  0.79477822456E+02 0.  0.
          5    1    3    3  501    0  0.29892027922E+02 -0.60955184431E+02  0.33130239650E+01  0.68133207543E+02  0.47000000000E+01 0. -1.
        -13    1    4    4    0    0 -0.46052231652E+02  0.15362872911E+02  0.26611039967E+02  0.55362201476E+02  0.00000000000E+00 0.  1.
         14    1    4    4    0    0  0.23122696596E+02  0.47351359980E+02  0.39758518924E+02  0.66011743022E+02  0.00000000000E+00 0. -1.
         -5    1    5    5    0  502  0.29054568125E+02  0.34842348007E+01 -0.27937376684E+01  0.29769158390E+02  0.47000000000E+01 0.  1.
         11    1    6    6    0    0 -0.42608915806E+02  0.64054642205E+01  0.28575393910E+03  0.28898419229E+03  0.00000000000E+00 0. -1.
        -12    1    6    6    0    0  0.65918548133E+01 -0.11648747481E+02  0.44583035096E+01  0.14107527704E+02  0.00000000000E+00 0.  1.
</event>
<event>
12    1  0.8258923E-002  0.2601347E+03  0.7818608E-02  0.1107084E+00
         21   -1    0    0  503  502  0.00000000000E+00  0.00000000000E+00  0.12930683811E+03  0.12930683811E+03  0.00000000000E+00 0.  1.
         21   -1    0    0  501  503 -0.00000000000E+00 -0.00000000000E+00 -0.89323877375E+03  0.89323877375E+03  0.00000000000E+00 0. -1.
          6    2    1    2  501    0 -0.13136840912E+03  0.14323798402E+03 -0.71117287291E+03  0.75725616161E+03  0.17290245851E+03 0.  0.
         24    2    3    3    0    0 -0.64574078491E+02  0.79967394889E+02 -0.20873836506E+03  0.24644584973E+03  0.81235804553E+02 0.  0.
         -6    2    1    2    0  502  0.13136840912E+03 -0.14323798402E+03 -0.52759062740E+02  0.26528945025E+03  0.17268524757E+03 0.  0.
        -24    2    5    5    0    0  0.55697516841E+02 -0.65549906605E+02  0.37168726592E+02  0.12432626851E+03  0.81709871908E+02 0.  0.
          5    1    3    3  501    0 -0.66794330631E+02  0.63270589136E+02 -0.50243450784E+03  0.51081031188E+03  0.47000000000E+01 0. -1.
        -11    1    4    4    0    0 -0.46167582838E+02 -0.27638556756E+01 -0.74873357205E+02  0.88006273767E+02  0.00000000000E+00 0.  1.
         12    1    4    4    0    0 -0.18406495653E+02  0.82731250565E+02 -0.13386500786E+03  0.15843957596E+03  0.00000000000E+00 0. -1.
         -5    1    5    5    0  502  0.75670892281E+02 -0.77688077420E+02 -0.89927789332E+02  0.14096318174E+03  0.47000000000E+01 0.  1.
         13    1    6    6    0    0  0.33865613781E+02  0.66275140015E+01 -0.93151404038E+01  0.35743189272E+02  0.00000000000E+00 0. -1.
        -14    1    6    6    0    0  0.21831903060E+02 -0.72177420606E+02  0.46483866995E+02  0.88583079239E+02  0.00000000000E+00 0.  1.
</event>
<event>
12    1  0.8258923E-002  0.1818712E+03  0.7818608E-02  0.1166079E+00
         21   -1    0    0  501  502  0.00000000000E+00  0.00000000000E+00  0.41225922906E+03  0.41225922906E+03  0.00000000000E+00 0. -1.
         21   -1    0    0  502  503 -0.00000000000E+00 -0.00000000000E+00 -0.42876182091E+03  0.42876182091E+03  0.00000000000E+00 0. -1.
         -6    2    1    2    0  503  0.24231621432E+02  0.53418624705E+02 -0.38745420590E+03  0.42788399229E+03  0.17182324711E+03 0.  0.
        -24    2    3    3    0    0  0.37350884834E+02  0.93801734933E+02 -0.22046514086E+03  0.25551709145E+03  0.80562097870E+02 0.  0.
          6    2    1    2  501    0 -0.24231621432E+02 -0.53418624705E+02  0.37095161405E+03  0.41313705768E+03  0.17215228003E+03 0.  0.
         24    2    5    5    0    0 -0.79645859447E+02 -0.45765615578E+02  0.21107321903E+03  0.24368943298E+03  0.79966752200E+02 0.  0.
          5    1    5    5  501    0  0.55414238015E+02 -0.76530091279E+01  0.15987839501E+03  0.16944762470E+03  0.47000000000E+01 0. -1.
        -11    1    6    6    0    0  0.70637126217E+01  0.13010542146E+02  0.44674577161E+02  0.47063659945E+02  0.00000000000E+00 0.  1.
         12    1    6    6    0    0 -0.86709572069E+02 -0.58776157724E+02  0.16639864187E+03  0.19662577304E+03  0.00000000000E+00 0. -1.
         -5    1    3    3    0  503 -0.13119263402E+02 -0.40383110227E+02 -0.16698906503E+03  0.17236690084E+03  0.47000000000E+01 0.  1.
         11    1    4    4    0    0 -0.25050827911E+02  0.37377823173E+02 -0.73733597921E+02  0.86378753792E+02  0.00000000000E+00 0. -1.
        -12    1    4    4    0    0  0.62401712745E+02  0.56423911759E+02 -0.14673154294E+03  0.16913833766E+03  0.00000000000E+00 0.  1.
</event>
<event>
12    1  0.8258923E-002  0.1924995E+03  0.7818608E-02  0.1158357E+00
         21   -1    0    0  501  502  0.00000000000E+00  0.00000000000E+00  0.35829402937E+02  0.35829402937E+02  0.00000000000E+00 0.  1.
         21   -1    0    0  502  503 -0.00000000000E+00 -0.00000000000E+00 -0.11960470921E+04  0.11960470921E+04  0.00000000000E+00 0. -1.
         -6    2    1    2    0  503  0.46572941069E+02  0.29267419357E+02 -0.30927538234E+03  0.35943230086E+03  0.17468456173E+03 0.  0.
        -24    2    3    3    0    0 -0.33354492043E+02  0.41036809913E+02 -0.11914550739E+03  0.15279645579E+03  0.79715513329E+02 0.  0.
          6    2    1    2  501    0 -0.46572941069E+02 -0.29267419357E+02 -0.85094230683E+03  0.87244419418E+03  0.18447341741E+03 0.  0.
         24    2    5    5    0    0 -0.14496224720E+02 -0.49067187250E+01 -0.12690717348E+03  0.14727433560E+03  0.73144260378E+02 0.  0.
          5    1    5    5  501    0 -0.32076716349E+02 -0.24360700632E+02 -0.72403513335E+03  0.72516985857E+03  0.47000000000E+01 0. -1.
        -11    1    6    6    0    0 -0.20327163448E+02 -0.24597527822E+02 -0.18386992531E+02  0.36828161006E+02  0.00000000000E+00 0.  1.
         12    1    6    6    0    0  0.58309387276E+01  0.19690809097E+02 -0.10852018095E+03  0.11044617460E+03  0.00000000000E+00 0. -1.
         -5    1    3    3    0  503  0.79927433111E+02 -0.11769390556E+02 -0.19012987495E+03  0.20663584507E+03  0.47000000000E+01 0.  1.
         11    1    4    4    0    0 -0.13421071908E+02 -0.22764563595E+01 -0.10079030398E+03  0.10170542169E+03  0.00000000000E+00 0. -1.
        -12    1    4    4    0    0 -0.19933420134E+02  0.43313266273E+02 -0.18355203403E+02  0.51091034100E+02  0.00000000000E+00 0.  1.
</event>
<event>
12    1  0.8258923E-002  0.1881044E+03  0.7818608E-02  0.1160563E+00
         21   -1    0    0  501  502  0.00000000000E+00  0.00000000000E+00  0.12806137818E+03  0.12806137818E+03  0.00000000000E+00 0.  1.
         21   -1    0    0  502  503 -0.00000000000E+00 -0.00000000000E+00 -0.27480919571E+03  0.27480919571E+03  0.00000000000E+00 0.  1.
         -6    2    1    2    0  503 -0.35964223465E+02  0.62442241708E+02 -0.84821895521E+02  0.20483496227E+03  0.17195973043E+03 0.  0.
        -24    2    3    3    0    0  0.11997232485E+02 -0.21461888463E+02 -0.69087574929E+02  0.10680505275E+03  0.77651014411E+02 0.  0.
          6    2    1    2  501    0  0.35964223465E+02 -0.62442241708E+02 -0.61925922013E+02  0.19803561162E+03  0.17375507110E+03 0.  0.
         24    2    5    5    0    0 -0.26081913041E+02 -0.84381207054E+02 -0.52707474438E+02  0.13141646248E+03  0.81803144549E+02 0.  0.
          5    1    5    5  501    0  0.62046136506E+02  0.21938965346E+02 -0.92184475748E+01  0.66619149135E+02  0.47000000000E+01 0. -1.
        -13    1    6    6    0    0  0.23357532026E+02 -0.59798553527E+02 -0.19997784366E+02  0.67241004497E+02  0.00000000000E+00 0.  1.
         14    1    6    6    0    0 -0.49439445067E+02 -0.24582653526E+02 -0.32709690072E+02  0.64175457985E+02  0.00000000000E+00 0. -1.
         -5    1    3    3    0  503 -0.47961455950E+02  0.83904130171E+02 -0.15734320592E+02  0.98029909523E+02  0.47000000000E+01 0.  1.
         11    1    4    4    0    0 -0.18915941735E+02 -0.13931642594E+02 -0.71143119536E+02  0.74921605524E+02  0.00000000000E+00 0. -1.
        -12    1    4    4    0    0  0.30913174220E+02 -0.75302458694E+01  0.20555446067E+01  0.31883447223E+02  0.00000000000E+00 0.  1.
</event>
<event>
12    1  0.8258923E-002  0.2381720E+03  0.7818608E-02  0.1121099E+00
         21   -1    0    0  501  502  0.00000000000E+00  0.00000000000E+00  0.15834653777E+03  0.15834653777E+03  0.00000000000E+00 0.  1.
         21   -1    0    0  502  503 -0.00000000000E+00 -0.00000000000E+00 -0.58812669222E+03  0.58812669222E+03  0.00000000000E+00 0. -1.
         -6    2    1    2    0  503 -0.58549035232E+02 -0.15312674161E+03 -0.44874879296E+03  0.50803676741E+03  0.17277178396E+03 0.  0.
        -24    2    3    3    0    0  0.26755863290E+02 -0.36106009011E+02 -0.18311217447E+03  0.20545507488E+03  0.81622296271E+02 0.  0.
          6    2    1    2  501    0  0.58549035232E+02  0.15312674161E+03  0.18968638516E+02  0.23843646258E+03  0.17209401186E+03 0.  0.
         24    2    5    5    0    0  0.79922739296E+02  0.37876988028E+02  0.58603407768E+01  0.12039723861E+03  0.81479083153E+02 0.  0.
          5    1    5    5  501    0 -0.21373704064E+02  0.11524975358E+03  0.13108297739E+02  0.11803922397E+03  0.47000000000E+01 0. -1.
        -11    1    6    6    0    0  0.51625896547E+02  0.41186563993E+02  0.38997574911E+02  0.76696656360E+02  0.00000000000E+00 0.  1.
         12    1    6    6    0    0  0.28296842749E+02 -0.33095759657E+01 -0.33137234134E+02  0.43700582247E+02  0.00000000000E+00 0. -1.
         -5    1    3    3    0  503 -0.85304898523E+02 -0.11702073260E+03 -0.26563661849E+03  0.30258169253E+03  0.47000000000E+01 0.  1.
         13    1    4    4    0    0  0.33688067184E+01 -0.43120762626E+02 -0.35837256938E+02  0.56169903088E+02  0.00000000000E+00 0. -1.
        -14    1    4    4    0    0  0.23387056572E+02  0.70147536148E+01 -0.14727491753E+03  0.14928517179E+03  0.00000000000E+00 0.  1.
</event>
<event>
12    1  0.8258923E-002  0.1945590E+03  0.7818608E-02  0.1154723E+00
         21   -1    0    0  503  502  0.00000000000E+00  0.00000000000E+00  0.68112538566E+03  0.68112538566E+03  0.00000000000E+00 0. -1.
         21   -1    0    0  501  503 -0.00000000000E+00 -0.00000000000E+00 -0.61273368729E+02  0.61273368729E+02  0.00000000000E+00 0. -1.
          6    2    1    2  501    0 -0.68408683615E+02 -0.55482925999E+02  0.42605393259E+03  0.46778827993E+03  0.17188897082E+03 0.  0.
         24    2    3    3    0    0  0.91204922219E+01 -0.54101928593E+02  0.32678907801E+03  0.34173955279E+03  0.83574029305E+02 0.  0.
         -6    2    1    2    0  502  0.68408683615E+02  0.55482925999E+02  0.19379808434E+03  0.27461047446E+03  0.17347942851E+03 0.  0.
        -24    2    5    5    0    0 -0.13586088426E+02 -0.19627866968E+02  0.10803383476E+03  0.13410292887E+03  0.75778962237E+02 0.  0.
          5    1    3    3  501    0 -0.77529175837E+02 -0.13809974060E+01  0.99264854577E+02  0.12604872714E+03  0.47000000000E+01 0. -1.
        -13    1    4    4    0    0 -0.13938603042E+02 -0.24855674019E+02  0.25757070508E+02  0.38412444166E+02  0.00000000000E+00 0.  1.
         14    1    4    4    0    0  0.23059095264E+02 -0.29246254573E+02  0.30103200750E+03  0.30332710862E+03  0.00000000000E+00 0. -1.
         -5    1    5    5    0  502  0.81994772041E+02  0.75110792967E+02  0.85764249581E+02  0.14050754559E+03  0.47000000000E+01 0.  1.
         13    1    6    6    0    0 -0.12794293433E+02 -0.21045535503E+02 -0.13885141986E+01  0.24668532197E+02  0.00000000000E+00 0. -1.
        -14    1    6    6    0    0 -0.79179499304E+00  0.14176685349E+01  0.10942234896E+03  0.10943439667E+03  0.00000000000E+00 0.  1.
</event>
<event>
12    1  0.8258923E-002  0.2262461E+03  0.7818608E-02  0.1129403E+00
         21   -1    0    0  503  502  0.00000000000E+00  0.00000000000E+00  0.28109672529E+02  0.28109672529E+02  0.00000000000E+00 0.  1.
         21   -1    0    0  501  503 -0.00000000000E+00 -0.00000000000E+00 -0.20080591393E+04  0.20080591393E+04  0.00000000000E+00 0.  1.
          6    2    1    2  501    0  0.10014698840E+03  0.10702302588E+03 -0.13051434785E+04  0.13246081637E+04  0.17234831196E+03 0.  0.
         24    2    3    3    0    0  0.10081262681E+03  0.13827614911E+03 -0.12028413029E+04  0.12175333025E+04  0.79225396779E+02 0.  0.
         -6    2    1    2    0  502 -0.10014698840E+03 -0.10702302588E+03 -0.67480598826E+03  0.71156064807E+03  0.17167436250E+03 0.  0.
        -24    2    5    5    0    0 -0.55763130180E+02 -0.15665127541E+00 -0.19718822370E+03  0.22010244241E+03  0.80326448703E+02 0.  0.
          5    1    3    3  501    0 -0.66563841743E+00 -0.31253123236E+02 -0.10230217553E+03  0.10707486122E+03  0.47000000000E+01 0. -1.
        -13    1    4    4    0    0  0.39563773412E+02  0.39621478274E+01 -0.20353795350E+03  0.20738536423E+03  0.00000000000E+00 0.  1.
         14    1    4    4    0    0  0.61248853402E+02  0.13431400129E+03 -0.99930334945E+03  0.10101479383E+04  0.00000000000E+00 0. -1.
         -5    1    5    5    0  502 -0.44383858216E+02 -0.10686637460E+03 -0.47761776456E+03  0.49145820566E+03  0.47000000000E+01 0.  1.
         13    1    6    6    0    0 -0.64070540268E+02 -0.26975985188E+02 -0.13407769969E+03  0.15102836641E+03  0.00000000000E+00 0. -1.
        -14    1    6    6    0    0  0.83074100878E+01  0.26819333913E+02 -0.63110524011E+02  0.69074075997E+02  0.00000000000E+00 0.  1.
</event>
<event>
12    1  0.8258923E-002  0.1896247E+03  0.7818608E-02  0.1159604E+00
         21   -1    0    0  503  502  0.00000000000E+00  0.00000000000E+00  0.39370838826E+03  0.39370838826E+03  0.00000000000E+00 0. -1.
         21   -1    0    0  501  503 -0.00000000000E+00 -0.00000000000E+00 -0.19149910140E+03  0.19149910140E+03  0.00000000000E+00 0.  1.
          6    2    1    2  501    0  0.32406213984E+02 -0.69695506202E+02 -0.11273230204E+03  0.21758575341E+03  0.16949148023E+03 0.  0.
         24    2    3    3    0    0  0.14680179181E+02 -0.94154159007E+02 -0.13159650558E+03  0.18166380772E+03  0.81262447878E+02 0.  0.
         -6    2    1    2    0  502 -0.32406213984E+02  0.69695506202E+02  0.31494158890E+03  0.36762173625E+03  0.17334909937E+03 0.  0.
        -24    2    5    5    0    0 -0.23821927603E+01  0.91485222975E+02  0.30656671493E+03  0.32930121796E+03  0.77980257674E+02 0.  0.
          5    1    3    3  501    0  0.17726034802E+02  0.24458652805E+02  0.18864203536E+02  0.35921945687E+02  0.47000000000E+01 0. -1.
        -11    1    4    4    0    0 -0.21580819534E+02 -0.36003136342E+01 -0.49684902947E+02  0.54288890308E+02  0.00000000000E+00 0.  1.
         12    1    4    4    0    0  0.36260998716E+02 -0.90553845373E+02 -0.81911602633E+02  0.12737491741E+03  0.00000000000E+00 0. -1.
         -5    1    5    5    0  502 -0.30024021224E+02 -0.21789716773E+02  0.83748739741E+01  0.38320518284E+02  0.47000000000E+01 0.  1.
         13    1    6    6    0    0 -0.45005146486E+01  0.42981509768E+01  0.14963164334E+03  0.14976100101E+03  0.00000000000E+00 0. -1.
        -14    1    6    6    0    0  0.21183218883E+01  0.87187071998E+02  0.15693507158E+03  0.17954021696E+03  0.00000000000E+00 0.  1.
</event>
<event>
12    1  0.8258923E-002  0.1848187E+03  0.7818608E-02  0.1164979E+00
         21   -1    0    0  501  502  0.00000000000E+00  0.00000000000E+00  0.13200553083E+03  0.13200553083E+03  0.00000000000E+00 0. -1.
         21   -1    0    0  502  503 -0.00000000000E+00 -0.00000000000E+00 -0.35867986879E+03  0.35867986879E+03  0.00000000000E+00 0. -1.
         -6    2    1    2    0  503  0.17673089780E+01 -0.55185928555E+02  0.20993691956E+02  0.18600722305E+03  0.17637840523E+03 0.  0.
        -24    2    3    3    0    0 -0.68406340019E+02 -0.38044569268E+02  0.99318981296E+01  0.11277730775E+03  0.80580778961E+02 0.  0.
          6    2    1    2  501    0 -0.17673089780E+01  0.55185928555E+02 -0.24766802992E+03  0.30467817657E+03  0.16864379070E+03 0.  0.
         24    2    5    5    0    0 -0.30818774642E+02 -0.19483555341E+02 -0.75963382805E+02  0.11514164889E+03  0.78471383215E+02 0.  0.
          5    1    5    5  501    0  0.29051465664E+02  0.74669483897E+02 -0.17170464711E+03  0.18953652767E+03  0.47000000000E+01 0. -1.
        -13    1    6    6    0    0 -0.46157281043E+01  0.49437943849E+00  0.16417056902E+02  0.17060747764E+02  0.00000000000E+00 0.  1.
         14    1    6    6    0    0 -0.26203046537E+02 -0.19977934780E+02 -0.92380439707E+02  0.98080901129E+02  0.00000000000E+00 0. -1.
         -5    1    3    3    0  503  0.70173648997E+02 -0.17141359287E+02  0.11061793826E+02  0.73229915297E+02  0.47000000000E+01 0.  1.
         13    1    4    4    0    0 -0.23891870128E+02 -0.48839507989E+02  0.30750252927E+02  0.62463565812E+02  0.00000000000E+00 0. -1.
        -14    1    4    4    0    0 -0.44514469891E+02  0.10794938721E+02 -0.20818354797E+02  0.50313741941E+02  0.00000000000E+00 0.  1.
</event>
<event>
12    1  0.8258923E-002  0.2710159E+03  0.7818608E-02  0.1101228E+00
         21   -1    0    0  503  502  0.00000000000E+00  0.00000000000E+00  0.18381774767E+03  0.18381774767E+03  0.00000000000E+00 0.  1.
         21   -1    0    0  501  503 -0.00000000000E+00 -0.00000000000E+00 -0.44458001208E+03  0.44458001208E+03  0.00000000000E+00 0.  1.
          6    2    1    2  501    0 -0.20177968396E+03  0.32354880181E+02 -0.23539152343E+03  0.35619688590E+03  0.17235188739E+03 0.  0.
         24    2    3    3    0    0 -0.19640122583E+03 -0.23249097548E+02 -0.18451006147E+03  0.28048860813E+03  0.74269337310E+02 0.  0.
         -6    2    1    2    0  502  0.20177968396E+03 -0.32354880181E+02 -0.25370740987E+02  0.27220087386E+03  0.17801056738E+03 0.  0.
        -24    2    5    5    0    0  0.12569150411E+03 -0.88513260432E+02  0.35146567334E+01  0.17320778830E+03  0.79722228018E+02 0.  0.
          5    1    3    3  501    0 -0.53784581370E+01  0.55603977730E+02 -0.50881461961E+02  0.75708277768E+02  0.47000000000E+01 0. -1.
        -13    1    4    4    0    0 -0.67614102119E+02 -0.14076590894E+02 -0.21076953541E+02  0.72208414933E+02  0.00000000000E+00 0.  1.
         14    1    4    4    0    0 -0.12878712371E+03 -0.91725066538E+01 -0.16343310793E+03  0.20828019320E+03  0.00000000000E+00 0. -1.
         -5    1    5    5    0  502  0.76088179857E+02  0.56158380251E+02 -0.28885397721E+02  0.98993085556E+02  0.47000000000E+01 0.  1.
         11    1    6    6    0    0  0.13329714992E+03 -0.88013868570E+02 -0.73896880623E+01  0.15990365451E+03  0.00000000000E+00 0. -1.
        -12    1    6    6    0    0 -0.76056458131E+01 -0.49939186254E+00  0.10904344796E+02  0.13304133790E+02  0.00000000000E+00 0.  1.
</event>
<event>
12    1  0.8258923E-002  0.1744734E+03  0.7818608E-02  0.1173508E+00
         21   -1    0    0  503  502  0.00000000000E+00  0.00000000000E+00  0.39274976804E+03  0.39274976804E+03  0.00000000000E+00 0. -1.
         21   -1    0    0  501  503 -0.00000000000E+00 -0.00000000000E+00 -0.17383736679E+03  0.17383736679E+03  0.00000000000E+00 0. -1.
          6    2    1    2  501    0 -0.55735871481E+01 -0.41561866187E+02 -0.10203680691E+03  0.20127993916E+03  0.16835572562E+03 0.  0.
         24    2    3    3    0    0  0.44673613081E+02  0.14890573260E+02 -0.30945725905E+02  0.97416130022E+02  0.79465738270E+02 0.  0.
         -6    2    1    2    0  502  0.55735871481E+01  0.41561866187E+02  0.32094920816E+03  0.36530719567E+03  0.16935908418E+03 0.  0.
        -24    2    5    5    0    0 -0.28114043873E+02 -0.34589910269E+02  0.17204149919E+03  0.19463339765E+03  0.79353769162E+02 0.  0.
          5    1    3    3  501    0 -0.50247200229E+02 -0.56452439448E+02 -0.71091081008E+02  0.10386380914E+03  0.47000000000E+01 0. -1.
        -11    1    4    4    0    0 -0.22852393308E+01  0.17415952676E+02  0.20978768940E+02  0.27361404800E+02  0.00000000000E+00 0.  1.
         12    1    4    4    0    0  0.46958852412E+02 -0.25253794152E+01 -0.51924494845E+02  0.70054725222E+02  0.00000000000E+00 0. -1.
         -5    1    5    5    0  502  0.33687631021E+02  0.76151776456E+02  0.14890770897E+03  0.17067379802E+03  0.47000000000E+01 0.  1.
         11    1    6    6    0    0 -0.17924870936E+02  0.16943640324E+02  0.11275887745E+03  0.11542509428E+03  0.00000000000E+00 0. -1.
        -12    1    6    6    0    0 -0.10189172937E+02 -0.51533550592E+02  0.59282621739E+02  0.79208303366E+02  0.00000000000E+00 0.  1.
</event>
<event>
12    1  0.8258923E-002  0.2325005E+03  0.7818608E-02  0.1125263E+00
         21   -1    0    0  501  502  0.00000000000E+00  0.00000000000E+00  0.27527809117E+02  0.27527809117E+02  0.00000000000E+00 0. -1.
         21   -1    0    0  502  503 -0.00000000000E+00 -0.00000000000E+00 -0.20820155634E+04  0.20820155634E+04  0.00000000000E+00 0.  1.
         -6    2    1    2    0  503 -0.99917203605E+02 -0.11982608956E+03 -0.75303193355E+03  0.78748295323E+03  0.16950094206E+03 0.  0.
        -24    2    3    3    0    0 -0.11012770105E+03 -0.14661112850E+03 -0.60796612822E+03  0.63953745500E+03  0.75910537785E+02 0.  0.
          6    2    1    2  501    0  0.99917203605E+02  0.11982608956E+03 -0.13014558207E+04  0.13220604193E+04  0.17237969609E+03 0.  0.
         24    2    5    5    0    0  0.21778824826E+02  0.12914348846E+03 -0.89377649555E+03  0.90682922786E+03  0.79689815350E+02 0.  0.
          5    1    5    5  501    0  0.78138378779E+02 -0.93173989070E+01 -0.40767932519E+03  0.41523119144E+03  0.47000000000E+01 0. -1.
        -13    1    6    6    0    0 -0.25670037305E+02  0.69788274578E+02 -0.35360951623E+03  0.36134338800E+03  0.00000000000E+00 0.  1.
         14    1    6    6    0    0  0.47448862131E+02  0.59355213886E+02 -0.54016697932E+03  0.54548583985E+03  0.00000000000E+00 0. -1.
         -5    1    3    3    0  503  0.10210497449E+02  0.26785038938E+02 -0.14506580533E+03  0.14794549822E+03  0.47000000000E+01 0.  1.
         11    1    4    4    0    0 -0.54619797663E+02 -0.46738957517E+02 -0.13479893558E+03  0.15276977934E+03  0.00000000000E+00 0. -1.
        -12    1    4    4    0    0 -0.55507903391E+02 -0.99872170978E+02 -0.47316719265E+03  0.48676767567E+03  0.00000000000E+00 0.  1.
</event>
<event>
12    1  0.8258923E-002  0.1992368E+03  0.7818608E-02  0.1150710E+00
         21   -1    0    0  503  502  0.00000000000E+00  0.00000000000E+00  0.31139615961E+02  0.31139615961E+02  0.00000000000E+00 0.  1.
         21   -1    0    0  501  503 -0.00000000000E+00 -0.00000000000E+00 -0.12705305169E+04  0.12705305169E+04  0.00000000000E+00 0.  1.
          6    2    1    2  501    0 -0.73073799399E+02  0.64171000098E+02 -0.57909357918E+03  0.61240892340E+03  0.17388967366E+03 0.  0.
         24    2    3    3    0    0 -0.36617300415E+02  0.11065654929E+03 -0.45867293299E+03  0.47819564303E+03  0.68589466821E+02 0.  0.
         -6    2    1    2    0  502  0.73073799399E+02 -0.64171000098E+02 -0.66029732174E+03  0.68926120944E+03  0.17213588912E+03 0.  0.
        -24    2    5    5    0    0  0.56237985016E+02  0.23779754162E+02 -0.43464510127E+03  0.44644482938E+03  0.81660479763E+02 0.  0.
          5    1    3    3  501    0 -0.36456498983E+02 -0.46485549193E+02 -0.12042064618E+03  0.13421328038E+03  0.47000000000E+01 0. -1.
        -11    1    4    4    0    0 -0.42267164656E+02  0.10676094747E+03 -0.33122350941E+03  0.35056158702E+03  0.00000000000E+00 0.  1.
         12    1    4    4    0    0  0.56498642402E+01  0.38956018222E+01 -0.12744942359E+03  0.12763405600E+03  0.00000000000E+00 0. -1.
         -5    1    5    5    0  502  0.16835814383E+02 -0.87950754260E+02 -0.22565222047E+03  0.24281638006E+03  0.47000000000E+01 0.  1.
         11    1    6    6    0    0  0.54553740169E+02  0.35563915033E+02 -0.17824862405E+03  0.18977216496E+03  0.00000000000E+00 0. -1.
        -12    1    6    6    0    0  0.16842448467E+01 -0.11784160870E+02 -0.25639647722E+03  0.25667266442E+03  0.00000000000E+00 0.  1.
</event>
<event>
12    1  0.8258923E-002  0.1842767E+03  0.7818608E-02  0.1164315E+00
         21   -1    0    0  503  502  0.00000000000E+00  0.00000000000E+00  0.15762050373E+03  0.15762050373E+03  0.00000000000E+00 0. -1.
         21   -1    0    0  501  503 -0.00000000000E+00 -0.00000000000E+00 -0.32166461900E+03  0.32166461900E+03  0.00000000000E+00 0.  1.
          6    2    1    2  501    0  0.46120154781E+02  0.39043123227E+02 -0.22123084493E+03  0.28633899569E+03  0.17145115792E+03 0.  0.
         24    2    3    3    0    0  0.22921206115E+02  0.10963999839E+02 -0.23357815042E+03  0.24759400450E+03  0.78092558733E+02 0.  0.
         -6    2    1    2    0  502 -0.46120154781E+02 -0.39043123227E+02  0.57186729667E+02  0.19294612704E+03  0.17408748301E+03 0.  0.
        -24    2    5    5    0    0 -0.50936298631E+02 -0.89013962195E+02  0.26288610138E+02  0.13381015001E+03  0.81829537696E+02 0.  0.
          5    1    3    3  501    0  0.23198948665E+02  0.28079123389E+02  0.12347305484E+02  0.38744991188E+02  0.47000000000E+01 0. -1.
        -13    1    4    4    0    0 -0.10565090978E+01 -0.32420878658E+02 -0.86079751320E+02  0.91988875261E+02  0.00000000000E+00 0.  1.
         14    1    4    4    0    0  0.23977715213E+02  0.43384878497E+02 -0.14749839910E+03  0.15560512924E+03  0.00000000000E+00 0. -1.
         -5    1    5    5    0  502  0.48161438500E+01  0.49970838968E+02  0.30898119529E+02  0.59135977029E+02  0.47000000000E+01 0.  1.
         13    1    6    6    0    0  0.18510534653E+01 -0.76394054553E+01  0.35516256475E+02  0.36375697775E+02  0.00000000000E+00 0. -1.
        -14    1    6    6    0    0 -0.52787352096E+02 -0.81374556740E+02 -0.92276463370E+01  0.97434452237E+02  0.00000000000E+00 0.  1.
</event>
<event>
12    1  0.8258923E-002  0.2058515E+03  0.7818608E-02  0.1145137E+00
         21   -1    0    0  501  502  0.00000000000E+00  0.00000000000E+00  0.97327794228E+02  0.97327794228E+02  0.00000000000E+00 0. -1.
         21   -1    0    0  502  503 -0.00000000000E+00 -0.00000000000E+00 -0.44456074071E+03  0.44456074071E+03  0.00000000000E+00 0.  1.
         -6    2    1    2    0  503 -0.24003087548E+02  0.10743359625E+03 -0.21806030324E+03  0.29987521361E+03  0.17394459484E+03 0.  0.
        -24    2    3    3    0    0  0.18657951906E+02  0.40244505072E+02 -0.29594619209E+02  0.95239580550E+02  0.78911322759E+02 0.  0.
          6    2    1    2  501    0  0.24003087548E+02 -0.10743359625E+03 -0.12917264325E+03  0.24201332133E+03  0.17253043245E+03 0.  0.
         24    2    5    5    0    0 -0.82537395948E+01 -0.40454781949E+02 -0.14037439574E+03  0.16668581160E+03  0.79840310692E+02 0.  0.
          5    1    5    5  501    0  0.32256827143E+02 -0.66978814304E+02  0.11201752489E+02  0.75327509727E+02  0.47000000000E+01 0. -1.
        -11    1    6    6    0    0 -0.12289151276E+02 -0.40957295309E+02 -0.21719087708E+02  0.47960838702E+02  0.00000000000E+00 0.  1.
         12    1    6    6    0    0  0.40354116816E+01  0.50251335936E+00 -0.11865530803E+03  0.11872497290E+03  0.00000000000E+00 0. -1.
         -5    1    3    3    0  503 -0.42661039454E+02  0.67189091182E+02 -0.18846568403E+03  0.20463563306E+03  0.47000000000E+01 0.  1.
         11    1    4    4    0    0  0.20688549805E+02 -0.16779149369E+02 -0.27287000366E+02  0.38133139597E+02  0.00000000000E+00 0. -1.
        -12    1    4    4    0    0 -0.20305978991E+01  0.57023654441E+02 -0.23076188432E+01  0.57106440953E+02  0.00000000000E+00 0.  1.
</event>
<event>
12    1  0.8258923E-002  0.1906744E+03  0.7818608E-02  0.1157909E+00
         21   -1    0    0  501  502  0.00000000000E+00  0.00000000000E+00  0.14671055715E+03  0.14671055715E+03  0.00000000000E+00 0. -1.
         21   -1    0    0  502  503 -0.00000000000E+00 -0.00000000000E+00 -0.28047973268E+03  0.28047973268E+03  0.00000000000E+00 0. -1.
         -6    2    1    2    0  503  0.79770600800E+02  0.20780897203E+02 -0.14016514180E+03  0.23664949415E+03  0.17193464359E+03 0.  0.
        -24    2    3    3    0    0  0.95981864564E+02  0.62644104489E+02 -0.76327964887E+02  0.15846632235E+03  0.78414379697E+02 0.  0.
          6    2    1    2  501    0 -0.79770600800E+02 -0.20780897203E+02  0.63959662637E+01  0.19054079568E+03  0.17166738768E+03 0.  0.
         24    2    5    5    0    0 -0.60146149949E+02 -0.78299582573E+02  0.19122567573E+02  0.12827062129E+03  0.79619694234E+02 0.  0.
          5    1    5    5  501    0 -0.19624450851E+02  0.57518685371E+02 -0.12726601309E+02  0.62270174392E+02  0.47000000000E+01 0. -1.
        -13    1    6    6    0    0 -0.13869547707E+02 -0.75145384513E+02 -0.38459100940E+01  0.76511333746E+02  0.00000000000E+00 0.  1.
         14    1    6    6    0    0 -0.46276602241E+02 -0.31541980608E+01  0.22968477667E+02  0.51759287541E+02  0.00000000000E+00 0. -1.
         -5    1    3    3    0  503 -0.16211263764E+02 -0.41863207286E+02 -0.63837176913E+02  0.78183171803E+02  0.47000000000E+01 0.  1.
         13    1    4    4    0    0  0.59010862930E+02 -0.73959623514E+01 -0.36971409460E+02  0.70027618268E+02  0.00000000000E+00 0. -1.
        -14    1    4    4    0    0  0.36971001634E+02  0.70040066840E+02 -0.39356555427E+02  0.88438704083E+02  0.00000000000E+00 0.  1.
</event>
<event>
12    1  0.8258923E-002  0.2205898E+03  0.7818608E-02  0.1133517E+00
         21   -1    0    0  501  502  0.00000000000E+00  0.00000000000E+00  0.10809187153E+03  0.10809187153E+03  0.00000000000E+00 0. -1.
         21   -1    0    0  502  503 -0.00000000000E+00 -0.00000000000E+00 -0.69699934756E+03  0.69699934756E+03  0.00000000000E+00 0. -1.
         -6    2    1    2    0  503  0.82126403994E+02 -0.11064492486E+03 -0.53456358158E+03  0.57828894013E+03  0.17225803290E+03 0.  0.
        -24    2    3    3    0    0  0.11337118232E+03 -0.93244317616E+02 -0.50443772325E+03  0.53129240148E+03  0.79162311004E+02 0.  0.
          6    2    1    2  501    0 -0.82126403994E+02  0.11064492486E+03 -0.54343894450E+02  0.22680227896E+03  0.17175263971E+03 0.  0.
         24    2    5    5    0    0 -0.37410021425E+02  0.10663653027E+03 -0.93563881686E+02  0.16700328653E+03  0.79781191169E+02 0.  0.
          5    1    5    5  501    0 -0.44716382569E+02  0.40083945901E+01  0.39219987236E+02  0.59798992433E+02  0.47000000000E+01 0. -1.
        -11    1    6    6    0    0  0.20326115946E+02  0.81049015515E+01 -0.27235976765E+02  0.34937642292E+02  0.00000000000E+00 0.  1.
         12    1    6    6    0    0 -0.57736137371E+02  0.98531628719E+02 -0.66327904921E+02  0.13206564424E+03  0.00000000000E+00 0. -1.
         -5    1    3    3    0  503 -0.31244778330E+02 -0.17400607246E+02 -0.30125858337E+02  0.46996538659E+02  0.47000000000E+01 0.  1.
         11    1    4    4    0    0  0.60704619874E+02 -0.48315574384E+02 -0.13747468137E+03  0.15785668697E+03  0.00000000000E+00 0. -1.
        -12    1    4    4    0    0  0.52666562450E+02 -0.44928743231E+02 -0.36696304188E+03  0.37343571451E+03  0.00000000000E+00 0.  1.
</event>
<event>
12    1  0.8258923E-002  0.2634111E+03  0.7818608E-02  0.1105370E+00
         21   -1    0    0  501  502  0.00000000000E+00  0.00000000000E+00  0.23315775730E+03  0.23315775730E+03  0.00000000000E+00 0.  1.
         21   -1    0    0  502  503 -0.00000000000E+00 -0.00000000000E+00 -0.50037175400E+03  0.50037175400E+03  0.00000000000E+00 0. -1.
         -6    2    1    2    0  503 -0.79193648523E+02  0.18678651663E+03 -0.36848426043E+03  0.45295261793E+03  0.16800174744E+03 0.  0.
        -24    2    3    3    0    0  0.22298711743E+02  0.73175487733E+02 -0.16851880588E+03  0.20152382464E+03  0.79758256085E+02 0.  0.
          6    2    1    2  501    0  0.79193648523E+02 -0.18678651663E+03  0.10127026372E+03  0.28057689337E+03  0.16524796524E+03 0.  0.
         24    2    5    5    0    0  0.76543458479E+02 -0.18989464476E+03  0.12733733340E+03  0.25377640663E+03  0.79175696653E+02 0.  0.
          5    1    5    5  501    0  0.26501900436E+01  0.31081281333E+01 -0.26067069675E+02  0.26800486735E+02  0.47000000000E+01 0. -1.
        -13    1    6    6    0    0  0.60925091820E+02 -0.59812699684E+02  0.71480025087E+02  0.11134998807E+03  0.00000000000E+00 0.  1.
         14    1    6    6    0    0  0.15618366659E+02 -0.13008194508E+03  0.55857308313E+02  0.14242641856E+03  0.00000000000E+00 0. -1.
         -5    1    3    3    0  503 -0.10149236027E+03  0.11361102890E+03 -0.19996545455E+03  0.25142879328E+03  0.47000000000E+01 0.  1.
         11    1    4    4    0    0  0.60901816890E+01  0.29939100559E+02 -0.41988028369E+01  0.30839422831E+02  0.00000000000E+00 0. -1.
        -12    1    4    4    0    0  0.16208530054E+02  0.43236387174E+02 -0.16432000304E+03  0.17068440181E+03  0.00000000000E+00 0.  1.
</event>
<event>
12    1  0.8258923E-002  0.1944713E+03  0.7818608E-02  0.1154750E+00
         21   -1    0    0  501  502  0.00000000000E+00  0.00000000000E+00  0.33982343272E+03  0.33982343272E+03  0.00000000000E+00 0.  1.
         21   -1    0    0  502  503 -0.00000000000E+00 -0.00000000000E+00 -0.12775675920E+03  0.12775675920E+03  0.00000000000E+00 0. -1.
         -6    2    1    2    0  503  0.90727776436E+02 -0.38768655661E+01  0.20666509618E+02  0.19556638147E+03  0.17196669864E+03 0.  0.
        -24    2    3    3    0    0  0.54632914781E+02  0.42747895388E+02 -0.32617053431E+02  0.11595522985E+03  0.87003478191E+02 0.  0.
          6    2    1    2  501    0 -0.90727776436E+02  0.38768655661E+01  0.19140016391E+03  0.27201381045E+03  0.17061925690E+03 0.  0.
         24    2    5    5    0    0 -0.12843439186E+03 -0.43179053886E+01  0.16906884961E+03  0.22718390173E+03  0.80710668298E+02 0.  0.
          5    1    5    5  501    0  0.37706615419E+02  0.81947709547E+01  0.22331314301E+02  0.44829908719E+02  0.47000000000E+01 0. -1.
        -13    1    6    6    0    0 -0.12727997400E+03  0.18731803967E+02  0.14197769181E+03  0.19159524324E+03  0.00000000000E+00 0.  1.
         14    1    6    6    0    0 -0.11544178594E+01 -0.23049709356E+02  0.27091157801E+02  0.35588658488E+02  0.00000000000E+00 0. -1.
         -5    1    3    3    0  503  0.36094861656E+02 -0.46624760954E+02  0.53283563049E+02  0.79611151626E+02  0.47000000000E+01 0.  1.
         11    1    4    4    0    0  0.55264058864E+02  0.96977544210E+01 -0.52948258750E+02  0.77147137001E+02  0.00000000000E+00 0. -1.
        -12    1    4    4    0    0 -0.63114408304E+00  0.33050140967E+02  0.20331205319E+02  0.38808092848E+02  0.00000000000E+00 0.  1.
</event>
<event>
12    1  0.8258923E-002  0.1832984E+03  0.7818608E-02  0.1166281E+00
         21   -1    0    0  503  502  0.00000000000E+00  0.00000000000E+00  0.45769874158E+03  0.45769874158E+03  0.00000000000E+00 0.  1.
         21   -1    0    0  501  503 -0.00000000000E+00 -0.00000000000E+00 -0.70833582479E+02  0.70833582479E+02  0.00000000000E+00 0.  1.
          6    2    1    2  501    0 -0.21834941298E+01 -0.39634505384E+02  0.20763790938E+03  0.27696893673E+03  0.17894867655E+03 0.  0.
         24    2    3    3    0    0 -0.36749308108E+02  0.37514142164E+02  0.15448947292E+03  0.17700116386E+03  0.68590030302E+02 0.  0.
         -6    2    1    2    0  502  0.21834941298E+01  0.39634505384E+02  0.17922724972E+03  0.25156338732E+03  0.17200601483E+03 0.  0.
        -24    2    5    5    0    0  0.51618083851E+02  0.56900899170E+02  0.16217505535E+03  0.19629337423E+03  0.79549992324E+02 0.  0.
          5    1    3    3  501    0  0.34565813979E+02 -0.77148647548E+02  0.53148436466E+02  0.99967772873E+02  0.47000000000E+01 0. -1.
        -11    1    4    4    0    0 -0.33873764520E+02 -0.84950251853E+01  0.98312375017E+02  0.10433082218E+03  0.00000000000E+00 0.  1.
         12    1    4    4    0    0 -0.28755435886E+01  0.46009167350E+02  0.56177097899E+02  0.72670341677E+02  0.00000000000E+00 0. -1.
         -5    1    5    5    0  502 -0.49434589722E+02 -0.17266393786E+02  0.17052194363E+02  0.55270013098E+02  0.47000000000E+01 0.  1.
         11    1    6    6    0    0  0.18351588280E+02  0.87335965877E+01  0.12567522357E+03  0.12730796645E+03  0.00000000000E+00 0. -1.
        -12    1    6    6    0    0  0.33266495572E+02  0.48167302583E+02  0.36499831780E+02  0.68985407774E+02  0.00000000000E+00 0.  1.
</event>
<event>
12    1  0.8258923E-002  0.2076240E+03  0.7818608E-02  0.1145382E+00
         21   -1    0    0  501  502  0.00000000000E+00  0.00000000000E+00  0.63755223616E+02  0.63755223616E+02  0.00000000000E+00 0. -1.
         21   -1    0    0  502  503 -0.00000000000E+00 -0.00000000000E+00 -0.10793312809E+04  0.10793312809E+04  0.00000000000E+00 0.  1.
         -6    2    1    2    0  503 -0.40630995406E+02  0.90201769450E+02 -0.86284267223E+03  0.88533620533E+03  0.17185890270E+03 0.  0.
        -24    2    3    3    0    0 -0.57724540886E+02  0.11519822127E+02 -0.65577410401E+03  0.66311442404E+03  0.78843103446E+02 0.  0.
          6    2    1    2  501    0  0.40630995406E+02 -0.90201769450E+02 -0.15273338504E+03  0.25775029918E+03  0.18253901726E+03 0.  0.
         24    2    5    5    0    0  0.36117144872E+02  0.17233976373E+02 -0.10954999219E+03  0.14177741552E+03  0.80611268854E+02 0.  0.
          5    1    5    5  501    0  0.45138505344E+01 -0.10743574582E+03 -0.43183392853E+02  0.11597288366E+03  0.47000000000E+01 0. -1.
        -11    1    6    6    0    0  0.42160265151E+02  0.37411385881E+02 -0.40022733386E+02  0.69129725436E+02  0.00000000000E+00 0.  1.
         12    1    6    6    0    0 -0.60431202798E+01 -0.20177409508E+02 -0.69527258804E+02  0.72647690080E+02  0.00000000000E+00 0. -1.
         -5    1    3    3    0  503  0.17093545480E+02  0.78681947323E+02 -0.20706856823E+03  0.22222178129E+03  0.47000000000E+01 0.  1.
         11    1    4    4    0    0  0.10010255578E+02 -0.26408441549E+01 -0.12964610140E+02  0.16590973168E+02  0.00000000000E+00 0. -1.
        -12    1    4    4    0    0 -0.67734796463E+02  0.14160666281E+02 -0.64280949386E+03  0.64652345087E+03  0.00000000000E+00 0.  1.
</event>
<event>
12    1  0.8258923E-002  0.2087735E+03  0.7818608E-02  0.1143489E+00
         21   -1    0    0  501  502  0.00000000000E+00  0.00000000000E+00  0.10367958708E+03  0.10367958708E+03  0.00000000000E+00 0. -1.
         21   -1    0    0  502  503 -0.00000000000E+00 -0.00000000000E+00 -0.48122570749E+03  0.48122570749E+03  0.00000000000E+00 0. -1.
         -6    2    1    2    0  503 -0.11602664292E+03  0.20429852903E+02 -0.75216787488E+02  0.21749625067E+03  0.16663581002E+03 0.  0.
        -24    2    3    3    0    0 -0.46740069533E+02  0.48224379870E+02 -0.39407410968E+02  0.13456515621E+03  0.10974794902E+03 0.  0.
          6    2    1    2  501    0  0.11602664292E+03 -0.20429852903E+02 -0.30232933292E+03  0.36740904390E+03  0.17235666288E+03 0.  0.
         24    2    5    5    0    0  0.67750905065E+02 -0.71440507992E+02 -0.24268745757E+03  0.27514920923E+03  0.84356113930E+02 0.  0.
          5    1    5    5  501    0  0.48275737858E+02  0.51010655089E+02 -0.59641875344E+02  0.92259834667E+02  0.47000000000E+01 0. -1.
        -13    1    6    6    0    0  0.26327851705E+02 -0.82603427812E+02 -0.15856318343E+03  0.18071736276E+03  0.00000000000E+00 0.  1.
         14    1    6    6    0    0  0.41423053360E+02  0.11162919820E+02 -0.84124274139E+02  0.94431846471E+02  0.00000000000E+00 0. -1.
         -5    1    3    3    0  503 -0.69286573390E+02 -0.27794526968E+02 -0.35809376520E+02  0.82931094459E+02  0.47000000000E+01 0.  1.
         11    1    4    4    0    0 -0.55743471996E+02  0.31472316422E+02 -0.72302167095E+02  0.96568342317E+02  0.00000000000E+00 0. -1.
        -12    1    4    4    0    0  0.90034024635E+01  0.16752063449E+02  0.32894756127E+02  0.37996813898E+02  0.00000000000E+00 0.  1.
</event>
<event>
12    1  0.8258923E-002  0.2737818E+03  0.7818608E-02  0.1100083E+00
         21   -1    0    0  501  502  0.00000000000E+00  0.00000000000E+00  0.80634557910E+02  0.80634557910E+02  0.00000000000E+00 0.  1.
         21   -1    0    0  502  503 -0.00000000000E+00 -0.00000000000E+00 -0.92923810268E+03  0.92923810268E+03  0.00000000000E+00 0. -1.
         -6    2    1    2    0  503 -0.18340276442E+03 -0.89517058994E+02 -0.49712644107E+03  0.56434754434E+03  0.17234724990E+03 0.  0.
        -24    2    3    3    0    0 -0.16531498154E+03 -0.69746022369E+02 -0.29504328802E+03  0.36044130971E+03  0.10331430287E+03 0.  0.
          6    2    1    2  501    0  0.18340276442E+03  0.89517058994E+02 -0.35147710370E+03  0.44552511624E+03  0.18250095050E+03 0.  0.
         24    2    5    5    0    0  0.13372727934E+03  0.12669858281E+03 -0.31453514060E+03  0.37315856203E+03  0.79871406782E+02 0.  0.
          5    1    5    5  501    0  0.49675485080E+02 -0.37181523812E+02 -0.36941963097E+02  0.72366554211E+02  0.47000000000E+01 0. -1.
        -13    1    6    6    0    0  0.11901759881E+03  0.67063956414E+02 -0.18680764596E+03  0.23143003190E+03  0.00000000000E+00 0.  1.
         14    1    6    6    0    0  0.14709680528E+02  0.59634626392E+02 -0.12772749464E+03  0.14172853013E+03  0.00000000000E+00 0. -1.
         -5    1    3    3    0  503 -0.18087782875E+02 -0.19771036626E+02 -0.20208315305E+03  0.20390623464E+03  0.47000000000E+01 0.  1.
         13    1    4    4    0    0 -0.13337870302E+03 -0.68557020337E+02 -0.29209967608E+03  0.32834762710E+03  0.00000000000E+00 0. -1.
        -14    1    4    4    0    0 -0.31936278525E+02 -0.11890020318E+01 -0.29436119412E+01  0.32093682605E+02  0.00000000000E+00 0.  1.
</event>
<event>
12    1  0.8258923E-002  0.2093896E+03  0.7818608E-02  0.1142510E+00
         21   -1    0    0  501  502  0.00000000000E+00  0.00000000000E+00  0.44830331799E+03  0.44830331799E+03  0.00000000000E+00 0. -1.
         21   -1    0    0  502  503 -0.00000000000E+00 -0.00000000000E+00 -0.13526571616E+03  0.13526571616E+03  0.00000000000E+00 0. -1.
         -6    2    1    2    0  503  0.99553565534E+02 -0.69194095303E+02  0.31287752431E+03  0.37647887607E+03  0.17071983972E+03 0.  0.
        -24    2    3    3    0    0  0.79041451188E+02  0.87417299771E+01  0.10204646461E+03  0.15072111778E+03  0.77326616084E+02 0.  0.
          6    2    1    2  501    0 -0.99553565534E+02  0.69194095303E+02  0.16007751912E+00  0.20709015808E+03  0.16789155046E+03 0.  0.
         24    2    5    5    0    0 -0.26062443806E+02  0.26297792528E+02  0.53644655624E+02  0.10647342061E+03  0.84190351887E+02 0.  0.
          5    1    5    5  501    0 -0.73491121728E+02  0.42896302775E+02 -0.53484578104E+02  0.10061673747E+03  0.47000000000E+01 0. -1.
        -11    1    6    6    0    0 -0.55604255314E+02  0.19748599718E+02  0.22783739842E+02  0.63252977804E+02  0.00000000000E+00 0.  1.
         12    1    6    6    0    0  0.29541811508E+02  0.65491928103E+01  0.30860915781E+02  0.43220442808E+02  0.00000000000E+00 0. -1.
         -5    1    3    3    0  503  0.20512114346E+02 -0.77935825280E+02  0.21083105969E+03  0.22575775829E+03  0.47000000000E+01 0.  1.
         13    1    4    4    0    0  0.13739830374E+02 -0.62631033252E+01  0.78132326354E+02  0.79578073760E+02  0.00000000000E+00 0. -1.
        -14    1    4    4    0    0  0.65301620814E+02  0.15004833302E+02  0.23914138260E+02  0.71143044017E+02  0.00000000000E+00 0.  1.
</event>
<event>
12    1  0.8258923E-002  0.1781793E+03  0.7818608E-02  0.1169920E+00
         21   -1    0    0  503  502  0.00000000000E+00  0.00000000000E+00  0.34493363771E+03  0.34493363771E+03  0.00000000000E+00 0. -1.
         21   -1    0    0  501  503 -0.00000000000E+00 -0.00000000000E+00 -0.91576931042E+02  0.91576931042E+02  0.00000000000E+00 0. -1.
          6    2    1    2  501    0  0.33567517812E+02  0.18655984175E+02  0.13870453874E+03  0.22580256230E+03  0.17399144829E+03 0.  0.
         24    2    3    3    0    0  0.69547107923E+02  0.33916583228E+01  0.32385217986E+02  0.11242964440E+03  0.82117714465E+02 0.  0.
         -6    2    1    2    0  502 -0.33567517812E+02 -0.18655984175E+02  0.11465216793E+03  0.21070800645E+03  0.17256280125E+03 0.  0.
        -24    2    5    5    0    0 -0.13492740533E+02  0.49816574602E+02  0.24464037792E+02  0.95610322695E+02  0.76675286165E+02 0.  0.
          5    1    3    3  501    0 -0.35979590111E+02  0.15264325852E+02  0.10631932075E+03  0.11337291790E+03  0.47000000000E+01 0. -1.
        -11    1    4    4    0    0  0.76738950880E+02 -0.16696407583E+02  0.63821969160E+01  0.78793204312E+02  0.00000000000E+00 0.  1.
         12    1    4    4    0    0 -0.71918429568E+01  0.20088065906E+02  0.26003021070E+02  0.33636440087E+02  0.00000000000E+00 0. -1.
         -5    1    5    5    0  502 -0.20074777279E+02 -0.68472558777E+02  0.90188130135E+02  0.11509768375E+03  0.47000000000E+01 0.  1.
         11    1    6    6    0    0 -0.28439777116E+02  0.15810596945E+02 -0.19593717601E+02  0.37983018148E+02  0.00000000000E+00 0. -1.
        -12    1    6    6    0    0  0.14947036584E+02  0.34005977657E+02  0.44057755393E+02  0.57627304547E+02  0.00000000000E+00 0.  1.
</event>
<event>
12    1  0.8258923E-002  0.2235592E+03  0.7818608E-02  0.1131501E+00
         21   -1    0    0  501  502  0.00000000000E+00  0.00000000000E+00  0.26038732202E+03  0.26038732202E+03  0.00000000000E+00 0. -1.
         21   -1    0    0  502  503 -0.00000000000E+00 -0.00000000000E+00 -0.48273857962E+03  0.48273857962E+03  0.00000000000E+00 0.  1.
         -6    2    1    2    0  503 -0.27204583737E+02 -0.14024405302E+03 -0.39999471863E+03  0.45758092478E+03  0.17022351191E+03 0.  0.
        -24    2    3    3    0    0 -0.54233274442E+02 -0.56629027942E+02 -0.31970718311E+03  0.33845829511E+03  0.78697139299E+02 0.  0.
          6    2    1    2  501    0  0.27204583737E+02  0.14024405302E+03  0.17764346103E+03  0.28554497686E+03  0.17196002670E+03 0.  0.
         24    2    5    5    0    0  0.68010503037E+02  0.42125776042E+02  0.11953002274E+03  0.16433614453E+03  0.79491713601E+02 0.  0.
          5    1    5    5  501    0 -0.40805919300E+02  0.98118276974E+02  0.58113438287E+02  0.12120883233E+03  0.47000000000E+01 0. -1.
        -11    1    6    6    0    0  0.75190666773E+02  0.57487824922E+02  0.91945294808E+02  0.13195614280E+03  0.00000000000E+00 0.  1.
         12    1    6    6    0    0 -0.71801637363E+01 -0.15362048880E+02  0.27584727930E+02  0.32380001730E+02  0.00000000000E+00 0. -1.
         -5    1    3    3    0  503  0.27028690705E+02 -0.83615025074E+02 -0.80287535525E+02  0.11912262967E+03  0.47000000000E+01 0.  1.
         13    1    4    4    0    0 -0.56773883148E+02 -0.28324654142E+01 -0.17831043221E+03  0.18715209564E+03  0.00000000000E+00 0. -1.
        -14    1    4    4    0    0  0.25406087055E+01 -0.53796562528E+02 -0.14139675090E+03  0.15130619947E+03  0.00000000000E+00 0.  1.
</event>
<event>
12    1  0.8258923E-002  0.2502425E+03  0.7818608E-02  0.1113265E+00
         21   -1    0    0  501  502  0.00000000000E+00  0.00000000000E+00  0.17643358445E+03  0.17643358445E+03  0.00000000000E+00 0. -1.
         21   -1    0    0  502  503 -0.00000000000E+00 -0.00000000000E+00 -0.16524897097E+04  0.16524897097E+04  0.00000000000E+00 0. -1.
         -6    2    1    2    0  503  0.17775734923E+03 -0.31132746781E+02 -0.15488986146E+04  0.15689831884E+04  0.17336206060E+03 0.  0.
        -24    2    3    3    0    0  0.17631636238E+03 -0.73936374552E+02 -0.12681197398E+04  0.12849178904E+04  0.79575520638E+02 0.  0.
          6    2    1    2  501    0 -0.17775734923E+03  0.31132746781E+02  0.72842489351E+02  0.25994010575E+03  0.17232500456E+03 0.  0.
         24    2    5    5    0    0 -0.10781159402E+03  0.98660808128E+00 -0.22866811511E+02  0.13753275866E+03  0.82268192122E+02 0.  0.
          5    1    5    5  501    0 -0.69945755208E+02  0.30146138700E+02  0.95709300862E+02  0.12240734709E+03  0.47000000000E+01 0. -1.
        -11    1    6    6    0    0  0.91913516563E+01 -0.22904188243E+01 -0.18050380637E+02  0.20384876865E+02  0.00000000000E+00 0.  1.
         12    1    6    6    0    0 -0.11700294568E+03  0.32770269056E+01 -0.48164308741E+01  0.11714788180E+03  0.00000000000E+00 0. -1.
         -5    1    3    3    0  503  0.14409868518E+01  0.42803627771E+02 -0.28077887482E+03  0.28406529801E+03  0.47000000000E+01 0.  1.
         11    1    4    4    0    0  0.12168354731E+03 -0.25756461329E+02 -0.97412484032E+03  0.98203334237E+03  0.00000000000E+00 0. -1.
        -12    1    4    4    0    0  0.54632815070E+02 -0.48179913223E+02 -0.29399489944E+03  0.30288454800E+03  0.00000000000E+00 0.  1.
</event>
<event>
12    1  0.8258923E-002  0.3601224E+03  0.7818608E-02  0.1058896E+00
         21   -1    0    0  501  502  0.00000000000E+00  0.00000000000E+00  0.20415919137E+03  0.20415919137E+03  0.00000000000E+00 0. -1.
         21   -1    0    0  502  503 -0.00000000000E+00 -0.00000000000E+00 -0.68218126861E+03  0.68218126861E+03  0.00000000000E+00 0.  1.
         -6    2    1    2    0  503  0.15353141188E+02 -0.31186430237E+03 -0.36180913614E+03  0.50793112468E+03  0.17202649326E+03 0.  0.
        -24    2    3    3    0    0 -0.50940672478E+02 -0.14691607467E+03 -0.21751271918E+03  0.27891947978E+03  0.79404081036E+02 0.  0.
          6    2    1    2  501    0 -0.15353141188E+02  0.31186430237E+03 -0.11621294109E+03  0.37840933530E+03  0.17942440004E+03 0.  0.
         24    2    5    5    0    0  0.42686074788E+02  0.26410598974E+03 -0.61490818552E+02  0.28531794090E+03  0.77789021302E+02 0.  0.
          5    1    5    5  501    0 -0.58039215976E+02  0.47758312628E+02 -0.54722122538E+02  0.93091394400E+02  0.47000000000E+01 0. -1.
        -11    1    6    6    0    0 -0.72164447547E+01  0.14460742244E+03 -0.57410075135E+02  0.15575397403E+03  0.00000000000E+00 0.  1.
         12    1    6    6    0    0  0.49902519543E+02  0.11949856731E+03 -0.40807434171E+01  0.12956396687E+03  0.00000000000E+00 0. -1.
         -5    1    3    3    0  503  0.66293813666E+02 -0.16494822770E+03 -0.14429641697E+03  0.22901164490E+03  0.47000000000E+01 0.  1.
         11    1    4    4    0    0  0.10076257180E+02 -0.54351632433E+02 -0.35168224766E+02  0.65516676809E+02  0.00000000000E+00 0. -1.
        -12    1    4    4    0    0 -0.61016929658E+02 -0.92564442236E+02 -0.18234449441E+03  0.21340280297E+03  0.00000000000E+00 0.  1.
</event>
<event>
12    1  0.8258923E-002  0.2776160E+03  0.7818608E-02  0.1097017E+00
         21   -1    0    0  503  502  0.00000000000E+00  0.00000000000E+00  0.19777743401E+03  0.19777743401E+03  0.00000000000E+00 0. -1.
         21   -1    0    0  501  503 -0.00000000000E+00 -0.00000000000E+00 -0.40274991994E+03  0.40274991994E+03  0.00000000000E+00 0.  1.
          6    2    1    2  501    0  0.15448922491E+03 -0.15353367483E+03 -0.47979839159E+02  0.28159576596E+03  0.17191451515E+03 0.  0.
         24    2    3    3    0    0  0.42821425185E+02 -0.11842685911E+03 -0.66515784811E+02  0.16298776755E+03  0.79259493609E+02 0.  0.
         -6    2    1    2    0  502 -0.15448922491E+03  0.15353367483E+03 -0.15699264677E+03  0.31893158799E+03  0.17213702901E+03 0.  0.
        -24    2    5    5    0    0 -0.13908227080E+03  0.61453347140E+02 -0.54370949719E+02  0.18011709419E+03  0.79784556911E+02 0.  0.
          5    1    3    3  501    0  0.11166779972E+03 -0.35106815715E+02  0.18535945652E+02  0.11860799841E+03  0.47000000000E+01 0. -1.
        -11    1    4    4    0    0 -0.12971180812E+02 -0.69239800766E+02 -0.13699126874E+02  0.71763971594E+02  0.00000000000E+00 0.  1.
         12    1    4    4    0    0  0.55792605997E+02 -0.49187058348E+02 -0.52816657937E+02  0.91223795956E+02  0.00000000000E+00 0. -1.
         -5    1    5    5    0  502 -0.15406954112E+02  0.92080327690E+02 -0.10262169705E+03  0.13881449380E+03  0.47000000000E+01 0.  1.
         11    1    6    6    0    0 -0.10410989171E+03  0.75294752805E+02 -0.60489036487E+02  0.14201089003E+03  0.00000000000E+00 0. -1.
        -12    1    6    6    0    0 -0.34972379089E+02 -0.13841405665E+02  0.61180867686E+01  0.38106204162E+02  0.00000000000E+00 0.  1.
</event>
<event>
12    1  0.8258923E-002  0.2218022E+03  0.7818608E-02  0.1132652E+00
         21   -1    0    0  503  502  0.00000000000E+00  0.00000000000E+00  0.31498227175E+03  0.31498227175E+03  0.00000000000E+00 0. -1.
         21   -1    0    0  501  503 -0.00000000000E+00 -0.00000000000E+00 -0.25856330885E+03  0.25856330885E+03  0.00000000000E+00 0. -1.
          6    2    1    2  501    0  0.13430407211E+03 -0.35515310557E+02 -0.15257036039E+03  0.26920986104E+03  0.17290839581E+03 0.  0.
         24    2    3    3    0    0  0.51865490302E+02  0.17939780469E+02 -0.13946561131E+03  0.16997583978E+03  0.80182694896E+02 0.  0.
         -6    2    1    2    0  502 -0.13430407211E+03  0.35515310557E+02  0.20898932329E+03  0.30433571956E+03  0.17217657182E+03 0.  0.
        -24    2    5    5    0    0 -0.16422128361E+03  0.43439025118E+02  0.16621004132E+03  0.25132645846E+03  0.81753483081E+02 0.  0.
          5    1    3    3  501    0  0.82438581809E+02 -0.53455091026E+02 -0.13104749071E+02  0.99234021261E+02  0.47000000000E+01 0. -1.
        -11    1    4    4    0    0  0.98046677687E+01  0.44356544220E+02 -0.49322298725E+02  0.67054632030E+02  0.00000000000E+00 0.  1.
         12    1    4    4    0    0  0.42060822533E+02 -0.26416763751E+02 -0.90143312590E+02  0.10292120775E+03  0.00000000000E+00 0. -1.
         -5    1    5    5    0  502  0.29917211497E+02 -0.79237145607E+01  0.42779281977E+02  0.53009261103E+02  0.47000000000E+01 0.  1.
         11    1    6    6    0    0 -0.13835807661E+03  0.31343765211E+02  0.17120268122E+03  0.22234150993E+03  0.00000000000E+00 0. -1.
        -12    1    6    6    0    0 -0.25863206994E+02  0.12095259906E+02 -0.49926399017E+01  0.28984948532E+02  0.00000000000E+00 0.  1.
</event>
<event>
12    1  0.8258923E-002  0.2312573E+03  0.7818608E-02  0.1126154E+00
         21   -1    0    0  503  502  0.00000000000E+00  0.00000000000E+00  0.33786789429E+03  0.33786789429E+03  0.00000000000E+00 0.  1.
         21   -1    0    0  501  503 -0.00000000000E+00 -0.00000000000E+00 -0.15956045116E+03  0.15956045116E+03  0.00000000000E+00 0. -1.
          6    2    1    2  501    0  0.15211597823E+03 -0.93475219751E+01  0.55699437039E+02  0.23567913762E+03  0.17092566110E+03 0.  0.
         24    2    3    3    0    0  0.15383680499E+03  0.82180419122E+01 -0.31719517916E+01  0.17403953427E+03  0.80909822813E+02 0.  0.
         -6    2    1    2    0  502 -0.15211597823E+03  0.93475219751E+01  0.12260800609E+03  0.26174920783E+03  0.17393469361E+03 0.  0.
        -24    2    5    5    0    0 -0.17201936165E+03  0.21723062040E+02  0.68725727253E+02  0.20280271823E+03  0.79643987385E+02 0.  0.
          5    1    3    3  501    0 -0.17208267529E+01 -0.17565563887E+02  0.58871388830E+02  0.61639603359E+02  0.47000000000E+01 0. -1.
        -11    1    4    4    0    0  0.41796611527E+02 -0.28842208698E+02  0.18516443582E+02  0.54052644900E+02  0.00000000000E+00 0.  1.
         12    1    4    4    0    0  0.11204019346E+03  0.37060250610E+02 -0.21688395374E+02  0.11998688937E+03  0.00000000000E+00 0. -1.
         -5    1    5    5    0  502  0.19903383417E+02 -0.12375540065E+02  0.53882278838E+02  0.58946489600E+02  0.47000000000E+01 0.  1.
         13    1    6    6    0    0 -0.86444986696E+02  0.49432501913E+00 -0.67938131681E+01  0.86712951625E+02  0.00000000000E+00 0. -1.
        -14    1    6    6    0    0 -0.85574374956E+02  0.21228737021E+02  0.75519540421E+02  0.11608976660E+03  0.00000000000E+00 0.  1.
</event>
<event>
12    1  0.8258923E-002  0.2861541E+03  0.7818608E-02  0.1092381E+00
         21   -1    0    0  501  502  0.00000000000E+00  0.00000000000E+00  0.34221703853E+03  0.34221703853E+03  0.00000000000E+00 0.  1.
         21   -1    0    0  502  503 -0.00000000000E+00 -0.00000000000E+00 -0.37175314219E+03  0.37175314219E+03  0.00000000000E+00 0. -1.
         -6    2    1    2    0  503 -0.18182360240E+03 -0.13929806800E+03 -0.22790454288E+03  0.36578312146E+03  0.17144397670E+03 0.  0.
        -24    2    3    3    0    0 -0.17828125832E+03 -0.12099874717E+03 -0.24782460799E+03  0.33810077441E+03  0.80437512704E+02 0.  0.
          6    2    1    2  501    0  0.18182360240E+03  0.13929806800E+03  0.19836843921E+03  0.34818705926E+03  0.17152380716E+03 0.  0.
         24    2    5    5    0    0  0.64729321412E+02  0.64897680778E+02  0.16510936043E+03  0.20544692972E+03  0.80905784772E+02 0.  0.
          5    1    5    5  501    0  0.11709428098E+03  0.74400387221E+02  0.33259078777E+02  0.14274012953E+03  0.47000000000E+01 0. -1.
        -13    1    6    6    0    0  0.73663188323E+02  0.31776379116E+02  0.78287348913E+02  0.11209332087E+03  0.00000000000E+00 0.  1.
         14    1    6    6    0    0 -0.89338669113E+01  0.33121301661E+02  0.86822011522E+02  0.93353608856E+02  0.00000000000E+00 0. -1.
         -5    1    3    3    0  503 -0.35423440739E+01 -0.18299320828E+02  0.19920065107E+02  0.27682347050E+02  0.47000000000E+01 0.  1.
         11    1    4    4    0    0 -0.76263822395E+02 -0.10009734596E+03 -0.13739363893E+03  0.18631334169E+03  0.00000000000E+00 0. -1.
        -12    1    4    4    0    0 -0.10201743593E+03 -0.20901401215E+02 -0.11043096906E+03  0.15178743272E+03  0.00000000000E+00 0.  1.
</event>
<event>
12    1  0.8258923E-002  0.1800787E+03  0.7818608E-02  0.1168172E+00
         21   -1    0    0  501  502  0.00000000000E+00  0.00000000000E+00  0.21001017970E+04  0.21001017970E+04  0.00000000000E+00 0.  1.
         21   -1    0    0  502  503 -0.00000000000E+00 -0.00000000000E+00 -0.31457828760E+02  0.31457828760E+02  0.00000000000E+00 0.  1.
         -6    2    1    2    0  503 -0.29586736006E+02 -0.45764008714E+02  0.26757658572E+03  0.32151209894E+03  0.16971470501E+03 0.  0.
        -24    2    3    3    0    0 -0.59707082982E+02 -0.69230936820E+02  0.12570870096E+03  0.17452053883E+03  0.79352899158E+02 0.  0.
          6    2    1    2  501    0  0.29586736006E+02  0.45764008714E+02  0.18010673825E+04  0.18100475268E+04  0.17163511744E+03 0.  0.
         24    2    5    5    0    0  0.21373867224E+02  0.38486602003E+02  0.17937436382E+04  0.17960425601E+04  0.79464315008E+02 0.  0.
          5    1    5    5  501    0  0.82128687818E+01  0.72774067113E+01  0.73237443139E+01  0.14004966721E+02  0.47000000000E+01 0. -1.
        -13    1    6    6    0    0 -0.27930543633E+02  0.28480450284E+02  0.90077421756E+03  0.90165705362E+03  0.00000000000E+00 0.  1.
         14    1    6    6    0    0  0.49304410857E+02  0.10006151719E+02  0.89296942066E+03  0.89438550650E+03  0.00000000000E+00 0. -1.
         -5    1    3    3    0  503  0.30120346977E+02  0.23466928106E+02  0.14186788476E+03  0.14699156011E+03  0.47000000000E+01 0.  1.
         13    1    4    4    0    0 -0.10573650316E+02  0.17241858482E+02  0.32096253340E+02  0.37937491264E+02  0.00000000000E+00 0. -1.
        -14    1    4    4    0    0 -0.49133432667E+02 -0.86472795302E+02  0.93612447621E+02  0.13658304757E+03  0.00000000000E+00 0.  1.
</event>
<event>
12    1  0.8258923E-002  0.1986045E+03  0.7818608E-02  0.1151298E+00
         21   -1    0    0  501  502  0.00000000000E+00  0.00000000000E+00  0.14799965419E+02  0.14799965419E+02  0.00000000000E+00 0.  1.
         21   -1    0    0  502  503 -0.00000000000E+00 -0.00000000000E+00 -0.26542430685E+04  0.26542430685E+04  0.00000000000E+00 0.  1.
         -6    2    1    2    0  503 -0.99053203469E+02  0.11011454611E+02 -0.14178793826E+04  0.14317212311E+04  0.17178751574E+03 0.  0.
        -24    2    3    3    0    0 -0.17528455624E+02  0.24609471182E+02 -0.10885216777E+04  0.10921188483E+04  0.83254208477E+02 0.  0.
          6    2    1    2  501    0  0.99053203469E+02 -0.11011454611E+02 -0.12215637204E+04  0.12373218028E+04  0.16974843572E+03 0.  0.
         24    2    5    5    0    0  0.39998243768E+02  0.27170737952E+02 -0.10181181502E+04  0.10220137488E+04  0.74896104059E+02 0.  0.
          5    1    5    5  501    0  0.59054959702E+02 -0.38182192563E+02 -0.20344557018E+03  0.21530805400E+03  0.47000000000E+01 0. -1.
        -13    1    6    6    0    0  0.17208054715E+02 -0.23521953394E+02 -0.21376372430E+03  0.21574134807E+03  0.00000000000E+00 0.  1.
         14    1    6    6    0    0  0.22790189052E+02  0.50692691346E+02 -0.80435442592E+03  0.80627240072E+03  0.00000000000E+00 0. -1.
         -5    1    3    3    0  503 -0.81524747846E+02 -0.13598016571E+02 -0.32935770493E+03  0.33960238274E+03  0.47000000000E+01 0.  1.
         13    1    4    4    0    0 -0.50230002307E+02  0.18729976753E+02 -0.77166701374E+03  0.77352688722E+03  0.00000000000E+00 0. -1.
        -14    1    4    4    0    0  0.32701546683E+02  0.58794944294E+01 -0.31685466397E+03  0.31859196112E+03  0.00000000000E+00 0.  1.
</event>
<event>
12    1  0.8258923E-002  0.2361314E+03  0.7818608E-02  0.1122600E+00
         21   -1    0    0  501  502  0.00000000000E+00  0.00000000000E+00  0.83407334340E+03  0.83407334340E+03  0.00000000000E+00 0.  1.
         21   -1    0    0  502  503 -0.00000000000E+00 -0.00000000000E+00 -0.84849238830E+03  0.84849238830E+03  0.00000000000E+00 0.  1.
         -6    2    1    2    0  503  0.92342309373E+00 -0.16187742967E+03 -0.81484384492E+03  0.84803718398E+03  0.17026866669E+03 0.  0.
        -24    2    3    3    0    0  0.22750209515E+02 -0.16221525958E+03 -0.48940221971E+03  0.52183040270E+03  0.77207992124E+02 0.  0.
          6    2    1    2  501    0 -0.92342309373E+00  0.16187742967E+03  0.80042480002E+03  0.83452854773E+03  0.17190951557E+03 0.  0.
         24    2    5    5    0    0 -0.48844110096E+02  0.15811022393E+03  0.68262789844E+03  0.70721482458E+03  0.82385498541E+02 0.  0.
          5    1    5    5  501    0  0.47920687003E+02  0.37672057457E+01  0.11779690157E+03  0.12731372315E+03  0.47000000000E+01 0. -1.
        -13    1    6    6    0    0  0.93114587218E+00  0.11590853513E+03  0.50055486481E+03  0.51380037781E+03  0.00000000000E+00 0.  1.
         14    1    6    6    0    0 -0.49775255969E+02  0.42201688797E+02  0.18207303363E+03  0.19341444677E+03  0.00000000000E+00 0. -1.
         -5    1    3    3    0  503 -0.21826786422E+02  0.33782990803E+00 -0.32544162521E+03  0.32620678128E+03  0.47000000000E+01 0.  1.
         11    1    4    4    0    0  0.16064641400E+02 -0.10140173789E+03 -0.18726874159E+03  0.21356490050E+03  0.00000000000E+00 0. -1.
        -12    1    4    4    0    0  0.66855681152E+01 -0.60813521691E+02 -0.30213347812E+03  0.30826550219E+03  0.00000000000E+00 0.  1.
</event>
<event>
12    1  0.8258923E-002  0.3376853E+03  0.7818608E-02  0.1067798E+00
         21   -1    0    0  503  502  0.00000000000E+00  0.00000000000E+00  0.73070350657E+03  0.73070350657E+03  0.00000000000E+00 0.  1.
         21   -1    0    0  501  503 -0.00000000000E+00 -0.00000000000E+00 -0.16155274255E+03  0.16155274255E+03  0.00000000000E+00 0. -1.
          6    2    1    2  501    0  0.26903983615E+02  0.28921600077E+03  0.36720719800E+03  0.49879393278E+03  0.17200157464E+03 0.  0.
         24    2    3    3    0    0  0.94263627662E+01  0.16394542377E+03  0.31029403555E+03  0.36001575455E+03  0.79762125949E+02 0.  0.
         -6    2    1    2    0  502 -0.26903983615E+02 -0.28921600077E+03  0.20194356602E+03  0.39346231634E+03  0.17222564003E+03 0.  0.
        -24    2    5    5    0    0 -0.36863212805E+02 -0.29433086767E+03  0.15347815764E+03  0.34349899060E+03  0.80289822220E+02 0.  0.
          5    1    3    3  501    0  0.17477620849E+02  0.12527057700E+03  0.56913162448E+02  0.13877817823E+03  0.47000000000E+01 0. -1.
        -11    1    4    4    0    0 -0.33841192955E+02  0.53596238681E+02  0.12289264520E+03  0.13827648168E+03  0.00000000000E+00 0.  1.
         12    1    4    4    0    0  0.43267555721E+02  0.11034918509E+03  0.18740139035E+03  0.22173927287E+03  0.00000000000E+00 0. -1.
         -5    1    5    5    0  502  0.99592291899E+01  0.51148668954E+01  0.48465408374E+02  0.49963325733E+02  0.47000000000E+01 0.  1.
         13    1    6    6    0    0  0.79080226640E+00 -0.13309957639E+03  0.28662354422E+02  0.13615305051E+03  0.00000000000E+00 0. -1.
        -14    1    6    6    0    0 -0.37654015072E+02 -0.16123129128E+03  0.12481580322E+03  0.20734594009E+03  0.00000000000E+00 0.  1.
</event>
<event>
12    1  0.8258923E-002  0.2519668E+03  0.7818608E-02  0.1112266E+00
         21   -1    0    0  501  502  0.00000000000E+00  0.00000000000E+00  0.99490173037E+02  0.99490173037E+02  0.00000000000E+00 0.  1.
         21   -1    0    0  502  503 -0.00000000000E+00 -0.00000000000E+00 -0.65340233211E+03  0.65340233211E+03  0.00000000000E+00 0.  1.
         -6    2    1    2    0  503 -0.16216941806E+03  0.86927198308E+02 -0.34091643560E+03  0.42392365803E+03  0.17213946037E+03 0.  0.
        -24    2    3    3    0    0 -0.13000661470E+03  0.42122857854E+02 -0.12731401571E+03  0.20326564520E+03  0.80199806134E+02 0.  0.
          6    2    1    2  501    0  0.16216941806E+03 -0.86927198308E+02 -0.21299572347E+03  0.32896884712E+03  0.17028818572E+03 0.  0.
         24    2    5    5    0    0  0.48607920302E+02 -0.61672968522E+02 -0.17337357532E+03  0.20598106513E+03  0.78762412414E+02 0.  0.
          5    1    5    5  501    0  0.11356149776E+03 -0.25254229785E+02 -0.39622148152E+02  0.12298778199E+03  0.47000000000E+01 0. -1.
        -13    1    6    6    0    0 -0.50988016616E+01 -0.44892368241E+02 -0.36802462268E+02  0.58273010337E+02  0.00000000000E+00 0.  1.
         14    1    6    6    0    0  0.53706721964E+02 -0.16780600281E+02 -0.13657111305E+03  0.14770805479E+03  0.00000000000E+00 0. -1.
         -5    1    3    3    0  503 -0.32162803361E+02  0.44804340454E+02 -0.21360241989E+03  0.22065801283E+03  0.47000000000E+01 0.  1.
         11    1    4    4    0    0 -0.68680111218E+01  0.25494118116E+02 -0.15149835396E+01  0.26446451755E+02  0.00000000000E+00 0. -1.
        -12    1    4    4    0    0 -0.12313860357E+03  0.16628739737E+02 -0.12579903217E+03  0.17681919345E+03  0.00000000000E+00 0.  1.
</event>
<event>
12    1  0.8258923E-002  0.1796289E+03  0.7818608E-02  0.1168687E+00
         21   -1    0    0  501  502  0.00000000000E+00  0.00000000000E+00  0.60124128964E+03  0.60124128964E+03  0.00000000000E+00 0. -1.
         21   -1    0    0  502  503 -0.00000000000E+00 -0.00000000000E+00 -0.53277278611E+02  0.53277278611E+02  0.00000000000E+00 0. -1.
         -6    2    1    2    0  503 -0.46348662607E+02  0.37212919760E+01  0.29479846235E+03  0.34410059152E+03  0.17128058016E+03 0.  0.
        -24    2    3    3    0    0 -0.44858585592E+02 -0.84257028533E+01  0.31015268326E+03  0.32391119053E+03  0.81489184842E+02 0.  0.
          6    2    1    2  501    0  0.46348662607E+02 -0.37212919760E+01  0.25316554868E+03  0.31041797673E+03  0.17350642265E+03 0.  0.
         24    2    5    5    0    0  0.39137718193E+02  0.83524867969E+00  0.27355474933E+03  0.28782219647E+03  0.80479545682E+02 0.  0.
          5    1    5    5  501    0  0.72109444145E+01 -0.45565406557E+01 -0.20389200655E+02  0.22595780258E+02  0.47000000000E+01 0. -1.
        -11    1    6    6    0    0 -0.10458975184E+02  0.28251374646E+02  0.63927641610E+02  0.70670175415E+02  0.00000000000E+00 0.  1.
         12    1    6    6    0    0  0.49596693376E+02 -0.27416125966E+02  0.20962710772E+03  0.21715202106E+03  0.00000000000E+00 0. -1.
         -5    1    3    3    0  503 -0.14900770156E+01  0.12146994829E+02 -0.15354220907E+02  0.20189400995E+02  0.47000000000E+01 0.  1.
         13    1    4    4    0    0 -0.10364189896E+02 -0.30106159335E+02  0.42123984521E+02  0.52803667808E+02  0.00000000000E+00 0. -1.
        -14    1    4    4    0    0 -0.34494395696E+02  0.21680456481E+02  0.26802869874E+03  0.27110752272E+03  0.00000000000E+00 0.  1.
</event>
<event>
12    1  0.8258923E-002  0.2842406E+03  0.7818608E-02  0.1093535E+00
         21   -1    0    0  503  502  0.00000000000E+00  0.00000000000E+00  0.44310938560E+03  0.44310938560E+03  0.00000000000E+00 0. -1.
         21   -1    0    0  501  503 -0.00000000000E+00 -0.00000000000E+00 -0.26545670687E+03  0.26545670687E+03  0.00000000000E+00 0. -1.
          6    2    1    2  501    0 -0.22279356228E+03 -0.40117450412E+02 -0.11033342061E+03  0.30393202887E+03  0.17016119783E+03 0.  0.
         24    2    3    3    0    0 -0.11588371770E+03  0.35452501504E+02 -0.90425018068E+02  0.17142177646E+03  0.80764012166E+02 0.  0.
         -6    2    1    2    0  502  0.22279356228E+03  0.40117450412E+02  0.28798609934E+03  0.40463406360E+03  0.17189051978E+03 0.  0.
        -24    2    5    5    0    0  0.18133336289E+03  0.58897879024E+02  0.29360673368E+03  0.35853271695E+03  0.77395390143E+02 0.  0.
          5    1    3    3  501    0 -0.10690984459E+03 -0.75569951917E+02 -0.19908402542E+02  0.13251025241E+03  0.47000000000E+01 0. -1.
        -11    1    4    4    0    0 -0.99063169740E+02  0.10998147343E+02 -0.29980437228E+02  0.10408312764E+03  0.00000000000E+00 0.  1.
         12    1    4    4    0    0 -0.16820547955E+02  0.24454354161E+02 -0.60444580839E+02  0.67338648811E+02  0.00000000000E+00 0. -1.
         -5    1    5    5    0  502  0.41460199393E+02 -0.18780428611E+02 -0.56206343341E+01  0.46101346649E+02  0.47000000000E+01 0.  1.
         13    1    6    6    0    0  0.45721713050E+02 -0.13114563994E+02  0.40395845703E+02  0.62404256130E+02  0.00000000000E+00 0. -1.
        -14    1    6    6    0    0  0.13561164984E+03  0.72012443018E+02  0.25321088797E+03  0.29612846082E+03  0.00000000000E+00 0.  1.
</event>
<event>
12    1  0.8258923E-002  0.1978713E+03  0.7818608E-02  0.1152418E+00
         21   -1    0    0  501  502  0.00000000000E+00  0.00000000000E+00  0.22935173424E+02  0.22935173424E+02  0.00000000000E+00 0. -1.
         21   -1    0    0  502  503 -0.00000000000E+00 -0.00000000000E+00 -0.23663188990E+04  0.23663188990E+04  0.00000000000E+00 0. -1.
         -6    2    1    2    0  503 -0.58978766021E+00 -0.97854866227E+02 -0.18270270212E+04  0.18377107428E+04  0.17197998437E+03 0.  0.
        -24    2    3    3    0    0  0.52284547409E+02 -0.29102507750E+02 -0.12746558831E+04  0.12785519582E+04  0.79792603870E+02 0.  0.
          6    2    1    2  501    0  0.58978766021E+00  0.97854866227E+02 -0.51635670428E+03  0.55154332961E+03  0.16733163384E+03 0.  0.
         24    2    5    5    0    0  0.46367526866E+02  0.11335171138E+03 -0.40030997919E+03  0.42574712132E+03  0.77549815264E+02 0.  0.
          5    1    5    5  501    0 -0.45777739206E+02 -0.15496845153E+02 -0.11604672509E+03  0.12579620829E+03  0.47000000000E+01 0. -1.
        -11    1    6    6    0    0  0.43398557235E+02  0.16363645390E+02 -0.10193980319E+03  0.11199521032E+03  0.00000000000E+00 0.  1.
         12    1    6    6    0    0  0.29689696315E+01  0.96988065991E+02 -0.29837017600E+03  0.31375191100E+03  0.00000000000E+00 0. -1.
         -5    1    3    3    0  503 -0.52874335069E+02 -0.68752358477E+02 -0.55237113813E+03  0.55915878455E+03  0.47000000000E+01 0.  1.
         11    1    4    4    0    0  0.27005883682E+01  0.23483921352E+02 -0.49145540182E+03  0.49202357639E+03  0.00000000000E+00 0. -1.
        -12    1    4    4    0    0  0.49583959040E+02 -0.52586429102E+02 -0.78320048130E+03  0.78652838183E+03  0.00000000000E+00 0.  1.
</event>
<event>
12    1  0.8258923E-002  0.1989407E+03  0.7818608E-02  0.1151297E+00
         21   -1    0    0  503  502  0.00000000000E+00  0.00000000000E+00  0.13070118951E+03  0.13070118951E+03  0.00000000000E+00 0. -1.
         21   -1    0    0  501  503 -0.00000000000E+00 -0.00000000000E+00 -0.30443437115E+03  0.30443437115E+03  0.00000000000E+00 0.  1.
          6    2    1    2  501    0 -0.89179652156E+02 -0.36970535607E+02 -0.11884310715E+03  0.23173496771E+03  0.17394706172E+03 0.  0.
         24    2    3    3    0    0 -0.43429614603E+02  0.15657190446E+02 -0.14114152830E+03  0.15837249044E+03  0.55042126422E+02 0.  0.
         -6    2    1    2    0  502  0.89179652156E+02  0.36970535607E+02 -0.54890074489E+02  0.20340059294E+03  0.17040848004E+03 0.  0.
        -24    2    5    5    0    0  0.91674856207E+02 -0.20499321596E+02 -0.72074716882E+02  0.14318089131E+03  0.80507772151E+02 0.  0.
          5    1    3    3  501    0 -0.45750037553E+02 -0.52627726052E+02  0.22298421147E+02  0.73362477270E+02  0.47000000000E+01 0. -1.
        -11    1    4    4    0    0  0.78140389631E+01 -0.86841606983E+01 -0.96061044184E+01  0.15124519630E+02  0.00000000000E+00 0.  1.
         12    1    4    4    0    0 -0.51243653566E+02  0.24341351144E+02 -0.13153542388E+03  0.14324797081E+03  0.00000000000E+00 0. -1.
         -5    1    5    5    0  502 -0.24952040507E+01  0.57469857203E+02  0.17184642393E+02  0.60219701630E+02  0.47000000000E+01 0.  1.
         13    1    6    6    0    0  0.39373220294E+02 -0.60091320060E+01  0.13321754511E+02  0.41997967653E+02  0.00000000000E+00 0. -1.
        -14    1    6    6    0    0  0.52301635913E+02 -0.14490189590E+02 -0.85396471393E+02  0.10118292366E+03  0.00000000000E+00 0.  1.
</event>
<event>
12    1  0.8258923E-002  0.3343305E+03  0.7818608E-02  0.1069804E+00
         21   -1    0    0  503  502  0.00000000000E+00  0.00000000000E+00  0.19896647915E+03  0.19896647915E+03  0.00000000000E+00 0.  1.
         21   -1    0    0  501  503 -0.00000000000E+00 -0.00000000000E+00 -0.57062179929E+03  0.57062179929E+03  0.00000000000E+00 0.  1.
          6    2    1    2  501    0 -0.13173263112E+03  0.24772654104E+03 -0.25178882417E+03  0.41441952195E+03  0.17211624840E+03 0.  0.
         24    2    3    3    0    0 -0.86806276819E+02  0.66158394914E+02 -0.14579906062E+03  0.19938164395E+03  0.81138221295E+02 0.  0.
         -6    2    1    2    0  502  0.13173263112E+03 -0.24772654104E+03 -0.11986649598E+03  0.35516875649E+03  0.18181018533E+03 0.  0.
        -24    2    5    5    0    0  0.99050415833E+02 -0.18856517842E+03 -0.15866385346E+03  0.27709495185E+03  0.78991028325E+02 0.  0.
          5    1    3    3  501    0 -0.44926354299E+02  0.18156814613E+03 -0.10598976355E+03  0.21503787800E+03  0.47000000000E+01 0. -1.
        -13    1    4    4    0    0 -0.37954747632E+01  0.46796793298E+02 -0.30468376541E+02  0.55970237276E+02  0.00000000000E+00 0.  1.
         14    1    4    4    0    0 -0.83010802056E+02  0.19361601616E+02 -0.11533068408E+03  0.14341140667E+03  0.00000000000E+00 0. -1.
         -5    1    5    5    0  502  0.32682215286E+02 -0.59161362620E+02  0.38797357481E+02  0.78073804637E+02  0.47000000000E+01 0.  1.
         13    1    6    6    0    0  0.32031281537E+02 -0.14150394569E+03 -0.10691360308E+03  0.18022177495E+03  0.00000000000E+00 0. -1.
        -14    1    6    6    0    0  0.67019134295E+02 -0.47061232729E+02 -0.51750250379E+02  0.96873176896E+02  0.00000000000E+00 0.  1.
</event>
<event>
12    1  0.8258923E-002  0.1956207E+03  0.7818608E-02  0.1153646E+00
         21   -1    0    0  501  502  0.00000000000E+00  0.00000000000E+00  0.19017554230E+03  0.19017554230E+03  0.00000000000E+00 0. -1.
         21   -1    0    0  502  503 -0.00000000000E+00 -0.00000000000E+00 -0.28190022590E+03  0.28190022590E+03  0.00000000000E+00 0. -1.
         -6    2    1    2    0  503 -0.47164450173E+02 -0.79845024727E+02 -0.17265960621E+03  0.26037336441E+03  0.17141539004E+03 0.  0.
        -24    2    3    3    0    0 -0.35693891823E+02 -0.11888453032E+03 -0.11799269290E+03  0.19206364243E+03  0.86940104114E+02 0.  0.
          6    2    1    2  501    0  0.47164450173E+02  0.79845024727E+02  0.80934922613E+02  0.21170240379E+03  0.17224323713E+03 0.  0.
         24    2    5    5    0    0  0.94960586376E+01  0.10666328331E+02  0.10184419272E+03  0.13006976735E+03  0.79636418157E+02 0.  0.
          5    1    5    5  501    0  0.37668391536E+02  0.69178696396E+02 -0.20909270107E+02  0.81632636441E+02  0.47000000000E+01 0. -1.
        -13    1    6    6    0    0  0.13501357241E+02 -0.22790940510E+02  0.42581757576E+01  0.26829939945E+02  0.00000000000E+00 0.  1.
         14    1    6    6    0    0 -0.40052986030E+01  0.33457268841E+02  0.97586016963E+02  0.10323982740E+03  0.00000000000E+00 0. -1.
         -5    1    3    3    0  503 -0.11470558350E+02  0.39039505594E+02 -0.54666913310E+02  0.68309721978E+02  0.47000000000E+01 0.  1.
         11    1    4    4    0    0 -0.39924032307E+02 -0.14513015551E+02 -0.57049975536E+02  0.71128444976E+02  0.00000000000E+00 0. -1.
        -12    1    4    4    0    0  0.42301404846E+01 -0.10437151477E+03 -0.60942717362E+02  0.12093519745E+03  0.00000000000E+00 0.  1.
</event>
<event>
12    1  0.8258923E-002  0.1844168E+03  0.7818608E-02  0.1163987E+00
         21   -1    0    0  503  502  0.00000000000E+00  0.00000000000E+00  0.58334278361E+02  0.58334278361E+02  0.00000000000E+00 0.  1.
         21   -1    0    0  501  503 -0.00000000000E+00 -0.00000000000E+00 -0.14146792728E+04  0.14146792728E+04  0.00000000000E+00 0.  1.
          6    2    1    2  501    0 -0.56788544448E+02 -0.30822263240E+02 -0.12459043264E+04  0.12594789149E+04  0.17272694005E+03 0.  0.
         24    2    3    3    0    0  0.15183746501E+02 -0.20989209455E+02 -0.98676932659E+03  0.99031402540E+03  0.79605727949E+02 0.  0.
         -6    2    1    2    0  502  0.56788544448E+02  0.30822263240E+02 -0.11044066805E+03  0.21353463628E+03  0.17095306093E+03 0.  0.
        -24    2    5    5    0    0  0.34193114594E+02 -0.44592449984E+02 -0.49816649436E+02  0.11405954365E+03  0.85850016051E+02 0.  0.
          5    1    3    3  501    0 -0.71972290949E+02 -0.98330537854E+01 -0.25913499983E+03  0.26916488952E+03  0.47000000000E+01 0. -1.
        -11    1    4    4    0    0  0.29985852003E+02 -0.45093686446E+02 -0.56164117981E+03  0.56424587436E+03  0.00000000000E+00 0.  1.
         12    1    4    4    0    0 -0.14802105502E+02  0.24104476991E+02 -0.42512814679E+03  0.42606815104E+03  0.00000000000E+00 0. -1.
         -5    1    5    5    0  502  0.22595429854E+02  0.75414713224E+02 -0.60624018614E+02  0.99475092631E+02  0.47000000000E+01 0.  1.
         13    1    6    6    0    0  0.61495321891E+02 -0.43388652118E+02 -0.35665589319E+02  0.83284356325E+02  0.00000000000E+00 0. -1.
        -14    1    6    6    0    0 -0.27302207297E+02 -0.12037978652E+01 -0.14151060117E+02  0.30775187327E+02  0.00000000000E+00 0.  1.
</event>
<event>
12    1  0.8258923E-002  0.2312323E+03  0.7818608E-02  0.1126931E+00
         21   -1    0    0  501  502  0.00000000000E+00  0.00000000000E+00  0.19396946589E+03  0.19396946589E+03  0.00000000000E+00 0. -1.
         21   -1    0    0  502  503 -0.00000000000E+00 -0.00000000000E+00 -0.26798080360E+03  0.26798080360E+03  0.00000000000E+00 0. -1.
         -6    2    1    2    0  503  0.16124448466E+02 -0.15768534110E+03 -0.40184306854E+02  0.23469798714E+03  0.16835587906E+03 0.  0.
        -24    2    3    3    0    0 -0.24624125742E+02 -0.16146775970E+03 -0.55828541128E+02  0.19063456630E+03  0.80910610370E+02 0.  0.
          6    2    1    2  501    0 -0.16124448466E+02  0.15768534110E+03 -0.33827030851E+02  0.22725228235E+03  0.15929427855E+03 0.  0.
         24    2    5    5    0    0 -0.79078895851E+01  0.17058058537E+03 -0.57216324711E+02  0.19891594116E+03  0.84460481940E+02 0.  0.
          5    1    5    5  501    0 -0.82165588804E+01 -0.12895244271E+02  0.23389293860E+02  0.28336341188E+02  0.47000000000E+01 0. -1.
        -13    1    6    6    0    0 -0.21063042667E+02  0.11319650724E+02  0.95197981904E+01  0.25737381695E+02  0.00000000000E+00 0.  1.
         14    1    6    6    0    0  0.13155153082E+02  0.15926093465E+03 -0.66736122901E+02  0.17317855946E+03  0.00000000000E+00 0. -1.
         -5    1    3    3    0  503  0.40748574208E+02  0.37824186005E+01  0.15644234275E+02  0.44063420844E+02  0.47000000000E+01 0.  1.
         11    1    4    4    0    0  0.16155289013E+02 -0.41928136960E+02 -0.45439776243E+02  0.63904110173E+02  0.00000000000E+00 0. -1.
        -12    1    4    4    0    0 -0.40779414755E+02 -0.11953962274E+03 -0.10388764885E+02  0.12673045612E+03  0.00000000000E+00 0.  1.
</event>
<event>
12    1  0.8258923E-002  0.3006053E+03  0.7818608E-02  0.1084974E+00
         21   -1    0    0  501  502  0.00000000000E+00  0.00000000000E+00  0.62299259471E+03  0.62299259471E+03  0.00000000000E+00 0.  1.
         21   -1    0    0  502  503 -0.00000000000E+00 -0.00000000000E+00 -0.83370298596E+03  0.83370298596E+03  0.00000000000E+00 0. -1.
         -6    2    1    2    0  503 -0.38147107265E+01 -0.24620983105E+03 -0.76739304365E+03  0.82416966460E+03  0.17242308339E+03 0.  0.
        -24    2    3    3    0    0  0.43724323907E+02 -0.14133697866E+03 -0.58299780444E+03  0.60672548964E+03  0.79633044384E+02 0.  0.
          6    2    1    2  501    0  0.38147107265E+01  0.24620983105E+03  0.55668265240E+03  0.63252591607E+03  0.17192913103E+03 0.  0.
         24    2    5    5    0    0 -0.58792896744E+02  0.99310479786E+02  0.27708545968E+03  0.31050757484E+03  0.79494817209E+02 0.  0.
          5    1    5    5  501    0  0.62607607470E+02  0.14689935126E+03  0.27959719272E+03  0.32201834123E+03  0.47000000000E+01 0. -1.
        -13    1    6    6    0    0 -0.34600872610E+02  0.10856023972E+03  0.21754027361E+03  0.24557344456E+03  0.00000000000E+00 0.  1.
         14    1    6    6    0    0 -0.24192024133E+02 -0.92497599298E+01  0.59545186072E+02  0.64934130277E+02  0.00000000000E+00 0. -1.
         -5    1    3    3    0  503 -0.47539034634E+02 -0.10487285239E+03 -0.18439523921E+03  0.21744417496E+03  0.47000000000E+01 0.  1.
         13    1    4    4    0    0  0.28411409973E+02 -0.29426806684E+02 -0.66917477400E+02  0.78428910166E+02  0.00000000000E+00 0. -1.
        -14    1    4    4    0    0  0.15312913934E+02 -0.11191017197E+03 -0.51608032704E+03  0.52829657947E+03  0.00000000000E+00 0.  1.
</event>
<event>
12    1  0.8258923E-002  0.2176338E+03  0.7818608E-02  0.1136400E+00
         21   -1    0    0  501  502  0.00000000000E+00  0.00000000000E+00  0.52683019891E+02  0.52683019891E+02  0.00000000000E+00 0.  1.
         21   -1    0    0  502  503 -0.00000000000E+00 -0.00000000000E+00 -0.10442634707E+04  0.10442634707E+04  0.00000000000E+00 0.  1.
         -6    2    1    2    0  503 -0.46224575620E+02  0.11818170487E+03 -0.71502911570E+03  0.74741629650E+03  0.17680740151E+03 0.  0.
        -24    2    3    3    0    0  0.51994966370E+02  0.73023371760E+02 -0.34485459272E+03  0.36175112963E+03  0.62476398084E+02 0.  0.
          6    2    1    2  501    0  0.46224575620E+02 -0.11818170487E+03 -0.27655133515E+03  0.34953019413E+03  0.17200897906E+03 0.  0.
         24    2    5    5    0    0  0.88557667585E+02 -0.70212556981E+02 -0.12953456679E+03  0.18912710811E+03  0.78851730376E+02 0.  0.
          5    1    5    5  501    0 -0.42333091965E+02 -0.47969147887E+02 -0.14701676836E+03  0.16040308601E+03  0.47000000000E+01 0. -1.
        -11    1    6    6    0    0  0.66162926415E+02 -0.58559563586E+02 -0.41634965763E+02  0.97674078922E+02  0.00000000000E+00 0.  1.
         12    1    6    6    0    0  0.22394741170E+02 -0.11652993395E+02 -0.87899601029E+02  0.91453029191E+02  0.00000000000E+00 0. -1.
         -5    1    3    3    0  503 -0.98219541990E+02  0.45158333108E+02 -0.37017452298E+03  0.38566516688E+03  0.47000000000E+01 0.  1.
         11    1    4    4    0    0 -0.39879505513E+01  0.37889673289E+02 -0.77644188530E+02  0.86487866802E+02  0.00000000000E+00 0. -1.
        -12    1    4    4    0    0  0.55982916922E+02  0.35133698471E+02 -0.26721040419E+03  0.27526326282E+03  0.00000000000E+00 0.  1.
</event>
<event>
12    1  0.8258923E-002  0.2129156E+03  0.7818608E-02  0.1139571E+00
         21   -1    0    0  501  502  0.00000000000E+00  0.00000000000E+00  0.47289445296E+03  0.47289445296E+03  0.00000000000E+00 0.  1.
         21   -1    0    0  502  503 -0.00000000000E+00 -0.00000000000E+00 -0.16107570324E+03  0.16107570324E+03  0.00000000000E+00 0.  1.
         -6    2    1    2    0  503  0.11131044622E+03  0.53241661573E+02  0.35831751806E+03  0.41603622774E+03  0.17166831123E+03 0.  0.
        -24    2    3    3    0    0  0.29412357406E+02  0.37505966187E+02  0.29949523890E+03  0.31387429948E+03  0.80919055127E+02 0.  0.
          6    2    1    2  501    0 -0.11131044622E+03 -0.53241661573E+02 -0.46498768337E+02  0.21793392846E+03  0.17351764104E+03 0.  0.
         24    2    5    5    0    0 -0.13827173218E+03 -0.16204425161E+02 -0.57239222146E+02  0.17064634901E+03  0.80387763765E+02 0.  0.
          5    1    5    5  501    0  0.26961285967E+02 -0.37037236412E+02  0.10740453809E+02  0.47287579448E+02  0.47000000000E+01 0. -1.
        -11    1    6    6    0    0 -0.96024406623E+02 -0.47844203201E+02 -0.45736131870E+02  0.11662567559E+03  0.00000000000E+00 0.  1.
         12    1    6    6    0    0 -0.42247325560E+02  0.31639778041E+02 -0.11503090276E+02  0.54020673425E+02  0.00000000000E+00 0. -1.
         -5    1    3    3    0  503  0.81898088809E+02  0.15735695385E+02  0.58822279157E+02  0.10216192826E+03  0.47000000000E+01 0.  1.
         11    1    4    4    0    0 -0.72442562932E+01 -0.61889807009E+01  0.55745533624E+00  0.95442908490E+01  0.00000000000E+00 0. -1.
        -12    1    4    4    0    0  0.36656613699E+02  0.43694946888E+02  0.29893778356E+03  0.30433000863E+03  0.00000000000E+00 0.  1.
</event>
<event>
12    1  0.8258923E-002  0.3075493E+03  0.7818608E-02  0.1081674E+00
         21   -1    0    0  503  502  0.00000000000E+00  0.00000000000E+00  0.35521937472E+03  0.35521937472E+03  0.00000000000E+00 0.  1.
         21   -1    0    0  501  503 -0.00000000000E+00 -0.00000000000E+00 -0.31528540601E+03  0.31528540601E+03  0.00000000000E+00 0.  1.
          6    2    1    2  501    0 -0.20388005635E+03 -0.15150715303E+03 -0.11365079930E+03  0.32673906529E+03  0.17123205836E+03 0.  0.
         24    2    3    3    0    0 -0.18847874190E+03 -0.65865793148E+02 -0.10479359417E+03  0.23914806637E+03  0.79671584738E+02 0.  0.
         -6    2    1    2    0  502  0.20388005635E+03  0.15150715303E+03  0.15358476800E+03  0.34376571544E+03  0.17339288150E+03 0.  0.
        -24    2    5    5    0    0  0.16650494207E+03  0.39558469225E+02  0.99355443091E+02  0.21379527013E+03  0.80920610721E+02 0.  0.
          5    1    3    3  501    0 -0.15401314442E+02 -0.85641359880E+02 -0.88572051336E+01  0.87590998917E+02  0.47000000000E+01 0. -1.
        -13    1    4    4    0    0 -0.17108460647E+03 -0.81028231721E+02 -0.10415485996E+03  0.21606423064E+03  0.00000000000E+00 0.  1.
         14    1    4    4    0    0 -0.17394135433E+02  0.15162438573E+02 -0.63873420770E+00  0.23083835737E+02  0.00000000000E+00 0. -1.
         -5    1    5    5    0  502  0.37375114279E+02  0.11194868380E+03  0.54229324913E+02  0.12997044531E+03  0.47000000000E+01 0.  1.
         13    1    6    6    0    0  0.40179299676E+01 -0.16597265619E+02  0.55788417699E+01  0.17964867457E+02  0.00000000000E+00 0. -1.
        -14    1    6    6    0    0  0.16248701210E+03  0.56155734844E+02  0.93776601321E+02  0.19583040268E+03  0.00000000000E+00 0.  1.
</event>
<event>
12    1  0.8258923E-002  0.1847603E+03  0.7818608E-02  0.1163815E+00
         21   -1    0    0  503  502  0.00000000000E+00  0.00000000000E+00  0.46034521091E+03  0.46034521091E+03  0.00000000000E+00 0. -1.
         21   -1    0    0  501  503 -0.00000000000E+00 -0.00000000000E+00 -0.95652235433E+02  0.95652235433E+02  0.00000000000E+00 0. -1.
          6    2    1    2  501    0  0.25523893072E+02 -0.62935924358E+02  0.48638450014E+02  0.19105511972E+03  0.17182537722E+03 0.  0.
         24    2    3    3    0    0 -0.53052914044E+01 -0.46132534485E+02  0.94806393064E+02  0.13286266752E+03  0.80671428652E+02 0.  0.
         -6    2    1    2    0  502 -0.25523893072E+02  0.62935924358E+02  0.31605452547E+03  0.36494232663E+03  0.16935182020E+03 0.  0.
        -24    2    5    5    0    0  0.12038141539E+02  0.82552193481E+02  0.13461317416E+03  0.17855896251E+03  0.82479178789E+02 0.  0.
          5    1    3    3  501    0  0.30829184476E+02 -0.16803389873E+02 -0.46167943050E+02  0.58192452193E+02  0.47000000000E+01 0. -1.
        -11    1    4    4    0    0 -0.31951041714E+02 -0.56259997303E+01  0.72630965618E+02  0.79547332490E+02  0.00000000000E+00 0.  1.
         12    1    4    4    0    0  0.26645750309E+02 -0.40506534755E+02  0.22175427446E+02  0.53315335034E+02  0.00000000000E+00 0. -1.
         -5    1    5    5    0  502 -0.37562034610E+02 -0.19616269124E+02  0.18144135130E+03  0.18638336412E+03  0.47000000000E+01 0.  1.
         13    1    6    6    0    0  0.38869479248E+02  0.15745018616E+02  0.71134346267E+02  0.82576251108E+02  0.00000000000E+00 0. -1.
        -14    1    6    6    0    0 -0.26831337710E+02  0.66807174865E+02  0.63478827896E+02  0.95982711401E+02  0.00000000000E+00 0.  1.
</event>
<event>
12    1  0.8258923E-002  0.1948009E+03  0.7818608E-02  0.1155401E+00
         21   -1    0    0  501  502  0.00000000000E+00  0.00000000000E+00  0.13924634515E+03  0.13924634515E+03  0.00000000000E+00 0.  1.
         21   -1    0    0  502  503 -0.00000000000E+00 -0.00000000000E+00 -0.55873071945E+03  0.55873071945E+03  0.00000000000E+00 0. -1.
         -6    2    1    2    0  503  0.57585080376E+02 -0.45438805637E+02 -0.46417151011E+03  0.50339108554E+03  0.18046237188E+03 0.  0.
        -24    2    3    3    0    0  0.99505203526E+02  0.83692923472E+01 -0.28639109080E+03  0.31291647930E+03  0.76977500241E+02 0.  0.
          6    2    1    2  501    0 -0.57585080376E+02  0.45438805637E+02  0.44687135809E+02  0.19458597907E+03  0.17460251030E+03 0.  0.
         24    2    5    5    0    0  0.24905315210E+02  0.49841495154E+02  0.53343915521E+02  0.11139295728E+03  0.80363973543E+02 0.  0.
          5    1    5    5  501    0 -0.82490395586E+02 -0.44026895170E+01 -0.86567797122E+01  0.83193021786E+02  0.47000000000E+01 0. -1.
        -11    1    6    6    0    0  0.31451395238E+01  0.67714390485E+02  0.27437845601E+02  0.73129788408E+02  0.00000000000E+00 0.  1.
         12    1    6    6    0    0  0.21760175687E+02 -0.17872895331E+02  0.25906069920E+02  0.38263168872E+02  0.00000000000E+00 0. -1.
         -5    1    3    3    0  503 -0.41920123150E+02 -0.53808097984E+02 -0.17778041931E+03  0.19047460624E+03  0.47000000000E+01 0.  1.
         13    1    4    4    0    0  0.32985548776E+02 -0.31166609889E+02 -0.14230920492E+03  0.14936972185E+03  0.00000000000E+00 0. -1.
        -14    1    4    4    0    0  0.66519654749E+02  0.39535902236E+02 -0.14408188588E+03  0.16354675745E+03  0.00000000000E+00 0.  1.
</event>
<event>
12    1  0.8258923E-002  0.2485667E+03  0.7818608E-02  0.1114253E+00
         21   -1    0    0  503  502  0.00000000000E+00  0.00000000000E+00  0.22934978425E+03  0.22934978425E+03  0.00000000000E+00 0.  1.
         21   -1    0    0  501  503 -0.00000000000E+00 -0.00000000000E+00 -0.27418261805E+03  0.27418261805E+03  0.00000000000E+00 0. -1.
          6    2    1    2  501    0  0.10209015693E+03 -0.14647602908E+03 -0.56613009229E+02  0.25493220754E+03  0.17293863185E+03 0.  0.
         24    2    3    3    0    0  0.30560940939E+02 -0.14491002799E+03 -0.69819181691E+02  0.18202559542E+03  0.79534344361E+02 0.  0.
         -6    2    1    2    0  502 -0.10209015693E+03  0.14647602908E+03  0.11780175432E+02  0.24860019477E+03  0.17258521683E+03 0.  0.
        -24    2    5    5    0    0 -0.12429593623E+03  0.70719911479E+02 -0.20763433151E+02  0.16308257992E+03  0.75591150767E+02 0.  0.
          5    1    3    3  501    0  0.71529215991E+02 -0.15660010980E+01  0.13206172462E+02  0.72906612120E+02  0.47000000000E+01 0. -1.
        -11    1    4    4    0    0  0.34527176651E+02 -0.23152574282E+02  0.86421941889E-01  0.41571325359E+02  0.00000000000E+00 0.  1.
         12    1    4    4    0    0 -0.39662357124E+01 -0.12175745370E+03 -0.69905603633E+02  0.14045427006E+03  0.00000000000E+00 0. -1.
         -5    1    5    5    0  502  0.22205779303E+02  0.75756117604E+02  0.32543608584E+02  0.85517614844E+02  0.47000000000E+01 0.  1.
         11    1    6    6    0    0 -0.78752061699E+02  0.82208141447E+02 -0.66446648372E+01  0.11403603515E+03  0.00000000000E+00 0. -1.
        -12    1    6    6    0    0 -0.45543874534E+02 -0.11488229968E+02 -0.14118768314E+02  0.49046544772E+02  0.00000000000E+00 0.  1.
</event>
<event>
12    1  0.8258923E-002  0.1771372E+03  0.7818608E-02  0.1171427E+00
         21   -1    0    0  501  502  0.00000000000E+00  0.00000000000E+00  0.98346813209E+02  0.98346813209E+02  0.00000000000E+00 0. -1.
         21   -1    0    0  502  503 -0.00000000000E+00 -0.00000000000E+00 -0.36222863489E+03  0.36222863489E+03  0.00000000000E+00 0. -1.
         -6    2    1    2    0  503 -0.30185808040E+02  0.24799602012E+02 -0.21779225558E+03  0.28073308418E+03  0.17277556163E+03 0.  0.
        -24    2    3    3    0    0 -0.56613350768E+02  0.33423540964E+02 -0.57047489334E+02  0.11753456331E+03  0.78979446429E+02 0.  0.
          6    2    1    2  501    0  0.30185808040E+02 -0.24799602012E+02 -0.46089566095E+02  0.17984236391E+03  0.16938956428E+03 0.  0.
         24    2    5    5    0    0 -0.10513364845E+02 -0.43059666561E+02  0.25937865999E+02  0.94990177111E+02  0.79910544550E+02 0.  0.
          5    1    5    5  501    0  0.40699172884E+02  0.18260064549E+02 -0.72027432095E+02  0.84852186801E+02  0.47000000000E+01 0. -1.
        -11    1    6    6    0    0 -0.29865757357E+02  0.90436452856E+01 -0.46478298809E+01  0.31549220357E+02  0.00000000000E+00 0.  1.
         12    1    6    6    0    0  0.19352392512E+02 -0.52103311846E+02  0.30585695880E+02  0.63440956753E+02  0.00000000000E+00 0. -1.
         -5    1    3    3    0  503  0.26427542728E+02 -0.86239389526E+01 -0.16074476625E+03  0.16319852087E+03  0.47000000000E+01 0.  1.
         13    1    4    4    0    0 -0.30274908793E+02  0.41595152219E+02 -0.70158401776E+02  0.86999586955E+02  0.00000000000E+00 0. -1.
        -14    1    4    4    0    0 -0.26338441975E+02 -0.81716112547E+01  0.13110912442E+02  0.30534976359E+02  0.00000000000E+00 0.  1.
</event>
<event>
12    1  0.8258923E-002  0.1816997E+03  0.7818608E-02  0.1167017E+00
         21   -1    0    0  501  502  0.00000000000E+00  0.00000000000E+00  0.34587336289E+03  0.34587336289E+03  0.00000000000E+00 0.  1.
         21   -1    0    0  502  503 -0.00000000000E+00 -0.00000000000E+00 -0.95894773072E+02  0.95894773072E+02  0.00000000000E+00 0.  1.
         -6    2    1    2    0  503 -0.53682249075E+02  0.11740857571E+02  0.92128990340E+02  0.20372166777E+03  0.17319103745E+03 0.  0.
        -24    2    3    3    0    0 -0.16579387046E+02  0.17224685065E+02  0.12703651756E+03  0.15226955225E+03  0.80474678620E+02 0.  0.
          6    2    1    2  501    0  0.53682249075E+02 -0.11740857571E+02  0.15784959948E+03  0.23804646820E+03  0.16949924295E+03 0.  0.
         24    2    5    5    0    0  0.54661806364E+02 -0.69122723170E+02  0.11100462136E+03  0.16381588146E+03  0.82144708423E+02 0.  0.
          5    1    5    5  501    0 -0.97955728860E+00  0.57381865599E+02  0.46844978122E+02  0.74230586737E+02  0.47000000000E+01 0. -1.
        -13    1    6    6    0    0  0.25744130256E+02  0.15949586288E+02  0.22828183958E+02  0.37924603204E+02  0.00000000000E+00 0.  1.
         14    1    6    6    0    0  0.28917676108E+02 -0.85072309458E+02  0.88176437401E+02  0.12589127826E+03  0.00000000000E+00 0. -1.
         -5    1    3    3    0  503 -0.37102862030E+02 -0.54838274943E+01 -0.34907527218E+02  0.51452115518E+02  0.47000000000E+01 0.  1.
         13    1    4    4    0    0  0.32590511495E+02  0.28117579060E+01  0.49748822935E+02  0.59539842168E+02  0.00000000000E+00 0. -1.
        -14    1    4    4    0    0 -0.49169898541E+02  0.14412927159E+02  0.77287694623E+02  0.92729710082E+02  0.00000000000E+00 0.  1.
</event>
<event>
12    1  0.8258923E-002  0.1851821E+03  0.7818608E-02  0.1162882E+00
         21   -1    0    0  501  502  0.00000000000E+00  0.00000000000E+00  0.20999342449E+03  0.20999342449E+03  0.00000000000E+00 0. -1.
         21   -1    0    0  502  503 -0.00000000000E+00 -0.00000000000E+00 -0.25511321603E+03  0.25511321603E+03  0.00000000000E+00 0. -1.
         -6    2    1    2    0  503  0.28478398144E+02  0.63859295992E+02 -0.16207465079E+03  0.24608412083E+03  0.17146478720E+03 0.  0.
        -24    2    3    3    0    0  0.33174630307E+02  0.68713061408E+01 -0.16744477120E+03  0.18845935378E+03  0.79570130592E+02 0.  0.
          6    2    1    2  501    0 -0.28478398144E+02 -0.63859295992E+02  0.11695485925E+03  0.21902251969E+03  0.17147418518E+03 0.  0.
         24    2    5    5    0    0  0.64267653572E+01 -0.28587782661E+01  0.12378521709E+03  0.14825404231E+03  0.81283486434E+02 0.  0.
          5    1    5    5  501    0 -0.34905163501E+02 -0.61000517726E+02 -0.68303578352E+01  0.70768477376E+02  0.47000000000E+01 0. -1.
        -11    1    6    6    0    0 -0.22278295407E+02  0.29974114111E+02  0.48017132180E+02  0.60831036041E+02  0.00000000000E+00 0.  1.
         12    1    6    6    0    0  0.28705060765E+02 -0.32832892377E+02  0.75768084906E+02  0.87423006272E+02  0.00000000000E+00 0. -1.
         -5    1    3    3    0  503 -0.46962321626E+01  0.56987989851E+02  0.53701204078E+01  0.57624767045E+02  0.47000000000E+01 0.  1.
         13    1    4    4    0    0  0.99715290998E+01  0.16990305398E+02 -0.60439429926E+00  0.19709570330E+02  0.00000000000E+00 0. -1.
        -14    1    4    4    0    0  0.23203101207E+02 -0.10118999258E+02 -0.16684037690E+03  0.16874978345E+03  0.00000000000E+00 0.  1.
</event>
<event>
12    1  0.8258923E-002  0.1930744E+03  0.7818608E-02  0.1155737E+00
         21   -1    0    0  503  502  0.00000000000E+00  0.00000000000E+00  0.42186306556E+03  0.42186306556E+03  0.00000000000E+00 0. -1.
         21   -1    0    0  501  503 -0.00000000000E+00 -0.00000000000E+00 -0.92764771532E+02  0.92764771532E+02  0.00000000000E+00 0. -1.
          6    2    1    2  501    0  0.77010883204E+02 -0.40389120626E+02  0.10820939343E+03  0.22125157222E+03  0.17228182779E+03 0.  0.
         24    2    3    3    0    0  0.11179976899E+03 -0.24763075622E+02  0.11620852542E+03  0.18200216497E+03  0.80671980346E+02 0.  0.
         -6    2    1    2    0  502 -0.77010883204E+02  0.40389120626E+02  0.22088890059E+03  0.29337626487E+03  0.17238262438E+03 0.  0.
        -24    2    5    5    0    0 -0.16207351293E+02  0.61709947658E+02  0.20168940119E+03  0.22597924761E+03  0.79480877712E+02 0.  0.
          5    1    3    3  501    0 -0.34788885790E+02 -0.15626045004E+02 -0.79991319836E+01  0.39249407250E+02  0.47000000000E+01 0. -1.
        -13    1    4    4    0    0 -0.73835882737E+01  0.12692637323E+02  0.17059382781E+02  0.22508730725E+02  0.00000000000E+00 0.  1.
         14    1    4    4    0    0  0.11918335727E+03 -0.37455712945E+02  0.99149142635E+02  0.15949343424E+03  0.00000000000E+00 0. -1.
         -5    1    5    5    0  502 -0.60803531912E+02 -0.21320827032E+02  0.19199499403E+02  0.67397017261E+02  0.47000000000E+01 0.  1.
         11    1    6    6    0    0 -0.42625814146E+02  0.22740676683E+02  0.62198990177E+02  0.78757937928E+02  0.00000000000E+00 0. -1.
        -12    1    6    6    0    0  0.26418462853E+02  0.38969270974E+02  0.13949041101E+03  0.14722130968E+03  0.00000000000E+00 0.  1.
</event>
<event>
12    1  0.8258923E-002  0.1747470E+03  0.7818608E-02  0.1173145E+00
         21   -1    0    0  503  502  0.00000000000E+00  0.00000000000E+00  0.10402386250E+03  0.10402386250E+03  0.00000000000E+00 0. -1.
         21   -1    0    0  501  503 -0.00000000000E+00 -0.00000000000E+00 -0.72648329758E+03  0.72648329758E+03  0.00000000000E+00 0. -1.
          6    2    1    2  501    0 -0.30916566057E+01 -0.26728293754E+02 -0.63240810502E+03  0.65610711072E+03  0.17266316753E+03 0.  0.
         24    2    3    3    0    0  0.24324842010E+02 -0.45674222839E+02 -0.17757009820E+03  0.20002563218E+03  0.76166141970E+02 0.  0.
         -6    2    1    2    0  502  0.30916566057E+01  0.26728293754E+02  0.99486699441E+01  0.17440004935E+03  0.17202453648E+03 0.  0.
        -24    2    5    5    0    0  0.97786207347E+00  0.21356084471E+02 -0.62356306171E+02  0.10171285425E+03  0.77460681917E+02 0.  0.
          5    1    3    3  501    0 -0.27416498616E+02  0.18945929085E+02 -0.45483800682E+03  0.45608147855E+03  0.47000000000E+01 0. -1.
        -13    1    4    4    0    0  0.15021107427E+02  0.17750582906E+02 -0.23074710712E+02  0.32759107685E+02  0.00000000000E+00 0.  1.
         14    1    4    4    0    0  0.93037345829E+01 -0.63424805745E+02 -0.15449538749E+03  0.16726652450E+03  0.00000000000E+00 0. -1.
         -5    1    5    5    0  502  0.21137945322E+01  0.53722092832E+01  0.72304976116E+02  0.72687195096E+02  0.47000000000E+01 0.  1.
         13    1    6    6    0    0 -0.15090476451E+01 -0.14528778591E-01  0.18235920803E+02  0.18298257934E+02  0.00000000000E+00 0. -1.
        -14    1    6    6    0    0  0.24869097186E+01  0.21370613250E+02 -0.80592226975E+02  0.83414596321E+02  0.00000000000E+00 0.  1.
</event>
<event>
12    1  0.8258923E-002  0.1897267E+03  0.7818608E-02  0.1158816E+00
         21   -1    0    0  501  502  0.00000000000E+00  0.00000000000E+00  0.35188563026E+03  0.35188563026E+03  0.00000000000E+00 0. -1.
         21   -1    0    0  502  503 -0.00000000000E+00 -0.00000000000E+00 -0.12551999209E+03  0.12551999209E+03  0.00000000000E+00 0. -1.
         -6    2    1    2    0  503  0.76140186775E+02  0.27565780742E+02  0.98196757873E+01  0.18950219771E+03  0.17104811193E+03 0.  0.
        -24    2    3    3    0    0  0.33862825539E+02  0.24947358405E+02 -0.64796012675E+02  0.10357302703E+03  0.68991209767E+02 0.  0.
          6    2    1    2  501    0 -0.76140186775E+02 -0.27565780742E+02  0.21654596238E+03  0.28790342464E+03  0.17157805158E+03 0.  0.
         24    2    5    5    0    0 -0.11514617527E+03 -0.37882018846E+01  0.18531681453E+03  0.23236793985E+03  0.79872057506E+02 0.  0.
          5    1    5    5  501    0  0.39005988497E+02 -0.23777578858E+02  0.31229147846E+02  0.55535484784E+02  0.47000000000E+01 0. -1.
        -13    1    6    6    0    0 -0.24280909242E+02  0.87163263039E+01  0.22801636596E+00  0.25799009464E+02  0.00000000000E+00 0.  1.
         14    1    6    6    0    0 -0.90865266030E+02 -0.12504528189E+02  0.18508879816E+03  0.20656893039E+03  0.00000000000E+00 0. -1.
         -5    1    3    3    0  503  0.42277361235E+02  0.26184223373E+01  0.74615688463E+02  0.85929170678E+02  0.47000000000E+01 0.  1.
         13    1    4    4    0    0  0.34452735618E+01 -0.89718967784E+01 -0.56440446042E+02  0.57252849634E+02  0.00000000000E+00 0. -1.
        -14    1    4    4    0    0  0.30417551977E+02  0.33919255183E+02 -0.83555666330E+01  0.46320177399E+02  0.00000000000E+00 0.  1.
</event>
<event>
12    1  0.8258923E-002  0.3027117E+03  0.7818608E-02  0.1083901E+00
         21   -1    0    0  503  502  0.00000000000E+00  0.00000000000E+00  0.18400683345E+03  0.18400683345E+03  0.00000000000E+00 0. -1.
         21   -1    0    0  501  503 -0.00000000000E+00 -0.00000000000E+00 -0.49792900444E+03  0.49792900444E+03  0.00000000000E+00 0.  1.
          6    2    1    2  501    0 -0.12610691876E+01  0.24903300967E+03 -0.16018783749E+03  0.34248289801E+03  0.17209114430E+03 0.  0.
         24    2    3    3    0    0  0.12177952190E+02  0.12924958667E+03 -0.16103320266E+03  0.22185338104E+03  0.80208928087E+02 0.  0.
         -6    2    1    2    0  502  0.12610691876E+01 -0.24903300967E+03 -0.15373433350E+03  0.33945293988E+03  0.17197390178E+03 0.  0.
        -24    2    5    5    0    0 -0.47611546170E+02 -0.10586410935E+03 -0.69693766608E+02  0.16633224950E+03  0.96618461713E+02 0.  0.
          5    1    3    3  501    0 -0.13439021378E+02  0.11978342300E+03  0.84536517289E+00  0.12062951696E+03  0.47000000000E+01 0. -1.
        -11    1    4    4    0    0  0.12757145983E+02 -0.81875879269E+01 -0.16516013750E+02  0.22417851812E+02  0.00000000000E+00 0.  1.
         12    1    4    4    0    0 -0.57919379293E+00  0.13743717460E+03 -0.14451718891E+03  0.19943552923E+03  0.00000000000E+00 0. -1.
         -5    1    5    5    0  502  0.48872615358E+02 -0.14316890033E+03 -0.84040566892E+02  0.17312069038E+03  0.47000000000E+01 0.  1.
         13    1    6    6    0    0  0.10155404066E+02 -0.87850542892E+02 -0.27679628384E+02  0.92666131600E+02  0.00000000000E+00 0. -1.
        -14    1    6    6    0    0 -0.57766950236E+02 -0.18013566454E+02 -0.42014138224E+02  0.73666117902E+02  0.00000000000E+00 0.  1.
</event>
<event>
12    1  0.8258923E-002  0.2245330E+03  0.7818608E-02  0.1130650E+00
         21   -1    0    0  501  502  0.00000000000E+00  0.00000000000E+00  0.48349842472E+02  0.48349842472E+02  0.00000000000E+00 0. -1.
         21   -1    0    0  502  503 -0.00000000000E+00 -0.00000000000E+00 -0.10407320160E+04  0.10407320160E+04  0.00000000000E+00 0.  1.
         -6    2    1    2    0  503  0.76413647633E+02 -0.11791480308E+03 -0.48235811791E+03  0.53182105986E+03  0.17441714213E+03 0.  0.
        -24    2    3    3    0    0  0.95512210028E+02 -0.85611121380E+02 -0.22478953232E+03  0.27149059830E+03  0.82005882436E+02 0.  0.
          6    2    1    2  501    0 -0.76413647633E+02  0.11791480308E+03 -0.51002405562E+03  0.55726079861E+03  0.17513455978E+03 0.  0.
         24    2    5    5    0    0 -0.46867650279E+01  0.62334201518E+01 -0.28101982416E+03  0.29252979361E+03  0.80874701159E+02 0.  0.
          5    1    5    5  501    0 -0.71726882605E+02  0.11168138293E+03 -0.22900423146E+03  0.26473100500E+03  0.47000000000E+01 0. -1.
        -11    1    6    6    0    0  0.16972290172E+01 -0.17241412462E+02 -0.91857313120E+01  0.19609297533E+02  0.00000000000E+00 0.  1.
         12    1    6    6    0    0 -0.63839940451E+01  0.23474832614E+02 -0.27183409285E+03  0.27292049608E+03  0.00000000000E+00 0. -1.
         -5    1    3    3    0  503 -0.19098562396E+02 -0.32303681697E+02 -0.25756858559E+03  0.26033046156E+03  0.47000000000E+01 0.  1.
         13    1    4    4    0    0  0.15378386117E+02  0.88930705407E+01 -0.75101313184E+02  0.77173756584E+02  0.00000000000E+00 0. -1.
        -14    1    4    4    0    0  0.80133823911E+02 -0.94504191921E+02 -0.14968821914E+03  0.19431684171E+03  0.00000000000E+00 0.  1.
</event>
<event>
12    1  0.8258923E-002  0.2579597E+03  0.7818608E-02  0.1108482E+00
         21   -1    0    0  503  502  0.00000000000E+00  0.00000000000E+00  0.19360991439E+03  0.19360991439E+03  0.00000000000E+00 0. -1.
         21   -1    0    0  501  503 -0.00000000000E+00 -0.00000000000E+00 -0.34384380126E+03  0.34384380126E+03  0.00000000000E+00 0.  1.
          6    2    1    2  501    0 -0.35494683570E+02 -0.18885002766E+03 -0.90272092445E+02  0.27329883723E+03  0.17210170902E+03 0.  0.
         24    2    3    3    0    0 -0.32225134110E+02 -0.16354793740E+03 -0.75543505010E+01  0.18660858081E+03  0.83542247552E+02 0.  0.
         -6    2    1    2    0  502  0.35494683570E+02  0.18885002766E+03 -0.59961794426E+02  0.26415487842E+03  0.17105021921E+03 0.  0.
        -24    2    5    5    0    0  0.68871191107E+02  0.71166171341E+02  0.12452436877E+01  0.12729044619E+03  0.79959002948E+02 0.  0.
          5    1    3    3  501    0 -0.32695494604E+01 -0.25302090260E+02 -0.82717741944E+02  0.86690256416E+02  0.47000000000E+01 0. -1.
        -11    1    4    4    0    0  0.15190441398E+02 -0.24180440096E+02 -0.25527780527E+02  0.38302882029E+02  0.00000000000E+00 0.  1.
         12    1    4    4    0    0 -0.47415575507E+02 -0.13936749730E+03  0.17973430026E+02  0.14830569879E+03  0.00000000000E+00 0. -1.
         -5    1    5    5    0  502 -0.33376507536E+02  0.11768385632E+03 -0.61207038114E+02  0.13686443222E+03  0.47000000000E+01 0.  1.
         11    1    6    6    0    0  0.71497639860E+02  0.20280702422E+02  0.11817279599E+02  0.75252026507E+02  0.00000000000E+00 0. -1.
        -12    1    6    6    0    0 -0.26264487536E+01  0.50885468918E+02 -0.10572035912E+02  0.52038419686E+02  0.00000000000E+00 0.  1.
</event>
<event>
12    1  0.8258923E-002  0.2638112E+03  0.7818608E-02  0.1105784E+00
         21   -1    0    0  501  502  0.00000000000E+00  0.00000000000E+00  0.22036293026E+03  0.22036293026E+03  0.00000000000E+00 0. -1.
         21   -1    0    0  502  503 -0.00000000000E+00 -0.00000000000E+00 -0.34004659854E+03  0.34004659854E+03  0.00000000000E+00 0. -1.
         -6    2    1    2    0  503  0.72903870444E+02 -0.17602135728E+03  0.26032029770E+02  0.25903033702E+03  0.17355274811E+03 0.  0.
        -24    2    3    3    0    0  0.14013755221E+02 -0.35908456039E+02  0.53589778494E+02  0.10449493564E+03  0.81003238607E+02 0.  0.
          6    2    1    2  501    0 -0.72903870444E+02  0.17602135728E+03 -0.14571569805E+03  0.30137919178E+03  0.18247701234E+03 0.  0.
         24    2    5    5    0    0 -0.10710857446E+03  0.71351916812E+02 -0.86653817530E+02  0.17633500249E+03  0.83796218614E+02 0.  0.
          5    1    5    5  501    0  0.34204704016E+02  0.10466944047E+03 -0.59061880519E+02  0.12504418929E+03  0.47000000000E+01 0. -1.
        -13    1    6    6    0    0  0.12658560460E+02 -0.42182985874E+00 -0.14105503757E+01  0.12743890525E+02  0.00000000000E+00 0.  1.
         14    1    6    6    0    0 -0.11976713492E+03  0.71773746670E+02 -0.85243267154E+02  0.16359111196E+03  0.00000000000E+00 0. -1.
         -5    1    3    3    0  503  0.58890115222E+02 -0.14011290124E+03 -0.27557748724E+02  0.15453540138E+03  0.47000000000E+01 0.  1.
         13    1    4    4    0    0 -0.73925807877E+01 -0.46253230222E+02  0.63357258171E+02  0.78791837900E+02  0.00000000000E+00 0. -1.
        -14    1    4    4    0    0  0.21406336009E+02  0.10344774182E+02 -0.97674796769E+01  0.25703097740E+02  0.00000000000E+00 0.  1.
</event>
<event>
12    1  0.8258923E-002  0.1854338E+03  0.7818608E-02  0.1163581E+00
         21   -1    0    0  501  502  0.00000000000E+00  0.00000000000E+00  0.84782549752E+03  0.84782549752E+03  0.00000000000E+00 0.  1.
         21   -1    0    0  502  503 -0.00000000000E+00 -0.00000000000E+00 -0.79724331402E+02  0.79724331402E+02  0.00000000000E+00 0.  1.
         -6    2    1    2    0  503  0.18325728468E+01 -0.53412638193E+02  0.53359155601E+02  0.18914489306E+03  0.17341373314E+03 0.  0.
        -24    2    3    3    0    0  0.50211671285E+02  0.95824010229E+01  0.24569448006E+01  0.94688357043E+02  0.79666894248E+02 0.  0.
          6    2    1    2  501    0 -0.18325728468E+01  0.53412638193E+02  0.71474201052E+03  0.73840493586E+03  0.17756531043E+03 0.  0.
         24    2    5    5    0    0  0.54368351536E+02  0.14912688595E+02  0.57152847801E+03  0.57974493487E+03  0.79253280115E+02 0.  0.
          5    1    5    5  501    0 -0.56200924383E+02  0.38499949598E+02  0.14321353251E+03  0.15866000099E+03  0.47000000000E+01 0. -1.
        -13    1    6    6    0    0  0.21188097232E+02  0.46505220938E+02  0.27707601522E+03  0.28174951508E+03  0.00000000000E+00 0.  1.
         14    1    6    6    0    0  0.33180254304E+02 -0.31592532343E+02  0.29445246279E+03  0.29799541979E+03  0.00000000000E+00 0. -1.
         -5    1    3    3    0  503 -0.48379098439E+02 -0.62995039216E+02  0.50902210800E+02  0.94456536015E+02  0.47000000000E+01 0.  1.
         11    1    4    4    0    0 -0.13832195805E+02  0.18998953495E+02 -0.14701485330E+02  0.27720453561E+02  0.00000000000E+00 0. -1.
        -12    1    4    4    0    0  0.64043867090E+02 -0.94165524722E+01  0.17158430131E+02  0.66967903483E+02  0.00000000000E+00 0.  1.
</event>
<event>
12    1  0.8258923E-002  0.1928022E+03  0.7818608E-02  0.1156637E+00
         21   -1    0    0  501  502  0.00000000000E+00  0.00000000000E+00  0.67378093735E+02  0.67378093735E+02  0.00000000000E+00 0.  1.
         21   -1    0    0  502  503 -0.00000000000E+00 -0.00000000000E+00 -0.13086359149E+04  0.13086359149E+04  0.00000000000E+00 0.  1.
         -6    2    1    2    0  503  0.67235085661E+02  0.54060441692E+02 -0.11448166769E+04  0.11604366501E+04  0.16901155924E+03 0.  0.
        -24    2    3    3    0    0  0.69533756865E+02 -0.21667794475E+02 -0.80697209516E+03  0.81416926637E+03  0.79769638824E+02 0.  0.
          6    2    1    2  501    0 -0.67235085661E+02 -0.54060441692E+02 -0.96441144311E+02  0.21557735855E+03  0.17242278012E+03 0.  0.
         24    2    5    5    0    0 -0.35745742079E+01 -0.71983314338E+02 -0.35200290140E+02  0.12531982534E+03  0.96289267693E+02 0.  0.
          5    1    5    5  501    0 -0.63660511453E+02  0.17922872646E+02 -0.61240854171E+02  0.90257533214E+02  0.47000000000E+01 0. -1.
        -13    1    6    6    0    0  0.38556670780E+02 -0.67659007509E+02 -0.24488985986E+02  0.81633746658E+02  0.00000000000E+00 0.  1.
         14    1    6    6    0    0 -0.42131244988E+02 -0.43243068287E+01 -0.10711304154E+02  0.43686078680E+02  0.00000000000E+00 0. -1.
         -5    1    3    3    0  503 -0.22986712044E+01  0.75728236166E+02 -0.33784458171E+03  0.34626738372E+03  0.47000000000E+01 0.  1.
         13    1    4    4    0    0  0.71895296145E+02 -0.59406862158E+01 -0.37335755951E+03  0.38026318860E+03  0.00000000000E+00 0. -1.
        -14    1    4    4    0    0 -0.23615392801E+01 -0.15727108259E+02 -0.43361453564E+03  0.43390607776E+03  0.00000000000E+00 0.  1.
</event>
<event>
12    1  0.8258923E-002  0.2164345E+03  0.7818608E-02  0.1136658E+00
         21   -1    0    0  503  502  0.00000000000E+00  0.00000000000E+00  0.46897497426E+03  0.46897497426E+03  0.00000000000E+00 0. -1.
         21   -1    0    0  501  503 -0.00000000000E+00 -0.00000000000E+00 -0.23191025427E+03  0.23191025427E+03  0.00000000000E+00 0. -1.
          6    2    1    2  501    0  0.11686620612E+03  0.59450325266E+02 -0.14604157770E+03  0.26109776028E+03  0.17219711583E+03 0.  0.
         24    2    3    3    0    0  0.88946282619E+02  0.34552152028E+02 -0.17406414772E+03  0.21412121731E+03  0.80276246654E+02 0.  0.
         -6    2    1    2    0  502 -0.11686620612E+03 -0.59450325266E+02  0.38310629769E+03  0.43978746825E+03  0.17161156893E+03 0.  0.
        -24    2    5    5    0    0 -0.32788450916E+02 -0.68954211575E+02  0.11743938211E+03  0.16093196300E+03  0.79229555320E+02 0.  0.
          5    1    3    3  501    0  0.27919923503E+02  0.24898173238E+02  0.28022570025E+02  0.46976542974E+02  0.47000000000E+01 0. -1.
        -13    1    4    4    0    0  0.46608166664E+02  0.47580919203E+01 -0.18849141454E+02  0.50500007644E+02  0.00000000000E+00 0.  1.
         14    1    4    4    0    0  0.42338115955E+02  0.29794060108E+02 -0.15521500627E+03  0.16362120966E+03  0.00000000000E+00 0. -1.
         -5    1    5    5    0  502 -0.84077755206E+02  0.95038863089E+01  0.26566691558E+03  0.27885550525E+03  0.47000000000E+01 0.  1.
         11    1    6    6    0    0  0.16517220205E+02  0.39912294746E+01  0.40821427665E+02  0.44216936038E+02  0.00000000000E+00 0. -1.
        -12    1    6    6    0    0 -0.49305671121E+02 -0.72945441050E+02  0.76617954447E+02  0.11671502696E+03  0.00000000000E+00 0.  1.
</event>
<event>
12    1  0.8258923E-002  0.1977941E+03  0.7818608E-02  0.1151945E+00
         21   -1    0    0  503  502  0.00000000000E+00  0.00000000000E+00  0.76042553116E+03  0.76042553116E+03  0.00000000000E+00 0. -1.
         21   -1    0    0  501  503 -0.00000000000E+00 -0.00000000000E+00 -0.20173701211E+03  0.20173701211E+03  0.00000000000E+00 0.  1.
          6    2    1    2  501    0 -0.94765850799E+02 -0.21127591422E+02 -0.13671478458E+03  0.23917688429E+03  0.17055118897E+03 0.  0.
         24    2    3    3    0    0 -0.42536721892E+02 -0.77711766574E+02 -0.76561494660E+02  0.14134969445E+03  0.79180693874E+02 0.  0.
         -6    2    1    2    0  502  0.94765850799E+02  0.21127591422E+02  0.69540330363E+03  0.72298565899E+03  0.17232401692E+03 0.  0.
        -24    2    5    5    0    0  0.26042028031E+02  0.59896630071E+02  0.52484106685E+03  0.53499744450E+03  0.80612199112E+02 0.  0.
          5    1    3    3  501    0 -0.52229128907E+02  0.56584175151E+02 -0.60153289920E+02  0.97827189841E+02  0.47000000000E+01 0. -1.
        -11    1    4    4    0    0 -0.12638789053E+02  0.70770334534E+01 -0.43016406297E+02  0.45389807247E+02  0.00000000000E+00 0.  1.
         12    1    4    4    0    0 -0.29897932838E+02 -0.84788800027E+02 -0.33545088362E+02  0.95959887199E+02  0.00000000000E+00 0. -1.
         -5    1    5    5    0  502  0.68723822768E+02 -0.38769038649E+02  0.17056223678E+03  0.18798821449E+03  0.47000000000E+01 0.  1.
         11    1    6    6    0    0  0.16132693402E+02 -0.18787789078E+01  0.32910093854E+03  0.32950147398E+03  0.00000000000E+00 0. -1.
        -12    1    6    6    0    0  0.99093346282E+01  0.61775408979E+02  0.19574012831E+03  0.20549597052E+03  0.00000000000E+00 0.  1.
</event>
<event>
12    1  0.8258923E-002  0.2183727E+03  0.7818608E-02  0.1135130E+00
         21   -1    0    0  503  502  0.00000000000E+00  0.00000000000E+00  0.38549288566E+03  0.38549288566E+03  0.00000000000E+00 0. -1.
         21   -1    0    0  501  503 -0.00000000000E+00 -0.00000000000E+00 -0.12403520736E+03  0.12403520736E+03  0.00000000000E+00 0.  1.
          6    2    1    2  501    0 -0.12078468068E+03  0.62039856370E+02  0.14542442975E+03  0.26224210313E+03  0.17083551452E+03 0.  0.
         24    2    3    3    0    0 -0.79149320856E+02  0.10821577113E+03  0.10404129704E+03  0.18740647014E+03  0.79506763533E+02 0.  0.
         -6    2    1    2    0  502  0.12078468068E+03 -0.62039856370E+02  0.11603324856E+03  0.24728598990E+03  0.17102269780E+03 0.  0.
        -24    2    5    5    0    0  0.15042291839E+03 -0.27691772026E+02  0.10246734420E+03  0.19970091037E+03  0.77375760806E+02 0.  0.
          5    1    3    3  501    0 -0.41635359823E+02 -0.46175914762E+02  0.41383132709E+02  0.74835632987E+02  0.47000000000E+01 0. -1.
        -11    1    4    4    0    0  0.10797641530E+02  0.16671993480E+02 -0.32507061477E+01  0.20127382336E+02  0.00000000000E+00 0.  1.
         12    1    4    4    0    0 -0.89946962386E+02  0.91543777652E+02  0.10729200319E+03  0.16727908781E+03  0.00000000000E+00 0. -1.
         -5    1    5    5    0  502 -0.29638237710E+02 -0.34348084345E+02  0.13565904360E+02  0.47585079529E+02  0.47000000000E+01 0.  1.
         13    1    6    6    0    0  0.11757678779E+03 -0.29626489932E+02  0.37569948186E+02  0.12693908358E+03  0.00000000000E+00 0. -1.
        -14    1    6    6    0    0  0.32846130596E+02  0.19347179062E+01  0.64897396011E+02  0.72761826788E+02  0.00000000000E+00 0.  1.
</event>
<event>
12    1  0.8258923E-002  0.2968610E+03  0.7818608E-02  0.1086965E+00
         21   -1    0    0  503  502  0.00000000000E+00  0.00000000000E+00  0.15253407200E+03  0.15253407200E+03  0.00000000000E+00 0.  1.
         21   -1    0    0  501  503 -0.00000000000E+00 -0.00000000000E+00 -0.58764210929E+03  0.58764210929E+03  0.00000000000E+00 0. -1.
          6    2    1    2  501    0  0.24012164055E+03 -0.24974497190E+02 -0.16403751918E+03  0.33817412122E+03  0.17079607956E+03 0.  0.
         24    2    3    3    0    0  0.14801825225E+03  0.50009426436E+02 -0.11402622963E+03  0.20922125378E+03  0.79757170564E+02 0.  0.
         -6    2    1    2    0  502 -0.24012164055E+03  0.24974497190E+02 -0.27107051811E+03  0.40200206007E+03  0.17275503681E+03 0.  0.
        -24    2    5    5    0    0 -0.19307846358E+03 -0.36170822752E+02 -0.23370919777E+03  0.31615470188E+03  0.82135162283E+02 0.  0.
          5    1    3    3  501    0  0.92103388305E+02 -0.74983923625E+02 -0.50011289547E+02  0.12895286744E+03  0.47000000000E+01 0. -1.
        -11    1    4    4    0    0  0.37855540531E+02 -0.10937277970E+02 -0.63084609684E-01  0.39403933534E+02  0.00000000000E+00 0.  1.
         12    1    4    4    0    0  0.11016271172E+03  0.60946704405E+02 -0.11396314502E+03  0.16981732024E+03  0.00000000000E+00 0. -1.
         -5    1    5    5    0  502 -0.47043176975E+02  0.61145319942E+02 -0.37361320336E+02  0.85847358188E+02  0.47000000000E+01 0.  1.
         13    1    6    6    0    0 -0.51477806393E+02  0.16301625521E+02 -0.10358736616E+03  0.11681630868E+03  0.00000000000E+00 0. -1.
        -14    1    6    6    0    0 -0.14160065719E+03 -0.52472448273E+02 -0.13012183162E+03  0.19933839321E+03  0.00000000000E+00 0.  1.
</event>
<event>
12    1  0.8258923E-002  0.1989703E+03  0.7818608E-02  0.1150632E+00
         21   -1    0    0  503  502  0.00000000000E+00  0.00000000000E+00  0.17368934511E+04  0.17368934511E+04  0.00000000000E+00 0. -1.
         21   -1    0    0  501  503 -0.00000000000E+00 -0.00000000000E+00 -0.23177757485E+02  0.23177757485E+02  0.00000000000E+00 0.  1.
          6    2    1    2  501    0 -0.57002013158E+02 -0.82145480397E+02  0.97212499992E+03  0.99227829325E+03  0.17202350520E+03 0.  0.
         24    2    3    3    0    0 -0.11222226060E+02 -0.58381465539E+02  0.33299409875E+03  0.35105218949E+03  0.93905463487E+02 0.  0.
         -6    2    1    2    0  502  0.57002013158E+02  0.82145480397E+02  0.74159069369E+03  0.76779291533E+03  0.17190722615E+03 0.  0.
        -24    2    5    5    0    0  0.84705463471E+02  0.10060339452E+03  0.47579654776E+03  0.49988100113E+03  0.78756599133E+02 0.  0.
          5    1    3    3  501    0 -0.45779787098E+02 -0.23764014858E+02  0.63913090117E+03  0.64122610376E+03  0.47000000000E+01 0. -1.
        -11    1    4    4    0    0 -0.15303124313E+02  0.23524092389E+02  0.10772221203E+03  0.11131775915E+03  0.00000000000E+00 0.  1.
         12    1    4    4    0    0  0.40808982533E+01 -0.81905557928E+02  0.22527188672E+03  0.23973443035E+03  0.00000000000E+00 0. -1.
         -5    1    5    5    0  502 -0.27703450313E+02 -0.18457914124E+02  0.26579414593E+03  0.26791191419E+03  0.47000000000E+01 0.  1.
         13    1    6    6    0    0 -0.69738937028E+01  0.39035703234E+02  0.17544636802E+03  0.17987175813E+03  0.00000000000E+00 0. -1.
        -14    1    6    6    0    0  0.91679357174E+02  0.61567691287E+02  0.30035017973E+03  0.32000924300E+03  0.00000000000E+00 0.  1.
</event>
<event>
12    1  0.8258923E-002  0.1979829E+03  0.7818608E-02  0.1151861E+00
         21   -1    0    0  501  502  0.00000000000E+00  0.00000000000E+00  0.20010207403E+03  0.20010207403E+03  0.00000000000E+00 0. -1.
         21   -1    0    0  502  503 -0.00000000000E+00 -0.00000000000E+00 -0.75629809190E+03  0.75629809190E+03  0.00000000000E+00 0. -1.
         -6    2    1    2    0  503  0.17378240254E+01 -0.96247382309E+02 -0.69077099631E+03  0.71858319419E+03  0.17300479472E+03 0.  0.
        -24    2    3    3    0    0  0.21803632214E+01  0.66236088058E+01 -0.44376488601E+03  0.45097014297E+03  0.79988559330E+02 0.  0.
          6    2    1    2  501    0 -0.17378240254E+01  0.96247382309E+02  0.13457497844E+03  0.23781697174E+03  0.17082127675E+03 0.  0.
         24    2    5    5    0    0  0.14965014914E+02  0.15421895659E+02  0.13087937922E+03  0.15506740029E+03  0.80341148802E+02 0.  0.
          5    1    5    5  501    0 -0.16702838940E+02  0.80825486650E+02  0.36955992170E+01  0.82749571446E+02  0.47000000000E+01 0. -1.
        -11    1    6    6    0    0  0.39288436678E+02 -0.16662059992E+02  0.61598033812E+02  0.74936795163E+02  0.00000000000E+00 0.  1.
         12    1    6    6    0    0 -0.24323421764E+02  0.32083955651E+02  0.69281345410E+02  0.80130605129E+02  0.00000000000E+00 0. -1.
         -5    1    3    3    0  503 -0.44253919594E+00 -0.10287099111E+03 -0.24700611031E+03  0.26761305122E+03  0.47000000000E+01 0.  1.
         13    1    4    4    0    0  0.31322880715E+02 -0.16914266823E+02 -0.12369335293E+03  0.12871387197E+03  0.00000000000E+00 0. -1.
        -14    1    4    4    0    0 -0.29142517494E+02  0.23537875629E+02 -0.32007153308E+03  0.32225627101E+03  0.00000000000E+00 0.  1.
</event>
<event>
12    1  0.8258923E-002  0.2430160E+03  0.7818608E-02  0.1118120E+00
         21   -1    0    0  503  502  0.00000000000E+00  0.00000000000E+00  0.14321345854E+03  0.14321345854E+03  0.00000000000E+00 0.  1.
         21   -1    0    0  501  503 -0.00000000000E+00 -0.00000000000E+00 -0.46274680986E+03  0.46274680986E+03  0.00000000000E+00 0. -1.
          6    2    1    2  501    0  0.62201302506E+02 -0.15882338696E+03 -0.26238469399E+03  0.35631507662E+03  0.17035502900E+03 0.  0.
         24    2    3    3    0    0 -0.12016043177E+02 -0.28098138491E+02 -0.13659939968E+03  0.16025045652E+03  0.78018729437E+02 0.  0.
         -6    2    1    2    0  502 -0.62201302506E+02  0.15882338696E+03 -0.57148657335E+02  0.24964519178E+03  0.17309789850E+03 0.  0.
        -24    2    5    5    0    0 -0.23851576518E+02  0.42531025966E+02  0.29561709336E+02  0.99527263477E+02  0.81572027340E+02 0.  0.
          5    1    3    3  501    0  0.74217345683E+02 -0.13072524847E+03 -0.12578529431E+03  0.19606462010E+03  0.47000000000E+01 0. -1.
        -13    1    4    4    0    0 -0.19970589417E+02 -0.97036391711E+01 -0.14653621749E-01  0.22203271596E+02  0.00000000000E+00 0.  1.
         14    1    4    4    0    0  0.79545462393E+01 -0.18394499320E+02 -0.13658474605E+03  0.13804718493E+03  0.00000000000E+00 0. -1.
         -5    1    5    5    0  502 -0.38349725988E+02  0.11629236100E+03 -0.86710366670E+02  0.15011792830E+03  0.47000000000E+01 0.  1.
         13    1    6    6    0    0  0.51196004542E+01 -0.21429205537E+02 -0.28061552676E+01  0.22210260380E+02  0.00000000000E+00 0. -1.
        -14    1    6    6    0    0 -0.28971176972E+02  0.63960231503E+02  0.32367864603E+02  0.77317003097E+02  0.00000000000E+00 0.  1.
</event>
<event>
12    1  0.8258923E-002  0.1953926E+03  0.7818608E-02  0.1154479E+00
         21   -1    0    0  503  502  0.00000000000E+00  0.00000000000E+00  0.24739334781E+03  0.24739334781E+03  0.00000000000E+00 0.  1.
         21   -1    0    0  501  503 -0.00000000000E+00 -0.00000000000E+00 -0.16421139644E+03  0.16421139644E+03  0.00000000000E+00 0.  1.
          6    2    1    2  501    0 -0.54369615433E+02 -0.74736620681E+02 -0.16061592949E+02  0.19245290072E+03  0.16804322859E+03 0.  0.
         24    2    3    3    0    0 -0.87666613685E+02 -0.84407297707E+02 -0.39083438431E+02  0.15056844709E+03  0.79582127629E+02 0.  0.
         -6    2    1    2    0  502  0.54369615433E+02  0.74736620681E+02  0.99243544315E+02  0.21915184353E+03  0.17215293166E+03 0.  0.
        -24    2    5    5    0    0  0.34964317645E+02  0.38682545617E+02  0.13408262783E+03  0.16518598718E+03  0.81175220556E+02 0.  0.
          5    1    3    3  501    0  0.33296998252E+02  0.96706770253E+01  0.23021845482E+02  0.41884453632E+02  0.47000000000E+01 0. -1.
        -11    1    4    4    0    0 -0.90877281540E+01 -0.26913555455E+02  0.21735502869E+02  0.35768119257E+02  0.00000000000E+00 0.  1.
         12    1    4    4    0    0 -0.78578885531E+02 -0.57493742252E+02 -0.60818941299E+02  0.11480032783E+03  0.00000000000E+00 0. -1.
         -5    1    5    5    0  502  0.19405297788E+02  0.36054075065E+02 -0.34839083514E+02  0.53965856346E+02  0.47000000000E+01 0.  1.
         13    1    6    6    0    0 -0.12055956208E+02 -0.17958126663E+02  0.20282115267E+02  0.29651384336E+02  0.00000000000E+00 0. -1.
        -14    1    6    6    0    0  0.47020273852E+02  0.56640672280E+02  0.11380051256E+03  0.13553460285E+03  0.00000000000E+00 0.  1.
</event>
<event>
12    1  0.8258923E-002  0.1927694E+03  0.7818608E-02  0.1156091E+00
         21   -1    0    0  501  502  0.00000000000E+00  0.00000000000E+00  0.49337976175E+03  0.49337976175E+03  0.00000000000E+00 0.  1.
         21   -1    0    0  502  503 -0.00000000000E+00 -0.00000000000E+00 -0.10282260682E+03  0.10282260682E+03  0.00000000000E+00 0.  1.
         -6    2    1    2    0  503 -0.85085962991E+02 -0.41438947761E+01  0.40412302551E+02  0.19650064740E+03  0.17240231224E+03 0.  0.
        -24    2    3    3    0    0 -0.10312707268E+03 -0.37306329348E+02 -0.70214290735E+01  0.13569540419E+03  0.79605194077E+02 0.  0.
          6    2    1    2  501    0  0.85085962991E+02  0.41438947761E+01  0.35014485238E+03  0.39970172118E+03  0.17292557736E+03 0.  0.
         24    2    5    5    0    0  0.40655221562E+02  0.30912597522E+02  0.78573611494E+02  0.12318104726E+03  0.79945745697E+02 0.  0.
          5    1    5    5  501    0  0.44430741429E+02 -0.26768702746E+02  0.27157124088E+03  0.27652067392E+03  0.47000000000E+01 0. -1.
        -13    1    6    6    0    0  0.29311638549E+02 -0.43119892955E+01 -0.65667134031E+01  0.30346122175E+02  0.00000000000E+00 0.  1.
         14    1    6    6    0    0  0.11343583013E+02  0.35224586818E+02  0.85140324897E+02  0.92834925086E+02  0.00000000000E+00 0. -1.
         -5    1    3    3    0  503  0.18041109685E+02  0.33162434572E+02  0.47433731624E+02  0.60805243205E+02  0.47000000000E+01 0.  1.
         13    1    4    4    0    0 -0.20099109573E+02 -0.34097669657E+02 -0.29794391320E+02  0.49541205433E+02  0.00000000000E+00 0. -1.
        -14    1    4    4    0    0 -0.83027963103E+02 -0.32086596914E+01  0.22772962246E+02  0.86154198758E+02  0.00000000000E+00 0.  1.
</event>
<event>
12    1  0.8258923E-002  0.1806954E+03  0.7818608E-02  0.1167407E+00
         21   -1    0    0  501  502  0.00000000000E+00  0.00000000000E+00  0.10637557293E+04  0.10637557293E+04  0.00000000000E+00 0. -1.
         21   -1    0    0  502  503 -0.00000000000E+00 -0.00000000000E+00 -0.30517851571E+02  0.30517851571E+02  0.00000000000E+00 0. -1.
         -6    2    1    2    0  503 -0.47936127100E+02  0.61413584892E+01  0.53117364991E+03  0.56106708602E+03  0.17411272236E+03 0.  0.
        -24    2    3    3    0    0  0.11059459725E+01 -0.14455371037E+02  0.10468603024E+03  0.13124953178E+03  0.77827333225E+02 0.  0.
          6    2    1    2  501    0  0.47936127100E+02 -0.61413584892E+01  0.50206422780E+03  0.53320649483E+03  0.17293087848E+03 0.  0.
         24    2    5    5    0    0  0.50027207575E+02 -0.22320697465E+02  0.11924249981E+03  0.15000849243E+03  0.72683141146E+02 0.  0.
          5    1    5    5  501    0 -0.20910804750E+01  0.16179338976E+02  0.38282172798E+03  0.38319800240E+03  0.47000000000E+01 0. -1.
        -11    1    6    6    0    0  0.16116287009E+02 -0.30188865179E+02  0.10820697905E+03  0.11348943829E+03  0.00000000000E+00 0.  1.
         12    1    6    6    0    0  0.33910920566E+02  0.78681677137E+01  0.11035520757E+02  0.36519054138E+02  0.00000000000E+00 0. -1.
         -5    1    3    3    0  503 -0.49042073072E+02  0.20596729526E+02  0.42648761967E+03  0.42981755424E+03  0.47000000000E+01 0.  1.
         11    1    4    4    0    0 -0.10251513047E+02 -0.34337174858E+02  0.15277401177E+02  0.38955539833E+02  0.00000000000E+00 0. -1.
        -12    1    4    4    0    0  0.11357459019E+02  0.19881803821E+02  0.89408629065E+02  0.92293991948E+02  0.00000000000E+00 0.  1.
</event>
<event>
12    1  0.8258923E-002  0.2122720E+03  0.7818608E-02  0.1139802E+00
         21   -1    0    0  503  502  0.00000000000E+00  0.00000000000E+00  0.26484874133E+03  0.26484874133E+03  0.00000000000E+00 0. -1.
         21   -1    0    0  501  503 -0.00000000000E+00 -0.00000000000E+00 -0.21178657350E+03  0.21178657350E+03  0.00000000000E+00 0. -1.
          6    2    1    2  501    0  0.49142130145E+02  0.11307127971E+03 -0.79270083106E+02  0.22659030461E+03  0.17279860189E+03 0.  0.
         24    2    3    3    0    0  0.46662862149E+02  0.15960876461E+02 -0.88267524173E+02  0.12891932051E+03  0.79980391940E+02 0.  0.
         -6    2    1    2    0  502 -0.49142130145E+02 -0.11307127971E+03  0.13233225094E+03  0.25004501023E+03  0.17265752011E+03 0.  0.
        -24    2    5    5    0    0 -0.16331165730E+02 -0.13067199634E+03  0.14490803273E+03  0.21046490286E+03  0.77170329685E+02 0.  0.
          5    1    3    3  501    0  0.24792679963E+01  0.97110403252E+02  0.89974410666E+01  0.97670984101E+02  0.47000000000E+01 0. -1.
        -13    1    4    4    0    0 -0.66270593550E+01 -0.19486227665E+02 -0.88033678275E+00  0.20601115920E+02  0.00000000000E+00 0.  1.
         14    1    4    4    0    0  0.53289921504E+02  0.35447104127E+02 -0.87387187390E+02  0.10831820459E+03  0.00000000000E+00 0. -1.
         -5    1    5    5    0  502 -0.32810964415E+02  0.17600716623E+02 -0.12575781795E+02  0.39580107368E+02  0.47000000000E+01 0.  1.
         11    1    6    6    0    0  0.14194270339E+02 -0.53524310042E+02  0.16854120784E+02  0.57882557505E+02  0.00000000000E+00 0. -1.
        -12    1    6    6    0    0 -0.30525436069E+02 -0.77147686294E+02  0.12805391195E+03  0.15258234535E+03  0.00000000000E+00 0.  1.
</event>
<event>
12    1  0.8258923E-002  0.1994695E+03  0.7818608E-02  0.1150954E+00
         21   -1    0    0  501  502  0.00000000000E+00  0.00000000000E+00  0.17762411530E+03  0.17762411530E+03  0.00000000000E+00 0.  1.
         21   -1    0    0  502  503 -0.00000000000E+00 -0.00000000000E+00 -0.44802459385E+03  0.44802459385E+03  0.00000000000E+00 0.  1.
         -6    2    1    2    0  503 -0.10035052981E+03 -0.77117164721E+01 -0.35897304004E+03  0.41066984737E+03  0.17221608711E+03 0.  0.
        -24    2    3    3    0    0 -0.61127719682E+02  0.14062843069E+01 -0.35187192975E+03  0.36951061341E+03  0.94792735622E+02 0.  0.
          6    2    1    2  501    0  0.10035052981E+03  0.77117164721E+01  0.88572561491E+02  0.21497886178E+03  0.16805092371E+03 0.  0.
         24    2    5    5    0    0  0.92143310659E+02 -0.39107939698E+02  0.10365805542E+03  0.16488793668E+03  0.80144984644E+02 0.  0.
          5    1    5    5  501    0  0.82072191537E+01  0.46819656171E+02 -0.15085493931E+02  0.50090925099E+02  0.47000000000E+01 0. -1.
        -11    1    6    6    0    0  0.28503518130E+02 -0.25789903159E+02  0.90812450129E+02  0.98612731172E+02  0.00000000000E+00 0.  1.
         12    1    6    6    0    0  0.63639792529E+02 -0.13318036540E+02  0.12845605293E+02  0.66275205513E+02  0.00000000000E+00 0. -1.
         -5    1    3    3    0  503 -0.39222810131E+02 -0.91180007791E+01 -0.71011102857E+01  0.41159233958E+02  0.47000000000E+01 0.  1.
         11    1    4    4    0    0  0.17333194116E+02  0.17180505862E+02 -0.34867838816E+02  0.42560258266E+02  0.00000000000E+00 0. -1.
        -12    1    4    4    0    0 -0.78460913797E+02 -0.15774221555E+02 -0.31700409094E+03  0.32695035515E+03  0.00000000000E+00 0.  1.
</event>
<event>
12    1  0.8258923E-002  0.2247450E+03  0.7818608E-02  0.1130401E+00
         21   -1    0    0  503  502  0.00000000000E+00  0.00000000000E+00  0.58439522606E+03  0.58439522606E+03  0.00000000000E+00 0.  1.
         21   -1    0    0  501  503 -0.00000000000E+00 -0.00000000000E+00 -0.99179789865E+02  0.99179789865E+02  0.00000000000E+00 0.  1.
          6    2    1    2  501    0  0.11986983548E+03 -0.80932750889E+02  0.12001541614E+03  0.25478231011E+03  0.17202162018E+03 0.  0.
         24    2    3    3    0    0  0.97609708106E+02 -0.77103379288E+01  0.12515342665E+03  0.17793490168E+03  0.80064627687E+02 0.  0.
         -6    2    1    2    0  502 -0.11986983548E+03  0.80932750889E+02  0.36520002006E+03  0.42879270582E+03  0.17196872474E+03 0.  0.
        -24    2    5    5    0    0 -0.15013410300E+03  0.42499072302E+02  0.28426936002E+03  0.33410936372E+03  0.80458547376E+02 0.  0.
          5    1    3    3  501    0  0.22260127372E+02 -0.73222412960E+02 -0.51380105087E+01  0.76847408430E+02  0.47000000000E+01 0. -1.
        -11    1    4    4    0    0  0.61080661164E+02 -0.37403845994E+02  0.43832724615E+02  0.83971439255E+02  0.00000000000E+00 0.  1.
         12    1    4    4    0    0  0.36529046942E+02  0.29693508065E+02  0.81320702036E+02  0.93963462428E+02  0.00000000000E+00 0. -1.
         -5    1    5    5    0  502  0.30264267517E+02  0.38433678587E+02  0.80930660035E+02  0.94683342103E+02  0.47000000000E+01 0.  1.
         11    1    6    6    0    0 -0.21467824135E+02 -0.12179259179E+02  0.98889490084E+02  0.10192317242E+03  0.00000000000E+00 0. -1.
        -12    1    6    6    0    0 -0.12866627886E+03  0.54678331481E+02  0.18537986994E+03  0.23218619129E+03  0.00000000000E+00 0.  1.
</event>
<event>
12    1  0.8258923E-002  0.2254306E+03  0.7818608E-02  0.1129916E+00
         21   -1    0    0  501  502  0.00000000000E+00  0.00000000000E+00  0.50437075032E+03  0.50437075032E+03  0.00000000000E+00 0. -1.
         21   -1    0    0  502  503 -0.00000000000E+00 -0.00000000000E+00 -0.20171328447E+03  0.20171328447E+03  0.00000000000E+00 0.  1.
         -6    2    1    2    0  503  0.13551599517E+03 -0.52754317041E+02 -0.98471150568E+02  0.24599905868E+03  0.17225378504E+03 0.  0.
        -24    2    3    3    0    0  0.54116213016E+02 -0.57554038941E+02  0.67339374082E+01  0.11281061173E+03  0.80248715225E+02 0.  0.
          6    2    1    2  501    0 -0.13551599517E+03  0.52754317041E+02  0.40112861642E+03  0.46008497611E+03  0.17212325647E+03 0.  0.
         24    2    5    5    0    0 -0.51492243280E+02  0.28470527384E+01  0.81690170887E+02  0.12599855556E+03  0.80887546363E+02 0.  0.
          5    1    5    5  501    0 -0.84023751890E+02  0.49907264303E+02  0.31943844553E+03  0.33408642055E+03  0.47000000000E+01 0. -1.
        -11    1    6    6    0    0 -0.73144192014E+02  0.56111647081E+01  0.69213523013E+02  0.10085667932E+03  0.00000000000E+00 0.  1.
         12    1    6    6    0    0  0.21651948734E+02 -0.27641119697E+01  0.12476647874E+02  0.25141876246E+02  0.00000000000E+00 0. -1.
         -5    1    3    3    0  503  0.81399782154E+02  0.47997219000E+01 -0.10520508798E+03  0.13318844695E+03  0.47000000000E+01 0.  1.
         13    1    4    4    0    0  0.58159994196E+02 -0.45827586250E+01  0.11531569714E+02  0.59469014634E+02  0.00000000000E+00 0. -1.
        -14    1    4    4    0    0 -0.40437811794E+01 -0.52971280316E+02 -0.47976323058E+01  0.53341597092E+02  0.00000000000E+00 0.  1.
</event>
<event>
12    1  0.8258923E-002  0.2220467E+03  0.7818608E-02  0.1133078E+00
         21   -1    0    0  501  502  0.00000000000E+00  0.00000000000E+00  0.59760146800E+03  0.59760146800E+03  0.00000000000E+00 0. -1.
         21   -1    0    0  502  503 -0.00000000000E+00 -0.00000000000E+00 -0.10054652205E+03  0.10054652205E+03  0.00000000000E+00 0. -1.
         -6    2    1    2    0  503 -0.31004103383E+02 -0.11524280298E+03  0.93223237651E+02  0.23729572865E+03  0.18269245395E+03 0.  0.
        -24    2    3    3    0    0 -0.77446175333E+02 -0.35270112651E+02  0.15353797255E+02  0.11630714657E+03  0.77779961001E+02 0.  0.
          6    2    1    2  501    0  0.31004103383E+02  0.11524280298E+03  0.40383170830E+03  0.46085226140E+03  0.18725010051E+03 0.  0.
         24    2    5    5    0    0 -0.23221956515E+02  0.13079112800E+03  0.23141522164E+03  0.27938118696E+03  0.82796524049E+02 0.  0.
          5    1    5    5  501    0  0.54226059897E+02 -0.15548325023E+02  0.17241648666E+03  0.18147107443E+03  0.47000000000E+01 0. -1.
        -13    1    6    6    0    0 -0.44303987627E+02  0.11573744116E+03  0.21657923365E+03  0.24952868183E+03  0.00000000000E+00 0.  1.
         14    1    6    6    0    0  0.21082031112E+02  0.15053686844E+02  0.14835987990E+02  0.29852505139E+02  0.00000000000E+00 0. -1.
         -5    1    3    3    0  503  0.46442071950E+02 -0.79972690328E+02  0.77869440396E+02  0.12098858208E+03  0.47000000000E+01 0.  1.
         11    1    4    4    0    0 -0.31194398841E+02 -0.56134864280E+02  0.42115060708E+01  0.64357985442E+02  0.00000000000E+00 0. -1.
        -12    1    4    4    0    0 -0.46251776491E+02  0.20864751629E+02  0.11142291184E+02  0.51949161129E+02  0.00000000000E+00 0.  1.
</event>
<event>
12    1  0.8258923E-002  0.2008735E+03  0.7818608E-02  0.1149891E+00
         21   -1    0    0  503  502  0.00000000000E+00  0.00000000000E+00  0.88959350533E+03  0.88959350533E+03  0.00000000000E+00 0.  1.
         21   -1    0    0  501  503 -0.00000000000E+00 -0.00000000000E+00 -0.70194013205E+02  0.70194013205E+02  0.00000000000E+00 0.  1.
          6    2    1    2  501    0 -0.26661538909E+02 -0.91107185895E+02  0.11618585634E+03  0.22844656036E+03  0.17227106765E+03 0.  0.
         24    2    3    3    0    0 -0.40036448774E+02 -0.18830689658E+02  0.13699280141E+01  0.92037002338E+02  0.80693376390E+02 0.  0.
         -6    2    1    2    0  502  0.26661538909E+02  0.91107185895E+02  0.70321363579E+03  0.73134095818E+03  0.17702774520E+03 0.  0.
        -24    2    5    5    0    0 -0.74293915245E+01 -0.14591437565E+02  0.21723039805E+03  0.23280691932E+03  0.82109134307E+02 0.  0.
          5    1    3    3  501    0  0.13374909865E+02 -0.72276496237E+02  0.11481592832E+03  0.13640955802E+03  0.47000000000E+01 0. -1.
        -11    1    4    4    0    0 -0.36926014751E+01 -0.43213326724E+02  0.15484519220E+02  0.46052114476E+02  0.00000000000E+00 0.  1.
         12    1    4    4    0    0 -0.36343847299E+02  0.24382637066E+02 -0.14114591206E+02  0.45984887863E+02  0.00000000000E+00 0. -1.
         -5    1    5    5    0  502  0.34090930434E+02  0.10569862346E+03  0.48598323774E+03  0.49853403886E+03  0.47000000000E+01 0.  1.
         13    1    6    6    0    0  0.30205866793E+02 -0.30346729843E+02  0.11715240886E+03  0.12473173334E+03  0.00000000000E+00 0. -1.
        -14    1    6    6    0    0 -0.37635258317E+02  0.15755292278E+02  0.10007798919E+03  0.10807518598E+03  0.00000000000E+00 0.  1.
</event>
<event>
12    1  0.8258923E-002  0.2809329E+03  0.7818608E-02  0.1095269E+00
         21   -1    0    0  503  502  0.00000000000E+00  0.00000000000E+00  0.82547567171E+03  0.82547567171E+03  0.00000000000E+00 0. -1.
         21   -1    0    0  501  503 -0.00000000000E+00 -0.00000000000E+00 -0.95638620331E+02  0.95638620331E+02  0.00000000000E+00 0.  1.
          6    2    1    2  501    0  0.10049773171E+03 -0.20092552522E+03  0.34177442738E+03  0.44241730463E+03  0.16867854476E+03 0.  0.
         24    2    3    3    0    0  0.13234118915E+03 -0.13978672549E+03  0.22363819485E+03  0.30555891779E+03  0.79357993103E+02 0.  0.
         -6    2    1    2    0  502 -0.10049773171E+03  0.20092552522E+03  0.38806262400E+03  0.47869698741E+03  0.16759279475E+03 0.  0.
        -24    2    5    5    0    0 -0.12080917381E+02  0.46764856233E+02  0.19334174248E+03  0.21502795886E+03  0.80765669466E+02 0.  0.
          5    1    3    3  501    0 -0.31843457447E+02 -0.61138799722E+02  0.11813623252E+03  0.13685838684E+03  0.47000000000E+01 0. -1.
        -13    1    4    4    0    0  0.52722177924E+02 -0.17682876632E+02  0.29993944198E+02  0.63181871289E+02  0.00000000000E+00 0.  1.
         14    1    4    4    0    0  0.79619011231E+02 -0.12210384886E+03  0.19364425066E+03  0.24237704650E+03  0.00000000000E+00 0. -1.
         -5    1    5    5    0  502 -0.88416814326E+02  0.15416066898E+03  0.19472088152E+03  0.26366902855E+03  0.47000000000E+01 0.  1.
         13    1    6    6    0    0 -0.28165272344E+02  0.63431953761E+02  0.16026602846E+03  0.17464849041E+03  0.00000000000E+00 0. -1.
        -14    1    6    6    0    0  0.16084354963E+02 -0.16667097529E+02  0.33075714020E+02  0.40379468453E+02  0.00000000000E+00 0.  1.
</event>
<event>
12    1  0.8258923E-002  0.2174479E+03  0.7818608E-02  0.1138548E+00
         21   -1    0    0  501  502  0.00000000000E+00  0.00000000000E+00  0.39955186780E+03  0.39955186780E+03  0.00000000000E+00 0.  1.
         21   -1    0    0  502  503 -0.00000000000E+00 -0.00000000000E+00 -0.12723924352E+03  0.12723924352E+03  0.00000000000E+00 0.  1.
         -6    2    1    2    0  503 -0.12421699039E+03  0.51915646594E+02  0.45586483054E+02  0.22217501389E+03  0.17075864340E+03 0.  0.
        -24    2    3    3    0    0 -0.12761400709E+03 -0.12164582411E+02  0.47606631404E+02  0.15780121121E+03  0.78749724032E+02 0.  0.
          6    2    1    2  501    0  0.12421699039E+03 -0.51915646594E+02  0.22672614122E+03  0.30461609743E+03  0.15251599470E+03 0.  0.
         24    2    5    5    0    0  0.19132902028E+02 -0.35787329936E+02  0.14594570994E+03  0.17101087185E+03  0.79358472249E+02 0.  0.
          5    1    5    5  501    0  0.10508408836E+03 -0.16128316658E+02  0.80780431281E+02  0.13360522558E+03  0.47000000000E+01 0. -1.
        -11    1    6    6    0    0  0.22776147813E+02 -0.33230850099E+02  0.19985034704E+02  0.44971590139E+02  0.00000000000E+00 0.  1.
         12    1    6    6    0    0 -0.36432457847E+01 -0.25564798376E+01  0.12596067523E+03  0.12603928171E+03  0.00000000000E+00 0. -1.
         -5    1    3    3    0  503  0.33970166959E+01  0.64080229005E+02 -0.20201483508E+01  0.64373802677E+02  0.47000000000E+01 0.  1.
         11    1    4    4    0    0 -0.86734158642E+02  0.67656870365E+01  0.65939960705E+02  0.10916348847E+03  0.00000000000E+00 0. -1.
        -12    1    4    4    0    0 -0.40879848446E+02 -0.18930269447E+02 -0.18333329301E+02  0.48637722743E+02  0.00000000000E+00 0.  1.
</event>
<event>
12    1  0.8258923E-002  0.1816807E+03  0.7818608E-02  0.1166399E+00
         21   -1    0    0  501  502  0.00000000000E+00  0.00000000000E+00  0.63816868465E+03  0.63816868465E+03  0.00000000000E+00 0. -1.
         21   -1    0    0  502  503 -0.00000000000E+00 -0.00000000000E+00 -0.73104795848E+02  0.73104795848E+02  0.00000000000E+00 0. -1.
         -6    2    1    2    0  503 -0.36263284905E+02  0.41485906342E+02  0.88578334324E+02  0.20132606602E+03  0.17219162955E+03 0.  0.
        -24    2    3    3    0    0 -0.23807380490E+02 -0.59905788093E+01  0.11669556051E+03  0.14456485914E+03  0.81721883583E+02 0.  0.
          6    2    1    2  501    0  0.36263284905E+02 -0.41485906342E+02  0.47648555448E+03  0.50994741448E+03  0.17312358492E+03 0.  0.
         24    2    5    5    0    0 -0.68860922973E+01 -0.86846962383E+02  0.33081362581E+03  0.35132240082E+03  0.79999757205E+02 0.  0.
          5    1    5    5  501    0  0.43149377202E+02  0.45361056042E+02  0.14567192867E+03  0.15862501367E+03  0.47000000000E+01 0. -1.
        -11    1    6    6    0    0  0.25915422403E+01 -0.20096597807E+02  0.83999993523E+01  0.21935116223E+02  0.00000000000E+00 0.  1.
         12    1    6    6    0    0 -0.94776345377E+01 -0.66750364576E+02  0.32241362646E+03  0.32938728459E+03  0.00000000000E+00 0. -1.
         -5    1    3    3    0  503 -0.12455904415E+02  0.47476485151E+02 -0.28117226186E+02  0.56761206871E+02  0.47000000000E+01 0.  1.
         13    1    4    4    0    0  0.15130092733E+02  0.28545670954E+02  0.34403025477E+02  0.47194736977E+02  0.00000000000E+00 0. -1.
        -14    1    4    4    0    0 -0.38937473223E+02 -0.34536249763E+02  0.82292535033E+02  0.97370122167E+02  0.00000000000E+00 0.  1.
</event>
<event>
12    1  0.8258923E-002  0.1754912E+03  0.7818608E-02  0.1172386E+00
         21   -1    0    0  501  502  0.00000000000E+00  0.00000000000E+00  0.55173472466E+03  0.55173472466E+03  0.00000000000E+00 0.  1.
         21   -1    0    0  502  503 -0.00000000000E+00 -0.00000000000E+00 -0.84056741290E+02  0.84056741290E+02  0.00000000000E+00 0.  1.
         -6    2    1    2    0  503 -0.38647890481E+02 -0.50912537022E+01  0.49238825729E+02  0.18226795131E+03  0.17110687834E+03 0.  0.
        -24    2    3    3    0    0  0.33746512262E+02 -0.16584478275E+02  0.61549412241E+02  0.10779188603E+03  0.80105483818E+02 0.  0.
          6    2    1    2  501    0  0.38647890481E+02  0.50912537022E+01  0.41843915765E+03  0.45352351464E+03  0.17050709480E+03 0.  0.
         24    2    5    5    0    0  0.21959326189E+02 -0.36217051932E+02  0.11017292597E+03  0.14201903011E+03  0.78977493241E+02 0.  0.
          5    1    5    5  501    0  0.16688564292E+02  0.41308305634E+02  0.30826623168E+03  0.31150448454E+03  0.47000000000E+01 0. -1.
        -11    1    6    6    0    0  0.50102077099E+02 -0.34817173997E+02  0.81624173178E+02  0.10190662089E+03  0.00000000000E+00 0.  1.
         12    1    6    6    0    0 -0.28142750910E+02 -0.13998779352E+01  0.28548752789E+02  0.40112409213E+02  0.00000000000E+00 0. -1.
         -5    1    3    3    0  503 -0.72394402743E+02  0.11493224573E+02 -0.12310586512E+02  0.74476065281E+02  0.47000000000E+01 0.  1.
         13    1    4    4    0    0 -0.16773415592E+01  0.13544031263E+02  0.59712360944E+02  0.61252104512E+02  0.00000000000E+00 0. -1.
        -14    1    4    4    0    0  0.35423853821E+02 -0.30128509538E+02  0.18370512962E+01  0.46539781520E+02  0.00000000000E+00 0.  1.
</event>
<event>
12    1  0.8258923E-002  0.1763256E+03  0.7818608E-02  0.1171484E+00
         21   -1    0    0  503  502  0.00000000000E+00  0.00000000000E+00  0.21835773122E+03  0.21835773122E+03  0.00000000000E+00 0.  1.
         21   -1    0    0  501  503 -0.00000000000E+00 -0.00000000000E+00 -0.19925115788E+03  0.19925115788E+03  0.00000000000E+00 0.  1.
          6    2    1    2  501    0 -0.13980473971E+02  0.17472714043E+02 -0.10223492660E+03  0.20382023024E+03  0.17489984748E+03 0.  0.
         24    2    3    3    0    0  0.42936624433E+02  0.62616259105E+01 -0.49297415438E+01  0.90437543610E+02  0.79195235120E+02 0.  0.
         -6    2    1    2    0  502  0.13980473971E+02 -0.17472714043E+02  0.12134149995E+03  0.21378865886E+03  0.17458832051E+03 0.  0.
        -24    2    5    5    0    0  0.52933892962E+02  0.42222419885E+02  0.62138078814E+02  0.12100928109E+03  0.78723411425E+02 0.  0.
          5    1    3    3  501    0 -0.56917098404E+02  0.11211088132E+02 -0.97305185061E+02  0.11338268663E+03  0.47000000000E+01 0. -1.
        -11    1    4    4    0    0  0.85316769990E+01 -0.23612510152E+02 -0.29445533261E+02  0.38695989160E+02  0.00000000000E+00 0.  1.
         12    1    4    4    0    0  0.34404947434E+02  0.29874136062E+02  0.24515791717E+02  0.51741554450E+02  0.00000000000E+00 0. -1.
         -5    1    5    5    0  502 -0.38953418990E+02 -0.59695133928E+02  0.59203421131E+02  0.92779377769E+02  0.47000000000E+01 0.  1.
         13    1    6    6    0    0 -0.66753969617E+00 -0.20891975839E+02  0.15001159772E+02  0.25728487290E+02  0.00000000000E+00 0. -1.
        -14    1    6    6    0    0  0.53601432658E+02  0.63114395724E+02  0.47136919042E+02  0.95280793801E+02  0.00000000000E+00 0.  1.
</event>
<event>
12    1  0.8258923E-002  0.1763423E+03  0.7818608E-02  0.1172032E+00
         21   -1    0    0  503  502  0.00000000000E+00  0.00000000000E+00  0.40014536226E+03  0.40014536226E+03  0.00000000000E+00 0. -1.
         21   -1    0    0  501  503 -0.00000000000E+00 -0.00000000000E+00 -0.10910910559E+03  0.10910910559E+03  0.00000000000E+00 0. -1.
          6    2    1    2  501    0 -0.17878985409E+02  0.24600607955E+02  0.72568439863E+01  0.17649153111E+03  0.17370017484E+03 0.  0.
         24    2    3    3    0    0  0.54845514971E+02  0.31652727156E+02  0.17907114537E+02  0.10250434571E+03  0.78591033140E+02 0.  0.
         -6    2    1    2    0  502  0.17878985409E+02 -0.24600607955E+02  0.28377941268E+03  0.33276293673E+03  0.17110104900E+03 0.  0.
        -24    2    5    5    0    0  0.28196785617E+02  0.18064668262E+02  0.62181150177E+02  0.10681014799E+03  0.80128155586E+02 0.  0.
          5    1    3    3  501    0 -0.72724500380E+02 -0.70521192017E+01 -0.10650270551E+02  0.73987185401E+02  0.47000000000E+01 0. -1.
        -13    1    4    4    0    0  0.89615006391E+01  0.44032851244E+02  0.29285744855E+02  0.53636324763E+02  0.00000000000E+00 0.  1.
         14    1    4    4    0    0  0.45884014332E+02 -0.12380124087E+02 -0.11378630317E+02  0.48868020950E+02  0.00000000000E+00 0. -1.
         -5    1    5    5    0  502 -0.10317800208E+02 -0.42665276216E+02  0.22159826251E+03  0.22595278874E+03  0.47000000000E+01 0.  1.
         13    1    6    6    0    0  0.40292099228E+02  0.17732213730E+02  0.76378310870E+02  0.88156287554E+02  0.00000000000E+00 0. -1.
        -14    1    6    6    0    0 -0.12095313611E+02  0.33245453193E+00 -0.14197160693E+02  0.18653860435E+02  0.00000000000E+00 0.  1.
</event>
<event>
12    1  0.8258923E-002  0.2250024E+03  0.7818608E-02  0.1130250E+00
         21   -1    0    0  501  502  0.00000000000E+00  0.00000000000E+00  0.16128896423E+03  0.16128896423E+03  0.00000000000E+00 0.  1.
         21   -1    0    0  502  503 -0.00000000000E+00 -0.00000000000E+00 -0.47604744095E+03  0.47604744095E+03  0.00000000000E+00 0. -1.
         -6    2    1    2    0  503  0.68716401445E+02 -0.12773965551E+03 -0.34350337886E+03  0.41050532034E+03  0.17169939815E+03 0.  0.
        -24    2    3    3    0    0  0.80055332406E+02 -0.67634957363E+02 -0.31695007668E+03  0.34365987209E+03  0.81617478981E+02 0.  0.
          6    2    1    2  501    0 -0.68716401445E+02  0.12773965551E+03  0.28744902144E+02  0.22683108484E+03  0.17200787259E+03 0.  0.
         24    2    5    5    0    0 -0.84890304342E+02  0.24525906288E+02  0.14907816747E+02  0.12134066776E+03  0.81813390107E+02 0.  0.
          5    1    5    5  501    0  0.16173902897E+02  0.10321374923E+03  0.13837085397E+02  0.10549041708E+03  0.47000000000E+01 0. -1.
        -13    1    6    6    0    0 -0.82104379123E+01  0.33855481117E+02  0.25774002136E+02  0.43334790625E+02  0.00000000000E+00 0.  1.
         14    1    6    6    0    0 -0.76679866430E+02 -0.93295748292E+01 -0.10866185389E+02  0.78005877132E+02  0.00000000000E+00 0. -1.
         -5    1    3    3    0  503 -0.11338930960E+02 -0.60104698151E+02 -0.26553302177E+02  0.66845448250E+02  0.47000000000E+01 0.  1.
         13    1    4    4    0    0  0.82966358560E+02 -0.82098759036E+02 -0.26316440801E+03  0.28788735389E+03  0.00000000000E+00 0. -1.
        -14    1    4    4    0    0 -0.29110261542E+01  0.14463801673E+02 -0.53785668668E+02  0.55772518198E+02  0.00000000000E+00 0.  1.
</event>
<event>
12    1  0.8258923E-002  0.2317755E+03  0.7818608E-02  0.1125546E+00
         21   -1    0    0  501  502  0.00000000000E+00  0.00000000000E+00  0.10395186601E+03  0.10395186601E+03  0.00000000000E+00 0.  1.
         21   -1    0    0  502  503 -0.00000000000E+00 -0.00000000000E+00 -0.16801406768E+04  0.16801406768E+04  0.00000000000E+00 0.  1.
         -6    2    1    2    0  503 -0.13689380180E+03  0.68502486506E+02 -0.15314369316E+04  0.15488766823E+04  0.17403274945E+03 0.  0.
        -24    2    3    3    0    0 -0.12167025720E+03  0.17245178487E+02 -0.68752688853E+03  0.70326133315E+03  0.82354311225E+02 0.  0.
          6    2    1    2  501    0  0.13689380180E+03 -0.68502486506E+02 -0.44751879184E+02  0.23521586050E+03  0.17289090986E+03 0.  0.
         24    2    5    5    0    0  0.16436566725E+03 -0.44772397947E+02 -0.19306498663E+02  0.19063584385E+03  0.83358526138E+02 0.  0.
          5    1    5    5  501    0 -0.27471865456E+02 -0.23730088559E+02 -0.25445380521E+02  0.44580016650E+02  0.47000000000E+01 0. -1.
        -13    1    6    6    0    0  0.11129707052E+03 -0.32244509917E+02 -0.52055773434E+02  0.12702972043E+03  0.00000000000E+00 0.  1.
         14    1    6    6    0    0  0.53068596734E+02 -0.12527888030E+02  0.32749274771E+02  0.63606123415E+02  0.00000000000E+00 0. -1.
         -5    1    3    3    0  503 -0.15223544602E+02  0.51257308019E+02 -0.84391004308E+03  0.84561534916E+03  0.47000000000E+01 0.  1.
         13    1    4    4    0    0 -0.45690551319E+02  0.82471945955E+01 -0.94186358757E+02  0.10500815623E+03  0.00000000000E+00 0. -1.
        -14    1    4    4    0    0 -0.75979705877E+02  0.89979838912E+01 -0.59334052978E+03  0.59825317692E+03  0.00000000000E+00 0.  1.
</event>
<event>
12    1  0.8258923E-002  0.1789738E+03  0.7818608E-02  0.1168940E+00
         21   -1    0    0  501  502  0.00000000000E+00  0.00000000000E+00  0.24909871978E+03  0.24909871978E+03  0.00000000000E+00 0.  1.
         21   -1    0    0  502  503 -0.00000000000E+00 -0.00000000000E+00 -0.19857532699E+03  0.19857532699E+03  0.00000000000E+00 0.  1.
         -6    2    1    2    0  503 -0.26138102021E+02 -0.40813797878E+02 -0.10803762944E+03  0.20856484888E+03  0.17169216738E+03 0.  0.
        -24    2    3    3    0    0  0.48778811405E+01 -0.61402962690E+02 -0.13271819484E+03  0.16365243157E+03  0.73306763441E+02 0.  0.
          6    2    1    2  501    0  0.26138102021E+02  0.40813797878E+02  0.15856102223E+03  0.23910919789E+03  0.17228651797E+03 0.  0.
         24    2    5    5    0    0 -0.44122548306E+02  0.11689549951E+02  0.45394946741E+02  0.10267814775E+03  0.79991599491E+02 0.  0.
          5    1    5    5  501    0  0.70260650327E+02  0.29124247927E+02  0.11316607549E+03  0.13643105014E+03  0.47000000000E+01 0. -1.
        -11    1    6    6    0    0 -0.11565391531E+02 -0.29956161636E+02 -0.13123970620E+01  0.32138019343E+02  0.00000000000E+00 0.  1.
         12    1    6    6    0    0 -0.32557156775E+02  0.41645711587E+02  0.46707343803E+02  0.70540128409E+02  0.00000000000E+00 0. -1.
         -5    1    3    3    0  503 -0.31015983161E+02  0.20589164812E+02  0.24680565407E+02  0.44912417302E+02  0.47000000000E+01 0.  1.
         11    1    4    4    0    0 -0.24495744537E+02 -0.21543127158E+02 -0.14920216354E+02  0.35871446643E+02  0.00000000000E+00 0. -1.
        -12    1    4    4    0    0  0.29373625677E+02 -0.39859835532E+02 -0.11779797849E+03  0.12778098493E+03  0.00000000000E+00 0.  1.
</event>
<event>
12    1  0.8258923E-002  0.1958649E+03  0.7818608E-02  0.1153319E+00
         21   -1    0    0  503  502  0.00000000000E+00  0.00000000000E+00  0.20337299325E+03  0.20337299325E+03  0.00000000000E+00 0.  1.
         21   -1    0    0  501  503 -0.00000000000E+00 -0.00000000000E+00 -0.78843313747E+03  0.78843313747E+03  0.00000000000E+00 0.  1.
          6    2    1    2  501    0  0.25221450474E+02  0.91180110268E+02 -0.72509514340E+03  0.75103059057E+03  0.17127185088E+03 0.  0.
         24    2    3    3    0    0 -0.45491723974E+00  0.12642453325E+03 -0.58933700563E+03  0.60836382085E+03  0.82492804259E+02 0.  0.
         -6    2    1    2    0  502 -0.25221450474E+02 -0.91180110268E+02  0.14003499919E+03  0.24077554015E+03  0.17150255294E+03 0.  0.
        -24    2    5    5    0    0  0.37575091758E+02 -0.41672721595E+01  0.60056376836E+02  0.10686023205E+03  0.79894224552E+02 0.  0.
          5    1    3    3  501    0  0.25676367713E+02 -0.35244422980E+02 -0.13575813777E+03  0.14266676972E+03  0.47000000000E+01 0. -1.
        -13    1    4    4    0    0  0.18509039293E+02  0.44377610963E+02 -0.90610782668E+02  0.10257812060E+03  0.00000000000E+00 0.  1.
         14    1    4    4    0    0 -0.18963956532E+02  0.82046922284E+02 -0.49872622296E+03  0.50578570025E+03  0.00000000000E+00 0. -1.
         -5    1    5    5    0  502 -0.62796542232E+02 -0.87012838108E+02  0.79978622352E+02  0.13391530811E+03  0.47000000000E+01 0.  1.
         11    1    6    6    0    0 -0.70842774398E+01  0.69588653390E+01  0.60019809717E+02  0.60835765403E+02  0.00000000000E+00 0. -1.
        -12    1    6    6    0    0  0.44659369198E+02 -0.11126137499E+02  0.36567118681E-01  0.46024466645E+02  0.00000000000E+00 0.  1.
</event>
<event>
12    1  0.8258923E-002  0.1822337E+03  0.7818608E-02  0.1165923E+00
         21   -1    0    0  503  502  0.00000000000E+00  0.00000000000E+00  0.38538628350E+02  0.38538628350E+02  0.00000000000E+00 0.  1.
         21   -1    0    0  501  503 -0.00000000000E+00 -0.00000000000E+00 -0.21079580742E+04  0.21079580742E+04  0.00000000000E+00 0.  1.
          6    2    1    2  501    0 -0.45024141832E+02 -0.39767872282E+02 -0.18603787546E+04  0.18691753722E+04  0.17087657611E+03 0.  0.
         24    2    3    3    0    0 -0.15409036251E+02  0.40898896742E+02 -0.11578556422E+04  0.11614006936E+04  0.79446364447E+02 0.  0.
         -6    2    1    2    0  502  0.45024141832E+02  0.39767872282E+02 -0.20904069119E+03  0.27732133035E+03  0.17204782090E+03 0.  0.
        -24    2    5    5    0    0 -0.20511444735E+02  0.47259191137E+02 -0.18204665697E+03  0.20589443871E+03  0.81224282497E+02 0.  0.
          5    1    3    3  501    0 -0.29615105581E+02 -0.80666769024E+02 -0.70252311246E+03  0.70777467858E+03  0.47000000000E+01 0. -1.
        -11    1    4    4    0    0  0.31851302159E+02  0.23952620061E+02 -0.58035798760E+03  0.58172470055E+03  0.00000000000E+00 0.  1.
         12    1    4    4    0    0 -0.47260338410E+02  0.16946276682E+02 -0.57749765455E+03  0.57967599303E+03  0.00000000000E+00 0. -1.
         -5    1    5    5    0  502  0.65535586567E+02 -0.74913188544E+01 -0.26994034228E+02  0.71426891636E+02  0.47000000000E+01 0.  1.
         11    1    6    6    0    0  0.26215772424E+02  0.12404080341E+02 -0.10703209964E+03  0.11089183147E+03  0.00000000000E+00 0. -1.
        -12    1    6    6    0    0 -0.46727217159E+02  0.34855110795E+02 -0.75014557323E+02  0.95002607240E+02  0.00000000000E+00 0.  1.
</event>
<event>
12    1  0.8258923E-002  0.3036068E+03  0.7818608E-02  0.1083910E+00
         21   -1    0    0  501  502  0.00000000000E+00  0.00000000000E+00  0.99895244672E+03  0.99895244672E+03  0.00000000000E+00 0. -1.
         21   -1    0    0  502  503 -0.00000000000E+00 -0.00000000000E+00 -0.94187132136E+02  0.94187132136E+02  0.00000000000E+00 0. -1.
         -6    2    1    2    0  503 -0.22839591306E+03 -0.93088645340E+02  0.35158797602E+03  0.46212271579E+03  0.17062564454E+03 0.  0.
        -24    2    3    3    0    0 -0.20321873753E+03 -0.23165724132E+02  0.29778736748E+03  0.37025487290E+03  0.81097771967E+02 0.  0.
          6    2    1    2  501    0  0.22839591306E+03  0.93088645340E+02  0.55317733856E+03  0.63101686306E+03  0.17705062715E+03 0.  0.
         24    2    5    5    0    0  0.23236781540E+03  0.41690339872E+02  0.48843706578E+03  0.54812564077E+03  0.78345802480E+02 0.  0.
          5    1    5    5  501    0 -0.39719023432E+01  0.51398305468E+02  0.64740272788E+02  0.82891222297E+02  0.47000000000E+01 0. -1.
        -13    1    6    6    0    0 -0.52957483622E+01  0.57618225525E+01  0.99499797341E+01  0.12658816949E+02  0.00000000000E+00 0.  1.
         14    1    6    6    0    0  0.23766356377E+03  0.35928517320E+02  0.47848708604E+03  0.53546682382E+03  0.00000000000E+00 0. -1.
         -5    1    3    3    0  503 -0.25177175530E+02 -0.69922921208E+02  0.53800608533E+02  0.91867842886E+02  0.47000000000E+01 0.  1.
         13    1    4    4    0    0 -0.15650830359E+03  0.15894629850E+02  0.23497784667E+03  0.28277566510E+03  0.00000000000E+00 0. -1.
        -14    1    4    4    0    0 -0.46710433939E+02 -0.39060353981E+02  0.62809520818E+02  0.87479207800E+02  0.00000000000E+00 0.  1.
</event>
<event>
12    1  0.8258923E-002  0.1855396E+03  0.7818608E-02  0.1162706E+00
         21   -1    0    0  501  502  0.00000000000E+00  0.00000000000E+00  0.74589503285E+03  0.74589503285E+03  0.00000000000E+00 0.  1.
         21   -1    0    0  502  503 -0.00000000000E+00 -0.00000000000E+00 -0.15398663103E+03  0.15398663103E+03  0.00000000000E+00 0.  1.
         -6    2    1    2    0  503 -0.11566743335E+02 -0.69037780997E+02 -0.80701796290E+02  0.20233074282E+03  0.17182824218E+03 0.  0.
        -24    2    3    3    0    0  0.53575785569E+02 -0.13351924034E+02 -0.57747704481E+02  0.11348568630E+03  0.80595067758E+02 0.  0.
          6    2    1    2  501    0  0.11566743335E+02  0.69037780997E+02  0.67261019811E+03  0.69755092106E+03  0.17109296922E+03 0.  0.
         24    2    5    5    0    0  0.58506924983E+02  0.89261641611E+02  0.49501462392E+03  0.51268701662E+03  0.80111161443E+02 0.  0.
          5    1    5    5  501    0 -0.46940181648E+02 -0.20223860615E+02  0.17759557419E+03  0.18486390444E+03  0.47000000000E+01 0. -1.
        -11    1    6    6    0    0  0.65003915923E+02  0.34785820892E+02  0.34908491790E+03  0.35678542897E+03  0.00000000000E+00 0.  1.
         12    1    6    6    0    0 -0.64969909400E+01  0.54475820719E+02  0.14592970602E+03  0.15590158765E+03  0.00000000000E+00 0. -1.
         -5    1    3    3    0  503 -0.65142528904E+02 -0.55685856963E+02 -0.22954091809E+02  0.88845056522E+02  0.47000000000E+01 0.  1.
         13    1    4    4    0    0 -0.18400594007E+02  0.10719192835E+02 -0.17595990203E+02  0.27624297749E+02  0.00000000000E+00 0. -1.
        -14    1    4    4    0    0  0.71976379576E+02 -0.24071116869E+02 -0.40151714278E+02  0.85861388549E+02  0.00000000000E+00 0.  1.
</event>
<event>
12    1  0.8258923E-002  0.1900567E+03  0.7818608E-02  0.1158853E+00
         21   -1    0    0  501  502  0.00000000000E+00  0.00000000000E+00  0.48166991356E+03  0.48166991356E+03  0.00000000000E+00 0.  1.
         21   -1    0    0  502  503 -0.00000000000E+00 -0.00000000000E+00 -0.14260558573E+03  0.14260558573E+03  0.00000000000E+00 0.  1.
         -6    2    1    2    0  503 -0.65936177874E+02  0.47259560980E+02 -0.47067660141E+02  0.19390418352E+03  0.16971276351E+03 0.  0.
        -24    2    3    3    0    0  0.18676662709E+02  0.57633918245E+02 -0.12205245754E+02  0.10168467356E+03  0.80748489464E+02 0.  0.
          6    2    1    2  501    0  0.65936177874E+02 -0.47259560980E+02  0.38613198796E+03  0.43037131577E+03  0.17187353390E+03 0.  0.
         24    2    5    5    0    0  0.88016812743E+02 -0.82417035842E+02  0.26605275040E+03  0.30323078027E+03  0.81396025598E+02 0.  0.
          5    1    5    5  501    0 -0.22080634869E+02  0.35157474863E+02  0.12007923756E+03  0.12714053551E+03  0.47000000000E+01 0. -1.
        -11    1    6    6    0    0  0.29069342038E+02 -0.35824595055E+02  0.19298743184E+03  0.19842524312E+03  0.00000000000E+00 0.  1.
         12    1    6    6    0    0  0.58947470705E+02 -0.46592440788E+02  0.73065318558E+02  0.10480553715E+03  0.00000000000E+00 0. -1.
         -5    1    3    3    0  503 -0.84612840583E+02 -0.10374357265E+02 -0.34862414387E+02  0.92219509959E+02  0.47000000000E+01 0.  1.
         13    1    4    4    0    0 -0.42554851466E+01  0.63972704018E+02  0.14690762290E+02  0.65775637663E+02  0.00000000000E+00 0. -1.
        -14    1    4    4    0    0  0.22932147856E+02 -0.63387857732E+01 -0.26896008044E+02  0.35909035897E+02  0.00000000000E+00 0.  1.
</event>
<event>
12    1  0.8258923E-002  0.1886496E+03  0.7818608E-02  0.1160157E+00
         21   -1    0    0  503  502  0.00000000000E+00  0.00000000000E+00  0.92064107245E+02  0.92064107245E+02  0.00000000000E+00 0. -1.
         21   -1    0    0  501  503 -0.00000000000E+00 -0.00000000000E+00 -0.38241262353E+03  0.38241262353E+03  0.00000000000E+00 0. -1.
          6    2    1    2  501    0  0.18741436519E+02  0.75873391342E+02 -0.14135188929E+03  0.23408403027E+03  0.16943129482E+03 0.  0.
         24    2    3    3    0    0  0.21039804695E+02  0.67970391213E+02 -0.17140234253E+03  0.20257435481E+03  0.81209351289E+02 0.  0.
         -6    2    1    2    0  502 -0.18741436519E+02 -0.75873391342E+02 -0.14899662699E+03  0.24039270050E+03  0.17169927968E+03 0.  0.
        -24    2    5    5    0    0 -0.75591183669E+02 -0.39387982346E+02 -0.11374106704E+03  0.16405055403E+03  0.81915283953E+02 0.  0.
          5    1    3    3  501    0 -0.22983681755E+01  0.79030001295E+01  0.30050453244E+02  0.31509675459E+02  0.47000000000E+01 0. -1.
        -13    1    4    4    0    0  0.12284278217E+02 -0.10196703166E+02 -0.23729777218E+01  0.16140237608E+02  0.00000000000E+00 0.  1.
         14    1    4    4    0    0  0.87555264776E+01  0.78167094379E+02 -0.16902936481E+03  0.18643411720E+03  0.00000000000E+00 0. -1.
         -5    1    5    5    0  502  0.56849747150E+02 -0.36485408996E+02 -0.35255559955E+02  0.76342146474E+02  0.47000000000E+01 0.  1.
         11    1    6    6    0    0 -0.14631909561E+01 -0.39758790033E+02 -0.19965989965E+02  0.44514526482E+02  0.00000000000E+00 0. -1.
        -12    1    6    6    0    0 -0.74127992713E+02  0.37080768692E+00 -0.93775077072E+02  0.11953602755E+03  0.00000000000E+00 0.  1.
</event>
<event>
12    1  0.8258923E-002  0.2433343E+03  0.7818608E-02  0.1118140E+00
         21   -1    0    0  501  502  0.00000000000E+00  0.00000000000E+00  0.96044792424E+02  0.96044792424E+02  0.00000000000E+00 0. -1.
         21   -1    0    0  502  503 -0.00000000000E+00 -0.00000000000E+00 -0.63610095696E+03  0.63610095696E+03  0.00000000000E+00 0. -1.
         -6    2    1    2    0  503  0.74246481107E+01 -0.16776506944E+03 -0.34861384135E+03  0.42513904573E+03  0.17610040859E+03 0.  0.
        -24    2    3    3    0    0  0.10780767567E+02 -0.19168043049E+03 -0.25959015126E+03  0.33277825628E+03  0.80602163968E+02 0.  0.
          6    2    1    2  501    0 -0.74246481107E+01  0.16776506944E+03 -0.19144232319E+03  0.30700670365E+03  0.17147218158E+03 0.  0.
         24    2    5    5    0    0 -0.95504739836E+01  0.52975170876E+02 -0.22283098190E+02  0.10251178110E+03  0.84347783115E+02 0.  0.
          5    1    5    5  501    0  0.21258258728E+01  0.11478989856E+03 -0.16915922500E+03  0.20449492255E+03  0.47000000000E+01 0. -1.
        -13    1    6    6    0    0  0.49979566442E+01  0.22792512794E+02 -0.52462712219E+02  0.57417892538E+02  0.00000000000E+00 0.  1.
         14    1    6    6    0    0 -0.14548430628E+02  0.30182658082E+02  0.30179614029E+02  0.45093888561E+02  0.00000000000E+00 0. -1.
         -5    1    3    3    0  503 -0.33561194566E+01  0.23915361058E+02 -0.89023690081E+02  0.92360789451E+02  0.47000000000E+01 0.  1.
         13    1    4    4    0    0 -0.28272875718E+02 -0.13717646297E+03 -0.19110387181E+03  0.23693338160E+03  0.00000000000E+00 0. -1.
        -14    1    4    4    0    0  0.39053643285E+02 -0.54503967524E+02 -0.68486279456E+02  0.95844874685E+02  0.00000000000E+00 0.  1.
</event>
<event>
12    1  0.8258923E-002  0.2081159E+03  0.7818608E-02  0.1143126E+00
         21   -1    0    0  503  502  0.00000000000E+00  0.00000000000E+00  0.22794286659E+03  0.22794286659E+03  0.00000000000E+00 0. -1.
         21   -1    0    0  501  503 -0.00000000000E+00 -0.00000000000E+00 -0.19620075364E+03  0.19620075364E+03  0.00000000000E+00 0. -1.
          6    2    1    2  501    0 -0.42162879742E+02  0.10928797617E+03  0.54333757002E+02  0.21480514025E+03  0.17166106420E+03 0.  0.
         24    2    3    3    0    0  0.43216408888E+02  0.58964928459E+02  0.12030697976E+02  0.10694564432E+03  0.77124006382E+02 0.  0.
         -6    2    1    2    0  502  0.42162879742E+02 -0.10928797617E+03 -0.22591644060E+02  0.20933847998E+03  0.17201932059E+03 0.  0.
        -24    2    5    5    0    0  0.79875271088E+02 -0.27138123457E+02  0.11953318743E+02  0.11245573014E+03  0.73395318212E+02 0.  0.
          5    1    3    3  501    0 -0.85379288630E+02  0.50323047715E+02  0.42303059026E+02  0.10785949592E+03  0.47000000000E+01 0. -1.
        -11    1    4    4    0    0  0.53792121630E+02  0.82626802165E+01  0.78089832687E+01  0.54980400631E+02  0.00000000000E+00 0.  1.
         12    1    4    4    0    0 -0.10575712742E+02  0.50702248243E+02  0.42217147075E+01  0.51965243692E+02  0.00000000000E+00 0. -1.
         -5    1    5    5    0  502 -0.37712391346E+02 -0.82149852717E+02 -0.34544962803E+02  0.96882749846E+02  0.47000000000E+01 0.  1.
         11    1    6    6    0    0  0.52832013684E+02 -0.49212349669E+02 -0.73341915815E+01  0.72573186481E+02  0.00000000000E+00 0. -1.
        -12    1    6    6    0    0  0.27043257404E+02  0.22074226212E+02  0.19287510325E+02  0.39882543655E+02  0.00000000000E+00 0.  1.
</event>
<event>
12    1  0.8258923E-002  0.3221844E+03  0.7818608E-02  0.1074737E+00
         21   -1    0    0  503  502  0.00000000000E+00  0.00000000000E+00  0.37791850434E+03  0.37791850434E+03  0.00000000000E+00 0.  1.
         21   -1    0    0  501  503 -0.00000000000E+00 -0.00000000000E+00 -0.28487730406E+03  0.28487730406E+03  0.00000000000E+00 0. -1.
          6    2    1    2  501    0 -0.26167237726E+03  0.68394636184E+02 -0.18158121630E+02  0.32269565335E+03  0.17507857674E+03 0.  0.
         24    2    3    3    0    0 -0.16792066790E+03  0.11258433093E+03 -0.24476479316E+02  0.21875276628E+03  0.79881740319E+02 0.  0.
         -6    2    1    2    0  502  0.26167237726E+03 -0.68394636184E+02  0.11119932191E+03  0.34010015504E+03  0.17364494519E+03 0.  0.
        -24    2    5    5    0    0  0.81494284317E+02 -0.79272625021E+02  0.63066482457E+02  0.15322764222E+03  0.81091686848E+02 0.  0.
          5    1    3    3  501    0 -0.93751709353E+02 -0.44189694745E+02  0.63183576856E+01  0.10394288707E+03  0.47000000000E+01 0. -1.
        -13    1    4    4    0    0 -0.30976493055E+02  0.28857233834E+02  0.26972195614E+02  0.50197434225E+02  0.00000000000E+00 0.  1.
         14    1    4    4    0    0 -0.13694417485E+03  0.83727097094E+02 -0.51448674929E+02  0.16855533206E+03  0.00000000000E+00 0. -1.
         -5    1    5    5    0  502  0.18017809294E+03  0.10877988837E+02  0.48132839453E+02  0.18687251283E+03  0.47000000000E+01 0.  1.
         11    1    6    6    0    0  0.25802200274E+02  0.15188998024E+02  0.11865126041E+02  0.32206217039E+02  0.00000000000E+00 0. -1.
        -12    1    6    6    0    0  0.55692084043E+02 -0.94461623045E+02  0.51201356415E+02  0.12102142518E+03  0.00000000000E+00 0.  1.
</event>
<event>
12    1  0.8258923E-002  0.1820930E+03  0.7818608E-02  0.1166754E+00
         21   -1    0    0  501  502  0.00000000000E+00  0.00000000000E+00  0.97120441715E+03  0.97120441715E+03  0.00000000000E+00 0. -1.
         21   -1    0    0  502  503 -0.00000000000E+00 -0.00000000000E+00 -0.35408368309E+02  0.35408368309E+02  0.00000000000E+00 0. -1.
         -6    2    1    2    0  503  0.46569394063E+02  0.13640932072E+02  0.59272099240E+03  0.62006130279E+03  0.17550800805E+03 0.  0.
        -24    2    3    3    0    0 -0.40028149711E+02  0.29551699696E+02  0.28662334329E+03  0.30151751003E+03  0.79273653955E+02 0.  0.
          6    2    1    2  501    0 -0.46569394063E+02 -0.13640932072E+02  0.34307505644E+03  0.38655148267E+03  0.17136735661E+03 0.  0.
         24    2    5    5    0    0 -0.22996016547E+02 -0.73355989041E+02  0.23665240434E+03  0.26217518655E+03  0.82592675571E+02 0.  0.
          5    1    5    5  501    0 -0.23573377516E+02  0.59715056969E+02  0.10642265210E+03  0.12437629612E+03  0.47000000000E+01 0. -1.
        -13    1    6    6    0    0  0.13160248566E+02  0.11463514525E+02  0.65278974419E+02  0.67571804836E+02  0.00000000000E+00 0.  1.
         14    1    6    6    0    0 -0.36156265113E+02 -0.84819503566E+02  0.17137342992E+03  0.19460338172E+03  0.00000000000E+00 0. -1.
         -5    1    3    3    0  503  0.86597543773E+02 -0.15910767624E+02  0.30609764911E+03  0.31854379276E+03  0.47000000000E+01 0.  1.
         13    1    4    4    0    0 -0.19342347171E+02  0.31275463540E+02  0.41225432948E+02  0.55243256018E+02  0.00000000000E+00 0. -1.
        -14    1    4    4    0    0 -0.20685802540E+02 -0.17237638440E+01  0.24539791035E+03  0.24627425401E+03  0.00000000000E+00 0.  1.
</event>
<event>
12    1  0.8258923E-002  0.2084446E+03  0.7818608E-02  0.1143368E+00
         21   -1    0    0  501  502  0.00000000000E+00  0.00000000000E+00  0.65379168962E+02  0.65379168962E+02  0.00000000000E+00 0. -1.
         21   -1    0    0  502  503 -0.00000000000E+00 -0.00000000000E+00 -0.85095708966E+03  0.85095708966E+03  0.00000000000E+00 0. -1.
         -6    2    1    2    0  503 -0.56056288071E+02  0.96126795213E+02 -0.61432633955E+03  0.64872645140E+03  0.17625688381E+03 0.  0.
        -24    2    3    3    0    0 -0.60691086910E+02  0.14958542996E+02 -0.18293465162E+03  0.20971546641E+03  0.81291598881E+02 0.  0.
          6    2    1    2  501    0  0.56056288071E+02 -0.96126795213E+02 -0.17125158115E+03  0.26760980722E+03  0.17293130626E+03 0.  0.
         24    2    5    5    0    0  0.91695048121E+01 -0.11180658959E+03 -0.58777900876E+02  0.14466004045E+03  0.69906311427E+02 0.  0.
          5    1    5    5  501    0  0.46886783259E+02  0.15679794374E+02 -0.11247368027E+03  0.12294976677E+03  0.47000000000E+01 0. -1.
        -11    1    6    6    0    0 -0.84259646802E+00 -0.43422519235E+02 -0.61737707947E+02  0.75483572571E+02  0.00000000000E+00 0.  1.
         12    1    6    6    0    0  0.10012101280E+02 -0.68384070352E+02  0.29598070711E+01  0.69176467877E+02  0.00000000000E+00 0. -1.
         -5    1    3    3    0  503  0.46347988390E+01  0.81168252217E+02 -0.43139168793E+03  0.43901098499E+03  0.47000000000E+01 0.  1.
         11    1    4    4    0    0 -0.50933233925E+02  0.18127067092E+02 -0.18981409721E+03  0.19736305728E+03  0.00000000000E+00 0. -1.
        -12    1    4    4    0    0 -0.97578529851E+01 -0.31685240962E+01  0.68794455847E+01  0.12352409133E+02  0.00000000000E+00 0.  1.
</event>
<event>
12    1  0.8258923E-002  0.1945596E+03  0.7818608E-02  0.1154560E+00
         21   -1    0    0  503  502  0.00000000000E+00  0.00000000000E+00  0.36271165884E+03  0.36271165884E+03  0.00000000000E+00 0.  1.
         21   -1    0    0  501  503 -0.00000000000E+00 -0.00000000000E+00 -0.10973728184E+03  0.10973728184E+03  0.00000000000E+00 0.  1.
          6    2    1    2  501    0 -0.85061633093E+02  0.29128063681E+02  0.72267951301E+02  0.20691500849E+03  0.17177671098E+03 0.  0.
         24    2    3    3    0    0 -0.21763094956E+02 -0.27196401055E+02 -0.48977598762E+01  0.92216328291E+02  0.85244276168E+02 0.  0.
         -6    2    1    2    0  502  0.85061633093E+02 -0.29128063681E+02  0.18070642570E+03  0.26553393219E+03  0.17253849233E+03 0.  0.
        -24    2    5    5    0    0  0.66631362912E+02 -0.15926302151E+02  0.24361038627E+02  0.10748352433E+03  0.79157199139E+02 0.  0.
          5    1    3    3  501    0 -0.63298538137E+02  0.56324464736E+02  0.77165711177E+02  0.11469868020E+03  0.47000000000E+01 0. -1.
        -11    1    4    4    0    0  0.41015180765E+01 -0.50836049588E+02  0.13335925135E+02  0.52715968050E+02  0.00000000000E+00 0.  1.
         12    1    4    4    0    0 -0.25864613032E+02  0.23639648533E+02 -0.18233685012E+02  0.39500360241E+02  0.00000000000E+00 0. -1.
         -5    1    5    5    0  502  0.18430270181E+02 -0.13201761530E+02  0.15634538707E+03  0.15805040786E+03  0.47000000000E+01 0.  1.
         13    1    6    6    0    0  0.31421070718E+02 -0.47594093957E+02  0.17348843675E+02  0.59610937264E+02  0.00000000000E+00 0. -1.
        -14    1    6    6    0    0  0.35210292193E+02  0.31667791806E+02  0.70121949521E+01  0.47872587065E+02  0.00000000000E+00 0.  1.
</event>
<event>
12    1  0.8258923E-002  0.2348973E+03  0.7818608E-02  0.1123302E+00
         21   -1    0    0  501  502  0.00000000000E+00  0.00000000000E+00  0.93493711776E+03  0.93493711776E+03  0.00000000000E+00 0.  1.
         21   -1    0    0  502  503 -0.00000000000E+00 -0.00000000000E+00 -0.59050488073E+02  0.59050488073E+02  0.00000000000E+00 0. -1.
         -6    2    1    2    0  503  0.60323649036E+02  0.14701747049E+03  0.41463087868E+03  0.47636456259E+03  0.17248580138E+03 0.  0.
        -24    2    3    3    0    0  0.48835682723E+02  0.98831318827E+01  0.20911681842E+03  0.22898647310E+03  0.78881942903E+02 0.  0.
          6    2    1    2  501    0 -0.60323649036E+02 -0.14701747049E+03  0.46125575101E+03  0.51762304324E+03  0.17298458831E+03 0.  0.
         24    2    5    5    0    0 -0.87349075450E+02 -0.40627998712E+02  0.24974190618E+03  0.27927604844E+03  0.79646696524E+02 0.  0.
          5    1    5    5  501    0  0.27025426414E+02 -0.10638947178E+03  0.21151384483E+03  0.23834699480E+03  0.47000000000E+01 0. -1.
        -11    1    6    6    0    0  0.15277817724E+01  0.80223628674E+00 -0.55432495784E+01  0.58056279671E+01  0.00000000000E+00 0.  1.
         12    1    6    6    0    0 -0.88876857222E+02 -0.41430234999E+02  0.25528515576E+03  0.27347042047E+03  0.00000000000E+00 0. -1.
         -5    1    3    3    0  503  0.11487966312E+02  0.13713433861E+03  0.20551406026E+03  0.24737808949E+03  0.47000000000E+01 0.  1.
         13    1    4    4    0    0  0.67324200296E+02 -0.77109832546E+01  0.15365403578E+03  0.16793323054E+03  0.00000000000E+00 0. -1.
        -14    1    4    4    0    0 -0.18488517573E+02  0.17594115137E+02  0.55462782634E+02  0.61053242559E+02  0.00000000000E+00 0.  1.
</event>
<event>
12    1  0.8258923E-002  0.1969782E+03  0.7818608E-02  0.1152472E+00
         21   -1    0    0  503  502  0.00000000000E+00  0.00000000000E+00  0.94141188956E+03  0.94141188956E+03  0.00000000000E+00 0.  1.
         21   -1    0    0  501  503 -0.00000000000E+00 -0.00000000000E+00 -0.70402349017E+02  0.70402349017E+02  0.00000000000E+00 0. -1.
          6    2    1    2  501    0 -0.85589814873E+02  0.40900366763E+02  0.10843648011E+03  0.22421150249E+03  0.17179601630E+03 0.  0.
         24    2    3    3    0    0 -0.25549657483E+02 -0.88159733251E+01 -0.66710617348E+01  0.85113079918E+02  0.80431504557E+02 0.  0.
         -6    2    1    2    0  502  0.85589814873E+02 -0.40900366763E+02  0.76257306043E+03  0.78760273609E+03  0.17263238685E+03 0.  0.
        -24    2    5    5    0    0  0.79125353419E+02 -0.48067118438E+02  0.76655766477E+03  0.77615203029E+03  0.78930673884E+02 0.  0.
          5    1    3    3  501    0 -0.60040157390E+02  0.49716340088E+02  0.11510754185E+03  0.13909842257E+03  0.47000000000E+01 0. -1.
        -11    1    4    4    0    0 -0.67361776162E+01 -0.31252992152E+02  0.26023704256E+02  0.41223279716E+02  0.00000000000E+00 0.  1.
         12    1    4    4    0    0 -0.18813479866E+02  0.22437018827E+02 -0.32694765991E+02  0.43889800202E+02  0.00000000000E+00 0. -1.
         -5    1    5    5    0  502  0.64644614541E+01  0.71667516757E+01 -0.39846043417E+01  0.11450705796E+02  0.47000000000E+01 0.  1.
         13    1    6    6    0    0  0.36593861301E+02  0.18430730857E+02  0.32774004206E+03  0.33029129219E+03  0.00000000000E+00 0. -1.
        -14    1    6    6    0    0  0.42531492117E+02 -0.66497849296E+02  0.43881762271E+03  0.44586073811E+03  0.00000000000E+00 0.  1.
</event>
<event>
12    1  0.8258923E-002  0.1850189E+03  0.7818608E-02  0.1163137E+00
         21   -1    0    0  501  502  0.00000000000E+00  0.00000000000E+00  0.94741658501E+02  0.94741658501E+02  0.00000000000E+00 0.  1.
         21   -1    0    0  502  503 -0.00000000000E+00 -0.00000000000E+00 -0.38315428198E+03  0.38315428198E+03  0.00000000000E+00 0. -1.
         -6    2    1    2    0  503 -0.10997532413E+02 -0.61619356739E+02 -0.20221776559E+03  0.27378436045E+03  0.17363168047E+03 0.  0.
        -24    2    3    3    0    0 -0.13756153349E+02  0.31224113817E+02 -0.66889020190E+02  0.10957875962E+03  0.79807183250E+02 0.  0.
          6    2    1    2  501    0  0.10997532413E+02  0.61619356739E+02 -0.86194857891E+02  0.20411158003E+03  0.17410942747E+03 0.  0.
         24    2    5    5    0    0 -0.46233823399E+02  0.76089743219E+02 -0.77668642168E+02  0.14428176700E+03  0.82810596324E+02 0.  0.
          5    1    5    5  501    0  0.57231355811E+02 -0.14470386481E+02 -0.85262157225E+01  0.59829813032E+02  0.47000000000E+01 0. -1.
        -11    1    6    6    0    0 -0.14604244280E+02  0.34648594582E+02  0.12924093204E+02  0.39759794298E+02  0.00000000000E+00 0.  1.
         12    1    6    6    0    0 -0.31629579118E+02  0.41441148638E+02 -0.90592735372E+02  0.10452197270E+03  0.00000000000E+00 0. -1.
         -5    1    3    3    0  503  0.27586209365E+01 -0.92843470555E+02 -0.13532874540E+03  0.16420560084E+03  0.47000000000E+01 0.  1.
         13    1    4    4    0    0  0.10713541088E+02  0.36075582187E+02 -0.74527106191E+02  0.83489623008E+02  0.00000000000E+00 0. -1.
        -14    1    4    4    0    0 -0.24469694437E+02 -0.48514683702E+01  0.76380860008E+01  0.26089136608E+02  0.00000000000E+00 0.  1.
</event>
<event>
12    1  0.8258923E-002  0.1872339E+03  0.7818608E-02  0.1161059E+00
         21   -1    0    0  501  502  0.00000000000E+00  0.00000000000E+00  0.16684585307E+03  0.16684585307E+03  0.00000000000E+00 0. -1.
         21   -1    0    0  502  503 -0.00000000000E+00 -0.00000000000E+00 -0.21025875064E+03  0.21025875064E+03  0.00000000000E+00 0. -1.
         -6    2    1    2    0  503  0.54127394582E+00 -0.73515631667E+02 -0.31142382686E+02  0.18946905192E+03  0.17182500563E+03 0.  0.
        -24    2    3    3    0    0  0.61485817535E+02 -0.62776534128E+02 -0.45832248151E+02  0.12569250641E+03  0.77308551936E+02 0.  0.
          6    2    1    2  501    0 -0.54127394582E+00  0.73515631667E+02 -0.12270514885E+02  0.18763555179E+03  0.17219667152E+03 0.  0.
         24    2    5    5    0    0  0.84849684264E+01 -0.89164491376E+01 -0.51926056535E+02  0.95596576456E+02  0.79315145644E+02 0.  0.
          5    1    5    5  501    0 -0.90262423722E+01  0.82432080805E+02  0.39655541649E+02  0.92038975335E+02  0.47000000000E+01 0. -1.
        -13    1    6    6    0    0  0.30001873321E+02 -0.35210501925E+02 -0.28648953027E+02  0.54411895373E+02  0.00000000000E+00 0.  1.
         14    1    6    6    0    0 -0.21516904894E+02  0.26294052788E+02 -0.23277103507E+02  0.41184681083E+02  0.00000000000E+00 0. -1.
         -5    1    3    3    0  503 -0.60944543590E+02 -0.10739097539E+02  0.14689865465E+02  0.63776545506E+02  0.47000000000E+01 0.  1.
         11    1    4    4    0    0  0.12635649674E+02 -0.24136348854E+02 -0.56289560013E+02  0.62535890056E+02  0.00000000000E+00 0. -1.
        -12    1    4    4    0    0  0.48850167862E+02 -0.38640185274E+02  0.10457311862E+02  0.63156616356E+02  0.00000000000E+00 0.  1.
</event>
<event>
12    1  0.8258923E-002  0.1873410E+03  0.7818608E-02  0.1161784E+00
         21   -1    0    0  503  502  0.00000000000E+00  0.00000000000E+00  0.17555631581E+03  0.17555631581E+03  0.00000000000E+00 0.  1.
         21   -1    0    0  501  503 -0.00000000000E+00 -0.00000000000E+00 -0.19615524468E+03  0.19615524468E+03  0.00000000000E+00 0.  1.
          6    2    1    2  501    0  0.53215835843E+02 -0.53861274091E+02 -0.21927709900E+01  0.18346855119E+03  0.16710158287E+03 0.  0.
         24    2    3    3    0    0  0.91397905638E+01 -0.76966330218E+02  0.42076674840E+02  0.11669718592E+03  0.76422737952E+02 0.  0.
         -6    2    1    2    0  502 -0.53215835843E+02  0.53861274091E+02 -0.18406157880E+02  0.18824300930E+03  0.17135834345E+03 0.  0.
        -24    2    5    5    0    0 -0.15479949347E+02  0.68246893936E+02  0.42887250625E+02  0.11469088415E+03  0.80108771536E+02 0.  0.
          5    1    3    3  501    0  0.44076045279E+02  0.23105056127E+02 -0.44269445830E+02  0.66771365271E+02  0.47000000000E+01 0. -1.
        -13    1    4    4    0    0  0.42519322512E+01 -0.11835862797E+02  0.49398646462E+02  0.50974433281E+02  0.00000000000E+00 0.  1.
         14    1    4    4    0    0  0.48878583126E+01 -0.65130467421E+02 -0.73219716223E+01  0.65722752634E+02  0.00000000000E+00 0. -1.
         -5    1    5    5    0  502 -0.37735886496E+02 -0.14385619845E+02 -0.61293408505E+02  0.73552125150E+02  0.47000000000E+01 0.  1.
         11    1    6    6    0    0  0.16084645292E+02 -0.10885031433E+02  0.16553146290E+02  0.25518745572E+02  0.00000000000E+00 0. -1.
        -12    1    6    6    0    0 -0.31564594639E+02  0.79131925369E+02  0.26334104335E+02  0.89172138578E+02  0.00000000000E+00 0.  1.
</event>
<event>
12    1  0.8258923E-002  0.2046136E+03  0.7818608E-02  0.1146334E+00
         21   -1    0    0  503  502  0.00000000000E+00  0.00000000000E+00  0.22437516689E+03  0.22437516689E+03  0.00000000000E+00 0. -1.
         21   -1    0    0  501  503 -0.00000000000E+00 -0.00000000000E+00 -0.19711158539E+03  0.19711158539E+03  0.00000000000E+00 0.  1.
          6    2    1    2  501    0 -0.10318182870E+03  0.41252140203E+02 -0.39201438854E+02  0.20833499486E+03  0.17180945384E+03 0.  0.
         24    2    3    3    0    0  0.44885250231E+01  0.49669970533E+02 -0.36828781664E+02  0.10020782694E+03  0.78727356058E+02 0.  0.
         -6    2    1    2    0  502  0.10318182870E+03 -0.41252140203E+02  0.66465020353E+02  0.21315175742E+03  0.16931581117E+03 0.  0.
        -24    2    5    5    0    0  0.11734475417E+03 -0.22866027740E+01  0.74539413303E+01  0.14087936288E+03  0.77565544933E+02 0.  0.
          5    1    3    3  501    0 -0.10767035373E+03 -0.84178303305E+01 -0.23726571900E+01  0.10812716791E+03  0.47000000000E+01 0. -1.
        -13    1    4    4    0    0 -0.82192463084E+01 -0.12699932007E+02 -0.33163775206E+02  0.36451066771E+02  0.00000000000E+00 0.  1.
         14    1    4    4    0    0  0.12707771332E+02  0.62369902540E+02 -0.36650064579E+01  0.63756760170E+02  0.00000000000E+00 0. -1.
         -5    1    5    5    0  502 -0.14162925465E+02 -0.38965537429E+02  0.59011079023E+02  0.72272394538E+02  0.47000000000E+01 0.  1.
         13    1    6    6    0    0  0.88356876498E+02  0.33617247546E+02  0.47890063064E+01  0.94657231834E+02  0.00000000000E+00 0. -1.
        -14    1    6    6    0    0  0.28987877670E+02 -0.35903850320E+02  0.26649350239E+01  0.46222131045E+02  0.00000000000E+00 0.  1.
</event>
<event>
12    1  0.8258923E-002  0.2036075E+03  0.7818608E-02  0.1147112E+00
         21   -1    0    0  503  502  0.00000000000E+00  0.00000000000E+00  0.75427298604E+02  0.75427298604E+02  0.00000000000E+00 0. -1.
         21   -1    0    0  501  503 -0.00000000000E+00 -0.00000000000E+00 -0.83114446290E+03  0.83114446290E+03  0.00000000000E+00 0. -1.
          6    2    1    2  501    0  0.70629791114E+02  0.79740594750E+02 -0.64285922882E+03  0.67377804765E+03  0.17135267598E+03 0.  0.
         24    2    3    3    0    0  0.43163469360E+02  0.66531943364E+02 -0.19805835010E+03  0.22790948067E+03  0.80162564590E+02 0.  0.
         -6    2    1    2    0  502 -0.70629791114E+02 -0.79740594750E+02 -0.11285793547E+03  0.23279371385E+03  0.17351907609E+03 0.  0.
        -24    2    5    5    0    0  0.38224482901E+01 -0.47815675803E+02 -0.28011863493E+01  0.96057052973E+02  0.83175482069E+02 0.  0.
          5    1    3    3  501    0  0.27466321754E+02  0.13208651385E+02 -0.44480087873E+03  0.44586856698E+03  0.47000000000E+01 0. -1.
        -11    1    4    4    0    0  0.74834610931E+01 -0.18496206766E+02 -0.26897286783E+02  0.33489937160E+02  0.00000000000E+00 0.  1.
         12    1    4    4    0    0  0.35680008267E+02  0.85028150130E+02 -0.17116106331E+03  0.19441954351E+03  0.00000000000E+00 0. -1.
         -5    1    5    5    0  502 -0.74452239404E+02 -0.31924918947E+02 -0.11005674912E+03  0.13673666088E+03  0.47000000000E+01 0.  1.
         11    1    6    6    0    0  0.41078712306E+02 -0.99697790732E+01  0.42489792262E+01  0.42484243243E+02  0.00000000000E+00 0. -1.
        -12    1    6    6    0    0 -0.37256264016E+02 -0.37845896730E+02 -0.70501655755E+01  0.53572809730E+02  0.00000000000E+00 0.  1.
</event>
<event>
12    1  0.8258923E-002  0.2253911E+03  0.7818608E-02  0.1130142E+00
         21   -1    0    0  503  502  0.00000000000E+00  0.00000000000E+00  0.86296215936E+02  0.86296215936E+02  0.00000000000E+00 0. -1.
         21   -1    0    0  501  503 -0.00000000000E+00 -0.00000000000E+00 -0.64482219778E+03  0.64482219778E+03  0.00000000000E+00 0.  1.
          6    2    1    2  501    0  0.13369577910E+03  0.56552635907E+02 -0.38939801362E+03  0.44932877339E+03  0.17085892313E+03 0.  0.
         24    2    3    3    0    0  0.84951277100E+02  0.58761473159E+02 -0.12697003036E+03  0.18236165588E+03  0.80403698402E+02 0.  0.
         -6    2    1    2    0  502 -0.13369577910E+03 -0.56552635907E+02 -0.16912796823E+03  0.28178964033E+03  0.17241916883E+03 0.  0.
        -24    2    5    5    0    0 -0.73247522162E+02  0.16148647956E+02 -0.29128825415E+02  0.11278869822E+03  0.79036849909E+02 0.  0.
          5    1    3    3  501    0  0.48744502000E+02 -0.22088372514E+01 -0.26242798326E+03  0.26696711752E+03  0.47000000000E+01 0. -1.
        -13    1    4    4    0    0  0.79123214999E+02  0.31893292833E+02 -0.12915067357E+03  0.15478230442E+03  0.00000000000E+00 0.  1.
         14    1    4    4    0    0  0.58280621008E+01  0.26868180326E+02  0.21806432097E+01  0.27579351455E+02  0.00000000000E+00 0. -1.
         -5    1    5    5    0  502 -0.60448256937E+02 -0.72701283863E+02 -0.13999914281E+03  0.16900094210E+03  0.47000000000E+01 0.  1.
         11    1    6    6    0    0 -0.78815356961E+02 -0.19368299108E+01 -0.42550656690E+02  0.89588895449E+02  0.00000000000E+00 0. -1.
        -12    1    6    6    0    0  0.55678347993E+01  0.18085477867E+02  0.13421831276E+02  0.23199802775E+02  0.00000000000E+00 0.  1.
</event>
<event>
12    1  0.8258923E-002  0.2284072E+03  0.7818608E-02  0.1129470E+00
         21   -1    0    0  501  502  0.00000000000E+00  0.00000000000E+00  0.21425852070E+03  0.21425852070E+03  0.00000000000E+00 0.  1.
         21   -1    0    0  502  503 -0.00000000000E+00 -0.00000000000E+00 -0.23360213515E+03  0.23360213515E+03  0.00000000000E+00 0. -1.
         -6    2    1    2    0  503  0.98504319632E+01  0.13284400316E+03 -0.82841139131E+01  0.22855736984E+03  0.18554052005E+03 0.  0.
        -24    2    3    3    0    0  0.85859122069E+01  0.16617884132E+03 -0.33525563476E+02  0.18646186863E+03  0.77168256789E+02 0.  0.
          6    2    1    2  501    0 -0.98504319632E+01 -0.13284400316E+03 -0.11059500544E+02  0.21930328601E+03  0.17385930667E+03 0.  0.
         24    2    5    5    0    0 -0.11717392221E+02  0.10497231365E+02 -0.53737699670E+01  0.75760217255E+02  0.73913760343E+02 0.  0.
          5    1    5    5  501    0  0.18669602580E+01 -0.14334123453E+03 -0.56857305766E+01  0.14354306876E+03  0.47000000000E+01 0. -1.
        -11    1    6    6    0    0 -0.32610304022E+02  0.11942315689E+01  0.22550249509E+02  0.39665751856E+02  0.00000000000E+00 0.  1.
         12    1    6    6    0    0  0.20892911801E+02  0.93029997959E+01 -0.27924019476E+02  0.36094465398E+02  0.00000000000E+00 0. -1.
         -5    1    3    3    0  503  0.12645197563E+01 -0.33334838164E+02  0.25241449563E+02  0.42095501205E+02  0.47000000000E+01 0.  1.
         13    1    4    4    0    0  0.52696205211E+01  0.62683701778E+02 -0.51584144034E+02  0.81350717789E+02  0.00000000000E+00 0. -1.
        -14    1    4    4    0    0  0.33162916858E+01  0.10349513955E+03  0.18058580558E+02  0.10511115085E+03  0.00000000000E+00 0.  1.
</event>
<event>
12    1  0.8258923E-002  0.3129185E+03  0.7818608E-02  0.1079011E+00
         21   -1    0    0  501  502  0.00000000000E+00  0.00000000000E+00  0.14864727399E+03  0.14864727399E+03  0.00000000000E+00 0. -1.
         21   -1    0    0  502  503 -0.00000000000E+00 -0.00000000000E+00 -0.70101877551E+03  0.70101877551E+03  0.00000000000E+00 0.  1.
         -6    2    1    2    0  503 -0.24666385751E+03 -0.86884576944E+02 -0.17082730476E+03  0.35651084172E+03  0.17183138217E+03 0.  0.
        -24    2    3    3    0    0 -0.69672317995E+02 -0.82013710707E+02 -0.71139935567E+02  0.15326372126E+03  0.82755043249E+02 0.  0.
          6    2    1    2  501    0  0.24666385751E+03  0.86884576944E+02 -0.38154419676E+03  0.49315520778E+03  0.17097981333E+03 0.  0.
         24    2    5    5    0    0  0.25122783347E+03  0.50064309797E+02 -0.29545243759E+03  0.39929124800E+03  0.80743411014E+02 0.  0.
          5    1    5    5  501    0 -0.45639759605E+01  0.36820267147E+02 -0.86091759173E+02  0.93863959787E+02  0.47000000000E+01 0. -1.
        -13    1    6    6    0    0  0.11099283440E+03  0.44250086804E+02 -0.18700697671E+03  0.22192135726E+03  0.00000000000E+00 0.  1.
         14    1    6    6    0    0  0.14023499907E+03  0.58142229925E+01 -0.10844546088E+03  0.17736989074E+03  0.00000000000E+00 0. -1.
         -5    1    3    3    0  503 -0.17699153951E+03 -0.48708662369E+01 -0.99687369196E+02  0.20324712046E+03  0.47000000000E+01 0.  1.
         11    1    4    4    0    0 -0.46100541909E+02 -0.29366134196E+02  0.80953247810E+01  0.55255443942E+02  0.00000000000E+00 0. -1.
        -12    1    4    4    0    0 -0.23571776086E+02 -0.52647576511E+02 -0.79235260348E+02  0.98008277317E+02  0.00000000000E+00 0.  1.
</event>
<event>
12    1  0.8258923E-002  0.1745638E+03  0.7818608E-02  0.1173706E+00
         21   -1    0    0  501  502  0.00000000000E+00  0.00000000000E+00  0.70816338970E+03  0.70816338970E+03  0.00000000000E+00 0. -1.
         21   -1    0    0  502  503 -0.00000000000E+00 -0.00000000000E+00 -0.48703061083E+02  0.48703061083E+02  0.00000000000E+00 0. -1.
         -6    2    1    2    0  503 -0.70379525856E+01  0.45008603356E+02  0.19305079863E+03  0.25886007057E+03  0.16632684128E+03 0.  0.
        -24    2    3    3    0    0  0.14532749143E+01  0.18112283945E+02  0.21033395168E+03  0.22544884010E+03  0.79098934462E+02 0.  0.
          6    2    1    2  501    0  0.70379525856E+01 -0.45008603356E+02  0.46640952998E+03  0.49800638021E+03  0.16851468161E+03 0.  0.
         24    2    5    5    0    0  0.10475134007E+02 -0.71049601342E+02  0.45839887280E+03  0.47014586297E+03  0.75827644033E+02 0.  0.
          5    1    5    5  501    0 -0.34371814219E+01  0.26040997985E+02  0.80106571794E+01  0.27860517236E+02  0.47000000000E+01 0. -1.
        -11    1    6    6    0    0  0.33760130677E+02 -0.19676229655E+02  0.28837431070E+03  0.29100969659E+03  0.00000000000E+00 0.  1.
         12    1    6    6    0    0 -0.23284996670E+02 -0.51373371687E+02  0.17002456210E+03  0.17913616638E+03  0.00000000000E+00 0. -1.
         -5    1    3    3    0  503 -0.84912274999E+01  0.26896319411E+02 -0.17283153052E+02  0.33411230474E+02  0.47000000000E+01 0.  1.
         11    1    4    4    0    0  0.38252545974E+02  0.20615388648E+02  0.12953306991E+03  0.13662747792E+03  0.00000000000E+00 0. -1.
        -12    1    4    4    0    0 -0.36799271060E+02 -0.25031047034E+01  0.80800881775E+02  0.88821362178E+02  0.00000000000E+00 0.  1.
</event>
<event>
12    1  0.8258923E-002  0.2117583E+03  0.7818608E-02  0.1140915E+00
         21   -1    0    0  501  502  0.00000000000E+00  0.00000000000E+00  0.26849090668E+02  0.26849090668E+02  0.00000000000E+00 0.  1.
         21   -1    0    0  502  503 -0.00000000000E+00 -0.00000000000E+00 -0.17413071654E+04  0.17413071654E+04  0.00000000000E+00 0.  1.
         -6    2    1    2    0  503 -0.88499395812E+02  0.79788891885E+02 -0.63790995506E+03  0.67097921958E+03  0.17054498530E+03 0.  0.
        -24    2    3    3    0    0 -0.36807455721E+02  0.44620448674E+02 -0.57141064636E+03  0.57958379230E+03  0.77855457713E+02 0.  0.
          6    2    1    2  501    0  0.88499395812E+02 -0.79788891885E+02 -0.10765481197E+04  0.10971770365E+04  0.17505194974E+03 0.  0.
         24    2    5    5    0    0  0.98516991110E+02 -0.11076539761E+03 -0.99855689969E+03  0.10125329787E+04  0.78310792499E+02 0.  0.
          5    1    5    5  501    0 -0.10017595298E+02  0.30976505725E+02 -0.77991219980E+02  0.84644057774E+02  0.47000000000E+01 0. -1.
        -11    1    6    6    0    0  0.37806355781E+02 -0.87769250805E+02 -0.73061090968E+03  0.73683448838E+03  0.00000000000E+00 0.  1.
         12    1    6    6    0    0  0.60710635329E+02 -0.22996146804E+02 -0.26794599000E+03  0.27569849033E+03  0.00000000000E+00 0. -1.
         -5    1    3    3    0  503 -0.51691940091E+02  0.35168443211E+02 -0.66499308703E+02  0.91395427272E+02  0.47000000000E+01 0.  1.
         13    1    4    4    0    0 -0.49465821011E+02  0.18774062263E+02 -0.49688970464E+03  0.49969862061E+03  0.00000000000E+00 0. -1.
        -14    1    4    4    0    0  0.12658365291E+02  0.25846386411E+02 -0.74520941716E+02  0.79885171694E+02  0.00000000000E+00 0.  1.
</event>
<event>
12    1  0.8258923E-002  0.1930171E+03  0.7818608E-02  0.1155772E+00
         21   -1    0    0  503  502  0.00000000000E+00  0.00000000000E+00  0.60699372968E+03  0.60699372968E+03  0.00000000000E+00 0.  1.
         21   -1    0    0  501  503 -0.00000000000E+00 -0.00000000000E+00 -0.10177167972E+03  0.10177167972E+03  0.00000000000E+00 0. -1.
          6    2    1    2  501    0  0.54965378603E+02  0.66843879953E+02  0.29325002503E+02  0.19521540301E+03  0.17251029149E+03 0.  0.
         24    2    3    3    0    0  0.76093138071E+02  0.65899944274E+02  0.72518309167E+02  0.14689330688E+03  0.78649667027E+02 0.  0.
         -6    2    1    2    0  502 -0.54965378603E+02 -0.66843879953E+02  0.47589704746E+03  0.51355000638E+03  0.17252916316E+03 0.  0.
        -24    2    5    5    0    0  0.13055983680E+02  0.18934761350E+02  0.22227667747E+03  0.23727068558E+03  0.79758842701E+02 0.  0.
          5    1    3    3  501    0 -0.21127759468E+02  0.94393567836E+00 -0.43193306664E+02  0.48322096139E+02  0.47000000000E+01 0. -1.
        -11    1    4    4    0    0  0.43306448971E+02 -0.87729711577E+01  0.38213813588E+02  0.58418396883E+02  0.00000000000E+00 0.  1.
         12    1    4    4    0    0  0.32786689100E+02  0.74672915432E+02  0.34304495579E+02  0.88474909992E+02  0.00000000000E+00 0. -1.
         -5    1    5    5    0  502 -0.68021362283E+02 -0.85778641302E+02  0.25362036999E+03  0.27627932081E+03  0.47000000000E+01 0.  1.
         11    1    6    6    0    0 -0.13067556148E+02 -0.16651280530E+02  0.16571616896E+02  0.26882050769E+02  0.00000000000E+00 0. -1.
        -12    1    6    6    0    0  0.26123539829E+02  0.35586041880E+02  0.20570506058E+03  0.21038863481E+03  0.00000000000E+00 0.  1.
</event>
<event>
12    1  0.8258923E-002  0.1775860E+03  0.7818608E-02  0.1171024E+00
         21   -1    0    0  503  502  0.00000000000E+00  0.00000000000E+00  0.82497593174E+02  0.82497593174E+02  0.00000000000E+00 0. -1.
         21   -1    0    0  501  503 -0.00000000000E+00 -0.00000000000E+00 -0.40098280381E+03  0.40098280381E+03  0.00000000000E+00 0. -1.
          6    2    1    2  501    0 -0.31633478967E+02 -0.26978038995E+01 -0.22243152976E+03  0.28462705614E+03  0.17472498538E+03 0.  0.
         24    2    3    3    0    0  0.21374074272E+02 -0.38845072187E+02 -0.19405921837E+03  0.21431700167E+03  0.79416662535E+02 0.  0.
         -6    2    1    2    0  502  0.31633478967E+02  0.26978038995E+01 -0.96053680878E+02  0.19885334085E+03  0.17119692292E+03 0.  0.
        -24    2    5    5    0    0  0.13830158403E+02 -0.28540126877E+02  0.14019561839E+02  0.82961256111E+02  0.75367166444E+02 0.  0.
          5    1    3    3  501    0 -0.53007553239E+02  0.36147268288E+02 -0.28372311389E+02  0.70310054463E+02  0.47000000000E+01 0. -1.
        -13    1    4    4    0    0  0.25417523453E+02 -0.62046093583E+02 -0.15154552371E+03  0.16571606435E+03  0.00000000000E+00 0.  1.
         14    1    4    4    0    0 -0.40434491808E+01  0.23201021396E+02 -0.42513694656E+02  0.48600937320E+02  0.00000000000E+00 0. -1.
         -5    1    5    5    0  502  0.17803320564E+02  0.31237930776E+02 -0.11007324272E+03  0.11589208474E+03  0.47000000000E+01 0.  1.
         11    1    6    6    0    0  0.25989960322E+02 -0.36005975749E+02 -0.17992732904E+02  0.47912908120E+02  0.00000000000E+00 0. -1.
        -12    1    6    6    0    0 -0.12159801920E+02  0.74658488723E+01  0.32012294744E+02  0.35048347990E+02  0.00000000000E+00 0.  1.
</event>
<event>
12    1  0.8258923E-002  0.1862733E+03  0.7818608E-02  0.1161972E+00
         21   -1    0    0  501  502  0.00000000000E+00  0.00000000000E+00  0.10109661771E+03  0.10109661771E+03  0.00000000000E+00 0.  1.
         21   -1    0    0  502  503 -0.00000000000E+00 -0.00000000000E+00 -0.34254352806E+03  0.34254352806E+03  0.00000000000E+00 0.  1.
         -6    2    1    2    0  503 -0.18495915191E+02  0.68820605385E+02 -0.11565032559E+03  0.21886797940E+03  0.17160949855E+03 0.  0.
        -24    2    3    3    0    0 -0.17388190223E+01  0.10773400469E+03 -0.47532078439E+02  0.13851103500E+03  0.72913435519E+02 0.  0.
          6    2    1    2  501    0  0.18495915191E+02 -0.68820605385E+02 -0.12579658476E+03  0.22477216637E+03  0.17210279322E+03 0.  0.
         24    2    5    5    0    0 -0.46963807477E+01 -0.97035059539E+02 -0.40284258788E+02  0.13166799941E+03  0.79219832049E+02 0.  0.
          5    1    5    5  501    0  0.23192295938E+02  0.28214454154E+02 -0.85512325967E+02  0.93104166966E+02  0.47000000000E+01 0. -1.
        -11    1    6    6    0    0 -0.13141786229E+02 -0.77155568422E+01  0.18831420726E+02  0.24225168095E+02  0.00000000000E+00 0.  1.
         12    1    6    6    0    0  0.84454054815E+01 -0.89319502697E+02 -0.59115679515E+02  0.10744283131E+03  0.00000000000E+00 0. -1.
         -5    1    3    3    0  503 -0.16757096168E+02 -0.38913399306E+02 -0.68118247150E+02  0.80356944394E+02  0.47000000000E+01 0.  1.
         11    1    4    4    0    0  0.15878690645E+02  0.43003441426E+02  0.13530903873E+02  0.47796591413E+02  0.00000000000E+00 0. -1.
        -12    1    4    4    0    0 -0.17617509668E+02  0.64730563265E+02 -0.61062982311E+02  0.90714443592E+02  0.00000000000E+00 0.  1.
</event>
<event>
12    1  0.8258923E-002  0.2046969E+03  0.7818608E-02  0.1146720E+00
         21   -1    0    0  501  502  0.00000000000E+00  0.00000000000E+00  0.39426716963E+02  0.39426716963E+02  0.00000000000E+00 0.  1.
         21   -1    0    0  502  503 -0.00000000000E+00 -0.00000000000E+00 -0.15930920069E+04  0.15930920069E+04  0.00000000000E+00 0.  1.
         -6    2    1    2    0  503  0.53413865466E+02 -0.95531398071E+02 -0.12628259612E+04  0.12793084954E+04  0.17297840673E+03 0.  0.
        -24    2    3    3    0    0  0.54569350685E+02 -0.74537315211E+01 -0.40766474664E+03  0.41960982534E+03  0.82755590275E+02 0.  0.
          6    2    1    2  501    0 -0.53413865466E+02  0.95531398071E+02 -0.29083932873E+03  0.35321022841E+03  0.16790074829E+03 0.  0.
         24    2    5    5    0    0 -0.89775693409E+02  0.10761854143E+03 -0.22623692291E+03  0.27795172455E+03  0.80203430764E+02 0.  0.
          5    1    5    5  501    0  0.36361827942E+02 -0.12087143356E+02 -0.64602405823E+02  0.75258503865E+02  0.47000000000E+01 0. -1.
        -11    1    6    6    0    0 -0.95227892011E+01  0.65348979776E+02 -0.12934920598E+03  0.14523219258E+03  0.00000000000E+00 0.  1.
         12    1    6    6    0    0 -0.80252904208E+02  0.42269561651E+02 -0.96887716927E+02  0.13271953197E+03  0.00000000000E+00 0. -1.
         -5    1    3    3    0  503 -0.11554852188E+01 -0.88077666550E+02 -0.85516121456E+03  0.85969867011E+03  0.47000000000E+01 0.  1.
         13    1    4    4    0    0 -0.20773286372E+02  0.81216402973E+01 -0.10216698620E+03  0.10457334047E+03  0.00000000000E+00 0. -1.
        -14    1    4    4    0    0  0.75342637057E+02 -0.15575371818E+02 -0.30549776044E+03  0.31503648487E+03  0.00000000000E+00 0.  1.
</event>
<event>
12    1  0.8258923E-002  0.2447209E+03  0.7818608E-02  0.1117175E+00
         21   -1    0    0  501  502  0.00000000000E+00  0.00000000000E+00  0.31918881353E+03  0.31918881353E+03  0.00000000000E+00 0.  1.
         21   -1    0    0  502  503 -0.00000000000E+00 -0.00000000000E+00 -0.27444489963E+03  0.27444489963E+03  0.00000000000E+00 0.  1.
         -6    2    1    2    0  503  0.16603739310E+03 -0.48774860196E+02  0.19158268195E+03  0.31079292510E+03  0.17303443407E+03 0.  0.
        -24    2    3    3    0    0  0.58686960134E+02  0.28976599194E+02  0.12791740125E+03  0.16367133300E+03  0.78368623266E+02 0.  0.
          6    2    1    2  501    0 -0.16603739310E+03  0.48774860196E+02 -0.14683876805E+03  0.28284078806E+03  0.16878946856E+03 0.  0.
         24    2    5    5    0    0 -0.30492546673E+02 -0.22037631123E+01 -0.14408528447E+02  0.86547426515E+02  0.79675588293E+02 0.  0.
          5    1    5    5  501    0 -0.13554484642E+03  0.50978623309E+02 -0.13243023960E+03  0.19629336155E+03  0.47000000000E+01 0. -1.
        -13    1    6    6    0    0 -0.32166469709E+02  0.19152877269E+02 -0.38914218052E+02  0.53998433754E+02  0.00000000000E+00 0.  1.
         14    1    6    6    0    0  0.16739230364E+01 -0.21356640382E+02  0.24505689605E+02  0.32548992761E+02  0.00000000000E+00 0. -1.
         -5    1    3    3    0  503  0.10735043296E+03 -0.77751459391E+02  0.63665280700E+02  0.14712159210E+03  0.47000000000E+01 0.  1.
         11    1    4    4    0    0 -0.37260200361E+01 -0.21503964666E+02  0.26498239058E+02  0.34328710941E+02  0.00000000000E+00 0. -1.
        -12    1    4    4    0    0  0.62412980170E+02  0.50480563860E+02  0.10141916219E+03  0.12934262206E+03  0.00000000000E+00 0.  1.
</event>
<event>
12    1  0.8258923E-002  0.2024593E+03  0.7818608E-02  0.1147863E+00
         21   -1    0    0  501  502  0.00000000000E+00  0.00000000000E+00  0.56481948123E+03  0.56481948123E+03  0.00000000000E+00 0.  1.
         21   -1    0    0  502  503 -0.00000000000E+00 -0.00000000000E+00 -0.83855161084E+02  0.83855161084E+02  0.00000000000E+00 0.  1.
         -6    2    1    2    0  503 -0.53826934548E+02 -0.91197714393E+02  0.12031145109E+03  0.23550923043E+03  0.17255547039E+03 0.  0.
        -24    2    3    3    0    0 -0.64119904462E+02 -0.28563523870E+01  0.26796616986E+02  0.10636878105E+03  0.80478183391E+02 0.  0.
          6    2    1    2  501    0  0.53826934548E+02  0.91197714393E+02  0.36065286906E+03  0.41316541188E+03  0.17152493586E+03 0.  0.
         24    2    5    5    0    0  0.54928076239E+02  0.91441370004E+02  0.37492183770E+03  0.39810004274E+03  0.80861869499E+02 0.  0.
          5    1    5    5  501    0 -0.11011416905E+01 -0.24365561128E+00 -0.14268968645E+02  0.15065369138E+02  0.47000000000E+01 0. -1.
        -11    1    6    6    0    0  0.43676869410E+02  0.94889168973E+02  0.22894235323E+03  0.25164702345E+03  0.00000000000E+00 0.  1.
         12    1    6    6    0    0  0.11251206829E+02 -0.34477989685E+01  0.14597948447E+03  0.14645301929E+03  0.00000000000E+00 0. -1.
         -5    1    3    3    0  503  0.10292969913E+02 -0.88341362006E+02  0.93514834106E+02  0.12914044939E+03  0.47000000000E+01 0.  1.
         11    1    4    4    0    0  0.12678575892E+02  0.47996935121E+01  0.25843912717E+02  0.29183748371E+02  0.00000000000E+00 0. -1.
        -12    1    4    4    0    0 -0.76798480354E+02 -0.76560458991E+01  0.95270426867E+00  0.77185032674E+02  0.00000000000E+00 0.  1.
</event>
<event>
12    1  0.8258923E-002  0.1857598E+03  0.7818608E-02  0.1163379E+00
         21   -1    0    0  501  502  0.00000000000E+00  0.00000000000E+00  0.34160627006E+03  0.34160627006E+03  0.00000000000E+00 0.  1.
         21   -1    0    0  502  503 -0.00000000000E+00 -0.00000000000E+00 -0.18197783770E+03  0.18197783770E+03  0.00000000000E+00 0.  1.
         -6    2    1    2    0  503  0.38731115008E+02  0.57689229255E+02 -0.97869649161E+02  0.20607512531E+03  0.16751221628E+03 0.  0.
        -24    2    3    3    0    0 -0.22830453985E+02  0.25401596627E+02 -0.22124378205E+01  0.87733627605E+02  0.80782571085E+02 0.  0.
          6    2    1    2  501    0 -0.38731115008E+02 -0.57689229255E+02  0.25749808152E+03  0.31750898245E+03  0.17227462235E+03 0.  0.
         24    2    5    5    0    0 -0.14608791768E+02 -0.95676929665E+02  0.13062602931E+03  0.18281095168E+03  0.83601392652E+02 0.  0.
          5    1    5    5  501    0 -0.24122323240E+02  0.37987700410E+02  0.12687205221E+03  0.13469803077E+03  0.47000000000E+01 0. -1.
        -11    1    6    6    0    0 -0.45594215663E+02 -0.80605010463E+02  0.85557083790E+02  0.12607939879E+03  0.00000000000E+00 0.  1.
         12    1    6    6    0    0  0.30985423895E+02 -0.15071919202E+02  0.45068945519E+02  0.56731552884E+02  0.00000000000E+00 0. -1.
         -5    1    3    3    0  503  0.61561568993E+02  0.32287632628E+02 -0.95657211340E+02  0.11834149770E+03  0.47000000000E+01 0.  1.
         13    1    4    4    0    0 -0.37522068977E+02 -0.49043546084E+01 -0.26511123827E+02  0.46203874740E+02  0.00000000000E+00 0. -1.
        -14    1    4    4    0    0  0.14691614991E+02  0.30305951235E+02  0.24298686007E+02  0.41529752864E+02  0.00000000000E+00 0.  1.
</event>
<event>
12    1  0.8258923E-002  0.1988298E+03  0.7818608E-02  0.1150874E+00
         21   -1    0    0  501  502  0.00000000000E+00  0.00000000000E+00  0.46732050630E+02  0.46732050630E+02  0.00000000000E+00 0.  1.
         21   -1    0    0  502  503 -0.00000000000E+00 -0.00000000000E+00 -0.12557622644E+04  0.12557622644E+04  0.00000000000E+00 0.  1.
         -6    2    1    2    0  503  0.65518951334E+02  0.72154071733E+02 -0.97715809640E+03  0.99704712506E+03  0.17252849383E+03 0.  0.
        -24    2    3    3    0    0  0.78445719224E+02  0.37190562649E+02 -0.36565146986E+03  0.38438735602E+03  0.80720339730E+02 0.  0.
          6    2    1    2  501    0 -0.65518951334E+02 -0.72154071733E+02 -0.23187211740E+03  0.30544718999E+03  0.17330425268E+03 0.  0.
         24    2    5    5    0    0 -0.82531207074E+02 -0.16765657729E+01 -0.89120387924E+02  0.14527028167E+03  0.79666807265E+02 0.  0.
          5    1    5    5  501    0  0.17012255740E+02 -0.70477505960E+02 -0.14275172947E+03  0.16017690832E+03  0.47000000000E+01 0. -1.
        -11    1    6    6    0    0 -0.51226421272E+02 -0.32168171133E+02 -0.20408865767E+02  0.63839323871E+02  0.00000000000E+00 0.  1.
         12    1    6    6    0    0 -0.31304785802E+02  0.30491605360E+02 -0.68711522157E+02  0.81430957803E+02  0.00000000000E+00 0. -1.
         -5    1    3    3    0  503 -0.12926767890E+02  0.34963509083E+02 -0.61150662654E+03  0.61265976904E+03  0.47000000000E+01 0.  1.
         13    1    4    4    0    0  0.19588640303E+02  0.40803403164E+02 -0.73300405854E+02  0.86148604383E+02  0.00000000000E+00 0. -1.
        -14    1    4    4    0    0  0.58857078921E+02 -0.36128405148E+01 -0.29235106400E+03  0.29823875164E+03  0.00000000000E+00 0.  1.
</event>
<event>
12    1  0.8258923E-002  0.1773758E+03  0.7818608E-02  0.1171331E+00
         21   -1    0    0  503  502  0.00000000000E+00  0.00000000000E+00  0.83645912227E+03  0.83645912227E+03  0.00000000000E+00 0. -1.
         21   -1    0    0  501  503 -0.00000000000E+00 -0.00000000000E+00 -0.40783503129E+02  0.40783503129E+02  0.00000000000E+00 0. -1.
          6    2    1    2  501    0  0.10384640507E+02  0.42481114462E+02  0.26469394750E+03  0.31862998182E+03  0.17190024323E+03 0.  0.
         24    2    3    3    0    0  0.18970209601E+02  0.36842570056E+02  0.28302954843E+03  0.29709421062E+03  0.80262076209E+02 0.  0.
         -6    2    1    2    0  502 -0.10384640507E+02 -0.42481114462E+02  0.53098167163E+03  0.55861264358E+03  0.16791088145E+03 0.  0.
        -24    2    5    5    0    0 -0.51865483446E+02 -0.65794827495E+02  0.45141700679E+03  0.46578584013E+03  0.78486604918E+02 0.  0.
          5    1    3    3  501    0 -0.85855690938E+01  0.56385444063E+01 -0.18335600928E+02  0.21535771197E+02  0.47000000000E+01 0. -1.
        -13    1    4    4    0    0 -0.17554009617E+02  0.32709200743E+02  0.56513382857E+02  0.67615068652E+02  0.00000000000E+00 0.  1.
         14    1    4    4    0    0  0.36524219218E+02  0.41333693130E+01  0.22651616557E+03  0.22947914197E+03  0.00000000000E+00 0. -1.
         -5    1    5    5    0  502  0.41480842938E+02  0.23313713033E+02  0.79564664848E+02  0.92826803450E+02  0.47000000000E+01 0.  1.
         13    1    6    6    0    0 -0.40695870617E+02  0.64162412312E+01  0.18485216139E+03  0.18938754871E+03  0.00000000000E+00 0. -1.
        -14    1    6    6    0    0 -0.11169612829E+02 -0.72211068726E+02  0.26656484540E+03  0.27639829142E+03  0.00000000000E+00 0.  1.
</event>
<event>
12    1  0.8258923E-002  0.2057122E+03  0.7818608E-02  0.1145174E+00
         21   -1    0    0  503  502  0.00000000000E+00  0.00000000000E+00  0.28645582440E+02  0.28645582440E+02  0.00000000000E+00 0.  1.
         21   -1    0    0  501  503 -0.00000000000E+00 -0.00000000000E+00 -0.14743567950E+04  0.14743567950E+04  0.00000000000E+00 0.  1.
          6    2    1    2  501    0 -0.63478056853E+02  0.92660258003E+02 -0.75793499776E+03  0.78535531704E+03  0.17234304758E+03 0.  0.
         24    2    3    3    0    0  0.32225069707E+02  0.59587136192E+02 -0.33791409665E+03  0.35327596415E+03  0.77645915632E+02 0.  0.
         -6    2    1    2    0  502  0.63478056853E+02 -0.92660258003E+02 -0.68777621480E+03  0.71764706040E+03  0.17136450785E+03 0.  0.
        -24    2    5    5    0    0 -0.23512893076E+02 -0.10020379425E+02 -0.21845452701E+03  0.23320747539E+03  0.77524719037E+02 0.  0.
          5    1    3    3  501    0 -0.95703126560E+02  0.33073121811E+02 -0.42002090112E+03  0.43207935289E+03  0.47000000000E+01 0. -1.
        -13    1    4    4    0    0 -0.93423889474E+01 -0.99868300592E+01 -0.14792178189E+02  0.20145112098E+02  0.00000000000E+00 0.  1.
         14    1    4    4    0    0  0.41567458655E+02  0.69573966251E+02 -0.32312191846E+03  0.33313085205E+03  0.00000000000E+00 0. -1.
         -5    1    5    5    0  502  0.86990949929E+02 -0.82639878578E+02 -0.46932168779E+03  0.48443958502E+03  0.47000000000E+01 0.  1.
         11    1    6    6    0    0  0.89885741619E+01  0.81162922643E+00  0.26959155275E+01  0.94191914726E+01  0.00000000000E+00 0. -1.
        -12    1    6    6    0    0 -0.32501467238E+02 -0.10832008651E+02 -0.22115044253E+03  0.22378828391E+03  0.00000000000E+00 0.  1.
</event>
<event>
12    1  0.8258923E-002  0.1945174E+03  0.7818608E-02  0.1155262E+00
         21   -1    0    0  501  502  0.00000000000E+00  0.00000000000E+00  0.54237884536E+03  0.54237884536E+03  0.00000000000E+00 0.  1.
         21   -1    0    0  502  503 -0.00000000000E+00 -0.00000000000E+00 -0.10354718092E+03  0.10354718092E+03  0.00000000000E+00 0. -1.
         -6    2    1    2    0  503 -0.44233522727E+02 -0.78755883178E+02  0.32773728217E+02  0.19725906026E+03  0.17227282411E+03 0.  0.
        -24    2    3    3    0    0 -0.71832900162E+02 -0.45636854402E+02  0.73989558241E+02  0.13743071960E+03  0.78549729058E+02 0.  0.
          6    2    1    2  501    0  0.44233522727E+02  0.78755883178E+02  0.40605793622E+03  0.44866696602E+03  0.16810682664E+03 0.  0.
         24    2    5    5    0    0 -0.22066017259E+01  0.85670296032E+02  0.15644349341E+03  0.19463162532E+03  0.77862919493E+02 0.  0.
          5    1    5    5  501    0  0.46440124453E+02 -0.69144128541E+01  0.24961444281E+03  0.25403534070E+03  0.47000000000E+01 0. -1.
        -11    1    6    6    0    0  0.31520216675E+02  0.40482029018E+02  0.11074307924E+03  0.12205059742E+03  0.00000000000E+00 0.  1.
         12    1    6    6    0    0 -0.33726818401E+02  0.45188267014E+02  0.45700414169E+02  0.72581027896E+02  0.00000000000E+00 0. -1.
         -5    1    3    3    0  503  0.27599377435E+02 -0.33119028776E+02 -0.41215830024E+02  0.59828340662E+02  0.47000000000E+01 0.  1.
         13    1    4    4    0    0 -0.27391423376E+02  0.20810926879E+02  0.32678898370E+02  0.47447815026E+02  0.00000000000E+00 0. -1.
        -14    1    4    4    0    0 -0.44441476786E+02 -0.66447781281E+02  0.41310659871E+02  0.89982904571E+02  0.00000000000E+00 0.  1.
</event>
<event>
12    1  0.8258923E-002  0.3809808E+03  0.7818608E-02  0.1050848E+00
         21   -1    0    0  501  502  0.00000000000E+00  0.00000000000E+00  0.12956930286E+03  0.12956930286E+03  0.00000000000E+00 0. -1.
         21   -1    0    0  502  503 -0.00000000000E+00 -0.00000000000E+00 -0.11889822123E+04  0.11889822123E+04  0.00000000000E+00 0.  1.
         -6    2    1    2    0  503  0.22417026698E+03  0.24978254928E+03 -0.35943326411E+03  0.52160869860E+03  0.17389575203E+03 0.  0.
        -24    2    3    3    0    0  0.38100287733E+02  0.39343797952E+02 -0.83705118093E+02  0.12796595988E+03  0.79807103252E+02 0.  0.
          6    2    1    2  501    0 -0.22417026698E+03 -0.24978254928E+03 -0.69997964532E+03  0.79694281656E+03  0.18028510334E+03 0.  0.
         24    2    5    5    0    0 -0.15602687275E+03 -0.86244141165E+02 -0.28154870511E+03  0.34252574511E+03  0.79194544047E+02 0.  0.
          5    1    5    5  501    0 -0.68143394230E+02 -0.16353840812E+03 -0.41843094021E+03  0.45441707145E+03  0.47000000000E+01 0. -1.
        -13    1    6    6    0    0 -0.55233207889E+02  0.16970010962E+01 -0.12462463033E+03  0.13632639345E+03  0.00000000000E+00 0.  1.
         14    1    6    6    0    0 -0.10079366486E+03 -0.87941142261E+02 -0.15692407479E+03  0.20619935166E+03  0.00000000000E+00 0. -1.
         -5    1    3    3    0  503  0.18606997925E+03  0.21043875133E+03 -0.27572814602E+03  0.39364273872E+03  0.47000000000E+01 0.  1.
         11    1    4    4    0    0  0.15382815722E+02  0.43253534176E+02 -0.52644851457E+01  0.46208376319E+02  0.00000000000E+00 0. -1.
        -12    1    4    4    0    0  0.22717472011E+02 -0.39097362240E+01 -0.78440632947E+02  0.81757583557E+02  0.00000000000E+00 0.  1.
</event>
<event>
12    1  0.8258923E-002  0.2159406E+03  0.7818608E-02  0.1137338E+00
         21   -1    0    0  503  502  0.00000000000E+00  0.00000000000E+00  0.53629327703E+03  0.53629327703E+03  0.00000000000E+00 0.  1.
         21   -1    0    0  501  503 -0.00000000000E+00 -0.00000000000E+00 -0.10577875623E+03  0.10577875623E+03  0.00000000000E+00 0. -1.
          6    2    1    2  501    0 -0.26400714647E+02 -0.12542232814E+03  0.76057139175E+02  0.22701736312E+03  0.17124379290E+03 0.  0.
         24    2    3    3    0    0 -0.78666964378E+02 -0.11256296408E+03  0.42221024251E+02  0.16326709427E+03  0.77553961962E+02 0.  0.
         -6    2    1    2    0  502  0.26400714647E+02  0.12542232814E+03  0.35445738163E+03  0.41505467014E+03  0.17378891129E+03 0.  0.
        -24    2    5    5    0    0  0.66599022544E+02  0.13663167804E+03  0.25795583110E+03  0.30981117753E+03  0.79612245764E+02 0.  0.
          5    1    3    3  501    0  0.52266249730E+02 -0.12859364058E+02  0.33836114924E+02  0.63750268846E+02  0.47000000000E+01 0. -1.
        -13    1    4    4    0    0 -0.34298738329E+02 -0.35413380752E+02  0.54427551850E+02  0.73436158584E+02  0.00000000000E+00 0.  1.
         14    1    4    4    0    0 -0.44368226049E+02 -0.77149583326E+02 -0.12206527599E+02  0.89830935685E+02  0.00000000000E+00 0. -1.
         -5    1    5    5    0  502 -0.40198307897E+02 -0.11209349904E+02  0.96501550528E+02  0.10524349261E+03  0.47000000000E+01 0.  1.
         11    1    6    6    0    0 -0.14110416996E+02  0.41037218145E+02  0.42959789537E+02  0.61063087524E+02  0.00000000000E+00 0. -1.
        -12    1    6    6    0    0  0.80709439540E+02  0.95594459895E+02  0.21499604156E+03  0.24874809000E+03  0.00000000000E+00 0.  1.
</event>
<event>
12    1  0.8258923E-002  0.2377796E+03  0.7818608E-02  0.1121420E+00
         21   -1    0    0  501  502  0.00000000000E+00  0.00000000000E+00  0.14287115536E+04  0.14287115536E+04  0.00000000000E+00 0. -1.
         21   -1    0    0  502  503 -0.00000000000E+00 -0.00000000000E+00 -0.58716126619E+02  0.58716126619E+02  0.00000000000E+00 0.  1.
         -6    2    1    2    0  503 -0.90070933403E+02 -0.13561925494E+03  0.25963444957E+03  0.35206419967E+03  0.17330261951E+03 0.  0.
        -24    2    3    3    0    0 -0.41091581877E+02  0.41858082336E+01  0.95375817110E+02  0.13082355941E+03  0.79449468939E+02 0.  0.
          6    2    1    2  501    0  0.90070933403E+02  0.13561925494E+03  0.11103609774E+04  0.11353634806E+04  0.17217252238E+03 0.  0.
         24    2    5    5    0    0  0.91315864671E+01  0.57114960668E+01  0.48171095560E+03  0.48833168565E+03  0.79412740803E+02 0.  0.
          5    1    5    5  501    0  0.80939346936E+02  0.12990775888E+03  0.62865002184E+03  0.64703179494E+03  0.47000000000E+01 0. -1.
        -11    1    6    6    0    0  0.37560788178E+02  0.15839640798E+02  0.15644429089E+03  0.16166794110E+03  0.00000000000E+00 0.  1.
         12    1    6    6    0    0 -0.28429201711E+02 -0.10128144731E+02  0.32526666472E+03  0.32666374455E+03  0.00000000000E+00 0. -1.
         -5    1    3    3    0  503 -0.48979351526E+02 -0.13980506318E+03  0.16425863246E+03  0.22124064026E+03  0.47000000000E+01 0.  1.
         11    1    4    4    0    0  0.54042803960E+01 -0.40335123872E+01  0.81263658516E+02  0.81542980471E+02  0.00000000000E+00 0. -1.
        -12    1    4    4    0    0 -0.46495862273E+02  0.82193206208E+01  0.14112158594E+02  0.49280578935E+02  0.00000000000E+00 0.  1.
</event>
<event>
12    1  0.8258923E-002  0.1934577E+03  0.7818608E-02  0.1157007E+00
         21   -1    0    0  503  502  0.00000000000E+00  0.00000000000E+00  0.10651227724E+04  0.10651227724E+04  0.00000000000E+00 0. -1.
         21   -1    0    0  501  503 -0.00000000000E+00 -0.00000000000E+00 -0.34170143680E+02  0.34170143680E+02  0.00000000000E+00 0.  1.
          6    2    1    2  501    0  0.38510969705E+02 -0.71670329049E+02  0.57969261589E+03  0.61112144368E+03  0.17551683439E+03 0.  0.
         24    2    3    3    0    0 -0.28314873034E+02 -0.45652056139E+02  0.17244804699E+03  0.19758441671E+03  0.80096382864E+02 0.  0.
         -6    2    1    2    0  502 -0.38510969705E+02  0.71670329049E+02  0.45126001283E+03  0.48817147240E+03  0.16749942219E+03 0.  0.
        -24    2    5    5    0    0 -0.61989824003E+02 -0.46078015955E+01  0.29312820354E+03  0.31097844510E+03  0.83183408760E+02 0.  0.
          5    1    3    3  501    0  0.66825842739E+02 -0.26018272910E+02  0.40724456890E+03  0.41353702698E+03  0.47000000000E+01 0. -1.
        -11    1    4    4    0    0 -0.20424956438E+02  0.40540332771E+01  0.32694732763E+01  0.21078507699E+02  0.00000000000E+00 0.  1.
         12    1    4    4    0    0 -0.78899165964E+01 -0.49706089416E+02  0.16917857372E+03  0.17650590901E+03  0.00000000000E+00 0. -1.
         -5    1    5    5    0  502  0.23478854298E+02  0.76278130645E+02  0.15813180929E+03  0.17719302730E+03  0.47000000000E+01 0.  1.
         11    1    6    6    0    0 -0.24534116912E+01 -0.19652578323E+02  0.11859680158E+02  0.23084520292E+02  0.00000000000E+00 0. -1.
        -12    1    6    6    0    0 -0.59536412311E+02  0.15044776728E+02  0.28126852338E+03  0.28789392481E+03  0.00000000000E+00 0.  1.
</event>
<event>
12    1  0.8258923E-002  0.1810864E+03  0.7818608E-02  0.1166971E+00
         21   -1    0    0  503  502  0.00000000000E+00  0.00000000000E+00  0.59540319014E+03  0.59540319014E+03  0.00000000000E+00 0. -1.
         21   -1    0    0  501  503 -0.00000000000E+00 -0.00000000000E+00 -0.61648013974E+02  0.61648013974E+02  0.00000000000E+00 0. -1.
          6    2    1    2  501    0 -0.46497751465E+02  0.29108930205E+02  0.15683328561E+03  0.23888570891E+03  0.17164012275E+03 0.  0.
         24    2    3    3    0    0 -0.13427079768E+02 -0.37545141139E+02  0.35131910000E+02  0.96163077987E+02  0.80144634090E+02 0.  0.
         -6    2    1    2    0  502  0.46497751465E+02 -0.29108930205E+02  0.37692189056E+03  0.41816549520E+03  0.17257722644E+03 0.  0.
        -24    2    5    5    0    0  0.94772392315E+02 -0.41386224455E+02  0.30321248804E+03  0.32907936316E+03  0.75238211248E+02 0.  0.
          5    1    3    3  501    0 -0.33070671696E+02  0.66654071345E+02  0.12170137561E+03  0.14272263093E+03  0.47000000000E+01 0. -1.
        -11    1    4    4    0    0  0.11360550548E+02  0.53326231971E+01  0.44082173149E+02  0.45833797229E+02  0.00000000000E+00 0.  1.
         12    1    4    4    0    0 -0.24787630316E+02 -0.42877764336E+02 -0.89502631488E+01  0.50329280758E+02  0.00000000000E+00 0. -1.
         -5    1    5    5    0  502 -0.48274640850E+02  0.12277294249E+02  0.73709402511E+02  0.89086132040E+02  0.47000000000E+01 0.  1.
         11    1    6    6    0    0  0.23935428137E+02  0.20126651771E+02  0.10894189985E+03  0.11334162684E+03  0.00000000000E+00 0. -1.
        -12    1    6    6    0    0  0.70836964178E+02 -0.61512876225E+02  0.19427058820E+03  0.21573773632E+03  0.00000000000E+00 0.  1.
</event>
<event>
12    1  0.8258923E-002  0.1770079E+03  0.7818608E-02  0.1171080E+00
         21   -1    0    0  501  502  0.00000000000E+00  0.00000000000E+00  0.23975365120E+04  0.23975365120E+04  0.00000000000E+00 0. -1.
         21   -1    0    0  502  503 -0.00000000000E+00 -0.00000000000E+00 -0.14640374846E+02  0.14640374846E+02  0.00000000000E+00 0. -1.
         -6    2    1    2    0  503 -0.34715197535E+02 -0.19655306267E+02  0.77922061257E+03  0.79876219226E+03  0.17101111287E+03 0.  0.
        -24    2    3    3    0    0  0.31543773502E+02 -0.27803541470E+01  0.23386050825E+03  0.24911253235E+03  0.79772027932E+02 0.  0.
          6    2    1    2  501    0  0.34715197535E+02  0.19655306267E+02  0.16036755246E+04  0.16134146946E+04  0.17245379830E+03 0.  0.
         24    2    5    5    0    0  0.55975299373E+02 -0.39209272073E+01  0.15288862017E+04  0.15320306449E+04  0.80475285367E+02 0.  0.
          5    1    5    5  501    0 -0.21260101839E+02  0.23576233475E+02  0.74789322883E+02  0.81384049619E+02  0.47000000000E+01 0. -1.
        -11    1    6    6    0    0  0.64105667812E+02  0.97115277606E+01  0.70094753118E+03  0.70393983541E+03  0.00000000000E+00 0.  1.
         12    1    6    6    0    0 -0.81303684387E+01 -0.13632454968E+02  0.82793867050E+03  0.82809080953E+03  0.00000000000E+00 0. -1.
         -5    1    3    3    0  503 -0.66258971037E+02 -0.16874952120E+02  0.54536010432E+03  0.54964965991E+03  0.47000000000E+01 0.  1.
         13    1    4    4    0    0 -0.10993321099E+02  0.17569735770E+02  0.15933696045E+02  0.26142520794E+02  0.00000000000E+00 0. -1.
        -14    1    4    4    0    0  0.42537094601E+02 -0.20350089917E+02  0.21792681221E+03  0.22297001156E+03  0.00000000000E+00 0.  1.
</event>
<event>
12    1  0.8258923E-002  0.1761207E+03  0.7818608E-02  0.1171730E+00
         21   -1    0    0  503  502  0.00000000000E+00  0.00000000000E+00  0.11351515409E+03  0.11351515409E+03  0.00000000000E+00 0.  1.
         21   -1    0    0  501  503 -0.00000000000E+00 -0.00000000000E+00 -0.29656734103E+03  0.29656734103E+03  0.00000000000E+00 0.  1.
          6    2    1    2  501    0 -0.57664838585E+01  0.39063900186E+02 -0.14980593819E+03  0.23085134900E+03  0.17114697071E+03 0.  0.
         24    2    3    3    0    0  0.33313202644E+02  0.74228097350E+02 -0.64089522030E+02  0.13018786675E+03  0.78878602349E+02 0.  0.
         -6    2    1    2    0  502  0.57664838585E+01 -0.39063900186E+02 -0.33246248750E+02  0.17923114611E+03  0.17163697168E+03 0.  0.
        -24    2    5    5    0    0 -0.48801935053E+02 -0.38007359763E+02  0.19305910893E+02  0.10331903836E+03  0.80473083897E+02 0.  0.
          5    1    3    3  501    0 -0.39079686502E+02 -0.35164197163E+02 -0.85716416162E+02  0.10066348225E+03  0.47000000000E+01 0. -1.
        -13    1    4    4    0    0 -0.23736879770E+02  0.30114258178E+02 -0.36605546997E+02  0.53012018239E+02  0.00000000000E+00 0.  1.
         14    1    4    4    0    0  0.57050082414E+02  0.44113839172E+02 -0.27483975033E+02  0.77175848512E+02  0.00000000000E+00 0. -1.
         -5    1    5    5    0  502  0.54568418912E+02 -0.10565404239E+01 -0.52552159643E+02  0.75912107752E+02  0.47000000000E+01 0.  1.
         11    1    6    6    0    0 -0.29167428360E+02  0.22933968993E+02  0.11345580006E+02  0.38799845317E+02  0.00000000000E+00 0. -1.
        -12    1    6    6    0    0 -0.19634506693E+02 -0.60941328755E+02  0.79603308864E+01  0.64519193046E+02  0.00000000000E+00 0.  1.
</event>
<event>
12    1  0.8258923E-002  0.2119763E+03  0.7818608E-02  0.1140340E+00
         21   -1    0    0  501  502  0.00000000000E+00  0.00000000000E+00  0.12584624771E+04  0.12584624771E+04  0.00000000000E+00 0. -1.
         21   -1    0    0  502  503 -0.00000000000E+00 -0.00000000000E+00 -0.38314747243E+02  0.38314747243E+02  0.00000000000E+00 0. -1.
         -6    2    1    2    0  503 -0.11687456834E+03  0.33232314015E+02  0.42970894046E+03  0.47840847006E+03  0.17164160128E+03 0.  0.
        -24    2    3    3    0    0 -0.12401161511E+03 -0.50252295015E+01  0.22136476320E+03  0.26640855668E+03  0.81037195618E+02 0.  0.
          6    2    1    2  501    0  0.11687456834E+03 -0.33232314015E+02  0.79043878938E+03  0.81836875427E+03  0.17369480933E+03 0.  0.
         24    2    5    5    0    0  0.58042300726E+02  0.47330393767E+02  0.36437644019E+03  0.38075842419E+03  0.81226304706E+02 0.  0.
          5    1    5    5  501    0  0.58832267619E+02 -0.80562707782E+02  0.42606234918E+03  0.43761033008E+03  0.47000000000E+01 0. -1.
        -11    1    6    6    0    0 -0.92996970671E+01 -0.15626562978E+02  0.66658331356E+02  0.69094189157E+02  0.00000000000E+00 0.  1.
         12    1    6    6    0    0  0.67341997793E+02  0.62956956745E+02  0.29771810884E+03  0.31166423503E+03  0.00000000000E+00 0. -1.
         -5    1    3    3    0  503  0.71370467615E+01  0.38257543516E+02  0.20834417727E+03  0.21199991338E+03  0.47000000000E+01 0.  1.
         11    1    4    4    0    0 -0.10194956272E+03 -0.51282056901E+01  0.22199261255E+03  0.24433733210E+03  0.00000000000E+00 0. -1.
        -12    1    4    4    0    0 -0.22062052384E+02  0.10297618858E+00 -0.62784935165E+00  0.22071224576E+02  0.00000000000E+00 0.  1.
</event>
<event>
12    1  0.8258923E-002  0.1782053E+03  0.7818608E-02  0.1169891E+00
         21   -1    0    0  501  502  0.00000000000E+00  0.00000000000E+00  0.66589138670E+02  0.66589138670E+02  0.00000000000E+00 0. -1.
         21   -1    0    0  502  503 -0.00000000000E+00 -0.00000000000E+00 -0.49194457406E+03  0.49194457406E+03  0.00000000000E+00 0. -1.
         -6    2    1    2    0  503 -0.25750042714E+02  0.39668497847E+02 -0.26794851074E+03  0.32179732087E+03  0.17181518236E+03 0.  0.
        -24    2    3    3    0    0 -0.80922718458E+02  0.31765745103E+02 -0.18001890728E+03  0.21758511997E+03  0.85900689941E+02 0.  0.
          6    2    1    2  501    0  0.25750042714E+02 -0.39668497847E+02 -0.15740692465E+03  0.23673639186E+03  0.17038346423E+03 0.  0.
         24    2    5    5    0    0  0.79269845702E+02 -0.98388371218E+01 -0.11782172870E+03  0.16363881523E+03  0.80716732736E+02 0.  0.
          5    1    5    5  501    0 -0.53519802989E+02 -0.29829660726E+02 -0.39585195954E+02  0.73097576633E+02  0.47000000000E+01 0. -1.
        -13    1    6    6    0    0  0.34035197262E+01 -0.33560654948E+02 -0.29472138870E+02  0.44794067427E+02  0.00000000000E+00 0.  1.
         14    1    6    6    0    0  0.75866325976E+02  0.23721817827E+02 -0.88349589825E+02  0.11884474780E+03  0.00000000000E+00 0. -1.
         -5    1    3    3    0  503  0.55172675744E+02  0.79027527444E+01 -0.87929603465E+02  0.10421220089E+03  0.47000000000E+01 0.  1.
         11    1    4    4    0    0 -0.36632042706E+02 -0.20640301748E+02 -0.11736000090E+03  0.12466474410E+03  0.00000000000E+00 0. -1.
        -12    1    4    4    0    0 -0.44290675752E+02  0.52406046851E+02 -0.62658906377E+02  0.92920375879E+02  0.00000000000E+00 0.  1.
</event>
<event>
12    1  0.8258923E-002  0.1780360E+03  0.7818608E-02  0.1170058E+00
         21   -1    0    0  503  502  0.00000000000E+00  0.00000000000E+00  0.39983628262E+03  0.39983628262E+03  0.00000000000E+00 0. -1.
         21   -1    0    0  501  503 -0.00000000000E+00 -0.00000000000E+00 -0.83227898993E+02  0.83227898993E+02  0.00000000000E+00 0. -1.
          6    2    1    2  501    0  0.39121871483E+02 -0.17673546307E+02  0.21546439544E+03  0.27950261818E+03  0.17278290655E+03 0.  0.
         24    2    3    3    0    0  0.33238601790E+02 -0.76033169824E+02  0.11436247486E+03  0.16252335991E+03  0.80307031433E+02 0.  0.
         -6    2    1    2    0  502 -0.39121871483E+02  0.17673546307E+02  0.10114398818E+03  0.20356156343E+03  0.17136023078E+03 0.  0.
        -24    2    5    5    0    0 -0.10621536422E+02 -0.12213204326E+02 -0.11937947559E+02  0.83082929837E+02  0.80611905092E+02 0.  0.
          5    1    3    3  501    0  0.58832696930E+01  0.58359623518E+02  0.10110192059E+03  0.11697925827E+03  0.47000000000E+01 0. -1.
        -13    1    4    4    0    0 -0.76311490513E+01  0.46581504303E+01 -0.68636094600E+01  0.11271288129E+02  0.00000000000E+00 0.  1.
         14    1    4    4    0    0  0.40869750841E+02 -0.80691320254E+02  0.12122608432E+03  0.15125207178E+03  0.00000000000E+00 0. -1.
         -5    1    5    5    0  502 -0.28500335061E+02  0.29886750633E+02  0.11308193574E+03  0.12047863359E+03  0.47000000000E+01 0.  1.
         11    1    6    6    0    0 -0.38899071885E+02 -0.29724753399E+02 -0.75112824828E+01  0.49528962464E+02  0.00000000000E+00 0. -1.
        -12    1    6    6    0    0  0.28277535463E+02  0.17511549073E+02 -0.44266650759E+01  0.33553967374E+02  0.00000000000E+00 0.  1.
</event>
<event>
12    1  0.8258923E-002  0.1825262E+03  0.7818608E-02  0.1165554E+00
         21   -1    0    0  501  502  0.00000000000E+00  0.00000000000E+00  0.72071680350E+03  0.72071680350E+03  0.00000000000E+00 0.  1.
         21   -1    0    0  502  503 -0.00000000000E+00 -0.00000000000E+00 -0.57344204704E+03  0.57344204704E+03  0.00000000000E+00 0.  1.
         -6    2    1    2    0  503  0.53660628952E+02 -0.24080826414E+02 -0.54693341788E+03  0.57635608775E+03  0.17201984475E+03 0.  0.
        -24    2    3    3    0    0 -0.33902677159E+02  0.82649296772E+01 -0.22048816278E+03  0.23679434801E+03  0.78986281993E+02 0.  0.
          6    2    1    2  501    0 -0.53660628952E+02  0.24080826414E+02  0.69420817435E+03  0.71780276279E+03  0.17279024173E+03 0.  0.
         24    2    5    5    0    0 -0.11930563786E+02  0.77241129210E+02  0.41150718758E+03  0.42709783670E+03  0.83461765447E+02 0.  0.
          5    1    5    5  501    0 -0.41730065167E+02 -0.53160302796E+02  0.28270098677E+03  0.29070492609E+03  0.47000000000E+01 0. -1.
        -11    1    6    6    0    0 -0.15330186745E+02  0.74672274566E+02  0.41477890893E+03  0.42172562942E+03  0.00000000000E+00 0.  1.
         12    1    6    6    0    0  0.33996229590E+01  0.25688546442E+01 -0.32717213540E+01  0.53722072805E+01  0.00000000000E+00 0. -1.
         -5    1    3    3    0  503  0.87563306111E+02 -0.32345756092E+02 -0.32644525510E+03  0.33956173974E+03  0.47000000000E+01 0.  1.
         11    1    4    4    0    0  0.85404578428E+01 -0.26519712459E+02 -0.10939058453E+03  0.11288283551E+03  0.00000000000E+00 0. -1.
        -12    1    4    4    0    0 -0.42443135001E+02  0.34784642137E+02 -0.11109757825E+03  0.12391151250E+03  0.00000000000E+00 0.  1.
</event>
<event>
12    1  0.8258923E-002  0.2773438E+03  0.7818608E-02  0.1097411E+00
         21   -1    0    0  501  502  0.00000000000E+00  0.00000000000E+00  0.59118646558E+03  0.59118646558E+03  0.00000000000E+00 0.  1.
         21   -1    0    0  502  503 -0.00000000000E+00 -0.00000000000E+00 -0.14248209734E+03  0.14248209734E+03  0.00000000000E+00 0.  1.
         -6    2    1    2    0  503 -0.21236230457E+03 -0.38190351670E+02  0.33694494248E+03  0.43640743992E+03  0.17425070443E+03 0.  0.
        -24    2    3    3    0    0 -0.20349061072E+03 -0.15552536220E+02  0.19870178277E+03  0.29596371864E+03  0.80385410630E+02 0.  0.
          6    2    1    2  501    0  0.21236230457E+03  0.38190351670E+02  0.11175942576E+03  0.29726112301E+03  0.17122428170E+03 0.  0.
         24    2    5    5    0    0  0.70348446670E+02 -0.16510820544E+02 -0.21415064454E+01  0.10711468882E+03  0.79040871500E+02 0.  0.
          5    1    5    5  501    0  0.14201385790E+03  0.54701172214E+02  0.11390093221E+03  0.19014643418E+03  0.47000000000E+01 0. -1.
        -11    1    6    6    0    0  0.79622096933E+02 -0.91331876524E+01  0.19462933977E+02  0.82473627516E+02  0.00000000000E+00 0.  1.
         12    1    6    6    0    0 -0.92736502630E+01 -0.73776328920E+01 -0.21604440422E+02  0.24641061305E+02  0.00000000000E+00 0. -1.
         -5    1    3    3    0  503 -0.88716938459E+01 -0.22637815449E+02  0.13824315971E+03  0.14044372128E+03  0.47000000000E+01 0.  1.
         13    1    4    4    0    0 -0.25841380105E+02  0.13315914706E+02  0.16912514184E+01  0.29119595490E+02  0.00000000000E+00 0. -1.
        -14    1    4    4    0    0 -0.17764923062E+03 -0.28868450926E+02  0.19701053135E+03  0.26684412315E+03  0.00000000000E+00 0.  1.
</event>
<event>
12    1  0.8258923E-002  0.1897161E+03  0.7818608E-02  0.1159071E+00
         21   -1    0    0  503  502  0.00000000000E+00  0.00000000000E+00  0.17083216219E+03  0.17083216219E+03  0.00000000000E+00 0.  1.
         21   -1    0    0  501  503 -0.00000000000E+00 -0.00000000000E+00 -0.22956660510E+03  0.22956660510E+03  0.00000000000E+00 0. -1.
          6    2    1    2  501    0 -0.74308791518E+02  0.14871350326E+02 -0.89233551913E+02  0.20824678551E+03  0.17222410786E+03 0.  0.
         24    2    3    3    0    0 -0.79212540501E+02 -0.37822035017E+02 -0.18132094813E+02  0.11948786024E+03  0.79015460365E+02 0.  0.
         -6    2    1    2    0  502  0.74308791518E+02 -0.14871350326E+02  0.30499109000E+02  0.19215198178E+03  0.17392307177E+03 0.  0.
        -24    2    5    5    0    0  0.11571533310E+03 -0.11395161340E+02  0.87938930131E+00  0.14090743699E+03  0.79587966797E+02 0.  0.
          5    1    3    3  501    0  0.49037489831E+01  0.52693385343E+02 -0.71101457100E+02  0.88758925268E+02  0.47000000000E+01 0. -1.
        -13    1    4    4    0    0 -0.31676615240E+02 -0.49512980580E+02  0.14644559670E+02  0.60575624857E+02  0.00000000000E+00 0.  1.
         14    1    4    4    0    0 -0.47535925261E+02  0.11690945562E+02 -0.32776654483E+02  0.58912235382E+02  0.00000000000E+00 0. -1.
         -5    1    5    5    0  502 -0.41406541578E+02 -0.34761889855E+01  0.29619719699E+02  0.51244544786E+02  0.47000000000E+01 0.  1.
         13    1    6    6    0    0 -0.87966151119E+01 -0.47570905896E+01 -0.11924603796E+02  0.15562985703E+02  0.00000000000E+00 0. -1.
        -14    1    6    6    0    0  0.12451194821E+03 -0.66380707509E+01  0.12803993098E+02  0.12534445129E+03  0.00000000000E+00 0.  1.
</event>
<event>
12    1  0.8258923E-002  0.3081784E+03  0.7818608E-02  0.1081230E+00
         21   -1    0    0  501  502  0.00000000000E+00  0.00000000000E+00  0.51393248551E+03  0.51393248551E+03  0.00000000000E+00 0.  1.
         21   -1    0    0  502  503 -0.00000000000E+00 -0.00000000000E+00 -0.33382509640E+03  0.33382509640E+03  0.00000000000E+00 0. -1.
         -6    2    1    2    0  503  0.10714418874E+03  0.23158220696E+03 -0.19318947658E+03  0.36372527146E+03  0.17281117867E+03 0.  0.
        -24    2    3    3    0    0  0.11098090665E+03  0.89409122864E+02 -0.82749062624E+02  0.18359453759E+03  0.80924619102E+02 0.  0.
          6    2    1    2  501    0 -0.10714418874E+03 -0.23158220696E+03  0.37329686569E+03  0.48403231046E+03  0.17270359543E+03 0.  0.
         24    2    5    5    0    0 -0.12991446056E+03 -0.13364613792E+03  0.20337392464E+03  0.28653331098E+03  0.77468237595E+02 0.  0.
          5    1    5    5  501    0  0.22770271828E+02 -0.97936069043E+02  0.16992294105E+03  0.19749899948E+03  0.47000000000E+01 0. -1.
        -13    1    6    6    0    0 -0.68478864241E+02 -0.37435079828E+02  0.12741905488E+03  0.14942006423E+03  0.00000000000E+00 0.  1.
         14    1    6    6    0    0 -0.61435596322E+02 -0.96211058089E+02  0.75954869766E+02  0.13711324675E+03  0.00000000000E+00 0. -1.
         -5    1    3    3    0  503 -0.38367179170E+01  0.14217308410E+03 -0.11044041396E+03  0.18013073386E+03  0.47000000000E+01 0.  1.
         11    1    4    4    0    0  0.99264628460E+02  0.10019651699E+03 -0.54578303201E+02  0.15123359303E+03  0.00000000000E+00 0. -1.
        -12    1    4    4    0    0  0.11716278192E+02 -0.10787394126E+02 -0.28170759422E+02  0.32360944565E+02  0.00000000000E+00 0.  1.
</event>
<event>
12    1  0.8258923E-002  0.2265020E+03  0.7818608E-02  0.1129172E+00
         21   -1    0    0  503  502  0.00000000000E+00  0.00000000000E+00  0.34187087757E+03  0.34187087757E+03  0.00000000000E+00 0. -1.
         21   -1    0    0  501  503 -0.00000000000E+00 -0.00000000000E+00 -0.51526915541E+03  0.51526915541E+03  0.00000000000E+00 0. -1.
          6    2    1    2  501    0  0.10541839621E+03 -0.10267891763E+03 -0.44760197230E+03  0.50164795162E+03  0.17218345850E+03 0.  0.
         24    2    3    3    0    0  0.14357429473E+03 -0.80673529722E+02 -0.34513907744E+03  0.39001979876E+03  0.76633309625E+02 0.  0.
         -6    2    1    2    0  502 -0.10541839621E+03  0.10267891763E+03  0.27420369446E+03  0.35549208136E+03  0.17184573160E+03 0.  0.
        -24    2    5    5    0    0 -0.15163402174E+02  0.10954346837E+03  0.15133892163E+03  0.20281291314E+03  0.77459075052E+02 0.  0.
          5    1    3    3  501    0 -0.38155898524E+02 -0.22005387906E+02 -0.10246289486E+03  0.11162815287E+03  0.47000000000E+01 0. -1.
        -13    1    4    4    0    0  0.24903082329E+02 -0.43067554757E+02 -0.54221210063E+02  0.73586122353E+02  0.00000000000E+00 0.  1.
         14    1    4    4    0    0  0.11867121240E+03 -0.37605974966E+02 -0.29091786738E+03  0.31643367641E+03  0.00000000000E+00 0. -1.
         -5    1    5    5    0  502 -0.90254994034E+02 -0.68645507451E+01  0.12286477283E+03  0.15267916821E+03  0.47000000000E+01 0.  1.
         13    1    6    6    0    0 -0.42139153381E+01  0.52982182452E+02  0.13157728910E+03  0.14190648945E+03  0.00000000000E+00 0. -1.
        -14    1    6    6    0    0 -0.10949486836E+02  0.56561285922E+02  0.19761632529E+02  0.60906423695E+02  0.00000000000E+00 0.  1.
</event>
<event>
12    1  0.8258923E-002  0.2511002E+03  0.7818608E-02  0.1112657E+00
         21   -1    0    0  503  502  0.00000000000E+00  0.00000000000E+00  0.10476401158E+03  0.10476401158E+03  0.00000000000E+00 0. -1.
         21   -1    0    0  501  503 -0.00000000000E+00 -0.00000000000E+00 -0.63782347359E+03  0.63782347359E+03  0.00000000000E+00 0.  1.
          6    2    1    2  501    0  0.12526016150E+03 -0.13290015973E+03 -0.35541622067E+03  0.43500266932E+03  0.17191297765E+03 0.  0.
         24    2    3    3    0    0  0.45045008090E+02 -0.21039705602E+02 -0.22937123832E+03  0.24830328633E+03  0.81065621984E+02 0.  0.
         -6    2    1    2    0  502 -0.12526016150E+03  0.13290015973E+03 -0.17764324134E+03  0.30758481586E+03  0.17233321572E+03 0.  0.
        -24    2    5    5    0    0 -0.11244742772E+03  0.16510527497E+03 -0.14473761508E+03  0.25956184392E+03  0.80741549258E+02 0.  0.
          5    1    3    3  501    0  0.80215153405E+02 -0.11186045413E+03 -0.12604498235E+03  0.18669938299E+03  0.47000000000E+01 0. -1.
        -13    1    4    4    0    0  0.11577073109E+02 -0.35742795543E+02 -0.19340751328E+03  0.19702294853E+03  0.00000000000E+00 0.  1.
         14    1    4    4    0    0  0.33467934981E+02  0.14703089941E+02 -0.35963725035E+02  0.51280337792E+02  0.00000000000E+00 0. -1.
         -5    1    5    5    0  502 -0.12812733776E+02 -0.32205115241E+02 -0.32905626257E+02  0.48022971939E+02  0.47000000000E+01 0.  1.
         11    1    6    6    0    0 -0.96472557338E+02  0.71960677728E+02 -0.90647171549E+02  0.15067250303E+03  0.00000000000E+00 0. -1.
        -12    1    6    6    0    0 -0.15974870381E+02  0.93144597240E+02 -0.54090443536E+02  0.10888934090E+03  0.00000000000E+00 0.  1.
</event>
<event>
12    1  0.8258923E-002  0.2159875E+03  0.7818608E-02  0.1136928E+00
         21   -1    0    0  501  502  0.00000000000E+00  0.00000000000E+00  0.88930837064E+02  0.88930837064E+02  0.00000000000E+00 0. -1.
         21   -1    0    0  502  503 -0.00000000000E+00 -0.00000000000E+00 -0.56730162147E+03  0.56730162147E+03  0.00000000000E+00 0.  1.
         -6    2    1    2    0  503 -0.49799618655E+02 -0.11961405431E+03 -0.32942370018E+03  0.39386665345E+03  0.17269465091E+03 0.  0.
        -24    2    3    3    0    0 -0.54722202783E+02 -0.69212873726E+02 -0.32066231897E+03  0.34225887652E+03  0.80820012272E+02 0.  0.
          6    2    1    2  501    0  0.49799618655E+02  0.11961405431E+03 -0.14894708423E+03  0.26236580508E+03  0.17280931043E+03 0.  0.
         24    2    5    5    0    0  0.46566627741E+02 -0.10836651722E+01 -0.71735489815E+02  0.11897085389E+03  0.82694972192E+02 0.  0.
          5    1    5    5  501    0  0.32329909136E+01  0.12069771948E+03 -0.77211594410E+02  0.14339495120E+03  0.47000000000E+01 0. -1.
        -13    1    6    6    0    0 -0.23647595671E+02 -0.25671761299E+01 -0.11376261468E+02  0.26366996402E+02  0.00000000000E+00 0.  1.
         14    1    6    6    0    0  0.70214223412E+02  0.14835109576E+01 -0.60359228347E+02  0.92603857483E+02  0.00000000000E+00 0. -1.
         -5    1    3    3    0  503  0.49225841280E+01 -0.50401180582E+02 -0.87613812091E+01  0.51607776926E+02  0.47000000000E+01 0.  1.
         11    1    4    4    0    0 -0.61254792167E+02 -0.14029656737E+02 -0.14541306972E+03  0.15841067413E+03  0.00000000000E+00 0. -1.
        -12    1    4    4    0    0  0.65325893842E+01 -0.55183216990E+02 -0.17524924925E+03  0.18384820240E+03  0.00000000000E+00 0.  1.
</event>
<event>
12    1  0.8258923E-002  0.1909827E+03  0.7818608E-02  0.1157639E+00
         21   -1    0    0  501  502  0.00000000000E+00  0.00000000000E+00  0.21827419627E+03  0.21827419627E+03  0.00000000000E+00 0. -1.
         21   -1    0    0  502  503 -0.00000000000E+00 -0.00000000000E+00 -0.16700584696E+03  0.16700584696E+03  0.00000000000E+00 0.  1.
         -6    2    1    2    0  503 -0.71888635087E+02  0.42528749498E+02  0.31181037125E+02  0.19324383483E+03  0.17144752035E+03 0.  0.
        -24    2    3    3    0    0  0.15452352443E+02  0.10033517735E+02  0.50614972547E+02  0.97932995802E+02  0.81789666503E+02 0.  0.
          6    2    1    2  501    0  0.71888635087E+02 -0.42528749498E+02  0.20087312189E+02  0.19203620841E+03  0.17174904611E+03 0.  0.
         24    2    5    5    0    0 -0.16634744759E+02 -0.47484540775E+01 -0.25881743435E+02  0.85270185832E+02  0.79384364955E+02 0.  0.
          5    1    5    5  501    0  0.88523379846E+02 -0.37780295421E+02  0.45969055624E+02  0.10676602257E+03  0.47000000000E+01 0. -1.
        -13    1    6    6    0    0  0.13833641515E+02 -0.35331902213E+02 -0.96707373787E+01  0.39156559003E+02  0.00000000000E+00 0.  1.
         14    1    6    6    0    0 -0.30468386274E+02  0.30583448135E+02 -0.16211006056E+02  0.46113626829E+02  0.00000000000E+00 0. -1.
         -5    1    3    3    0  503 -0.87340987530E+02  0.32495231764E+02 -0.19433935422E+02  0.95310839027E+02  0.47000000000E+01 0.  1.
         13    1    4    4    0    0 -0.14287278300E+02 -0.13525073965E+01  0.62361019392E+02  0.63991033256E+02  0.00000000000E+00 0. -1.
        -14    1    4    4    0    0  0.29739630743E+02  0.11386025131E+02 -0.11746046845E+02  0.33941962546E+02  0.00000000000E+00 0.  1.
</event>
<event>
12    1  0.8258923E-002  0.2029469E+03  0.7818608E-02  0.1147462E+00
         21   -1    0    0  503  502  0.00000000000E+00  0.00000000000E+00  0.31326780353E+03  0.31326780353E+03  0.00000000000E+00 0.  1.
         21   -1    0    0  501  503 -0.00000000000E+00 -0.00000000000E+00 -0.15571861532E+03  0.15571861532E+03  0.00000000000E+00 0. -1.
          6    2    1    2  501    0 -0.43830413716E+02  0.96401929290E+02 -0.14698540305E+02  0.20347845585E+03  0.17312711448E+03 0.  0.
         24    2    3    3    0    0 -0.57257620779E+01  0.79727542004E+02 -0.71934404080E+02  0.13256982612E+03  0.77530219924E+02 0.  0.
         -6    2    1    2    0  502  0.43830413716E+02 -0.96401929290E+02  0.17224772851E+03  0.26550796300E+03  0.17207777690E+03 0.  0.
        -24    2    5    5    0    0  0.77377121228E+02 -0.13851759314E+02  0.10259682741E+03  0.15231233512E+03  0.80584417287E+02 0.  0.
          5    1    3    3  501    0 -0.38104651638E+02  0.16674387286E+02  0.57235863775E+02  0.70908629728E+02  0.47000000000E+01 0. -1.
        -13    1    4    4    0    0 -0.23290016736E+01  0.37542517559E+02 -0.80982530964E+02  0.89291854023E+02  0.00000000000E+00 0.  1.
         14    1    4    4    0    0 -0.33967604043E+01  0.42185024445E+02  0.90481268836E+01  0.43277972096E+02  0.00000000000E+00 0. -1.
         -5    1    5    5    0  502 -0.33546707512E+02 -0.82550169976E+02  0.69650901098E+02  0.11319562788E+03  0.47000000000E+01 0.  1.
         13    1    6    6    0    0  0.84610089836E+01  0.23551313841E+02  0.55405433652E+02  0.60794861089E+02  0.00000000000E+00 0. -1.
        -14    1    6    6    0    0  0.68916112244E+02 -0.37403073155E+02  0.47191393761E+02  0.91517474033E+02  0.00000000000E+00 0.  1.
</event>
<event>
12    1  0.8258923E-002  0.2685288E+03  0.7818608E-02  0.1102765E+00
         21   -1    0    0  501  502  0.00000000000E+00  0.00000000000E+00  0.36134532211E+03  0.36134532211E+03  0.00000000000E+00 0.  1.
         21   -1    0    0  502  503 -0.00000000000E+00 -0.00000000000E+00 -0.25927355318E+03  0.25927355318E+03  0.00000000000E+00 0. -1.
         -6    2    1    2    0  503 -0.14546979736E+03  0.13946236730E+03 -0.10222195210E+03  0.28321161331E+03  0.17072866363E+03 0.  0.
        -24    2    3    3    0    0 -0.17311027873E+03  0.10624101502E+03 -0.98982807145E+02  0.23961991091E+03  0.79785861665E+02 0.  0.
          6    2    1    2  501    0  0.14546979736E+03 -0.13946236730E+03  0.20429372103E+03  0.33740726198E+03  0.17747259547E+03 0.  0.
         24    2    5    5    0    0  0.14069929386E+03 -0.54306571999E+02  0.84176832685E+02  0.19001518606E+03  0.79211973316E+02 0.  0.
          5    1    5    5  501    0  0.47705035003E+01 -0.85155795305E+02  0.12011688834E+03  0.14739207592E+03  0.47000000000E+01 0. -1.
        -11    1    6    6    0    0  0.59267800901E+02  0.16397596632E+02  0.20739866808E+02  0.64897576798E+02  0.00000000000E+00 0.  1.
         12    1    6    6    0    0  0.81431492961E+02 -0.70704168631E+02  0.63436965878E+02  0.12511760926E+03  0.00000000000E+00 0. -1.
         -5    1    3    3    0  503  0.27640481367E+02  0.33221352284E+02 -0.32391449575E+01  0.43591702397E+02  0.47000000000E+01 0.  1.
         11    1    4    4    0    0 -0.23673418226E+02  0.13327809765E+02 -0.50096596433E+02  0.56988860471E+02  0.00000000000E+00 0. -1.
        -12    1    4    4    0    0 -0.14943686050E+03  0.92913205255E+02 -0.48886210712E+02  0.18263105044E+03  0.00000000000E+00 0.  1.
</event>
<event>
12    1  0.8258923E-002  0.1886473E+03  0.7818608E-02  0.1160092E+00
         21   -1    0    0  503  502  0.00000000000E+00  0.00000000000E+00  0.28654602816E+03  0.28654602816E+03  0.00000000000E+00 0.  1.
         21   -1    0    0  501  503 -0.00000000000E+00 -0.00000000000E+00 -0.13677275624E+03  0.13677275624E+03  0.00000000000E+00 0. -1.
          6    2    1    2  501    0 -0.55088591200E+02  0.48249138515E+02  0.74831154311E+01  0.18702599462E+03  0.17193019921E+03 0.  0.
         24    2    3    3    0    0 -0.69751007358E+02 -0.24727054583E+02  0.23877752284E+02  0.11066248681E+03  0.78736323752E+02 0.  0.
         -6    2    1    2    0  502  0.55088591200E+02 -0.48249138515E+02  0.14229015649E+03  0.23629278978E+03  0.17385356373E+03 0.  0.
        -24    2    5    5    0    0  0.71640520208E+02 -0.84016919810E+02  0.14165118874E+03  0.19659645730E+03  0.79961870925E+02 0.  0.
          5    1    3    3  501    0  0.14662416159E+02  0.72976193099E+02 -0.16394636853E+02  0.76363507805E+02  0.47000000000E+01 0. -1.
        -13    1    4    4    0    0 -0.32396248195E+02 -0.13669245342E+02  0.51888976067E+02  0.62680387703E+02  0.00000000000E+00 0.  1.
         14    1    4    4    0    0 -0.37354759163E+02 -0.11057809241E+02 -0.28011223783E+02  0.47982099111E+02  0.00000000000E+00 0. -1.
         -5    1    5    5    0  502 -0.16551929008E+02  0.35767781295E+02  0.63896775224E+00  0.39696332481E+02  0.47000000000E+01 0.  1.
         13    1    6    6    0    0  0.60245319804E+02 -0.10018197664E+02  0.56345709272E+02  0.83094535296E+02  0.00000000000E+00 0. -1.
        -14    1    6    6    0    0  0.11395200404E+02 -0.73998722146E+02  0.85305479464E+02  0.11350192200E+03  0.00000000000E+00 0.  1.
</event>
<event>
12    1  0.8258923E-002  0.1929768E+03  0.7818608E-02  0.1159153E+00
         21   -1    0    0  503  502  0.00000000000E+00  0.00000000000E+00  0.64125928552E+03  0.64125928552E+03  0.00000000000E+00 0. -1.
         21   -1    0    0  501  503 -0.00000000000E+00 -0.00000000000E+00 -0.25019666248E+03  0.25019666248E+03  0.00000000000E+00 0. -1.
          6    2    1    2  501    0  0.44784750438E+02 -0.18321231918E-01 -0.20097578327E+03  0.26876058750E+03  0.17272901819E+03 0.  0.
         24    2    3    3    0    0  0.48080525740E+02  0.28227112209E+02 -0.37955061997E+02  0.10321146425E+03  0.78124981936E+02 0.  0.
         -6    2    1    2    0  502 -0.44784750438E+02  0.18321231918E-01  0.59203840630E+03  0.62269536050E+03  0.18770818641E+03 0.  0.
        -24    2    5    5    0    0  0.62990285135E+01  0.68695728598E+02  0.36316910228E+03  0.37829939679E+03  0.80373228585E+02 0.  0.
          5    1    3    3  501    0 -0.32957753023E+01 -0.28245433441E+02 -0.16302072127E+03  0.16554912325E+03  0.47000000000E+01 0. -1.
        -13    1    4    4    0    0  0.69016514147E+02  0.17439460042E+02 -0.21091001780E+02  0.74244490352E+02  0.00000000000E+00 0.  1.
         14    1    4    4    0    0 -0.20935988407E+02  0.10787652167E+02 -0.16864060217E+02  0.28966973899E+02  0.00000000000E+00 0. -1.
         -5    1    5    5    0  502 -0.51083778951E+02 -0.68677407366E+02  0.22886930402E+03  0.24439596371E+03  0.47000000000E+01 0.  1.
         11    1    6    6    0    0 -0.34464260359E+02  0.19313278007E+02  0.10170901037E+03  0.10911237665E+03  0.00000000000E+00 0. -1.
        -12    1    6    6    0    0  0.40763288873E+02  0.49382450591E+02  0.26146009192E+03  0.26918702014E+03  0.00000000000E+00 0.  1.
</event>
<event>
12    1  0.8258923E-002  0.2096332E+03  0.7818608E-02  0.1142173E+00
         21   -1    0    0  501  502  0.00000000000E+00  0.00000000000E+00  0.89507856380E+02  0.89507856380E+02  0.00000000000E+00 0. -1.
         21   -1    0    0  502  503 -0.00000000000E+00 -0.00000000000E+00 -0.10039905693E+04  0.10039905693E+04  0.00000000000E+00 0. -1.
         -6    2    1    2    0  503  0.10467310389E+03  0.54058348598E+02 -0.85032247440E+03  0.87578216383E+03  0.17339932033E+03 0.  0.
        -24    2    3    3    0    0 -0.68997889454E-01 -0.16389520746E+02 -0.27242835259E+03  0.28424390116E+03  0.79427746431E+02 0.  0.
          6    2    1    2  501    0 -0.10467310389E+03 -0.54058348598E+02 -0.64160238509E+02  0.21771626183E+03  0.17147906791E+03 0.  0.
         24    2    5    5    0    0 -0.11990935738E+03 -0.37000754494E+02 -0.98218546115E+02  0.17642263940E+03  0.75701750785E+02 0.  0.
          5    1    5    5  501    0  0.15236253484E+02 -0.17057594104E+02  0.34058307606E+02  0.41293622435E+02  0.47000000000E+01 0. -1.
        -11    1    6    6    0    0 -0.41176853801E+02 -0.32905276593E+01 -0.78243683829E+02  0.88478443253E+02  0.00000000000E+00 0.  1.
         12    1    6    6    0    0 -0.78732503575E+02 -0.33710226835E+02 -0.19974862286E+02  0.87944196146E+02  0.00000000000E+00 0. -1.
         -5    1    3    3    0  503  0.10474210178E+03  0.70447869344E+02 -0.57789412181E+03  0.59153826267E+03  0.47000000000E+01 0.  1.
         11    1    4    4    0    0  0.25103673804E+02  0.17571341204E+01 -0.23158984390E+03  0.23295308059E+03  0.00000000000E+00 0. -1.
        -12    1    4    4    0    0 -0.25172671694E+02 -0.18146654866E+02 -0.40838508685E+02  0.51290820569E+02  0.00000000000E+00 0.  1.
</event>
<event>
12    1  0.8258923E-002  0.1748816E+03  0.7818608E-02  0.1176940E+00
         21   -1    0    0  503  502  0.00000000000E+00  0.00000000000E+00  0.18411372728E+02  0.18411372728E+02  0.00000000000E+00 0.  1.
         21   -1    0    0  501  503 -0.00000000000E+00 -0.00000000000E+00 -0.17261537180E+04  0.17261537180E+04  0.00000000000E+00 0.  1.
          6    2    1    2  501    0  0.17150942921E+02  0.21260618594E+02 -0.11222541416E+04  0.11335167989E+04  0.15703441061E+03 0.  0.
         24    2    3    3    0    0  0.11229940799E+02  0.29876987707E+02 -0.21861320013E+03  0.22980315989E+03  0.63237766081E+02 0.  0.
         -6    2    1    2    0  502 -0.17150942921E+02 -0.21260618594E+02 -0.58548820359E+03  0.61104829183E+03  0.17273508520E+03 0.  0.
        -24    2    5    5    0    0 -0.68606785285E+02  0.20241858199E+02 -0.35271163971E+03  0.36902106612E+03  0.81574644610E+02 0.  0.
          5    1    3    3  501    0  0.59210021219E+01 -0.86163691122E+01 -0.90364094151E+03  0.90371363897E+03  0.47000000000E+01 0. -1.
        -11    1    4    4    0    0 -0.26378917245E+02  0.11477321166E+02 -0.97627192270E+02  0.10177742798E+03  0.00000000000E+00 0.  1.
         12    1    4    4    0    0  0.37608858045E+02  0.18399666540E+02 -0.12098600786E+03  0.12802573190E+03  0.00000000000E+00 0. -1.
         -5    1    5    5    0  502  0.51455842363E+02 -0.41502476793E+02 -0.23277656388E+03  0.24202722571E+03  0.47000000000E+01 0.  1.
         13    1    6    6    0    0  0.16674136450E+01 -0.58849547459E+01  0.20288629934E+01  0.64443188679E+01  0.00000000000E+00 0. -1.
        -14    1    6    6    0    0 -0.70274198930E+02  0.26126812944E+02 -0.35474050270E+03  0.36257674725E+03  0.00000000000E+00 0.  1.
</event>
<event>
12    1  0.8258923E-002  0.2102793E+03  0.7818608E-02  0.1141540E+00
         21   -1    0    0  503  502  0.00000000000E+00  0.00000000000E+00  0.12706072250E+03  0.12706072250E+03  0.00000000000E+00 0.  1.
         21   -1    0    0  501  503 -0.00000000000E+00 -0.00000000000E+00 -0.34712720306E+03  0.34712720306E+03  0.00000000000E+00 0.  1.
          6    2    1    2  501    0 -0.39197781973E+02 -0.11211316455E+03 -0.99241073433E+02  0.23252135522E+03  0.17352683424E+03 0.  0.
         24    2    3    3    0    0 -0.47092772337E+02 -0.91619348706E+02  0.14237037438E+00  0.13063177644E+03  0.80329362521E+02 0.  0.
         -6    2    1    2    0  502  0.39197781973E+02  0.11211316455E+03 -0.12082540714E+03  0.24166657034E+03  0.17233143774E+03 0.  0.
        -24    2    5    5    0    0 -0.47433987635E+02  0.48590482111E+02 -0.73981667323E+02  0.12437794920E+03  0.73386436162E+02 0.  0.
          5    1    3    3  501    0  0.78949903640E+01 -0.20493815841E+02 -0.99383443807E+02  0.10188957878E+03  0.47000000000E+01 0. -1.
        -13    1    4    4    0    0  0.97654874242E+01 -0.52277118340E+02  0.22812515731E+02  0.57867717430E+02  0.00000000000E+00 0.  1.
         14    1    4    4    0    0 -0.56858259761E+02 -0.39342230366E+02 -0.22670145356E+02  0.72764059011E+02  0.00000000000E+00 0. -1.
         -5    1    5    5    0  502  0.86631769608E+02  0.63522682436E+02 -0.46843739812E+02  0.11728862114E+03  0.47000000000E+01 0.  1.
         13    1    6    6    0    0  0.12710180482E+02  0.24474048472E+01  0.59242864377E+01  0.14235014863E+02  0.00000000000E+00 0. -1.
        -14    1    6    6    0    0 -0.60144168116E+02  0.46143077264E+02 -0.79905953761E+02  0.11014293434E+03  0.00000000000E+00 0.  1.
</event>
<event>
12    1  0.8258923E-002  0.2266431E+03  0.7818608E-02  0.1129327E+00
         21   -1    0    0  503  502  0.00000000000E+00  0.00000000000E+00  0.88003219643E+03  0.88003219643E+03  0.00000000000E+00 0.  1.
         21   -1    0    0  501  503 -0.00000000000E+00 -0.00000000000E+00 -0.76760233445E+02  0.76760233445E+02  0.00000000000E+00 0. -1.
          6    2    1    2  501    0 -0.79353135232E+02 -0.11789383299E+03  0.16362286712E+03  0.27817762984E+03  0.17439746320E+03 0.  0.
         24    2    3    3    0    0 -0.12161439138E+02 -0.37130882451E+02  0.14717017754E+03  0.17173440930E+03  0.79416894604E+02 0.  0.
         -6    2    1    2    0  502  0.79353135232E+02  0.11789383299E+03  0.63964909587E+03  0.67861480004E+03  0.17655368888E+03 0.  0.
        -24    2    5    5    0    0 -0.11098652698E+02  0.10058815953E+03  0.29385393349E+03  0.32073577495E+03  0.79247366995E+02 0.  0.
          5    1    3    3  501    0 -0.67191696094E+02 -0.80762950536E+02  0.16452689579E+02  0.10644322053E+03  0.47000000000E+01 0. -1.
        -11    1    4    4    0    0 -0.29295144650E+02 -0.55173066619E+02  0.11696144618E+03  0.13259808699E+03  0.00000000000E+00 0.  1.
         12    1    4    4    0    0  0.17133705512E+02  0.18042184168E+02  0.30208731359E+02  0.39136322316E+02  0.00000000000E+00 0. -1.
         -5    1    5    5    0  502  0.90451787930E+02  0.17305673452E+02  0.34579516237E+03  0.35787902508E+03  0.47000000000E+01 0.  1.
         11    1    6    6    0    0 -0.27730459096E+02  0.17682071715E+02  0.33294229981E+02  0.46798929174E+02  0.00000000000E+00 0. -1.
        -12    1    6    6    0    0  0.16631806398E+02  0.82906087820E+02  0.26055970351E+03  0.27393684578E+03  0.00000000000E+00 0.  1.
</event>
<event>
12    1  0.8258923E-002  0.2648910E+03  0.7818608E-02  0.1104281E+00
         21   -1    0    0  503  502  0.00000000000E+00  0.00000000000E+00  0.66885565038E+02  0.66885565038E+02  0.00000000000E+00 0.  1.
         21   -1    0    0  501  503 -0.00000000000E+00 -0.00000000000E+00 -0.12173261680E+04  0.12173261680E+04  0.00000000000E+00 0. -1.
          6    2    1    2  501    0 -0.64031955820E+02 -0.19066673366E+03 -0.33596710102E+03  0.42783304972E+03  0.17237555156E+03 0.  0.
         24    2    3    3    0    0 -0.46164436827E+02 -0.21779551210E+02 -0.12329639140E+03  0.15563266515E+03  0.80087591118E+02 0.  0.
         -6    2    1    2    0  502  0.64031955820E+02  0.19066673366E+03 -0.81447350195E+03  0.85637868332E+03  0.17194030704E+03 0.  0.
        -24    2    5    5    0    0 -0.15962560988E+00  0.11879190474E+03 -0.29333155033E+03  0.32638097210E+03  0.79809763950E+02 0.  0.
          5    1    3    3  501    0 -0.17867518992E+02 -0.16888718245E+03 -0.21267070962E+03  0.27220038457E+03  0.47000000000E+01 0. -1.
        -13    1    4    4    0    0 -0.44170106581E+02 -0.49015590375E+02 -0.72994175084E+02  0.98395508085E+02  0.00000000000E+00 0.  1.
         14    1    4    4    0    0 -0.19943302461E+01  0.27236039165E+02 -0.50302216314E+02  0.57237157063E+02  0.00000000000E+00 0. -1.
         -5    1    5    5    0  502  0.64191581430E+02  0.71874828918E+02 -0.52114195162E+03  0.52999771122E+03  0.47000000000E+01 0.  1.
         11    1    6    6    0    0 -0.20589205913E+02  0.85527799598E+02 -0.26184757652E+03  0.27623010921E+03  0.00000000000E+00 0. -1.
        -12    1    6    6    0    0  0.20429580303E+02  0.33264105141E+02 -0.31483973803E+02  0.50150862890E+02  0.00000000000E+00 0.  1.
</event>
<event>
12    1  0.8258923E-002  0.2338276E+03  0.7818608E-02  0.1126550E+00
         21   -1    0    0  503  502  0.00000000000E+00  0.00000000000E+00  0.12955980425E+04  0.12955980425E+04  0.00000000000E+00 0.  1.
         21   -1    0    0  501  503 -0.00000000000E+00 -0.00000000000E+00 -0.42834555757E+02  0.42834555757E+02  0.00000000000E+00 0. -1.
          6    2    1    2  501    0 -0.13140011876E+03 -0.31110762885E+02  0.42501054858E+03  0.47828710167E+03  0.17288931271E+03 0.  0.
         24    2    3    3    0    0 -0.95658778468E+02  0.45334605968E+02  0.29115776028E+03  0.31998360595E+03  0.80067710761E+02 0.  0.
         -6    2    1    2    0  502  0.13140011876E+03  0.31110762885E+02  0.82775293813E+03  0.86014549655E+03  0.19089651089E+03 0.  0.
        -24    2    5    5    0    0  0.13344272080E+02  0.19088575423E+02  0.13669471784E+03  0.15895702705E+03  0.77713880704E+02 0.  0.
          5    1    3    3  501    0 -0.35741340291E+02 -0.76445368853E+02  0.13385278829E+03  0.15830349573E+03  0.47000000000E+01 0. -1.
        -13    1    4    4    0    0 -0.75428347506E+02  0.20077376176E+02  0.27063018381E+03  0.28166155760E+03  0.00000000000E+00 0.  1.
         14    1    4    4    0    0 -0.20230430962E+02  0.25257229792E+02  0.20527576474E+02  0.38322048348E+02  0.00000000000E+00 0. -1.
         -5    1    5    5    0  502  0.11805584668E+03  0.12022187463E+02  0.69105822029E+03  0.70118846950E+03  0.47000000000E+01 0.  1.
         13    1    6    6    0    0 -0.28330984481E+02  0.11222983843E+02  0.24782544743E+02  0.39278169152E+02  0.00000000000E+00 0. -1.
        -14    1    6    6    0    0  0.41675256560E+02  0.78655915791E+01  0.11191217310E+03  0.11967885790E+03  0.00000000000E+00 0.  1.
</event>
<event>
12    1  0.8258923E-002  0.1769821E+03  0.7818608E-02  0.1170838E+00
         21   -1    0    0  501  502  0.00000000000E+00  0.00000000000E+00  0.81808745855E+03  0.81808745855E+03  0.00000000000E+00 0. -1.
         21   -1    0    0  502  503 -0.00000000000E+00 -0.00000000000E+00 -0.40492167026E+02  0.40492167026E+02  0.00000000000E+00 0.  1.
         -6    2    1    2    0  503  0.24909533466E+02  0.28623436040E+02  0.28736125785E+03  0.33748948932E+03  0.17286664496E+03 0.  0.
        -24    2    3    3    0    0  0.45947266876E+02 -0.33419913261E+02  0.99895209705E+02  0.13885018649E+03  0.77924831933E+02 0.  0.
          6    2    1    2  501    0 -0.24909533466E+02 -0.28623436040E+02  0.49023403368E+03  0.52109013626E+03  0.17252749457E+03 0.  0.
         24    2    5    5    0    0  0.35020226894E+02 -0.18309228937E+01  0.14943078458E+03  0.17399020896E+03  0.81934515697E+02 0.  0.
          5    1    5    5  501    0 -0.59929760360E+02 -0.26792513146E+02  0.34080324910E+03  0.34709992730E+03  0.47000000000E+01 0. -1.
        -13    1    6    6    0    0  0.26920728070E+02 -0.35318435336E+01  0.15902120802E+03  0.16132248485E+03  0.00000000000E+00 0.  1.
         14    1    6    6    0    0  0.80994988243E+01  0.17009206398E+01 -0.95904234408E+01  0.12667724105E+02  0.00000000000E+00 0. -1.
         -5    1    3    3    0  503 -0.21037733411E+02  0.62043349301E+02  0.18746604814E+03  0.19863930282E+03  0.47000000000E+01 0.  1.
         11    1    4    4    0    0 -0.17847967739E+02  0.39011531722E+01  0.39067527418E+02  0.43128188543E+02  0.00000000000E+00 0. -1.
        -12    1    4    4    0    0  0.63795234615E+02 -0.37321066433E+02  0.60827682287E+02  0.95721997951E+02  0.00000000000E+00 0.  1.
</event>
<event>
12    1  0.8258923E-002  0.1854702E+03  0.7818608E-02  0.1162713E+00
         21   -1    0    0  503  502  0.00000000000E+00  0.00000000000E+00  0.34918604974E+03  0.34918604974E+03  0.00000000000E+00 0. -1.
         21   -1    0    0  501  503 -0.00000000000E+00 -0.00000000000E+00 -0.10457378902E+03  0.10457378902E+03  0.00000000000E+00 0.  1.
          6    2    1    2  501    0 -0.29687125366E+02  0.62756311742E+02  0.66787588435E+02  0.19712881061E+03  0.17198693534E+03 0.  0.
         24    2    3    3    0    0 -0.84323222287E+01 -0.32438463945E+02  0.22658863650E+02  0.89968900538E+02  0.80359324044E+02 0.  0.
         -6    2    1    2    0  502  0.29687125366E+02 -0.62756311742E+02  0.17782467229E+03  0.25663102815E+03  0.17151731825E+03 0.  0.
        -24    2    5    5    0    0 -0.16740838223E+02 -0.85387984988E+02  0.77026324317E+02  0.14327254637E+03  0.83800980077E+02 0.  0.
          5    1    3    3  501    0 -0.21254803137E+02  0.95194775687E+02  0.44128724785E+02  0.10715991007E+03  0.47000000000E+01 0. -1.
        -13    1    4    4    0    0  0.30650146034E+02  0.18644580017E+01 -0.49336212527E+01  0.31100615335E+02  0.00000000000E+00 0.  1.
         14    1    4    4    0    0 -0.39082468263E+02 -0.34302921947E+02  0.27592484903E+02  0.58868285203E+02  0.00000000000E+00 0. -1.
         -5    1    5    5    0  502  0.46427963589E+02  0.22631673246E+02  0.10079834797E+03  0.11335848178E+03  0.47000000000E+01 0.  1.
         11    1    6    6    0    0  0.21995593989E+02 -0.31745060758E+02  0.65602652095E+02  0.76126624773E+02  0.00000000000E+00 0. -1.
        -12    1    6    6    0    0 -0.38736432213E+02 -0.53642924230E+02  0.11423672222E+02  0.67145921600E+02  0.00000000000E+00 0.  1.
</event>
<event>
12    1  0.8258923E-002  0.2145577E+03  0.7818608E-02  0.1138242E+00
         21   -1    0    0  503  502  0.00000000000E+00  0.00000000000E+00  0.95152186364E+02  0.95152186364E+02  0.00000000000E+00 0. -1.
         21   -1    0    0  501  503 -0.00000000000E+00 -0.00000000000E+00 -0.11037666923E+04  0.11037666923E+04  0.00000000000E+00 0. -1.
          6    2    1    2  501    0  0.14122203460E+02 -0.12697175759E+03 -0.95518974262E+03  0.97899053160E+03  0.17237677543E+03 0.  0.
         24    2    3    3    0    0  0.16537215419E+02 -0.25665814265E+02 -0.19972006966E+03  0.21674041307E+03  0.78460734886E+02 0.  0.
         -6    2    1    2    0  502 -0.14122203460E+02  0.12697175759E+03 -0.53424763277E+02  0.21992834702E+03  0.17085961675E+03 0.  0.
        -24    2    5    5    0    0 -0.39475783146E+02  0.11848258947E+03  0.12600040647E+02  0.14854042990E+03  0.79429445585E+02 0.  0.
          5    1    3    3  501    0 -0.24150119591E+01 -0.10130594333E+03 -0.75546967296E+03  0.76225011853E+03  0.47000000000E+01 0. -1.
        -13    1    4    4    0    0  0.24969152661E+02  0.23439601314E+02 -0.87111968886E+02  0.93602182761E+02  0.00000000000E+00 0.  1.
         14    1    4    4    0    0 -0.84319372415E+01 -0.49105415579E+02 -0.11260810077E+03  0.12313823031E+03  0.00000000000E+00 0. -1.
         -5    1    5    5    0  502  0.25353579685E+02  0.84891681176E+01 -0.66024803924E+02  0.71387917124E+02  0.47000000000E+01 0.  1.
         11    1    6    6    0    0  0.26053730281E+01  0.28801159464E+02  0.36565756875E+02  0.46619194876E+02  0.00000000000E+00 0. -1.
        -12    1    6    6    0    0 -0.42081156174E+02  0.89681430011E+02 -0.23965716228E+02  0.10192123502E+03  0.00000000000E+00 0.  1.
</event>
<event>
12    1  0.8258923E-002  0.1801176E+03  0.7818608E-02  0.1168648E+00
         21   -1    0    0  501  502  0.00000000000E+00  0.00000000000E+00  0.92160445016E+02  0.92160445016E+02  0.00000000000E+00 0. -1.
         21   -1    0    0  502  503 -0.00000000000E+00 -0.00000000000E+00 -0.35345924660E+03  0.35345924660E+03  0.00000000000E+00 0. -1.
         -6    2    1    2    0  503 -0.51026849031E+02 -0.19287555081E+02 -0.16771758393E+03  0.24611285054E+03  0.17165837625E+03 0.  0.
        -24    2    3    3    0    0 -0.99596227860E+02 -0.27195494887E+02 -0.11647416033E+03  0.17491243948E+03  0.79806816223E+02 0.  0.
          6    2    1    2  501    0  0.51026849031E+02  0.19287555081E+02 -0.93581217654E+02  0.19950684108E+03  0.16754040180E+03 0.  0.
         24    2    5    5    0    0  0.69393603090E+02 -0.20248445106E+02 -0.10860969408E+03  0.15315624163E+03  0.80220303060E+02 0.  0.
          5    1    5    5  501    0 -0.18366754059E+02  0.39536000187E+02  0.15028476428E+02  0.46350599448E+02  0.47000000000E+01 0. -1.
        -11    1    6    6    0    0  0.78816681694E+01 -0.17232107660E+02 -0.85183085966E+02  0.87265252891E+02  0.00000000000E+00 0.  1.
         12    1    6    6    0    0  0.61511934921E+02 -0.30163374457E+01 -0.23426608116E+02  0.65890988740E+02  0.00000000000E+00 0. -1.
         -5    1    3    3    0  503  0.48569378829E+02  0.79079398062E+01 -0.51243423604E+02  0.71200411056E+02  0.47000000000E+01 0.  1.
         13    1    4    4    0    0 -0.94526615881E+02 -0.33698119837E+02 -0.58100029863E+02  0.11595886279E+03  0.00000000000E+00 0. -1.
        -14    1    4    4    0    0 -0.50696119789E+01  0.65026249497E+01 -0.58374130464E+02  0.58953576688E+02  0.00000000000E+00 0.  1.
</event>
<event>
12    1  0.8258923E-002  0.2073938E+03  0.7818608E-02  0.1144827E+00
         21   -1    0    0  503  502  0.00000000000E+00  0.00000000000E+00  0.80638295273E+02  0.80638295273E+02  0.00000000000E+00 0.  1.
         21   -1    0    0  501  503 -0.00000000000E+00 -0.00000000000E+00 -0.54773966937E+03  0.54773966937E+03  0.00000000000E+00 0.  1.
          6    2    1    2  501    0  0.10072689509E+03 -0.35195798039E+02 -0.30283454106E+03  0.36381080229E+03  0.17106983664E+03 0.  0.
         24    2    3    3    0    0  0.55952018609E+02 -0.61031531593E+02 -0.93776851146E+02  0.14840541145E+03  0.79841042708E+02 0.  0.
         -6    2    1    2    0  502 -0.10072689509E+03  0.35195798039E+02 -0.16426683304E+03  0.26456716235E+03  0.17784133199E+03 0.  0.
        -24    2    5    5    0    0 -0.57499993443E+02  0.92670814879E+02 -0.10876701476E+03  0.17360418958E+03  0.80087589321E+02 0.  0.
          5    1    3    3  501    0  0.44774876482E+02  0.25835733553E+02 -0.20905768991E+03  0.21540539084E+03  0.47000000000E+01 0. -1.
        -13    1    4    4    0    0  0.51394069404E+02  0.15914148062E+01 -0.51059360516E+02  0.72463378801E+02  0.00000000000E+00 0.  1.
         14    1    4    4    0    0  0.45579492059E+01 -0.62622946399E+02 -0.42717490630E+02  0.75942032645E+02  0.00000000000E+00 0. -1.
         -5    1    5    5    0  502 -0.43226901649E+02 -0.57475016840E+02 -0.55499818278E+02  0.90962972773E+02  0.47000000000E+01 0.  1.
         13    1    6    6    0    0  0.18217981798E+02  0.43004544935E+01 -0.11798889589E+02  0.22126964662E+02  0.00000000000E+00 0. -1.
        -14    1    6    6    0    0 -0.75717975241E+02  0.88370360385E+02 -0.96968125170E+02  0.15147722492E+03  0.00000000000E+00 0.  1.
</event>
<event>
12    1  0.8258923E-002  0.2217397E+03  0.7818608E-02  0.1132674E+00
         21   -1    0    0  501  502  0.00000000000E+00  0.00000000000E+00  0.73275015317E+03  0.73275015317E+03  0.00000000000E+00 0. -1.
         21   -1    0    0  502  503 -0.00000000000E+00 -0.00000000000E+00 -0.97816555035E+02  0.97816555035E+02  0.00000000000E+00 0. -1.
         -6    2    1    2    0  503  0.12538411836E+03  0.63284298079E+02  0.84037048591E+02  0.23671864476E+03  0.17101874669E+03 0.  0.
        -24    2    3    3    0    0  0.15886529579E+03  0.45519440718E+02  0.75442476575E+02  0.19757102584E+03  0.77669436007E+02 0.  0.
          6    2    1    2  501    0 -0.12538411836E+03 -0.63284298079E+02  0.55089654955E+03  0.59384806345E+03  0.17158797930E+03 0.  0.
         24    2    5    5    0    0 -0.24561592202E+02 -0.47066814218E+02  0.39992530806E+03  0.41152254598E+03  0.81191114126E+02 0.  0.
          5    1    5    5  501    0 -0.10082252616E+03 -0.16217483861E+02  0.15097124149E+03  0.18232551747E+03  0.47000000000E+01 0. -1.
        -13    1    6    6    0    0 -0.47547660973E+01  0.18547842667E+02  0.18368205403E+03  0.18467735985E+03  0.00000000000E+00 0.  1.
         14    1    6    6    0    0 -0.19806826105E+02 -0.65614656884E+02  0.21624325403E+03  0.22684518613E+03  0.00000000000E+00 0. -1.
         -5    1    3    3    0  503 -0.33481177427E+02  0.17764857361E+02  0.85945720160E+01  0.39147618920E+02  0.47000000000E+01 0.  1.
         13    1    4    4    0    0  0.84450692142E+02 -0.92183193636E+01  0.59772141388E+02  0.10387302682E+03  0.00000000000E+00 0. -1.
        -14    1    4    4    0    0  0.74414603646E+02  0.54737760081E+02  0.15670335187E+02  0.93697999015E+02  0.00000000000E+00 0.  1.
</event>
<event>
12    1  0.8258923E-002  0.2393279E+03  0.7818608E-02  0.1121602E+00
         21   -1    0    0  501  502  0.00000000000E+00  0.00000000000E+00  0.40911529786E+03  0.40911529786E+03  0.00000000000E+00 0.  1.
         21   -1    0    0  502  503 -0.00000000000E+00 -0.00000000000E+00 -0.13549898464E+03  0.13549898464E+03  0.00000000000E+00 0.  1.
         -6    2    1    2    0  503  0.39281793328E+02  0.14991620906E+03  0.12597093290E+03  0.26340797841E+03  0.17174736717E+03 0.  0.
        -24    2    3    3    0    0  0.69619758841E+02  0.64416255344E+02  0.11830400720E+03  0.17224051718E+03  0.81698181530E+02 0.  0.
          6    2    1    2  501    0 -0.39281793328E+02 -0.14991620906E+03  0.14764538033E+03  0.28120630409E+03  0.18237296428E+03 0.  0.
         24    2    5    5    0    0 -0.54761525970E+02 -0.11435595141E+03  0.17677234169E+03  0.23247619096E+03  0.81979328050E+02 0.  0.
          5    1    5    5  501    0  0.15479732642E+02 -0.35560257650E+02 -0.29126961364E+02  0.48730113124E+02  0.47000000000E+01 0. -1.
        -13    1    6    6    0    0  0.13364944044E+02 -0.65223149965E+02  0.86741132123E+02  0.10934671930E+03  0.00000000000E+00 0.  1.
         14    1    6    6    0    0 -0.68126470013E+02 -0.49132801449E+02  0.90031209568E+02  0.12312947166E+03  0.00000000000E+00 0. -1.
         -5    1    3    3    0  503 -0.30337965513E+02  0.85499953720E+02  0.76669256983E+01  0.91167461231E+02  0.47000000000E+01 0.  1.
         13    1    4    4    0    0 -0.13219990796E+02  0.16492051639E+02  0.14341883207E+01  0.21185202856E+02  0.00000000000E+00 0. -1.
        -14    1    4    4    0    0  0.82839749637E+02  0.47924203705E+02  0.11686981888E+03  0.15105531433E+03  0.00000000000E+00 0.  1.
</event>
<event>
12    1  0.8258923E-002  0.1833952E+03  0.7818608E-02  0.1165401E+00
         21   -1    0    0  501  502  0.00000000000E+00  0.00000000000E+00  0.13891003856E+03  0.13891003856E+03  0.00000000000E+00 0.  1.
         21   -1    0    0  502  503 -0.00000000000E+00 -0.00000000000E+00 -0.46630920566E+03  0.46630920566E+03  0.00000000000E+00 0.  1.
         -6    2    1    2    0  503  0.51888114793E+02  0.55792764043E+01 -0.37486694168E+03  0.41578062697E+03  0.17211856672E+03 0.  0.
        -24    2    3    3    0    0  0.68422986846E+02  0.55907883277E+02 -0.31388398398E+03  0.33486473363E+03  0.76182923877E+02 0.  0.
          6    2    1    2  501    0 -0.51888114793E+02 -0.55792764043E+01  0.47467774585E+02  0.18943861725E+03  0.17581323983E+03 0.  0.
         24    2    5    5    0    0  0.13389816396E+02 -0.34200066183E+02  0.83022981543E+02  0.10964751092E+03  0.61488449940E+02 0.  0.
          5    1    5    5  501    0 -0.65277931190E+02  0.28620789779E+02 -0.35555206958E+02  0.79791106333E+02  0.47000000000E+01 0. -1.
        -13    1    6    6    0    0 -0.17853794306E+02 -0.36141590593E+02  0.47519767150E+02  0.62314531305E+02  0.00000000000E+00 0.  1.
         14    1    6    6    0    0  0.31243610703E+02  0.19415244102E+01  0.35503214393E+02  0.47332979613E+02  0.00000000000E+00 0. -1.
         -5    1    3    3    0  503 -0.16534872053E+02 -0.50328606873E+02 -0.60982957703E+02  0.80915893333E+02  0.47000000000E+01 0.  1.
         11    1    4    4    0    0  0.75960024723E+02  0.22626458037E+02 -0.17956911410E+03  0.19628282833E+03  0.00000000000E+00 0. -1.
        -12    1    4    4    0    0 -0.75370378772E+01  0.33281425240E+02 -0.13431486988E+03  0.13858190531E+03  0.00000000000E+00 0.  1.
</event>
<event>
12    1  0.8258923E-002  0.1917006E+03  0.7818608E-02  0.1157662E+00
         21   -1    0    0  501  502  0.00000000000E+00  0.00000000000E+00  0.25922769114E+03  0.25922769114E+03  0.00000000000E+00 0.  1.
         21   -1    0    0  502  503 -0.00000000000E+00 -0.00000000000E+00 -0.16283848979E+03  0.16283848979E+03  0.00000000000E+00 0.  1.
         -6    2    1    2    0  503 -0.58800926672E+02  0.54531588120E+02 -0.32236340339E+02  0.19121202450E+03  0.17056263834E+03 0.  0.
        -24    2    3    3    0    0 -0.10215778185E+03  0.62647871080E+02 -0.10921867352E+02  0.14199731432E+03  0.75385555264E+02 0.  0.
          6    2    1    2  501    0  0.58800926672E+02 -0.54531588120E+02  0.12862554169E+03  0.23085415642E+03  0.17412027016E+03 0.  0.
         24    2    5    5    0    0  0.77880267258E+02 -0.11574188082E+01  0.27130166260E+02  0.11450887538E+03  0.79432744963E+02 0.  0.
          5    1    5    5  501    0 -0.19079340586E+02 -0.53374169312E+02  0.10149537543E+03  0.11634528104E+03  0.47000000000E+01 0. -1.
        -11    1    6    6    0    0  0.80140187946E+02 -0.25818536801E+02  0.30427531605E+02  0.89525869145E+02  0.00000000000E+00 0.  1.
         12    1    6    6    0    0 -0.22599206880E+01  0.24661117993E+02 -0.32973653450E+01  0.24983006232E+02  0.00000000000E+00 0. -1.
         -5    1    3    3    0  503  0.43356855181E+02 -0.81162829594E+01 -0.21314472987E+02  0.49214710189E+02  0.47000000000E+01 0.  1.
         11    1    4    4    0    0 -0.55755767029E+01  0.29039452992E+02 -0.25061816934E+02  0.38761727950E+02  0.00000000000E+00 0. -1.
        -12    1    4    4    0    0 -0.96582205150E+02  0.33608418087E+02  0.14139949582E+02  0.10323558637E+03  0.00000000000E+00 0.  1.
</event>
<event>
12    1  0.8258923E-002  0.2002486E+03  0.7818608E-02  0.1149788E+00
         21   -1    0    0  503  502  0.00000000000E+00  0.00000000000E+00  0.26867147523E+03  0.26867147523E+03  0.00000000000E+00 0.  1.
         21   -1    0    0  501  503 -0.00000000000E+00 -0.00000000000E+00 -0.15626351291E+03  0.15626351291E+03  0.00000000000E+00 0. -1.
          6    2    1    2  501    0 -0.26663874606E+02 -0.96697939198E+02  0.85217798219E+01  0.20042979461E+03  0.17331482389E+03 0.  0.
         24    2    3    3    0    0 -0.20166269694E+02 -0.11055287234E+03  0.57536189403E+02  0.14886740145E+03  0.78882660370E+02 0.  0.
         -6    2    1    2    0  502  0.26663874606E+02  0.96697939198E+02  0.10388618250E+03  0.22450519353E+03  0.17189761300E+03 0.  0.
        -24    2    5    5    0    0  0.42208972381E+02  0.11711446534E+03  0.41428101903E+02  0.15681777641E+03  0.85896053629E+02 0.  0.
          5    1    3    3  501    0 -0.64976049124E+01  0.13854933140E+02 -0.49014409582E+02  0.51562393161E+02  0.47000000000E+01 0. -1.
        -13    1    4    4    0    0  0.27560418707E+02 -0.46310306222E+02  0.73175525456E+01  0.54385363077E+02  0.00000000000E+00 0.  1.
         14    1    4    4    0    0 -0.47726688401E+02 -0.64242566115E+02  0.50218636858E+02  0.94482038371E+02  0.00000000000E+00 0. -1.
         -5    1    5    5    0  502 -0.15545097774E+02 -0.20416526144E+02  0.62458080601E+02  0.67687417124E+02  0.47000000000E+01 0.  1.
         11    1    6    6    0    0  0.40836805793E+02  0.20132730551E+02  0.38753160601E+02  0.59789455620E+02  0.00000000000E+00 0. -1.
        -12    1    6    6    0    0  0.13721665874E+01  0.96981734791E+02  0.26749413018E+01  0.97028320789E+02  0.00000000000E+00 0.  1.
</event>
<event>
12    1  0.8258923E-002  0.1870795E+03  0.7818608E-02  0.1161501E+00
         21   -1    0    0  503  502  0.00000000000E+00  0.00000000000E+00  0.19394130395E+03  0.19394130395E+03  0.00000000000E+00 0. -1.
         21   -1    0    0  501  503 -0.00000000000E+00 -0.00000000000E+00 -0.18082120183E+03  0.18082120183E+03  0.00000000000E+00 0. -1.
          6    2    1    2  501    0  0.73371248056E+02  0.35695936920E+01 -0.12864197703E+02  0.18588705404E+03  0.17027162780E+03 0.  0.
         24    2    3    3    0    0  0.11504885821E+03  0.17157057954E+02 -0.72544055642E+01  0.14144380775E+03  0.80144369343E+02 0.  0.
         -6    2    1    2    0  502 -0.73371248056E+02 -0.35695936920E+01  0.25984299823E+02  0.18887545175E+03  0.17205426585E+03 0.  0.
        -24    2    5    5    0    0 -0.10906948121E+03 -0.59949647327E+01  0.48781846942E+02  0.14618980511E+03  0.84022016116E+02 0.  0.
          5    1    3    3  501    0 -0.41677610150E+02 -0.13587464262E+02 -0.56097921392E+01  0.44443246289E+02  0.47000000000E+01 0. -1.
        -11    1    4    4    0    0  0.65224065388E+02  0.45716208816E+02 -0.21041595144E+02  0.82382638829E+02  0.00000000000E+00 0.  1.
         12    1    4    4    0    0  0.49824792818E+02 -0.28559150862E+02  0.13787189580E+02  0.59061168917E+02  0.00000000000E+00 0. -1.
         -5    1    5    5    0  502  0.35698233155E+02  0.24253710408E+01 -0.22797547119E+02  0.42685646647E+02  0.47000000000E+01 0.  1.
         11    1    6    6    0    0 -0.24370721080E+01  0.21315565410E+02 -0.72870607336E+01  0.22658197266E+02  0.00000000000E+00 0. -1.
        -12    1    6    6    0    0 -0.10663240910E+03 -0.27310530142E+02  0.56068907675E+02  0.12353160784E+03  0.00000000000E+00 0.  1.
</event>
<event>
12    1  0.8258923E-002  0.2282437E+03  0.7818608E-02  0.1128080E+00
         21   -1    0    0  501  502  0.00000000000E+00  0.00000000000E+00  0.17223243868E+03  0.17223243868E+03  0.00000000000E+00 0.  1.
         21   -1    0    0  502  503 -0.00000000000E+00 -0.00000000000E+00 -0.36751144557E+03  0.36751144557E+03  0.00000000000E+00 0.  1.
         -6    2    1    2    0  503 -0.12553362043E+03 -0.81728525728E+02  0.16974835932E+02  0.22887403611E+03  0.17221189730E+03 0.  0.
        -24    2    3    3    0    0 -0.13501075613E+03 -0.49510424946E+02 -0.34154018162E+02  0.16752200403E+03  0.78853905589E+02 0.  0.
          6    2    1    2  501    0  0.12553362043E+03  0.81728525728E+02 -0.21225384282E+03  0.31086984815E+03  0.17073408248E+03 0.  0.
         24    2    5    5    0    0  0.11424371284E+03  0.17367869053E+02 -0.19958806707E+03  0.24414453049E+03  0.80111712325E+02 0.  0.
          5    1    5    5  501    0  0.11289907594E+02  0.64360656675E+02 -0.12665775744E+02  0.66725317656E+02  0.47000000000E+01 0. -1.
        -13    1    6    6    0    0  0.10112713742E+03  0.35632785196E+02 -0.11765879910E+03  0.15918538346E+03  0.00000000000E+00 0.  1.
         14    1    6    6    0    0  0.13116575420E+02 -0.18264916143E+02 -0.81929267975E+02  0.84959147026E+02  0.00000000000E+00 0. -1.
         -5    1    3    3    0  503  0.94771357004E+01 -0.32218100782E+02  0.51128854095E+02  0.61352032078E+02  0.47000000000E+01 0.  1.
         11    1    4    4    0    0 -0.88322097872E+00 -0.18310448254E+02 -0.22929671546E+02  0.29356812357E+02  0.00000000000E+00 0. -1.
        -12    1    4    4    0    0 -0.13412753516E+03 -0.31199976692E+02 -0.11224346616E+02  0.13816519167E+03  0.00000000000E+00 0.  1.
</event>
<event>
12    1  0.8258923E-002  0.2119701E+03  0.7818608E-02  0.1140280E+00
         21   -1    0    0  501  502  0.00000000000E+00  0.00000000000E+00  0.13174554769E+04  0.13174554769E+04  0.00000000000E+00 0. -1.
         21   -1    0    0  502  503 -0.00000000000E+00 -0.00000000000E+00 -0.38839130210E+02  0.38839130210E+02  0.00000000000E+00 0.  1.
         -6    2    1    2    0  503  0.12020971775E+03  0.28180292836E+02  0.39896260155E+03  0.45177701089E+03  0.17229859251E+03 0.  0.
        -24    2    3    3    0    0  0.12577852697E+03  0.33515489594E+02  0.40997156459E+03  0.43753751553E+03  0.80117837188E+02 0.  0.
          6    2    1    2  501    0 -0.12020971775E+03 -0.28180292836E+02  0.87965374517E+03  0.90451759626E+03  0.17063664729E+03 0.  0.
         24    2    5    5    0    0 -0.54665218097E+02  0.49590740213E+02  0.46965384814E+03  0.48206473429E+03  0.79775581425E+02 0.  0.
          5    1    5    5  501    0 -0.65544499654E+02 -0.77771033049E+02  0.40999989703E+03  0.42245286197E+03  0.47000000000E+01 0. -1.
        -13    1    6    6    0    0 -0.31803831979E+02  0.15138013957E+02  0.54722773195E+02  0.65078607094E+02  0.00000000000E+00 0.  1.
         14    1    6    6    0    0 -0.22861386118E+02  0.34452726256E+02  0.41493107494E+03  0.41698612719E+03  0.00000000000E+00 0. -1.
         -5    1    3    3    0  503 -0.55688092180E+01 -0.53351967581E+01 -0.11008963043E+02  0.14239495350E+02  0.47000000000E+01 0.  1.
         11    1    4    4    0    0  0.66888255169E+02 -0.21358110801E+02  0.15500734731E+03  0.17016899041E+03  0.00000000000E+00 0. -1.
        -12    1    4    4    0    0  0.58890271800E+02  0.54873600395E+02  0.25496421729E+03  0.26736852513E+03  0.00000000000E+00 0.  1.
</event>
<event>
12    1  0.8258923E-002  0.2549357E+03  0.7818608E-02  0.1111762E+00
         21   -1    0    0  501  502  0.00000000000E+00  0.00000000000E+00  0.46189160315E+03  0.46189160315E+03  0.00000000000E+00 0. -1.
         21   -1    0    0  502  503 -0.00000000000E+00 -0.00000000000E+00 -0.13551602544E+03  0.13551602544E+03  0.00000000000E+00 0.  1.
         -6    2    1    2    0  503  0.16943927510E+03  0.76171274034E+02  0.16991331098E+03  0.29828783849E+03  0.15997928119E+03 0.  0.
        -24    2    3    3    0    0  0.32271039056E+02  0.44949306607E+02  0.10696397980E+03  0.14409755175E+03  0.79126173415E+02 0.  0.
          6    2    1    2  501    0 -0.16943927510E+03 -0.76171274034E+02  0.15646226674E+03  0.29911979010E+03  0.17458658878E+03 0.  0.
         24    2    5    5    0    0 -0.12757560698E+03 -0.89649285401E+02  0.39855997239E+02  0.17440677720E+03  0.67206350525E+02 0.  0.
          5    1    5    5  501    0 -0.41863668126E+02  0.13478011367E+02  0.11660626950E+03  0.12471301290E+03  0.47000000000E+01 0. -1.
        -13    1    6    6    0    0 -0.11601667245E+02 -0.35957476315E+02 -0.67367203335E+01  0.38378668380E+02  0.00000000000E+00 0.  1.
         14    1    6    6    0    0 -0.11597393973E+03 -0.53691809086E+02  0.46592717572E+02  0.13602810882E+03  0.00000000000E+00 0. -1.
         -5    1    3    3    0  503  0.13716823605E+03  0.31221967427E+02  0.62949331175E+02  0.15419028674E+03  0.47000000000E+01 0.  1.
         11    1    4    4    0    0  0.20661182715E+02 -0.74176811513E+01  0.82085719894E+02  0.84970417648E+02  0.00000000000E+00 0. -1.
        -12    1    4    4    0    0  0.11609856341E+02  0.52366987758E+02  0.24878259908E+02  0.59127134102E+02  0.00000000000E+00 0.  1.
</event>
<event>
12    1  0.8258923E-002  0.2152336E+03  0.7818608E-02  0.1137494E+00
         21   -1    0    0  501  502  0.00000000000E+00  0.00000000000E+00  0.81110835664E+03  0.81110835664E+03  0.00000000000E+00 0. -1.
         21   -1    0    0  502  503 -0.00000000000E+00 -0.00000000000E+00 -0.27361070631E+03  0.27361070631E+03  0.00000000000E+00 0. -1.
         -6    2    1    2    0  503  0.12528060826E+03 -0.29612735236E+02 -0.21370047951E+03  0.30330416605E+03  0.17249167315E+03 0.  0.
        -24    2    3    3    0    0  0.70532587392E+02 -0.79182279491E+02 -0.95701325372E+02  0.16401893394E+03  0.80615059033E+02 0.  0.
          6    2    1    2  501    0 -0.12528060826E+03  0.29612735236E+02  0.75119812984E+03  0.78141489691E+03  0.17244844431E+03 0.  0.
         24    2    5    5    0    0 -0.28329988640E+02  0.66335246062E+02  0.45437202823E+03  0.46696968699E+03  0.80023717747E+02 0.  0.
          5    1    5    5  501    0 -0.96950619615E+02 -0.36722510826E+02  0.29682610160E+03  0.31444520992E+03  0.47000000000E+01 0. -1.
        -13    1    6    6    0    0 -0.50420070006E+02  0.58114548426E+02  0.25914635347E+03  0.27032631524E+03  0.00000000000E+00 0.  1.
         14    1    6    6    0    0  0.22090081366E+02  0.82206976359E+01  0.19522567477E+03  0.19664337175E+03  0.00000000000E+00 0. -1.
         -5    1    3    3    0  503  0.54748020864E+02  0.49569544254E+02 -0.11799915414E+03  0.13928523211E+03  0.47000000000E+01 0.  1.
         13    1    4    4    0    0  0.98192059675E+01  0.95784436163E+01  0.69276603069E+01  0.15367363641E+02  0.00000000000E+00 0. -1.
        -14    1    4    4    0    0  0.60713381424E+02 -0.88760723107E+02 -0.10262898568E+03  0.14865157030E+03  0.00000000000E+00 0.  1.
</event>
<event>
12    1  0.8258923E-002  0.1967319E+03  0.7818608E-02  0.1152742E+00
         21   -1    0    0  503  502  0.00000000000E+00  0.00000000000E+00  0.15105471683E+02  0.15105471683E+02  0.00000000000E+00 0.  1.
         21   -1    0    0  501  503 -0.00000000000E+00 -0.00000000000E+00 -0.27769398631E+04  0.27769398631E+04  0.00000000000E+00 0.  1.
          6    2    1    2  501    0 -0.22435445622E+02 -0.92375280699E+02 -0.98435830813E+03  0.10038250458E+04  0.17224082566E+03 0.  0.
         24    2    3    3    0    0 -0.78153004991E+02 -0.77498821624E+02 -0.63008706133E+03  0.64485991966E+03  0.81979580266E+02 0.  0.
         -6    2    1    2    0  502  0.22435445622E+02  0.92375280699E+02 -0.17774760833E+04  0.17882202890E+04  0.17109656244E+03 0.  0.
        -24    2    5    5    0    0 -0.17414436096E+02  0.88766203459E+02 -0.16528239443E+04  0.16572192040E+04  0.79785950606E+02 0.  0.
          5    1    3    3  501    0  0.55717559369E+02 -0.14876459076E+02 -0.35427124680E+03  0.35896512611E+03  0.47000000000E+01 0. -1.
        -11    1    4    4    0    0 -0.13008639828E+02 -0.68393203147E+02 -0.37637615230E+03  0.38276084305E+03  0.00000000000E+00 0.  1.
         12    1    4    4    0    0 -0.65144365163E+02 -0.91056184769E+01 -0.25371090903E+03  0.26209907661E+03  0.00000000000E+00 0. -1.
         -5    1    5    5    0  502  0.39849881718E+02  0.36090772409E+01 -0.12465213900E+03  0.13100108499E+03  0.47000000000E+01 0.  1.
         11    1    6    6    0    0 -0.58871853777E+01  0.91737171833E+02 -0.16138951281E+04  0.16165110121E+04  0.00000000000E+00 0. -1.
        -12    1    6    6    0    0 -0.11527250718E+02 -0.29709683743E+01 -0.38928816198E+02  0.40708191961E+02  0.00000000000E+00 0.  1.
</event>
<event>
12    1  0.8258923E-002  0.1747358E+03  0.7818608E-02  0.1176279E+00
         21   -1    0    0  501  502  0.00000000000E+00  0.00000000000E+00  0.63053836301E+03  0.63053836301E+03  0.00000000000E+00 0.  1.
         21   -1    0    0  502  503 -0.00000000000E+00 -0.00000000000E+00 -0.73851975818E+02  0.73851975818E+02  0.00000000000E+00 0.  1.
         -6    2    1    2    0  503 -0.39141612319E+02 -0.18612962427E+02  0.64654710166E+02  0.18631379476E+03  0.16927519129E+03 0.  0.
        -24    2    3    3    0    0 -0.77547004974E+02 -0.43838956792E+01  0.79688244445E+00  0.11030489603E+03  0.78318443190E+02 0.  0.
          6    2    1    2  501    0  0.39141612319E+02  0.18612962427E+02  0.49203167702E+03  0.51807654407E+03  0.15629979569E+03 0.  0.
         24    2    5    5    0    0  0.49649783839E+02  0.64942741135E+02  0.32664886005E+03  0.34594160800E+03  0.79331316097E+02 0.  0.
          5    1    5    5  501    0 -0.10508171520E+02 -0.46329778708E+02  0.16538281697E+03  0.17213493606E+03  0.47000000000E+01 0. -1.
        -11    1    6    6    0    0 -0.58927013009E+01  0.43062263356E+02  0.21485680910E+03  0.21920887498E+03  0.00000000000E+00 0.  1.
         12    1    6    6    0    0  0.55542485139E+02  0.21880477779E+02  0.11179205095E+03  0.12673273302E+03  0.00000000000E+00 0. -1.
         -5    1    3    3    0  503  0.38405392655E+02 -0.14229066748E+02  0.63857827721E+02  0.76008898734E+02  0.47000000000E+01 0.  1.
         11    1    4    4    0    0 -0.36210740095E+02  0.11630006565E+02  0.37006966476E+02  0.53065905426E+02  0.00000000000E+00 0. -1.
        -12    1    4    4    0    0 -0.41336264879E+02 -0.16013902244E+02 -0.36210084032E+02  0.57238990599E+02  0.00000000000E+00 0.  1.
</event>
<event>
12    1  0.8258923E-002  0.2847368E+03  0.7818608E-02  0.1093873E+00
         21   -1    0    0  503  502  0.00000000000E+00  0.00000000000E+00  0.15039540055E+03  0.15039540055E+03  0.00000000000E+00 0.  1.
         21   -1    0    0  501  503 -0.00000000000E+00 -0.00000000000E+00 -0.71326185717E+03  0.71326185717E+03  0.00000000000E+00 0.  1.
          6    2    1    2  501    0 -0.17989212208E+03  0.12870032232E+03 -0.50311753095E+03  0.57810229900E+03  0.17930440489E+03 0.  0.
         24    2    3    3    0    0 -0.15245619471E+03  0.16495151659E+03 -0.43330986853E+03  0.49466322585E+03  0.80513171002E+02 0.  0.
         -6    2    1    2    0  502  0.17989212208E+03 -0.12870032232E+03 -0.59748925670E+02  0.28555495872E+03  0.17043107632E+03 0.  0.
        -24    2    5    5    0    0  0.37662980058E+02 -0.97570647750E+02 -0.38509189832E+02  0.13834286051E+03  0.81958879832E+02 0.  0.
          5    1    3    3  501    0 -0.27435927369E+02 -0.36251194277E+02 -0.69807662412E+02  0.83439073152E+02  0.47000000000E+01 0. -1.
        -13    1    4    4    0    0 -0.72676696319E+02  0.89304938604E+02 -0.30318172794E+03  0.32430916484E+03  0.00000000000E+00 0.  1.
         14    1    4    4    0    0 -0.79779498395E+02  0.75646577990E+02 -0.13012814060E+03  0.17035406101E+03  0.00000000000E+00 0. -1.
         -5    1    5    5    0  502  0.14222914202E+03 -0.31129674567E+02 -0.21239735838E+02  0.14721209821E+03  0.47000000000E+01 0.  1.
         13    1    6    6    0    0  0.52486113470E+02 -0.40558961967E+02 -0.43344720973E+02  0.79237531128E+02  0.00000000000E+00 0. -1.
        -14    1    6    6    0    0 -0.14823133412E+02 -0.57011685783E+02  0.48355311402E+01  0.59105329382E+02  0.00000000000E+00 0.  1.
</event>
<event>
12    1  0.8258923E-002  0.1871183E+03  0.7818608E-02  0.1162068E+00
         21   -1    0    0  501  502  0.00000000000E+00  0.00000000000E+00  0.12386595129E+03  0.12386595129E+03  0.00000000000E+00 0.  1.
         21   -1    0    0  502  503 -0.00000000000E+00 -0.00000000000E+00 -0.28156353922E+03  0.28156353922E+03  0.00000000000E+00 0.  1.
         -6    2    1    2    0  503 -0.61778198284E+02 -0.21183066477E+01 -0.50359517291E+02  0.18971043241E+03  0.17214219174E+03 0.  0.
        -24    2    3    3    0    0 -0.83661586990E+02  0.30404460725E+02  0.91467075005E+01  0.11829829137E+03  0.77376554023E+02 0.  0.
          6    2    1    2  501    0  0.61778198284E+02  0.21183066477E+01 -0.10733807065E+03  0.21571905810E+03  0.17661318640E+03 0.  0.
         24    2    5    5    0    0 -0.18931256681E+02 -0.36713566533E+02 -0.80283761922E+02  0.12203898489E+03  0.82108178391E+02 0.  0.
          5    1    5    5  501    0  0.80709454965E+02  0.38831873181E+02 -0.27054308724E+02  0.93680073207E+02  0.47000000000E+01 0. -1.
        -11    1    6    6    0    0  0.27479632300E+02 -0.81855041805E+01 -0.49902362369E+01  0.29103867917E+02  0.00000000000E+00 0.  1.
         12    1    6    6    0    0 -0.46410888981E+02 -0.28528062353E+02 -0.75293525685E+02  0.92935116978E+02  0.00000000000E+00 0. -1.
         -5    1    3    3    0  503  0.21883388706E+02 -0.32522767373E+02 -0.59506224792E+02  0.71412141039E+02  0.47000000000E+01 0.  1.
         11    1    4    4    0    0  0.62290411581E+01  0.22143217756E+02 -0.11470993251E+02  0.25704216240E+02  0.00000000000E+00 0. -1.
        -12    1    4    4    0    0 -0.89890628148E+02  0.82612429692E+01  0.20617700751E+02  0.92594075127E+02  0.00000000000E+00 0.  1.
</event>
<event>
12    1  0.8258923E-002  0.2514790E+03  0.7818608E-02  0.1112500E+00
         21   -1    0    0  503  502  0.00000000000E+00  0.00000000000E+00  0.60089378069E+03  0.60089378069E+03  0.00000000000E+00 0.  1.
         21   -1    0    0  501  503 -0.00000000000E+00 -0.00000000000E+00 -0.15677482326E+03  0.15677482326E+03  0.00000000000E+00 0. -1.
          6    2    1    2  501    0 -0.18243280781E+03 -0.10667367683E+02  0.39238536230E+01  0.25070372108E+03  0.17158507230E+03 0.  0.
         24    2    3    3    0    0 -0.11890634942E+03  0.40820897682E+02 -0.43752361351E+02  0.15593155290E+03  0.81211541347E+02 0.  0.
         -6    2    1    2    0  502  0.18243280781E+03  0.10667367683E+02  0.44019510381E+03  0.50696488288E+03  0.17276035702E+03 0.  0.
        -24    2    5    5    0    0  0.14191689721E+03 -0.38378589265E+02  0.18810953598E+03  0.24693359936E+03  0.63068876129E+02 0.  0.
          5    1    3    3  501    0 -0.63526458394E+02 -0.51488265364E+02  0.47676214974E+02  0.94772168174E+02  0.47000000000E+01 0. -1.
        -13    1    4    4    0    0 -0.92869423026E+02  0.22758733254E+02  0.72442240207E+01  0.95891440985E+02  0.00000000000E+00 0.  1.
         14    1    4    4    0    0 -0.26036926393E+02  0.18062164428E+02 -0.50996585371E+02  0.60040111920E+02  0.00000000000E+00 0. -1.
         -5    1    5    5    0  502  0.40515910604E+02  0.49045956947E+02  0.25208556783E+03  0.26003128352E+03  0.47000000000E+01 0.  1.
         13    1    6    6    0    0  0.12273888111E+03 -0.55017916755E+02  0.16095900539E+03  0.20976082932E+03  0.00000000000E+00 0. -1.
        -14    1    6    6    0    0  0.19178016097E+02  0.16639327490E+02  0.27150530587E+02  0.37172770033E+02  0.00000000000E+00 0.  1.
</event>
<event>
12    1  0.8258923E-002  0.2103269E+03  0.7818608E-02  0.1141784E+00
         21   -1    0    0  503  502  0.00000000000E+00  0.00000000000E+00  0.90156499109E+03  0.90156499109E+03  0.00000000000E+00 0.  1.
         21   -1    0    0  501  503 -0.00000000000E+00 -0.00000000000E+00 -0.61388715167E+02  0.61388715167E+02  0.00000000000E+00 0. -1.
          6    2    1    2  501    0 -0.43613470481E+02 -0.11389146428E+03  0.64251605238E+03  0.67606528302E+03  0.17135923929E+03 0.  0.
         24    2    3    3    0    0 -0.27241033750E+02  0.18116816825E+01  0.39860640923E+03  0.40556707842E+03  0.69657946466E+02 0.  0.
         -6    2    1    2    0  502  0.43613470481E+02  0.11389146428E+03  0.19766022354E+03  0.28688842324E+03  0.16841022230E+03 0.  0.
        -24    2    5    5    0    0 -0.23013326660E+02  0.43102420249E+02  0.43461286872E+02  0.10454363740E+03  0.81566272621E+02 0.  0.
          5    1    3    3  501    0 -0.16372436731E+02 -0.11570314596E+03  0.24390964315E+03  0.27049820460E+03  0.47000000000E+01 0. -1.
        -11    1    4    4    0    0  0.13796685728E+02 -0.11140363369E+02  0.25589561762E+03  0.25650930461E+03  0.00000000000E+00 0.  1.
         12    1    4    4    0    0 -0.41037719478E+02  0.12952045052E+02  0.14271079161E+03  0.14905777381E+03  0.00000000000E+00 0. -1.
         -5    1    5    5    0  502  0.66626797142E+02  0.70789044031E+02  0.15419893667E+03  0.18234478584E+03  0.47000000000E+01 0.  1.
         11    1    6    6    0    0  0.12412318450E+02 -0.15643854899E+02 -0.49580860079E+01  0.20576162477E+02  0.00000000000E+00 0. -1.
        -12    1    6    6    0    0 -0.35425645110E+02  0.58746275148E+02  0.48419372880E+02  0.83967474925E+02  0.00000000000E+00 0.  1.
</event>
<event>
12    1  0.8258923E-002  0.1860971E+03  0.7818608E-02  0.1162061E+00
         21   -1    0    0  503  502  0.00000000000E+00  0.00000000000E+00  0.32119178040E+02  0.32119178040E+02  0.00000000000E+00 0. -1.
         21   -1    0    0  501  503 -0.00000000000E+00 -0.00000000000E+00 -0.10799861488E+04  0.10799861488E+04  0.00000000000E+00 0.  1.
          6    2    1    2  501    0 -0.33571052108E+01 -0.70485526932E+02 -0.55113850015E+03  0.58170934936E+03  0.17219942255E+03 0.  0.
         24    2    3    3    0    0 -0.43957606493E+02 -0.10078617117E+03 -0.39062660553E+03  0.41332678477E+03  0.78484155017E+02 0.  0.
         -6    2    1    2    0  502  0.33571052108E+01  0.70485526932E+02 -0.49672847061E+03  0.53039597748E+03  0.17205010825E+03 0.  0.
        -24    2    5    5    0    0 -0.16249325411E+02  0.31380430269E+02 -0.47139745087E+03  0.47962816024E+03  0.81110069800E+02 0.  0.
          5    1    3    3  501    0  0.40600501282E+02  0.30300644239E+02 -0.16051189462E+03  0.16838256460E+03  0.47000000000E+01 0. -1.
        -11    1    4    4    0    0  0.13910032758E+02  0.23581215697E+01 -0.74001052708E+02  0.75333960142E+02  0.00000000000E+00 0.  1.
         12    1    4    4    0    0 -0.57867639252E+02 -0.10314429274E+03 -0.31662555282E+03  0.33799282462E+03  0.00000000000E+00 0. -1.
         -5    1    5    5    0  502  0.19606430621E+02  0.39105096663E+02 -0.25331019741E+02  0.50767817246E+02  0.47000000000E+01 0.  1.
         11    1    6    6    0    0 -0.12331967506E+02  0.51321240428E+02 -0.18149319473E+03  0.18901250454E+03  0.00000000000E+00 0. -1.
        -12    1    6    6    0    0 -0.39173579047E+01 -0.19940810159E+02 -0.28990425615E+03  0.29061565569E+03  0.00000000000E+00 0.  1.
</event>
<event>
12    1  0.8258923E-002  0.1876714E+03  0.7818608E-02  0.1164411E+00
         21   -1    0    0  503  502  0.00000000000E+00  0.00000000000E+00  0.11235634230E+03  0.11235634230E+03  0.00000000000E+00 0.  1.
         21   -1    0    0  501  503 -0.00000000000E+00 -0.00000000000E+00 -0.29030275284E+03  0.29030275284E+03  0.00000000000E+00 0.  1.
          6    2    1    2  501    0 -0.20259205054E+02  0.26847936253E+02 -0.72743544418E+02  0.20127636421E+03  0.18463289107E+03 0.  0.
         24    2    3    3    0    0 -0.17045047818E+02 -0.84074859263E+01  0.34866922381E+02  0.87894804142E+02  0.78412848718E+02 0.  0.
         -6    2    1    2    0  502  0.20259205054E+02 -0.26847936253E+02 -0.10520286612E+03  0.20138273093E+03  0.16839273798E+03 0.  0.
        -24    2    5    5    0    0 -0.43706634359E+02 -0.68196474437E+01 -0.18403306644E+02  0.91614727895E+02  0.78088406269E+02 0.  0.
          5    1    3    3  501    0 -0.32141572364E+01  0.35255422179E+02 -0.10761046680E+03  0.11338156007E+03  0.47000000000E+01 0. -1.
        -11    1    4    4    0    0 -0.25189426978E+02  0.12803458161E+02 -0.15794777310E+02  0.32371449808E+02  0.00000000000E+00 0.  1.
         12    1    4    4    0    0  0.81443791605E+01 -0.21210944087E+02  0.50661699691E+02  0.55523354334E+02  0.00000000000E+00 0. -1.
         -5    1    5    5    0  502  0.63965839413E+02 -0.20028288809E+02 -0.86799559473E+02  0.10976800303E+03  0.47000000000E+01 0.  1.
         13    1    6    6    0    0 -0.40067429108E+02  0.29943923346E+02  0.69854989193E+00  0.50025247552E+02  0.00000000000E+00 0. -1.
        -14    1    6    6    0    0 -0.36392052510E+01 -0.36763570790E+02 -0.19101856536E+02  0.41589480343E+02  0.00000000000E+00 0.  1.
</event>
<event>
12    1  0.8258923E-002  0.2794361E+03  0.7818608E-02  0.1097458E+00
         21   -1    0    0  503  502  0.00000000000E+00  0.00000000000E+00  0.48318785983E+03  0.48318785983E+03  0.00000000000E+00 0. -1.
         21   -1    0    0  501  503 -0.00000000000E+00 -0.00000000000E+00 -0.23197320068E+03  0.23197320068E+03  0.00000000000E+00 0. -1.
          6    2    1    2  501    0 -0.16908569581E+03  0.12400539696E+03 -0.77920518169E+02  0.29009682382E+03  0.18470855161E+03 0.  0.
         24    2    3    3    0    0 -0.43991832594E+02  0.71389049284E+01 -0.73884678198E+02  0.11879408135E+03  0.81650736634E+02 0.  0.
         -6    2    1    2    0  502  0.16908569581E+03 -0.12400539696E+03  0.32913517733E+03  0.42506423669E+03  0.16847055931E+03 0.  0.
        -24    2    5    5    0    0  0.50210545382E+02  0.35523069918E+01  0.10374012599E+03  0.14006022199E+03  0.79505561383E+02 0.  0.
          5    1    3    3  501    0 -0.12509386321E+03  0.11686649203E+03 -0.40358399702E+01  0.17130274247E+03  0.47000000000E+01 0. -1.
        -13    1    4    4    0    0  0.22883594646E+02 -0.44081639980E+00 -0.70636836566E+01  0.23953055125E+02  0.00000000000E+00 0.  1.
         14    1    4    4    0    0 -0.66875427240E+02  0.75797213282E+01 -0.66820994542E+02  0.94841026226E+02  0.00000000000E+00 0. -1.
         -5    1    5    5    0  502  0.11887515043E+03 -0.12755770395E+03  0.22539505134E+03  0.28500401470E+03  0.47000000000E+01 0.  1.
         11    1    6    6    0    0  0.46854415029E+02 -0.23666472514E+02  0.99241313279E+02  0.11226876854E+03  0.00000000000E+00 0. -1.
        -12    1    6    6    0    0  0.33561303526E+01  0.27218779506E+02  0.44988127082E+01  0.27791453444E+02  0.00000000000E+00 0.  1.
</event>
<event>
12    1  0.8258923E-002  0.1921445E+03  0.7818608E-02  0.1157783E+00
         21   -1    0    0  503  502  0.00000000000E+00  0.00000000000E+00  0.30505959500E+03  0.30505959500E+03  0.00000000000E+00 0. -1.
         21   -1    0    0  501  503 -0.00000000000E+00 -0.00000000000E+00 -0.11800787760E+03  0.11800787760E+03  0.00000000000E+00 0. -1.
          6    2    1    2  501    0  0.71017661075E+02  0.38542682851E+02  0.82183653452E+02  0.20898244331E+03  0.17432860389E+03 0.  0.
         24    2    3    3    0    0 -0.14036572229E+02  0.85619644640E+01  0.90389191581E+02  0.11830451362E+03  0.74534685835E+02 0.  0.
         -6    2    1    2    0  502 -0.71017661075E+02 -0.38542682851E+02  0.10486806395E+03  0.21408502928E+03  0.16824399645E+03 0.  0.
        -24    2    5    5    0    0 -0.79452219243E+02 -0.61441511982E+02  0.12708845543E+03  0.18074835362E+03  0.80192127395E+02 0.  0.
          5    1    3    3  501    0  0.85054233304E+02  0.29980718387E+02 -0.82055381287E+01  0.90677929696E+02  0.47000000000E+01 0. -1.
        -13    1    4    4    0    0  0.41519565909E+01 -0.26521465479E+02  0.98535950837E+01  0.28595807574E+02  0.00000000000E+00 0.  1.
         14    1    4    4    0    0 -0.18188528820E+02  0.35083429943E+02  0.80535596497E+02  0.89708706045E+02  0.00000000000E+00 0. -1.
         -5    1    5    5    0  502  0.84345581679E+01  0.22898829130E+02 -0.22220391476E+02  0.33336675665E+02  0.47000000000E+01 0.  1.
         11    1    6    6    0    0 -0.66915438655E+02 -0.71515637445E+02  0.13159980901E+03  0.16404472579E+03  0.00000000000E+00 0. -1.
        -12    1    6    6    0    0 -0.12536780588E+02  0.10074125464E+02 -0.45113535825E+01  0.16703627825E+02  0.00000000000E+00 0.  1.
</event>
<event>
12    1  0.8258923E-002  0.2154835E+03  0.7818608E-02  0.1138014E+00
         21   -1    0    0  501  502  0.00000000000E+00  0.00000000000E+00  0.33123843968E+02  0.33123843968E+02  0.00000000000E+00 0.  1.
         21   -1    0    0  502  503 -0.00000000000E+00 -0.00000000000E+00 -0.15384980054E+04  0.15384980054E+04  0.00000000000E+00 0.  1.
         -6    2    1    2    0  503 -0.37232549641E+02  0.12390014395E+03 -0.10125677409E+04  0.10352422728E+04  0.17232418620E+03 0.  0.
        -24    2    3    3    0    0  0.23250251189E+02  0.10089190352E+03 -0.85563525970E+03  0.86542636670E+03  0.78302925617E+02 0.  0.
          6    2    1    2  501    0  0.37232549641E+02 -0.12390014395E+03 -0.49280642055E+03  0.53637957654E+03  0.16765253823E+03 0.  0.
         24    2    5    5    0    0  0.35301945945E+02 -0.15443356900E+03 -0.44816922419E+03  0.48206027450E+03  0.80190399159E+02 0.  0.
          5    1    5    5  501    0  0.19306036958E+01  0.30533425048E+02 -0.44637196360E+02  0.54319302045E+02  0.47000000000E+01 0. -1.
        -11    1    6    6    0    0  0.58370628209E+02 -0.10035049951E+03 -0.33470244112E+03  0.35426413462E+03  0.00000000000E+00 0.  1.
         12    1    6    6    0    0 -0.23068682264E+02 -0.54083069483E+02 -0.11346678307E+03  0.12779613988E+03  0.00000000000E+00 0. -1.
         -5    1    3    3    0  503 -0.60482800830E+02  0.23008240430E+02 -0.15693248119E+03  0.16981590613E+03  0.47000000000E+01 0.  1.
         11    1    4    4    0    0  0.14739880556E+01  0.28457688711E+02 -0.62463387705E+02  0.68656299720E+02  0.00000000000E+00 0. -1.
        -12    1    4    4    0    0  0.21776263133E+02  0.72434214806E+02 -0.79317187199E+03  0.79677006698E+03  0.00000000000E+00 0.  1.
</event>
<event>
12    1  0.8258923E-002  0.2167711E+03  0.7818608E-02  0.1136406E+00
         21   -1    0    0  501  502  0.00000000000E+00  0.00000000000E+00  0.24238395966E+02  0.24238395966E+02  0.00000000000E+00 0.  1.
         21   -1    0    0  502  503 -0.00000000000E+00 -0.00000000000E+00 -0.25236326497E+04  0.25236326497E+04  0.00000000000E+00 0. -1.
         -6    2    1    2    0  503 -0.98318858139E+02 -0.88284776462E+02 -0.18664039221E+04  0.18789500583E+04  0.17183981385E+03 0.  0.
        -24    2    3    3    0    0 -0.12870466077E+03 -0.10085352763E+03 -0.16585728437E+04  0.16684812538E+04  0.78927136329E+02 0.  0.
          6    2    1    2  501    0  0.98318858139E+02  0.88284776462E+02 -0.63299033164E+03  0.66892098735E+03  0.17122420315E+03 0.  0.
         24    2    5    5    0    0 -0.14343435201E+02  0.24149827355E+02 -0.28738807268E+03  0.29977454562E+03  0.80522826529E+02 0.  0.
          5    1    5    5  501    0  0.11266229334E+03  0.64134949107E+02 -0.34560225897E+03  0.36914644173E+03  0.47000000000E+01 0. -1.
        -11    1    6    6    0    0 -0.15167026710E+02  0.45787685576E+02 -0.26201557802E+03  0.26641830638E+03  0.00000000000E+00 0.  1.
         12    1    6    6    0    0  0.82359150839E+00 -0.21637858221E+02 -0.25372494660E+02  0.33356239246E+02  0.00000000000E+00 0. -1.
         -5    1    3    3    0  503  0.30385802633E+02  0.12568751173E+02 -0.20783107835E+03  0.21046880443E+03  0.47000000000E+01 0.  1.
         11    1    4    4    0    0 -0.10876590775E+03 -0.77319702626E+02 -0.15463251079E+04  0.15520727104E+04  0.00000000000E+00 0. -1.
        -12    1    4    4    0    0 -0.19938753022E+02 -0.23533825009E+02 -0.11224773579E+03  0.11640854342E+03  0.00000000000E+00 0.  1.
</event>
<event>
12    1  0.8258923E-002  0.2398436E+03  0.7818608E-02  0.1120230E+00
         21   -1    0    0  501  502  0.00000000000E+00  0.00000000000E+00  0.73410082298E+02  0.73410082298E+02  0.00000000000E+00 0. -1.
         21   -1    0    0  502  503 -0.00000000000E+00 -0.00000000000E+00 -0.10122146880E+04  0.10122146880E+04  0.00000000000E+00 0.  1.
         -6    2    1    2    0  503 -0.75199935241E+02  0.14904492758E+03 -0.72949147961E+03  0.76729011517E+03  0.16943105179E+03 0.  0.
        -24    2    3    3    0    0  0.16732111422E+02  0.72883133030E+02 -0.27297745315E+03  0.29540107470E+03  0.84576535608E+02 0.  0.
          6    2    1    2  501    0  0.75199935241E+02 -0.14904492758E+03 -0.20931312612E+03  0.31833465515E+03  0.17220786047E+03 0.  0.
         24    2    5    5    0    0  0.51802757297E+02 -0.38109938336E+02 -0.17424435488E+03  0.19956635765E+03  0.73005087742E+02 0.  0.
          5    1    5    5  501    0  0.23397177945E+02 -0.11093498925E+03 -0.35068771236E+02  0.11876829750E+03  0.47000000000E+01 0. -1.
        -11    1    6    6    0    0  0.18933600223E+02 -0.53309701265E+02 -0.13385909453E+03  0.14532261577E+03  0.00000000000E+00 0.  1.
         12    1    6    6    0    0  0.32869157074E+02  0.15199762929E+02 -0.40385260351E+02  0.54243741883E+02  0.00000000000E+00 0. -1.
         -5    1    3    3    0  503 -0.91932046663E+02  0.76161794554E+02 -0.45651402646E+03  0.47188904047E+03  0.47000000000E+01 0.  1.
         13    1    4    4    0    0 -0.16957251972E+02 -0.28955172885E+01 -0.12146910103E+03  0.12268119220E+03  0.00000000000E+00 0. -1.
        -14    1    4    4    0    0  0.33689363394E+02  0.75778650318E+02 -0.15150835212E+03  0.17271988250E+03  0.00000000000E+00 0.  1.
</event>
<event>
12    1  0.8258923E-002  0.1838627E+03  0.7818608E-02  0.1165210E+00
         21   -1    0    0  503  502  0.00000000000E+00  0.00000000000E+00  0.12117800780E+03  0.12117800780E+03  0.00000000000E+00 0. -1.
         21   -1    0    0  501  503 -0.00000000000E+00 -0.00000000000E+00 -0.27349371784E+03  0.27349371784E+03  0.00000000000E+00 0. -1.
          6    2    1    2  501    0  0.15718655761E+02 -0.61664868256E+02 -0.89474493647E+02  0.20036651126E+03  0.16760495728E+03 0.  0.
         24    2    3    3    0    0  0.39961929546E+02 -0.46215021576E+02  0.75360206665E+01  0.99077005517E+02  0.77631677699E+02 0.  0.
         -6    2    1    2    0  502 -0.15718655761E+02  0.61664868256E+02 -0.62841216399E+02  0.19430521438E+03  0.17249888621E+03 0.  0.
        -24    2    5    5    0    0 -0.68668519422E+02  0.19445002644E+02 -0.12769238191E+02  0.10995180239E+03  0.82661186276E+02 0.  0.
          5    1    3    3  501    0 -0.24243273785E+02 -0.15449846679E+02 -0.97010514314E+02  0.10128950574E+03  0.47000000000E+01 0. -1.
        -13    1    4    4    0    0  0.13254296284E+02 -0.62930578101E+02 -0.63928543666E+01  0.64628187480E+02  0.00000000000E+00 0.  1.
         14    1    4    4    0    0  0.26707633263E+02  0.16715556524E+02  0.13928875033E+02  0.34448818036E+02  0.00000000000E+00 0. -1.
         -5    1    5    5    0  502  0.52949863661E+02  0.42219865612E+02 -0.50071978207E+02  0.84353411998E+02  0.47000000000E+01 0.  1.
         11    1    6    6    0    0  0.28404082855E+00  0.24443177292E+02  0.21713318885E+02  0.32695837844E+02  0.00000000000E+00 0. -1.
        -12    1    6    6    0    0 -0.68952560251E+02 -0.49981746480E+01 -0.34482557076E+02  0.77255964543E+02  0.00000000000E+00 0.  1.
</event>
<event>
12    1  0.8258923E-002  0.1774115E+03  0.7818608E-02  0.1171028E+00
         21   -1    0    0  501  502  0.00000000000E+00  0.00000000000E+00  0.10669924125E+03  0.10669924125E+03  0.00000000000E+00 0. -1.
         21   -1    0    0  502  503 -0.00000000000E+00 -0.00000000000E+00 -0.30272098212E+03  0.30272098212E+03  0.00000000000E+00 0. -1.
         -6    2    1    2    0  503 -0.16642606912E+02 -0.25086041341E+02 -0.14014200640E+03  0.22608544670E+03  0.17483867254E+03 0.  0.
        -24    2    3    3    0    0 -0.60822055934E+02 -0.59336198104E+02 -0.11477470454E+03  0.16451851598E+03  0.81688447188E+02 0.  0.
          6    2    1    2  501    0  0.16642606912E+02  0.25086041341E+02 -0.55879734465E+02  0.18333477668E+03  0.17199654003E+03 0.  0.
         24    2    5    5    0    0  0.55372006391E+02  0.24505101149E+02  0.19188347917E+02  0.98732112015E+02  0.75586230050E+02 0.  0.
          5    1    5    5  501    0 -0.38729399479E+02  0.58094019229E+00 -0.75068082382E+02  0.84602664663E+02  0.47000000000E+01 0. -1.
        -13    1    6    6    0    0 -0.83628623624E+01  0.26148973268E+02  0.21597167673E+02  0.34930558561E+02  0.00000000000E+00 0.  1.
         14    1    6    6    0    0  0.63734868754E+02 -0.16438721195E+01 -0.24088197560E+01  0.63801553454E+02  0.00000000000E+00 0. -1.
         -5    1    3    3    0  503  0.44179449023E+02  0.34250156763E+02 -0.25367301856E+02  0.61566930715E+02  0.47000000000E+01 0.  1.
         11    1    4    4    0    0 -0.17539793802E+02 -0.26858977212E+02  0.55783981019E+01  0.32560214201E+02  0.00000000000E+00 0. -1.
        -12    1    4    4    0    0 -0.43282262133E+02 -0.32477220892E+02 -0.12035310264E+03  0.13195830178E+03  0.00000000000E+00 0.  1.
</event>
<event>
12    1  0.8258923E-002  0.1854335E+03  0.7818608E-02  0.1165011E+00
         21   -1    0    0  501  502  0.00000000000E+00  0.00000000000E+00  0.19732018846E+03  0.19732018846E+03  0.00000000000E+00 0. -1.
         21   -1    0    0  502  503 -0.00000000000E+00 -0.00000000000E+00 -0.25984007918E+03  0.25984007918E+03  0.00000000000E+00 0. -1.
         -6    2    1    2    0  503  0.34673078710E+02  0.59531161209E+02 -0.16869931825E+03  0.24347903385E+03  0.16148188260E+03 0.  0.
        -24    2    3    3    0    0  0.73691032883E+02  0.32930670540E+02 -0.68525348253E+02  0.13263273885E+03  0.79880677711E+02 0.  0.
          6    2    1    2  501    0 -0.34673078710E+02 -0.59531161209E+02  0.10617942753E+03  0.21368123378E+03  0.17216102142E+03 0.  0.
         24    2    5    5    0    0 -0.74209088888E+02 -0.63733941440E+01  0.98166188769E+02  0.14678469952E+03  0.79759252566E+02 0.  0.
          5    1    5    5  501    0  0.39536010179E+02 -0.53157767065E+02  0.80132387632E+01  0.66896534258E+02  0.47000000000E+01 0. -1.
        -11    1    6    6    0    0 -0.70988953618E+02 -0.43350690492E+01  0.27872584322E+02  0.76387861052E+02  0.00000000000E+00 0.  1.
         12    1    6    6    0    0 -0.32201352708E+01 -0.20383250948E+01  0.70293604447E+02  0.70396838470E+02  0.00000000000E+00 0. -1.
         -5    1    3    3    0  503 -0.39017954173E+02  0.26600490669E+02 -0.10017397000E+03  0.11084629501E+03  0.47000000000E+01 0.  1.
         11    1    4    4    0    0 -0.21083241088E+01  0.33386770226E+02 -0.51876481351E+01  0.33853111376E+02  0.00000000000E+00 0. -1.
        -12    1    4    4    0    0  0.75799356992E+02 -0.45609968606E+00 -0.63337700118E+02  0.98779627472E+02  0.00000000000E+00 0.  1.
</event>
<event>
12    1  0.8258923E-002  0.1821902E+03  0.7818608E-02  0.1166085E+00
         21   -1    0    0  501  502  0.00000000000E+00  0.00000000000E+00  0.37887450599E+03  0.37887450599E+03  0.00000000000E+00 0. -1.
         21   -1    0    0  502  503 -0.00000000000E+00 -0.00000000000E+00 -0.12581597589E+03  0.12581597589E+03  0.00000000000E+00 0. -1.
         -6    2    1    2    0  503 -0.48272542351E+01 -0.54629117883E+02 -0.14309508010E+02  0.18114923255E+03  0.17205417615E+03 0.  0.
        -24    2    3    3    0    0  0.58203643444E+02 -0.28312521649E+02 -0.38057257590E+02  0.10868197850E+03  0.78575788917E+02 0.  0.
          6    2    1    2  501    0  0.48272542351E+01  0.54629117883E+02  0.26736803812E+03  0.32354124933E+03  0.17374012002E+03 0.  0.
         24    2    5    5    0    0 -0.62852026992E+02  0.16621988526E+02  0.16852574072E+03  0.19777592523E+03  0.80546405985E+02 0.  0.
          5    1    5    5  501    0  0.67679281227E+02  0.38007129357E+02  0.98842297398E+02  0.12576532409E+03  0.47000000000E+01 0. -1.
        -11    1    6    6    0    0 -0.36784402647E+02 -0.12252264024E+01  0.16119682045E+03  0.16534511901E+03  0.00000000000E+00 0.  1.
         12    1    6    6    0    0 -0.26067624345E+02  0.17847214928E+02  0.73289202666E+01  0.32430806218E+02  0.00000000000E+00 0. -1.
         -5    1    3    3    0  503 -0.63030897679E+02 -0.26316596234E+02  0.23747749581E+02  0.72467254051E+02  0.47000000000E+01 0.  1.
         13    1    4    4    0    0  0.18049046603E+02  0.15463667529E+02 -0.42939487172E+02  0.49078433709E+02  0.00000000000E+00 0. -1.
        -14    1    4    4    0    0  0.40154596841E+02 -0.43776189178E+02  0.48822295813E+01  0.59603544795E+02  0.00000000000E+00 0.  1.
</event>
<event>
12    1  0.8258923E-002  0.1942403E+03  0.7818608E-02  0.1157902E+00
         21   -1    0    0  503  502  0.00000000000E+00  0.00000000000E+00  0.35114244681E+02  0.35114244681E+02  0.00000000000E+00 0.  1.
         21   -1    0    0  501  503 -0.00000000000E+00 -0.00000000000E+00 -0.10122485560E+04  0.10122485560E+04  0.00000000000E+00 0.  1.
          6    2    1    2  501    0  0.51633485013E+02 -0.60436885033E+02 -0.53249600718E+03  0.56214890986E+03  0.16168106057E+03 0.  0.
         24    2    3    3    0    0  0.70738735820E+02  0.70032397100E+01 -0.32695830093E+03  0.34493698633E+03  0.83825890267E+02 0.  0.
         -6    2    1    2    0  502 -0.51633485013E+02  0.60436885033E+02 -0.44463830413E+03  0.48521389081E+03  0.17723054051E+03 0.  0.
        -24    2    5    5    0    0 -0.78215739883E+02  0.25681799804E+00 -0.16957273007E+03  0.20235099686E+03  0.77931041475E+02 0.  0.
          5    1    3    3  501    0 -0.19105250808E+02 -0.67440124743E+02 -0.20553770625E+03  0.21721192353E+03  0.47000000000E+01 0. -1.
        -13    1    4    4    0    0  0.52375540597E+02 -0.30273335001E+02 -0.12655187730E+03  0.14026777860E+03  0.00000000000E+00 0.  1.
         14    1    4    4    0    0  0.18363195223E+02  0.37276574711E+02 -0.20040642363E+03  0.20466920773E+03  0.00000000000E+00 0. -1.
         -5    1    5    5    0  502  0.26582254871E+02  0.60180067035E+02 -0.27506557406E+03  0.28286289395E+03  0.47000000000E+01 0.  1.
         11    1    6    6    0    0 -0.11951584866E+02  0.33973993497E+02 -0.52537432243E+02  0.63696580769E+02  0.00000000000E+00 0. -1.
        -12    1    6    6    0    0 -0.66264155017E+02 -0.33717175499E+02 -0.11703529782E+03  0.13865441609E+03  0.00000000000E+00 0.  1.
</event>
<event>
12    1  0.8258923E-002  0.2083140E+03  0.7818608E-02  0.1142973E+00
         21   -1    0    0  503  502  0.00000000000E+00  0.00000000000E+00  0.52290792023E+03  0.52290792023E+03  0.00000000000E+00 0. -1.
         21   -1    0    0  501  503 -0.00000000000E+00 -0.00000000000E+00 -0.35263669613E+03  0.35263669613E+03  0.00000000000E+00 0.  1.
          6    2    1    2  501    0  0.61783156896E+02  0.10338710378E+03 -0.29778273440E+03  0.36322709023E+03  0.16956801133E+03 0.  0.
         24    2    3    3    0    0  0.42365351262E+02  0.13916400388E+03 -0.22732760315E+03  0.28172216230E+03  0.80796625034E+02 0.  0.
         -6    2    1    2    0  502 -0.61783156896E+02 -0.10338710378E+03  0.46805395849E+03  0.51231752613E+03  0.16996672562E+03 0.  0.
        -24    2    5    5    0    0 -0.87966667045E+02 -0.12616849255E+03  0.39392198839E+03  0.43032846059E+03  0.79695846999E+02 0.  0.
          5    1    3    3  501    0  0.19417805634E+02 -0.35776900102E+02 -0.70455131249E+02  0.81504927924E+02  0.47000000000E+01 0. -1.
        -13    1    4    4    0    0  0.17526092484E+02  0.82722962829E+00 -0.63438398069E+02  0.65820046917E+02  0.00000000000E+00 0.  1.
         14    1    4    4    0    0  0.24839258778E+02  0.13833677425E+03 -0.16388920508E+03  0.21590211539E+03  0.00000000000E+00 0. -1.
         -5    1    5    5    0  502  0.26183510149E+02  0.22781388770E+02  0.74131970102E+02  0.81989065547E+02  0.47000000000E+01 0.  1.
         13    1    6    6    0    0 -0.58158224385E+02 -0.10521590813E+03  0.36349323951E+03  0.38285780854E+03  0.00000000000E+00 0. -1.
        -14    1    6    6    0    0 -0.29808442660E+02 -0.20952584418E+02  0.30428748882E+02  0.47470652050E+02  0.00000000000E+00 0.  1.
</event>
<event>
12    1  0.8258923E-002  0.2276041E+03  0.7818608E-02  0.1128873E+00
         21   -1    0    0  501  502  0.00000000000E+00  0.00000000000E+00  0.11409174159E+03  0.11409174159E+03  0.00000000000E+00 0.  1.
         21   -1    0    0  502  503 -0.00000000000E+00 -0.00000000000E+00 -0.15187677169E+04  0.15187677169E+04  0.00000000000E+00 0.  1.
         -6    2    1    2    0  503  0.69463988468E+02  0.13070118623E+03 -0.13891819180E+04  0.14077038086E+04  0.17290334158E+03 0.  0.
        -24    2    3    3    0    0  0.43904615613E+02  0.93990145268E+02 -0.47682746969E+03  0.49424132359E+03  0.78411015919E+02 0.  0.
          6    2    1    2  501    0 -0.69463988468E+02 -0.13070118623E+03 -0.15494057272E+02  0.22515564991E+03  0.16895844193E+03 0.  0.
         24    2    5    5    0    0  0.18583969499E+02 -0.31336480299E+02  0.44697816631E+01  0.90818638806E+02  0.83070495885E+02 0.  0.
          5    1    5    5  501    0 -0.88047957967E+02 -0.99364705927E+02 -0.19963838935E+02  0.13433701110E+03  0.47000000000E+01 0. -1.
        -11    1    6    6    0    0 -0.21667596217E+02 -0.41879394221E+02  0.11707886459E+02  0.48584390410E+02  0.00000000000E+00 0.  1.
         12    1    6    6    0    0  0.40251565716E+02  0.10542913922E+02 -0.72381047960E+01  0.42234248396E+02  0.00000000000E+00 0. -1.
         -5    1    3    3    0  503  0.25559372855E+02  0.36711040958E+02 -0.91235444832E+03  0.91346248497E+03  0.47000000000E+01 0.  1.
         13    1    4    4    0    0  0.19967833226E+02 -0.76415926024E+01 -0.42949445038E+02  0.47976693616E+02  0.00000000000E+00 0. -1.
        -14    1    4    4    0    0  0.23936782387E+02  0.10163173787E+03 -0.43387802465E+03  0.44626462998E+03  0.00000000000E+00 0.  1.
</event>
<event>
12    1  0.8258923E-002  0.2052076E+03  0.7818608E-02  0.1145486E+00
         21   -1    0    0  503  502  0.00000000000E+00  0.00000000000E+00  0.17072353169E+03  0.17072353169E+03  0.00000000000E+00 0. -1.
         21   -1    0    0  501  503 -0.00000000000E+00 -0.00000000000E+00 -0.25022576451E+03  0.25022576451E+03  0.00000000000E+00 0. -1.
          6    2    1    2  501    0 -0.11580013192E+03  0.10697483448E+02 -0.13286557107E+02  0.20563729540E+03  0.16907411971E+03 0.  0.
         24    2    3    3    0    0 -0.74798302459E+02 -0.43652468444E+02 -0.49450899983E+02  0.12840377298E+03  0.80881477207E+02 0.  0.
         -6    2    1    2    0  502  0.11580013192E+03 -0.10697483448E+02 -0.66215675720E+02  0.21531200080E+03  0.16867316109E+03 0.  0.
        -24    2    5    5    0    0  0.87764684811E+02 -0.18568385147E+02 -0.11033371339E+03  0.16224196560E+03  0.78112113432E+02 0.  0.
          5    1    3    3  501    0 -0.41001829464E+02  0.54349951892E+02  0.36164342876E+02  0.77233522422E+02  0.47000000000E+01 0. -1.
        -13    1    4    4    0    0 -0.26044922640E+01 -0.37985725332E+02 -0.40250501048E+02  0.55405789802E+02  0.00000000000E+00 0.  1.
         14    1    4    4    0    0 -0.72193810195E+02 -0.56667431116E+01 -0.92003989350E+01  0.72997983181E+02  0.00000000000E+00 0. -1.
         -5    1    5    5    0  502  0.28035447112E+02  0.78709016991E+01  0.44118037667E+02  0.53070035198E+02  0.47000000000E+01 0.  1.
         11    1    6    6    0    0  0.35411217719E+02 -0.47210740585E+02 -0.60196324422E+02  0.84299500834E+02  0.00000000000E+00 0. -1.
        -12    1    6    6    0    0  0.52353467091E+02  0.28642355437E+02 -0.50137388965E+02  0.77942464765E+02  0.00000000000E+00 0.  1.
</event>
<event>
12    1  0.8258923E-002  0.1896883E+03  0.7818608E-02  0.1161636E+00
         21   -1    0    0  503  502  0.00000000000E+00  0.00000000000E+00  0.35323125619E+03  0.35323125619E+03  0.00000000000E+00 0.  1.
         21   -1    0    0  501  503 -0.00000000000E+00 -0.00000000000E+00 -0.96038269012E+02  0.96038269012E+02  0.00000000000E+00 0. -1.
          6    2    1    2  501    0 -0.39302304016E+02 -0.69595062691E+02  0.10514486171E+03  0.20616404818E+03  0.15830359744E+03 0.  0.
         24    2    3    3    0    0 -0.26349365865E+01 -0.53644391364E+02  0.12774681482E+03  0.15999199998E+03  0.79959538174E+02 0.  0.
         -6    2    1    2    0  502  0.39302304016E+02  0.69595062691E+02  0.15204812546E+03  0.24310547702E+03  0.17202760433E+03 0.  0.
        -24    2    5    5    0    0  0.81250241285E+02  0.23716761159E+02  0.63119934808E+02  0.13450178885E+03  0.83321777251E+02 0.  0.
          5    1    3    3  501    0 -0.36667367430E+02 -0.15950671327E+02 -0.22601953111E+02  0.46172048194E+02  0.47000000000E+01 0. -1.
        -11    1    4    4    0    0  0.35254806672E+02 -0.67809525056E+01  0.43315527349E+02  0.56259378062E+02  0.00000000000E+00 0.  1.
         12    1    4    4    0    0 -0.37889743259E+02 -0.46863438858E+02  0.84431287475E+02  0.10373262192E+03  0.00000000000E+00 0. -1.
         -5    1    5    5    0  502 -0.41947937269E+02  0.45878301531E+02  0.88928190654E+02  0.10860368818E+03  0.47000000000E+01 0.  1.
         11    1    6    6    0    0 -0.12840659767E+02  0.19997737826E+02  0.65498527113E+01  0.24651422514E+02  0.00000000000E+00 0. -1.
        -12    1    6    6    0    0  0.94090901052E+02  0.37190233335E+01  0.56570082096E+02  0.10985036633E+03  0.00000000000E+00 0.  1.
</event>
<event>
12    1  0.8258923E-002  0.2140659E+03  0.7818608E-02  0.1138567E+00
         21   -1    0    0  503  502  0.00000000000E+00  0.00000000000E+00  0.46288339755E+02  0.46288339755E+02  0.00000000000E+00 0.  1.
         21   -1    0    0  501  503 -0.00000000000E+00 -0.00000000000E+00 -0.10896272752E+04  0.10896272752E+04  0.00000000000E+00 0. -1.
          6    2    1    2  501    0 -0.67778238453E+02 -0.10635159071E+03 -0.34726038580E+03  0.40793871992E+03  0.17297304185E+03 0.  0.
         24    2    3    3    0    0 -0.60862803533E+02 -0.24825793169E+02 -0.28940583107E+03  0.30762163061E+03  0.80961297538E+02 0.  0.
         -6    2    1    2    0  502  0.67778238453E+02  0.10635159071E+03 -0.69607854961E+03  0.72797689500E+03  0.17181519716E+03 0.  0.
        -24    2    5    5    0    0 -0.18116098188E+02  0.80541613930E+02 -0.28435807134E+03  0.30657467123E+03  0.79456728596E+02 0.  0.
          5    1    3    3  501    0 -0.69154349194E+01 -0.81525797544E+02 -0.57854554734E+02  0.10031708932E+03  0.47000000000E+01 0. -1.
        -13    1    4    4    0    0  0.13285321462E+02 -0.15346721396E+02 -0.21866770775E+02  0.29835838987E+02  0.00000000000E+00 0.  1.
         14    1    4    4    0    0 -0.74148124995E+02 -0.94790717734E+01 -0.26753906029E+03  0.27778579162E+03  0.00000000000E+00 0. -1.
         -5    1    5    5    0  502  0.85894336641E+02  0.25809976783E+02 -0.41172047828E+03  0.42140222377E+03  0.47000000000E+01 0.  1.
         13    1    6    6    0    0  0.26525695986E+02  0.50922268878E+02 -0.18484007046E+03  0.19355242613E+03  0.00000000000E+00 0. -1.
        -14    1    6    6    0    0 -0.44641794174E+02  0.29619345052E+02 -0.99518000877E+02  0.11302224510E+03  0.00000000000E+00 0.  1.
</event>
<event>
12    1  0.8258923E-002  0.1987845E+03  0.7818608E-02  0.1151080E+00
         21   -1    0    0  503  502  0.00000000000E+00  0.00000000000E+00  0.41637817567E+03  0.41637817567E+03  0.00000000000E+00 0. -1.
         21   -1    0    0  501  503 -0.00000000000E+00 -0.00000000000E+00 -0.10079006258E+03  0.10079006258E+03  0.00000000000E+00 0. -1.
          6    2    1    2  501    0  0.94002019107E+02  0.33628291525E+02  0.92250807294E+02  0.21914716126E+03  0.17189539044E+03 0.  0.
         24    2    3    3    0    0 -0.71237210214E+00  0.46095421230E+02  0.80574546069E+02  0.12279016721E+03  0.80373331131E+02 0.  0.
         -6    2    1    2    0  502 -0.94002019107E+02 -0.33628291525E+02  0.22333730579E+03  0.29802107700E+03  0.17020507803E+03 0.  0.
        -24    2    5    5    0    0 -0.21826101289E+02  0.11231011452E+02  0.19071154802E+03  0.20687147334E+03  0.76304636934E+02 0.  0.
          5    1    3    3  501    0  0.94714391209E+02 -0.12467129705E+02  0.11676261225E+02  0.96356994045E+02  0.47000000000E+01 0. -1.
        -11    1    4    4    0    0 -0.30660511260E+02  0.16561346559E+02  0.35478160867E+01  0.35027591261E+02  0.00000000000E+00 0.  1.
         12    1    4    4    0    0  0.29948139157E+02  0.29534074671E+02  0.77026729982E+02  0.87762575950E+02  0.00000000000E+00 0. -1.
         -5    1    5    5    0  502 -0.72175917818E+02 -0.44859302977E+02  0.32625757769E+02  0.91149603655E+02  0.47000000000E+01 0.  1.
         11    1    6    6    0    0 -0.18393881831E+02 -0.17009612585E+02  0.15707080157E+02  0.29569818670E+02  0.00000000000E+00 0. -1.
        -12    1    6    6    0    0 -0.34322194579E+01  0.28240624037E+02  0.17500446787E+03  0.17730165467E+03  0.00000000000E+00 0.  1.
</event>
<event>
12    1  0.8258923E-002  0.2512422E+03  0.7818608E-02  0.1112599E+00
         21   -1    0    0  501  502  0.00000000000E+00  0.00000000000E+00  0.16111419478E+03  0.16111419478E+03  0.00000000000E+00 0. -1.
         21   -1    0    0  502  503 -0.00000000000E+00 -0.00000000000E+00 -0.39138798941E+03  0.39138798941E+03  0.00000000000E+00 0.  1.
         -6    2    1    2    0  503 -0.10127083782E+03  0.15138946860E+03 -0.10669026914E+03  0.27251018158E+03  0.17234973670E+03 0.  0.
        -24    2    3    3    0    0 -0.80170083262E+02  0.18057349895E+03 -0.82516776009E+02  0.22888224052E+03  0.80895184840E+02 0.  0.
          6    2    1    2  501    0  0.10127083782E+03 -0.15138946860E+03 -0.12358352549E+03  0.27999200261E+03  0.17305513560E+03 0.  0.
         24    2    5    5    0    0  0.12066503707E+03 -0.76493656982E+02 -0.46515604825E+02  0.17068934044E+03  0.80992707799E+02 0.  0.
          5    1    5    5  501    0 -0.19394199255E+02 -0.74895811616E+02 -0.77067920661E+02  0.10930266217E+03  0.47000000000E+01 0. -1.
        -11    1    6    6    0    0  0.90071077034E+02 -0.90715177826E+02 -0.48895025979E+02  0.13686769513E+03  0.00000000000E+00 0.  1.
         12    1    6    6    0    0  0.30593960041E+02  0.14221520844E+02  0.23794211532E+01  0.33821645305E+02  0.00000000000E+00 0. -1.
         -5    1    3    3    0  503 -0.21100754558E+02 -0.29184030355E+02 -0.24173493129E+02  0.43627941055E+02  0.47000000000E+01 0.  1.
         11    1    4    4    0    0 -0.37220745767E+02  0.71873375719E+02  0.76024483731E+01  0.81295530467E+02  0.00000000000E+00 0. -1.
        -12    1    4    4    0    0 -0.42949337496E+02  0.10870012323E+03 -0.90119224382E+02  0.14758671006E+03  0.00000000000E+00 0.  1.
</event>
<event>
12    1  0.8258923E-002  0.1994817E+03  0.7818608E-02  0.1151782E+00
         21   -1    0    0  501  502  0.00000000000E+00  0.00000000000E+00  0.21693783866E+02  0.21693783866E+02  0.00000000000E+00 0. -1.
         21   -1    0    0  502  503 -0.00000000000E+00 -0.00000000000E+00 -0.18510024569E+04  0.18510024569E+04  0.00000000000E+00 0. -1.
         -6    2    1    2    0  503  0.84927993927E+02 -0.15647861242E+02 -0.69817464310E+03  0.72410704954E+03  0.17153882130E+03 0.  0.
        -24    2    3    3    0    0  0.11513879384E+03  0.83341740311E+00 -0.64884831004E+03  0.66377876339E+03  0.79627136387E+02 0.  0.
          6    2    1    2  501    0 -0.84927993927E+02  0.15647861242E+02 -0.11311340299E+04  0.11485891912E+04  0.17982023470E+03 0.  0.
         24    2    5    5    0    0  0.16065264937E+02  0.27076929471E+02 -0.73942473544E+03  0.74388124304E+03  0.74960733107E+02 0.  0.
          5    1    5    5  501    0 -0.10099325886E+03 -0.11429068229E+02 -0.39170929450E+03  0.40470794820E+03  0.47000000000E+01 0. -1.
        -11    1    6    6    0    0  0.30547516391E+02  0.15721399538E+01 -0.62530850121E+03  0.62605618284E+03  0.00000000000E+00 0.  1.
         12    1    6    6    0    0 -0.14482251454E+02  0.25504789517E+02 -0.11411623423E+03  0.11782506020E+03  0.00000000000E+00 0. -1.
         -5    1    3    3    0  503 -0.30210799914E+02 -0.16481278645E+02 -0.49326333060E+02  0.60328286155E+02  0.47000000000E+01 0.  1.
         11    1    4    4    0    0  0.90259211096E+02  0.13066174960E+02 -0.60545302483E+03  0.61228328035E+03  0.00000000000E+00 0. -1.
        -12    1    4    4    0    0  0.24879582746E+02 -0.12232757557E+02 -0.43395285208E+02  0.51495483038E+02  0.00000000000E+00 0.  1.
</event>
<event>
12    1  0.8258923E-002  0.1729742E+03  0.7818608E-02  0.1175699E+00
         21   -1    0    0  503  502  0.00000000000E+00  0.00000000000E+00  0.37453513456E+03  0.37453513456E+03  0.00000000000E+00 0. -1.
         21   -1    0    0  501  503 -0.00000000000E+00 -0.00000000000E+00 -0.11820472320E+03  0.11820472320E+03  0.00000000000E+00 0. -1.
          6    2    1    2  501    0 -0.22399411067E+01  0.19622594819E+02 -0.15948627143E+02  0.17016280210E+03  0.16825860140E+03 0.  0.
         24    2    3    3    0    0 -0.34391986826E+02  0.71463702821E+02 -0.46389070575E+01  0.10794339764E+03  0.73077958761E+02 0.  0.
         -6    2    1    2    0  502  0.22399411067E+01 -0.19622594819E+02  0.27227903851E+03  0.32257705566E+03  0.17184300528E+03 0.  0.
        -24    2    5    5    0    0  0.32716261994E+02  0.47849673028E+02  0.13079879021E+03  0.16282705183E+03  0.77745612615E+02 0.  0.
          5    1    3    3  501    0  0.32152045719E+02 -0.51841108002E+02 -0.11309720086E+02  0.62219404459E+02  0.47000000000E+01 0. -1.
        -11    1    4    4    0    0 -0.21547258226E+02  0.63414532687E+02  0.27506140517E+02  0.72403556950E+02  0.00000000000E+00 0.  1.
         12    1    4    4    0    0 -0.12844728600E+02  0.80491701342E+01 -0.32145047575E+02  0.35539840690E+02  0.00000000000E+00 0. -1.
         -5    1    5    5    0  502 -0.30476320887E+02 -0.67472267847E+02  0.14148024830E+03  0.15975000383E+03  0.47000000000E+01 0.  1.
         11    1    6    6    0    0  0.58076134456E+02  0.38496714823E+02  0.88631410184E+02  0.11274023823E+03  0.00000000000E+00 0. -1.
        -12    1    6    6    0    0 -0.25359872462E+02  0.93529582042E+01  0.42167380023E+02  0.50086813599E+02  0.00000000000E+00 0.  1.
</event>
<event>
12    1  0.8258923E-002  0.1974815E+03  0.7818608E-02  0.1152004E+00
         21   -1    0    0  503  502  0.00000000000E+00  0.00000000000E+00  0.29359982646E+03  0.29359982646E+03  0.00000000000E+00 0.  1.
         21   -1    0    0  501  503 -0.00000000000E+00 -0.00000000000E+00 -0.13272331091E+03  0.13272331091E+03  0.00000000000E+00 0.  1.
          6    2    1    2  501    0 -0.94958678061E+01  0.95741200762E+02  0.90081210429E+02  0.21653531186E+03  0.17180328222E+03 0.  0.
         24    2    3    3    0    0 -0.32688747421E+02 -0.11144873358E+02  0.72214311635E+02  0.10561255235E+03  0.68893700723E+02 0.  0.
         -6    2    1    2    0  502  0.94958678061E+01 -0.95741200762E+02  0.70795305114E+02  0.20978782551E+03  0.17245987207E+03 0.  0.
        -24    2    5    5    0    0 -0.23208624281E+02  0.95354870076E+01  0.46888186335E+02  0.96887847125E+02  0.80988808789E+02 0.  0.
          5    1    3    3  501    0  0.23192879615E+02  0.10688607412E+03  0.17866898794E+02  0.11092275951E+03  0.47000000000E+01 0. -1.
        -13    1    4    4    0    0 -0.76915189654E+01  0.24058322103E+02  0.52270834925E+02  0.58053445291E+02  0.00000000000E+00 0.  1.
         14    1    4    4    0    0 -0.24997228455E+02 -0.35203195461E+02  0.19943476710E+02  0.47559107060E+02  0.00000000000E+00 0. -1.
         -5    1    5    5    0  502  0.32704492087E+02 -0.10527668777E+03  0.23907118779E+02  0.11289997838E+03  0.47000000000E+01 0.  1.
         11    1    6    6    0    0 -0.30432360727E+01  0.32496850501E+02  0.56157612029E+02  0.64953706338E+02  0.00000000000E+00 0. -1.
        -12    1    6    6    0    0 -0.20165388209E+02 -0.22961363493E+02 -0.92694256939E+01  0.31934140786E+02  0.00000000000E+00 0.  1.
</event>
<event>
12    1  0.8258923E-002  0.3477290E+03  0.7818608E-02  0.1063792E+00
         21   -1    0    0  503  502  0.00000000000E+00  0.00000000000E+00  0.39541129066E+03  0.39541129066E+03  0.00000000000E+00 0.  1.
         21   -1    0    0  501  503 -0.00000000000E+00 -0.00000000000E+00 -0.30604787812E+03  0.30604787812E+03  0.00000000000E+00 0.  1.
          6    2    1    2  501    0  0.50227749891E+02  0.29826523978E+03  0.14191671201E+02  0.34569765792E+03  0.16679474525E+03 0.  0.
         24    2    3    3    0    0 -0.28748663037E+02  0.14600795823E+03  0.35688627225E+02  0.17277061348E+03  0.80194745929E+02 0.  0.
         -6    2    1    2    0  502 -0.50227749891E+02 -0.29826523978E+03  0.75171741341E+02  0.35576151085E+03  0.17155314567E+03 0.  0.
        -24    2    5    5    0    0  0.70984965452E+00 -0.22153742219E+03 -0.17420929435E+01  0.23567976809E+03  0.80390203906E+02 0.  0.
          5    1    3    3  501    0  0.78976412928E+02  0.15225728155E+03 -0.21496956024E+02  0.17292704445E+03  0.47000000000E+01 0. -1.
        -11    1    4    4    0    0  0.24704197926E+01  0.13058773710E+03  0.13101664865E+02  0.13126657486E+03  0.00000000000E+00 0.  1.
         12    1    4    4    0    0 -0.31219082830E+02  0.15420221133E+02  0.22586962359E+02  0.41504038613E+02  0.00000000000E+00 0. -1.
         -5    1    5    5    0  502 -0.50937599546E+02 -0.76727817588E+02  0.76913834285E+02  0.12008174276E+03  0.47000000000E+01 0.  1.
         13    1    6    6    0    0 -0.21731899943E+02 -0.28647791514E+02 -0.19098097276E+02  0.40714969647E+02  0.00000000000E+00 0. -1.
        -14    1    6    6    0    0  0.22441749597E+02 -0.19288963068E+03  0.17356004333E+02  0.19496479845E+03  0.00000000000E+00 0.  1.
</event>
<event>
12    1  0.8258923E-002  0.2281600E+03  0.7818608E-02  0.1128057E+00
         21   -1    0    0  503  502  0.00000000000E+00  0.00000000000E+00  0.84611630840E+03  0.84611630840E+03  0.00000000000E+00 0. -1.
         21   -1    0    0  501  503 -0.00000000000E+00 -0.00000000000E+00 -0.16663214976E+03  0.16663214976E+03  0.00000000000E+00 0. -1.
          6    2    1    2  501    0  0.19790297625E+02 -0.14801581441E+03 -0.62583813449E+02  0.23658760983E+03  0.17250109050E+03 0.  0.
         24    2    3    3    0    0 -0.50990130482E+02 -0.65787962907E+02 -0.11271005166E+02  0.11647773155E+03  0.80696821005E+02 0.  0.
         -6    2    1    2    0  502 -0.19790297625E+02  0.14801581441E+03  0.74206797209E+03  0.77616084833E+03  0.17164046750E+03 0.  0.
        -24    2    5    5    0    0  0.48786025653E+02  0.11543554721E+03  0.47251964331E+03  0.49608482745E+03  0.84379504923E+02 0.  0.
          5    1    3    3  501    0  0.70780428107E+02 -0.82227851498E+02 -0.51312808283E+02  0.12010987827E+03  0.47000000000E+01 0. -1.
        -13    1    4    4    0    0 -0.24124146123E+02 -0.10343799950E+02  0.31853067968E+02  0.41274526800E+02  0.00000000000E+00 0.  1.
         14    1    4    4    0    0 -0.26865984359E+02 -0.55444162957E+02 -0.43124073134E+02  0.75203204754E+02  0.00000000000E+00 0. -1.
         -5    1    5    5    0  502 -0.68576323278E+02  0.32580267199E+02  0.26954832878E+03  0.28007602088E+03  0.47000000000E+01 0.  1.
         13    1    6    6    0    0  0.23343919532E+02  0.61133181841E+02  0.38159898581E+03  0.38716920135E+03  0.00000000000E+00 0. -1.
        -14    1    6    6    0    0  0.25442106122E+02  0.54302365365E+02  0.90920657498E+02  0.10891562610E+03  0.00000000000E+00 0.  1.
</event>
<event>
12    1  0.8258923E-002  0.2892273E+03  0.7818608E-02  0.1090756E+00
         21   -1    0    0  503  502  0.00000000000E+00  0.00000000000E+00  0.69321306984E+02  0.69321306984E+02  0.00000000000E+00 0. -1.
         21   -1    0    0  501  503 -0.00000000000E+00 -0.00000000000E+00 -0.13381661332E+04  0.13381661332E+04  0.00000000000E+00 0. -1.
          6    2    1    2  501    0 -0.17600565571E+03  0.15292380570E+03 -0.85506899976E+03  0.90266018464E+03  0.17113951440E+03 0.  0.
         24    2    3    3    0    0 -0.52308069320E+02  0.12569910941E+03 -0.39120429945E+03  0.42179135932E+03  0.79565989393E+02 0.  0.
         -6    2    1    2    0  502  0.17600565571E+03 -0.15292380570E+03 -0.41377582643E+03  0.50482725552E+03  0.17110360074E+03 0.  0.
        -24    2    5    5    0    0  0.43777954175E+02 -0.10568454856E+02 -0.10890847296E+03  0.14328140202E+03  0.81488055410E+02 0.  0.
          5    1    3    3  501    0 -0.12369758639E+03  0.27224696287E+02 -0.46386470031E+03  0.48086882532E+03  0.47000000000E+01 0. -1.
        -13    1    4    4    0    0 -0.46776171656E+01 -0.18780735412E+01 -0.10205313811E+03  0.10217754284E+03  0.00000000000E+00 0.  1.
         14    1    4    4    0    0 -0.47630452154E+02  0.12757718295E+03 -0.28915116133E+03  0.31961381647E+03  0.00000000000E+00 0. -1.
         -5    1    5    5    0  502  0.13222770154E+03 -0.14235535084E+03 -0.30486735348E+03  0.36154585350E+03  0.47000000000E+01 0.  1.
         11    1    6    6    0    0 -0.97439883389E+01 -0.44503968096E+01 -0.82669261074E+02  0.83360410670E+02  0.00000000000E+00 0. -1.
        -12    1    6    6    0    0  0.53521942514E+02 -0.61180580466E+01 -0.26239211882E+02  0.59920991354E+02  0.00000000000E+00 0.  1.
</event>
<event>
12    1  0.8258923E-002  0.2143974E+03  0.7818608E-02  0.1138881E+00
         21   -1    0    0  503  502  0.00000000000E+00  0.00000000000E+00  0.20485962923E+04  0.20485962923E+04  0.00000000000E+00 0.  1.
         21   -1    0    0  501  503 -0.00000000000E+00 -0.00000000000E+00 -0.30462954411E+02  0.30462954411E+02  0.00000000000E+00 0. -1.
          6    2    1    2  501    0  0.12619884217E+03 -0.32554206950E+01  0.45572083867E+03  0.50200532652E+03  0.16849664545E+03 0.  0.
         24    2    3    3    0    0  0.15299097282E+03  0.55049581764E+01  0.43118561498E+03  0.46434062548E+03  0.79086279308E+02 0.  0.
         -6    2    1    2    0  502 -0.12619884217E+03  0.32554206950E+01  0.15624124992E+04  0.15770539202E+04  0.17329023037E+03 0.  0.
        -24    2    5    5    0    0 -0.70148299417E+02 -0.19471861075E+01  0.42268436337E+03  0.43592682643E+03  0.80284192224E+02 0.  0.
          5    1    3    3  501    0 -0.26792130656E+02 -0.87603788714E+01  0.24535223688E+02  0.37664701041E+02  0.47000000000E+01 0. -1.
        -11    1    4    4    0    0  0.10852828106E+03  0.24728719355E+02  0.36953952049E+03  0.38593957371E+03  0.00000000000E+00 0.  1.
         12    1    4    4    0    0  0.44462691767E+02 -0.19223761178E+02  0.61646094493E+02  0.78401051774E+02  0.00000000000E+00 0. -1.
         -5    1    5    5    0  502 -0.56050542750E+02  0.52026068025E+01  0.11397281359E+04  0.11411270938E+04  0.47000000000E+01 0.  1.
         13    1    6    6    0    0 -0.63523812690E+01 -0.72992103743E+01  0.13660234565E+01  0.97722689258E+01  0.00000000000E+00 0. -1.
        -14    1    6    6    0    0 -0.63795918148E+02  0.53520242668E+01  0.42131833991E+03  0.42615455751E+03  0.00000000000E+00 0.  1.
</event>
<event>
12    1  0.8258923E-002  0.2390742E+03  0.7818608E-02  0.1121761E+00
         21   -1    0    0  501  502  0.00000000000E+00  0.00000000000E+00  0.80932859593E+02  0.80932859593E+02  0.00000000000E+00 0. -1.
         21   -1    0    0  502  503 -0.00000000000E+00 -0.00000000000E+00 -0.11256278786E+04  0.11256278786E+04  0.00000000000E+00 0. -1.
         -6    2    1    2    0  503  0.86394746084E+02  0.12703193499E+03 -0.89527475787E+03  0.92463365667E+03  0.17271173185E+03 0.  0.
        -24    2    3    3    0    0  0.37842709547E+02  0.13590085946E+03 -0.48442894405E+03  0.51080720657E+03  0.79696211844E+02 0.  0.
          6    2    1    2  501    0 -0.86394746084E+02 -0.12703193499E+03 -0.14942026109E+03  0.28192708147E+03  0.18318105848E+03 0.  0.
         24    2    5    5    0    0 -0.10619328092E+03 -0.47214962408E+02 -0.14093695619E+03  0.19912135971E+03  0.79245344873E+02 0.  0.
          5    1    5    5  501    0  0.19798534841E+02 -0.79816972583E+02 -0.84833048988E+01  0.82805721760E+02  0.47000000000E+01 0. -1.
        -13    1    6    6    0    0 -0.65478991886E+02 -0.61361231103E+02 -0.12342248332E+03  0.15259688218E+03  0.00000000000E+00 0.  1.
         14    1    6    6    0    0 -0.40714289038E+02  0.14146268695E+02 -0.17514472869E+02  0.46524477533E+02  0.00000000000E+00 0. -1.
         -5    1    3    3    0  503  0.48552036537E+02 -0.88689244687E+01 -0.41084581382E+03  0.41382645011E+03  0.47000000000E+01 0.  1.
         11    1    4    4    0    0  0.46330811112E+02  0.68663843690E+02 -0.16935194594E+03  0.18852413395E+03  0.00000000000E+00 0. -1.
        -12    1    4    4    0    0 -0.84881015651E+01  0.67237015770E+02 -0.31507699811E+03  0.32228307262E+03  0.00000000000E+00 0.  1.
</event>
<event>
12    1  0.8258923E-002  0.1844033E+03  0.7818608E-02  0.1163934E+00
         21   -1    0    0  503  502  0.00000000000E+00  0.00000000000E+00  0.26034846395E+04  0.26034846395E+04  0.00000000000E+00 0.  1.
         21   -1    0    0  501  503 -0.00000000000E+00 -0.00000000000E+00 -0.40757934935E+02  0.40757934935E+02  0.00000000000E+00 0.  1.
          6    2    1    2  501    0  0.67216895041E+02 -0.97908890712E-02  0.18802093251E+03  0.26238781579E+03  0.17022744708E+03 0.  0.
         24    2    3    3    0    0  0.49724006500E+02  0.43491134507E+02  0.47835815249E+02  0.11449498716E+03  0.80354721458E+02 0.  0.
         -6    2    1    2    0  502 -0.67216895041E+02  0.97908890713E-02  0.23747057720E+04  0.23818547586E+04  0.17171626704E+03 0.  0.
        -24    2    5    5    0    0 -0.72479366015E+02 -0.69207110634E+02  0.14135551646E+04  0.14181892288E+04  0.55494169625E+02 0.  0.
          5    1    3    3  501    0  0.17492888541E+02 -0.43500925397E+02  0.14018511726E+03  0.14789282863E+03  0.47000000000E+01 0. -1.
        -11    1    4    4    0    0 -0.84571523107E+01  0.30878643314E+02 -0.78649207553E+01  0.32967726895E+02  0.00000000000E+00 0.  1.
         12    1    4    4    0    0  0.58181158810E+02  0.12612491193E+02  0.55700736004E+02  0.81527260263E+02  0.00000000000E+00 0. -1.
         -5    1    5    5    0  502  0.52624709746E+01  0.69216901523E+02  0.96115060749E+03  0.96366552980E+03  0.47000000000E+01 0.  1.
         11    1    6    6    0    0 -0.35304047370E+02  0.90805776874E-01  0.37320278529E+03  0.37486891436E+03  0.00000000000E+00 0. -1.
        -12    1    6    6    0    0 -0.37175318645E+02 -0.69297916411E+02  0.10403523793E+04  0.10433203145E+04  0.00000000000E+00 0.  1.
</event>
<event>
12    1  0.8258923E-002  0.1921497E+03  0.7818608E-02  0.1156872E+00
         21   -1    0    0  503  502  0.00000000000E+00  0.00000000000E+00  0.51716349507E+02  0.51716349507E+02  0.00000000000E+00 0.  1.
         21   -1    0    0  501  503 -0.00000000000E+00 -0.00000000000E+00 -0.87632653763E+03  0.87632653763E+03  0.00000000000E+00 0.  1.
          6    2    1    2  501    0 -0.76202978104E+02  0.40423976747E+02 -0.61415288838E+03  0.64306254846E+03  0.17001376168E+03 0.  0.
         24    2    3    3    0    0 -0.10132275590E+03 -0.14371471666E+02 -0.37470646222E+03  0.39610055664E+03  0.77574983599E+02 0.  0.
         -6    2    1    2    0  502  0.76202978104E+02 -0.40423976747E+02 -0.21045729974E+03  0.28498033868E+03  0.17169894190E+03 0.  0.
        -24    2    5    5    0    0  0.71651075303E+02  0.37432053010E+02 -0.11701740494E+03  0.16317974291E+03  0.79997001518E+02 0.  0.
          5    1    3    3  501    0  0.25119777800E+02  0.54795448413E+02 -0.23944642616E+03  0.24696199182E+03  0.47000000000E+01 0. -1.
        -11    1    4    4    0    0 -0.25025365428E+02  0.30562934736E+02 -0.12986671640E+03  0.13574139355E+03  0.00000000000E+00 0.  1.
         12    1    4    4    0    0 -0.76297390477E+02 -0.44934406402E+02 -0.24483974582E+03  0.26035916309E+03  0.00000000000E+00 0. -1.
         -5    1    5    5    0  502  0.45519028016E+01 -0.77856029757E+02 -0.93439894805E+02  0.12180059577E+03  0.47000000000E+01 0.  1.
         13    1    6    6    0    0 -0.97321024781E+01  0.30279227987E+02 -0.28248000838E+02  0.42538159545E+02  0.00000000000E+00 0. -1.
        -14    1    6    6    0    0  0.81383177781E+02  0.71528250229E+01 -0.88769404101E+02  0.12064158336E+03  0.00000000000E+00 0.  1.
</event>
<event>
12    1  0.8258923E-002  0.1884422E+03  0.7818608E-02  0.1159927E+00
         21   -1    0    0  501  502  0.00000000000E+00  0.00000000000E+00  0.97654383261E+02  0.97654383261E+02  0.00000000000E+00 0. -1.
         21   -1    0    0  502  503 -0.00000000000E+00 -0.00000000000E+00 -0.41375335615E+03  0.41375335615E+03  0.00000000000E+00 0. -1.
         -6    2    1    2    0  503  0.27960889705E+02 -0.63424020325E+02 -0.24752869149E+03  0.31109631881E+03  0.17523141487E+03 0.  0.
        -24    2    3    3    0    0  0.46968869355E+02 -0.69376120764E+02 -0.80596848834E+02  0.14291468817E+03  0.83124215681E+02 0.  0.
          6    2    1    2  501    0 -0.27960889705E+02  0.63424020325E+02 -0.68570281397E+02  0.20031142060E+03  0.17498103905E+03 0.  0.
         24    2    5    5    0    0  0.46792090386E+02  0.86230935459E+01 -0.45255998806E+02  0.10462027482E+03  0.81445926914E+02 0.  0.
          5    1    5    5  501    0 -0.74752980091E+02  0.54800926780E+02 -0.23314282591E+02  0.95691145782E+02  0.47000000000E+01 0. -1.
        -13    1    6    6    0    0  0.57974641869E+02  0.82570177474E+01 -0.61484117654E+02  0.84908975765E+02  0.00000000000E+00 0.  1.
         14    1    6    6    0    0 -0.11182551483E+02  0.36607579850E+00  0.16228118848E+02  0.19711299057E+02  0.00000000000E+00 0. -1.
         -5    1    3    3    0  503 -0.19007979650E+02  0.59521004387E+01 -0.16693184266E+03  0.16818163063E+03  0.47000000000E+01 0.  1.
         13    1    4    4    0    0  0.12029729032E+02 -0.72988104316E+02 -0.78296550654E+02  0.10771410120E+03  0.00000000000E+00 0. -1.
        -14    1    4    4    0    0  0.34939140323E+02  0.36119835514E+01 -0.23002981794E+01  0.35200586976E+02  0.00000000000E+00 0.  1.
</event>
<event>
12    1  0.8258923E-002  0.2325194E+03  0.7818608E-02  0.1125734E+00
         21   -1    0    0  503  502  0.00000000000E+00  0.00000000000E+00  0.42869670786E+03  0.42869670786E+03  0.00000000000E+00 0.  1.
         21   -1    0    0  501  503 -0.00000000000E+00 -0.00000000000E+00 -0.31929856588E+03  0.31929856588E+03  0.00000000000E+00 0.  1.
          6    2    1    2  501    0 -0.15135222768E+03  0.10976112212E+02 -0.23840011349E+03  0.32963073490E+03  0.16968746394E+03 0.  0.
         24    2    3    3    0    0 -0.14932639394E+02  0.24246204663E+02 -0.12892900202E+03  0.15415306206E+03  0.79558889002E+02 0.  0.
         -6    2    1    2    0  502  0.15135222768E+03 -0.10976112212E+02  0.34779825546E+03  0.41836453884E+03  0.17617403043E+03 0.  0.
        -24    2    5    5    0    0  0.88555607718E+02 -0.57888289309E+02  0.12371548504E+03  0.18092118594E+03  0.78954446275E+02 0.  0.
          5    1    3    3  501    0 -0.13641958828E+03 -0.13270092451E+02 -0.10947111146E+03  0.17547767284E+03  0.47000000000E+01 0. -1.
        -13    1    4    4    0    0 -0.23191194362E+02  0.50546649790E+02 -0.72715843113E+02  0.91544465374E+02  0.00000000000E+00 0.  1.
         14    1    4    4    0    0  0.82585549686E+01 -0.26300445127E+02 -0.56213158912E+02  0.62608596685E+02  0.00000000000E+00 0. -1.
         -5    1    5    5    0  502  0.62796619958E+02  0.46912177097E+02  0.22408277042E+03  0.23744335290E+03  0.47000000000E+01 0.  1.
         13    1    6    6    0    0 -0.26194798149E+01  0.14971615443E+02  0.12064589537E+02  0.19405289592E+02  0.00000000000E+00 0. -1.
        -14    1    6    6    0    0  0.91175087532E+02 -0.72859904752E+02  0.11165089551E+03  0.16151589635E+03  0.00000000000E+00 0.  1.
</event>
<event>
12    1  0.8258923E-002  0.1730810E+03  0.7818608E-02  0.1174754E+00
         21   -1    0    0  501  502  0.00000000000E+00  0.00000000000E+00  0.58081106040E+02  0.58081106040E+02  0.00000000000E+00 0. -1.
         21   -1    0    0  502  503 -0.00000000000E+00 -0.00000000000E+00 -0.51698640390E+03  0.51698640390E+03  0.00000000000E+00 0. -1.
         -6    2    1    2    0  503 -0.78113727056E+01 -0.18989233210E+02 -0.24827265876E+03  0.30264886413E+03  0.17185870170E+03 0.  0.
        -24    2    3    3    0    0  0.60003216007E+02  0.78753520863E+01 -0.14706165007E+03  0.17780382952E+03  0.79527767297E+02 0.  0.
          6    2    1    2  501    0  0.78113727056E+01  0.18989233210E+02 -0.21063263910E+03  0.27241864581E+03  0.17153484022E+03 0.  0.
         24    2    5    5    0    0  0.47474382373E+02 -0.40650054681E+02 -0.13988933104E+03  0.17163816838E+03  0.77358851972E+02 0.  0.
          5    1    5    5  501    0 -0.39663009668E+02  0.59639287891E+02 -0.70743308062E+02  0.10078047743E+03  0.47000000000E+01 0. -1.
        -13    1    6    6    0    0 -0.77989548337E+01  0.16878938336E+02 -0.37317594670E+02  0.41693226402E+02  0.00000000000E+00 0.  1.
         14    1    6    6    0    0  0.55273337207E+02 -0.57528993016E+02 -0.10257173637E+03  0.12994494197E+03  0.00000000000E+00 0. -1.
         -5    1    3    3    0  503 -0.67814588712E+02 -0.26864585296E+02 -0.10121100869E+03  0.12484503461E+03  0.47000000000E+01 0.  1.
         11    1    4    4    0    0  0.95847587473E+01  0.33448957621E+02 -0.23684403036E+02  0.42090988505E+02  0.00000000000E+00 0. -1.
        -12    1    4    4    0    0  0.50418457259E+02 -0.25573605534E+02 -0.12337724703E+03  0.13571284102E+03  0.00000000000E+00 0.  1.
</event>
<event>
12    1  0.8258923E-002  0.2571078E+03  0.7818608E-02  0.1109111E+00
         21   -1    0    0  503  502  0.00000000000E+00  0.00000000000E+00  0.10242212296E+04  0.10242212296E+04  0.00000000000E+00 0.  1.
         21   -1    0    0  501  503 -0.00000000000E+00 -0.00000000000E+00 -0.85591358482E+02  0.85591358482E+02  0.00000000000E+00 0. -1.
          6    2    1    2  501    0 -0.17590506208E+03  0.72024096152E+02  0.19083177623E+03  0.31904940981E+03  0.17101373568E+03 0.  0.
         24    2    3    3    0    0 -0.97198291506E+01 -0.24279802436E+01  0.47244767315E+02  0.87101220656E+02  0.72485753320E+02 0.  0.
         -6    2    1    2    0  502  0.17590506208E+03 -0.72024096152E+02  0.74779809492E+03  0.79076317830E+03  0.17313102580E+03 0.  0.
        -24    2    5    5    0    0  0.13230478690E+03 -0.80243314801E+02  0.35209363150E+03  0.39255136039E+03  0.78632684008E+02 0.  0.
          5    1    3    3  501    0 -0.16618523293E+03  0.74452076396E+02  0.14358700891E+03  0.23194818916E+03  0.47000000000E+01 0. -1.
        -13    1    4    4    0    0 -0.20237281383E+02  0.13497906695E+02  0.59594958294E+02  0.64368471296E+02  0.00000000000E+00 0.  1.
         14    1    4    4    0    0  0.10517452232E+02 -0.15925886939E+02 -0.12350190979E+02  0.22732749360E+02  0.00000000000E+00 0. -1.
         -5    1    5    5    0  502  0.43600275183E+02  0.82192186491E+01  0.39570446342E+03  0.39821181791E+03  0.47000000000E+01 0.  1.
         13    1    6    6    0    0  0.23625046119E+02 -0.86528567142E+01  0.10972189788E+02  0.27448199981E+02  0.00000000000E+00 0. -1.
        -14    1    6    6    0    0  0.10867974078E+03 -0.71590458087E+02  0.34112144171E+03  0.36510316041E+03  0.00000000000E+00 0.  1.
</event>
<event>
12    1  0.8258923E-002  0.2175666E+03  0.7818608E-02  0.1135934E+00
         21   -1    0    0  501  502  0.00000000000E+00  0.00000000000E+00  0.51636436921E+03  0.51636436921E+03  0.00000000000E+00 0. -1.
         21   -1    0    0  502  503 -0.00000000000E+00 -0.00000000000E+00 -0.16959053623E+03  0.16959053623E+03  0.00000000000E+00 0. -1.
         -6    2    1    2    0  503 -0.80189521775E+02 -0.10369990209E+03 -0.60087592419E+02  0.22457494974E+03  0.17216085558E+03 0.  0.
        -24    2    3    3    0    0 -0.12135075260E+03 -0.63539741184E+02 -0.43382023425E+02  0.16450622675E+03  0.80106147172E+02 0.  0.
          6    2    1    2  501    0  0.80189521775E+02  0.10369990209E+03  0.40686142539E+03  0.46137995570E+03  0.17364105203E+03 0.  0.
         24    2    5    5    0    0  0.10214037553E+03  0.49433649289E+02  0.37407917436E+03  0.39412349016E+03  0.50217076889E+02 0.  0.
          5    1    5    5  501    0 -0.21950853758E+02  0.54266252802E+02  0.32782251038E+02  0.67256465541E+02  0.47000000000E+01 0. -1.
        -13    1    6    6    0    0  0.37374102099E+02 -0.11113786697E+01  0.72758836233E+02  0.81804076428E+02  0.00000000000E+00 0.  1.
         14    1    6    6    0    0  0.64766273433E+02  0.50545027958E+02  0.30132033812E+03  0.31231941373E+03  0.00000000000E+00 0. -1.
         -5    1    3    3    0  503  0.41161230827E+02 -0.40160160907E+02 -0.16705568994E+02  0.60068722999E+02  0.47000000000E+01 0.  1.
         11    1    4    4    0    0 -0.32702112645E+02  0.80164847832E+01  0.14571377743E+02  0.36688107734E+02  0.00000000000E+00 0. -1.
        -12    1    4    4    0    0 -0.88648639957E+02 -0.71556225967E+02 -0.57953401168E+02  0.12781811901E+03  0.00000000000E+00 0.  1.
</event>
<event>
12    1  0.8258923E-002  0.1766620E+03  0.7818608E-02  0.1171213E+00
         21   -1    0    0  503  502  0.00000000000E+00  0.00000000000E+00  0.87579715928E+02  0.87579715928E+02  0.00000000000E+00 0. -1.
         21   -1    0    0  501  503 -0.00000000000E+00 -0.00000000000E+00 -0.39964329885E+03  0.39964329885E+03  0.00000000000E+00 0. -1.
          6    2    1    2  501    0 -0.36269869509E+02  0.12600540974E+02 -0.23703054244E+03  0.29528707844E+03  0.17186245540E+03 0.  0.
         24    2    3    3    0    0 -0.24148180456E+01  0.25069241679E+02 -0.36332859164E+02  0.91318249741E+02  0.79903991491E+02 0.  0.
         -6    2    1    2    0  502  0.36269869509E+02 -0.12600540974E+02 -0.75033040476E+02  0.19193593634E+03  0.17243888606E+03 0.  0.
        -24    2    5    5    0    0  0.49306431936E+02 -0.70084012334E+02 -0.45208716208E+02  0.12570994629E+03  0.80101620209E+02 0.  0.
          5    1    3    3  501    0 -0.33855051464E+02 -0.12468700705E+02 -0.20069768328E+03  0.20396882870E+03  0.47000000000E+01 0. -1.
        -11    1    4    4    0    0 -0.36051973953E+02  0.71550676745E+01  0.25880265284E+01  0.36846135491E+02  0.00000000000E+00 0.  1.
         12    1    4    4    0    0  0.33637155907E+02  0.17914174004E+02 -0.38920885692E+02  0.54472114250E+02  0.00000000000E+00 0. -1.
         -5    1    5    5    0  502 -0.13036562427E+02  0.57483471360E+02 -0.29824324268E+02  0.66225990046E+02  0.47000000000E+01 0.  1.
         13    1    6    6    0    0  0.25910835275E+02  0.17289538958E+01  0.14217941838E+02  0.29605920629E+02  0.00000000000E+00 0. -1.
        -14    1    6    6    0    0  0.23395596661E+02 -0.71812966230E+02 -0.59426658045E+02  0.96104025661E+02  0.00000000000E+00 0.  1.
</event>
<event>
12    1  0.8258923E-002  0.2706011E+03  0.7818608E-02  0.1101164E+00
         21   -1    0    0  501  502  0.00000000000E+00  0.00000000000E+00  0.15357142171E+03  0.15357142171E+03  0.00000000000E+00 0. -1.
         21   -1    0    0  502  503 -0.00000000000E+00 -0.00000000000E+00 -0.76986593960E+03  0.76986593960E+03  0.00000000000E+00 0. -1.
         -6    2    1    2    0  503 -0.20737963999E+03  0.14481882113E+02 -0.59381221280E+03  0.65190395129E+03  0.17073305961E+03 0.  0.
        -24    2    3    3    0    0 -0.14313643945E+03  0.59338812195E+02 -0.50139824955E+03  0.53065312203E+03  0.78634574695E+02 0.  0.
          6    2    1    2  501    0  0.20737963999E+03 -0.14481882113E+02 -0.22482305079E+02  0.27153341002E+03  0.17323076725E+03 0.  0.
         24    2    5    5    0    0  0.16111178317E+03 -0.54991062970E+02 -0.64088804274E+02  0.19713650764E+03  0.75989500114E+02 0.  0.
          5    1    5    5  501    0  0.46267856822E+02  0.40509180857E+02  0.41606499195E+02  0.74396902381E+02  0.47000000000E+01 0. -1.
        -13    1    6    6    0    0  0.66530887052E+02 -0.42845346195E+02 -0.64006751752E+02  0.10177891182E+03  0.00000000000E+00 0.  1.
         14    1    6    6    0    0  0.94580896119E+02 -0.12145716775E+02 -0.82052521709E-01  0.95357595813E+02  0.00000000000E+00 0. -1.
         -5    1    3    3    0  503 -0.64243200541E+02 -0.44856930083E+02 -0.92413963251E+02  0.12125082926E+03  0.47000000000E+01 0.  1.
         11    1    4    4    0    0 -0.93068083199E+02  0.75107223905E+02 -0.38046220344E+03  0.39881606217E+03  0.00000000000E+00 0. -1.
        -12    1    4    4    0    0 -0.50068356253E+02 -0.15768411710E+02 -0.12093604611E+03  0.13183705987E+03  0.00000000000E+00 0.  1.
</event>
<event>
12    1  0.8258923E-002  0.2432132E+03  0.7818608E-02  0.1117715E+00
         21   -1    0    0  503  502  0.00000000000E+00  0.00000000000E+00  0.41789760663E+02  0.41789760663E+02  0.00000000000E+00 0. -1.
         21   -1    0    0  501  503 -0.00000000000E+00 -0.00000000000E+00 -0.15989327506E+04  0.15989327506E+04  0.00000000000E+00 0.  1.
          6    2    1    2  501    0  0.12554858880E+03  0.11783417330E+03 -0.10572624032E+04  0.10848148944E+04  0.17138326989E+03 0.  0.
         24    2    3    3    0    0  0.16787446555E+01  0.81560838843E+02 -0.53249062406E+03  0.54438265689E+03  0.78429737972E+02 0.  0.
         -6    2    1    2    0  502 -0.12554858880E+03 -0.11783417330E+03 -0.49988058674E+03  0.55590761693E+03  0.17177117634E+03 0.  0.
        -24    2    5    5    0    0 -0.41875417410E+02 -0.70223420642E+02 -0.13166244731E+03  0.17528356149E+03  0.81880690684E+02 0.  0.
          5    1    3    3  501    0  0.12386984414E+03  0.36273334458E+02 -0.52477177917E+03  0.54043223747E+03  0.47000000000E+01 0. -1.
        -11    1    4    4    0    0 -0.10294917800E+02 -0.13707620966E+02 -0.79138538686E+02  0.80974023677E+02  0.00000000000E+00 0.  1.
         12    1    4    4    0    0  0.11973662455E+02  0.95268459809E+02 -0.45335208537E+03  0.46340863321E+03  0.00000000000E+00 0. -1.
         -5    1    5    5    0  502 -0.83673171389E+02 -0.47610752659E+02 -0.36821813942E+03  0.38062405544E+03  0.47000000000E+01 0.  1.
         11    1    6    6    0    0  0.19113312303E+02 -0.15301763161E+02 -0.65294290257E+02  0.69733829690E+02  0.00000000000E+00 0. -1.
        -12    1    6    6    0    0 -0.60988729713E+02 -0.54921657481E+02 -0.66368157055E+02  0.10554973180E+03  0.00000000000E+00 0.  1.
</event>
<event>
12    1  0.8258923E-002  0.1782065E+03  0.7818608E-02  0.1170397E+00
         21   -1    0    0  501  502  0.00000000000E+00  0.00000000000E+00  0.22812468606E+03  0.22812468606E+03  0.00000000000E+00 0.  1.
         21   -1    0    0  502  503 -0.00000000000E+00 -0.00000000000E+00 -0.28113229135E+03  0.28113229135E+03  0.00000000000E+00 0.  1.
         -6    2    1    2    0  503 -0.14345317238E+02 -0.29075548616E+02 -0.20922510483E+03  0.27483210174E+03  0.17523231437E+03 0.  0.
        -24    2    3    3    0    0 -0.88434105494E+00 -0.47228234960E+02 -0.34077538838E+02  0.98170057784E+02  0.79024004932E+02 0.  0.
          6    2    1    2  501    0  0.14345317238E+02  0.29075548616E+02  0.15621749954E+03  0.23442487566E+03  0.17175546429E+03 0.  0.
         24    2    5    5    0    0  0.52733576140E+02  0.70813276646E+02  0.12520014980E+03  0.16961853070E+03  0.72801224196E+02 0.  0.
          5    1    5    5  501    0 -0.38388258902E+02 -0.41737728030E+02  0.31017349743E+02  0.64806344965E+02  0.47000000000E+01 0. -1.
        -11    1    6    6    0    0  0.45402878231E+02  0.42659725164E+02  0.12595089386E+03  0.14051655122E+03  0.00000000000E+00 0.  1.
         12    1    6    6    0    0  0.73306979089E+01  0.28153551481E+02 -0.75074406068E+00  0.29101979477E+02  0.00000000000E+00 0. -1.
         -5    1    3    3    0  503 -0.13460976183E+02  0.18152686344E+02 -0.17514756599E+03  0.17666204396E+03  0.47000000000E+01 0.  1.
         11    1    4    4    0    0  0.29914790561E+02 -0.23155859211E+02 -0.43813557990E+02  0.57885372711E+02  0.00000000000E+00 0. -1.
        -12    1    4    4    0    0 -0.30799131616E+02 -0.24072375749E+02  0.97360191526E+01  0.40284685073E+02  0.00000000000E+00 0.  1.
</event>
<event>
12    1  0.8258923E-002  0.2071655E+03  0.7818608E-02  0.1144317E+00
         21   -1    0    0  501  502  0.00000000000E+00  0.00000000000E+00  0.28917064169E+03  0.28917064169E+03  0.00000000000E+00 0.  1.
         21   -1    0    0  502  503 -0.00000000000E+00 -0.00000000000E+00 -0.19558041175E+03  0.19558041175E+03  0.00000000000E+00 0. -1.
         -6    2    1    2    0  503  0.24612516640E+01 -0.11616407613E+03  0.16816382909E+03  0.26682698157E+03  0.17151505572E+03 0.  0.
        -24    2    3    3    0    0 -0.37244055450E+02 -0.13482860558E+03  0.11442444195E+03  0.19729362409E+03  0.79157745307E+02 0.  0.
          6    2    1    2  501    0 -0.24612516640E+01  0.11616407613E+03 -0.74573599145E+02  0.21792407187E+03  0.16861058409E+03 0.  0.
         24    2    5    5    0    0 -0.53970893591E+02  0.10672504666E+03 -0.24528669431E+02  0.14533672119E+03  0.78854384539E+02 0.  0.
          5    1    5    5  501    0  0.51509641927E+02  0.94390294655E+01 -0.50044929713E+02  0.72587350680E+02  0.47000000000E+01 0. -1.
        -11    1    6    6    0    0 -0.34344012872E+02  0.10988500300E+03 -0.18003279788E+01  0.11514107124E+03  0.00000000000E+00 0.  1.
         12    1    6    6    0    0 -0.19626880718E+02 -0.31599563366E+01 -0.22728341453E+02  0.30195649951E+02  0.00000000000E+00 0. -1.
         -5    1    3    3    0  503  0.39705307114E+02  0.18664529454E+02  0.53739387133E+02  0.69533357478E+02  0.47000000000E+01 0.  1.
         13    1    4    4    0    0  0.25112435102E+02 -0.39314813079E+02  0.33947574499E+02  0.57695118845E+02  0.00000000000E+00 0. -1.
        -14    1    4    4    0    0 -0.62356490552E+02 -0.95513792505E+02  0.80476867454E+02  0.13959850525E+03  0.00000000000E+00 0.  1.
</event>
<event>
12    1  0.8258923E-002  0.3477098E+03  0.7818608E-02  0.1063662E+00
         21   -1    0    0  501  502  0.00000000000E+00  0.00000000000E+00  0.62852072523E+03  0.62852072523E+03  0.00000000000E+00 0. -1.
         21   -1    0    0  502  503 -0.00000000000E+00 -0.00000000000E+00 -0.24013288856E+03  0.24013288856E+03  0.00000000000E+00 0.  1.
         -6    2    1    2    0  503 -0.18837561249E+03 -0.23627107417E+03  0.38925528814E+03  0.52194040235E+03  0.17202532485E+03 0.  0.
        -24    2    3    3    0    0 -0.76241830438E+02 -0.20211418754E+03  0.24684834127E+03  0.33743428728E+03  0.79150698854E+02 0.  0.
          6    2    1    2  501    0  0.18837561249E+03  0.23627107417E+03 -0.86745146807E+00  0.34671321144E+03  0.16999972542E+03 0.  0.
         24    2    5    5    0    0  0.74822240383E+02  0.12946619355E+03 -0.56591168659E+02  0.18109656524E+03  0.85050235990E+02 0.  0.
          5    1    5    5  501    0  0.11355337211E+03  0.10680488062E+03  0.55723717191E+02  0.16561664620E+03  0.47000000000E+01 0. -1.
        -11    1    6    6    0    0  0.93617866380E+02  0.11429409857E+03 -0.51066616081E+02  0.15631776979E+03  0.00000000000E+00 0.  1.
         12    1    6    6    0    0 -0.18795625997E+02  0.15172094983E+02 -0.55245525779E+01  0.24778795450E+02  0.00000000000E+00 0. -1.
         -5    1    3    3    0  503 -0.11213378206E+03 -0.34156886625E+02  0.14240694687E+03  0.18450611507E+03  0.47000000000E+01 0.  1.
         13    1    4    4    0    0 -0.68332264846E+02 -0.14743654556E+03  0.12971191115E+03  0.20792309463E+03  0.00000000000E+00 0. -1.
        -14    1    4    4    0    0 -0.79095655919E+01 -0.54677641983E+02  0.11713643012E+03  0.12951119265E+03  0.00000000000E+00 0.  1.
</event>
<event>
12    1  0.8258923E-002  0.2540689E+03  0.7818608E-02  0.1110920E+00
         21   -1    0    0  503  502  0.00000000000E+00  0.00000000000E+00  0.65053715680E+03  0.65053715680E+03  0.00000000000E+00 0.  1.
         21   -1    0    0  501  503 -0.00000000000E+00 -0.00000000000E+00 -0.28915718960E+03  0.28915718960E+03  0.00000000000E+00 0. -1.
          6    2    1    2  501    0 -0.14635616150E+03  0.11524003140E+03 -0.20037780304E+03  0.32357728952E+03  0.17277328350E+03 0.  0.
         24    2    3    3    0    0 -0.14527337116E+03  0.14023469002E+03 -0.14296064783E+03  0.26077024288E+03  0.82421187149E+02 0.  0.
         -6    2    1    2    0  502  0.14635616150E+03 -0.11524003140E+03  0.56175777025E+03  0.61611705689E+03  0.17125432698E+03 0.  0.
        -24    2    5    5    0    0  0.10074319658E+03 -0.98425298879E+01  0.20823184424E+03  0.24437541777E+03  0.78184249077E+02 0.  0.
          5    1    3    3  501    0 -0.10827903421E+01 -0.24994658620E+02 -0.57417155217E+02  0.62807046640E+02  0.47000000000E+01 0. -1.
        -11    1    4    4    0    0 -0.90169922943E+02  0.11658136965E+03 -0.61694640403E+02  0.15977502748E+03  0.00000000000E+00 0.  1.
         12    1    4    4    0    0 -0.55103448216E+02  0.23653320366E+02 -0.81266007423E+02  0.10099521539E+03  0.00000000000E+00 0. -1.
         -5    1    5    5    0  502  0.45612964925E+02 -0.10539750151E+03  0.35352592601E+03  0.37174163912E+03  0.47000000000E+01 0.  1.
         13    1    6    6    0    0  0.30384723379E+02 -0.18461959493E+02  0.15065962017E+02  0.38614227619E+02  0.00000000000E+00 0. -1.
        -14    1    6    6    0    0  0.70358473197E+02  0.86194296046E+01  0.19316588222E+03  0.20576119015E+03  0.00000000000E+00 0.  1.
</event>
<event>
12    1  0.8258923E-002  0.2899697E+03  0.7818608E-02  0.1090380E+00
         21   -1    0    0  501  502  0.00000000000E+00  0.00000000000E+00  0.14679910685E+03  0.14679910685E+03  0.00000000000E+00 0. -1.
         21   -1    0    0  502  503 -0.00000000000E+00 -0.00000000000E+00 -0.18869194269E+04  0.18869194269E+04  0.00000000000E+00 0.  1.
         -6    2    1    2    0  503  0.13679641933E+03  0.19133181036E+03 -0.17186869381E+04  0.17429577772E+04  0.16939864203E+03 0.  0.
        -24    2    3    3    0    0  0.15348222760E+03  0.19962052478E+03 -0.16659072128E+04  0.16867892061E+04  0.81276293135E+02 0.  0.
          6    2    1    2  501    0 -0.13679641933E+03 -0.19133181036E+03 -0.21433381928E+02  0.29076075653E+03  0.16959158493E+03 0.  0.
         24    2    5    5    0    0 -0.34306772298E+02 -0.20604173713E+02 -0.21422741881E+02  0.91577062979E+02  0.79535765504E+02 0.  0.
          5    1    5    5  501    0 -0.10248964703E+03 -0.17072763664E+03 -0.10640046432E-01  0.19918369355E+03  0.47000000000E+01 0. -1.
        -11    1    6    6    0    0 -0.11881282394E+02 -0.26850635261E+02 -0.47986218051E+02  0.56256542803E+02  0.00000000000E+00 0.  1.
         12    1    6    6    0    0 -0.22425489903E+02  0.62464615487E+01  0.26563476170E+02  0.35320520176E+02  0.00000000000E+00 0. -1.
         -5    1    3    3    0  503 -0.16685808267E+02 -0.82887144236E+01 -0.52779725237E+02  0.56168571109E+02  0.47000000000E+01 0.  1.
         11    1    4    4    0    0  0.12601865390E+03  0.11928866185E+03 -0.93475577160E+03  0.95072542751E+03  0.00000000000E+00 0. -1.
        -12    1    4    4    0    0  0.27463573701E+02  0.80331862933E+02 -0.73115144123E+03  0.73606377856E+03  0.00000000000E+00 0.  1.
</event>
<event>
12    1  0.8258923E-002  0.2158856E+03  0.7818608E-02  0.1137376E+00
         21   -1    0    0  501  502  0.00000000000E+00  0.00000000000E+00  0.80977890019E+02  0.80977890019E+02  0.00000000000E+00 0.  1.
         21   -1    0    0  502  503 -0.00000000000E+00 -0.00000000000E+00 -0.61424230245E+03  0.61424230245E+03  0.00000000000E+00 0.  1.
         -6    2    1    2    0  503 -0.11812339765E+03 -0.53524582062E+02 -0.36090431819E+03  0.42054548994E+03  0.17259363910E+03 0.  0.
        -24    2    3    3    0    0 -0.36417197010E+02  0.12908134244E+02 -0.26171848592E+03  0.27580735280E+03  0.77976264434E+02 0.  0.
          6    2    1    2  501    0  0.11812339765E+03  0.53524582062E+02 -0.17236009424E+03  0.27467470254E+03  0.17005931956E+03 0.  0.
         24    2    5    5    0    0  0.25385029671E+02 -0.31335056911E+02 -0.53578848921E+02  0.10166418996E+03  0.76410921637E+02 0.  0.
          5    1    5    5  501    0  0.92738367982E+02  0.84859638974E+02 -0.11878124532E+03  0.17301051258E+03  0.47000000000E+01 0. -1.
        -11    1    6    6    0    0  0.48143170099E+02 -0.37609506164E+02 -0.29141731738E+02  0.67686633169E+02  0.00000000000E+00 0.  1.
         12    1    6    6    0    0 -0.22758140429E+02  0.62744492526E+01 -0.24437117184E+02  0.33977556790E+02  0.00000000000E+00 0. -1.
         -5    1    3    3    0  503 -0.81706200643E+02 -0.66432716306E+02 -0.99185832269E+02  0.14473813714E+03  0.47000000000E+01 0.  1.
         11    1    4    4    0    0  0.23868948186E+02 -0.17301891335E+01 -0.93492147072E+02  0.96506485824E+02  0.00000000000E+00 0. -1.
        -12    1    4    4    0    0 -0.60286145196E+02  0.14638323377E+02 -0.16822633885E+03  0.17930086697E+03  0.00000000000E+00 0.  1.
</event>
<event>
12    1  0.8258923E-002  0.1793707E+03  0.7818608E-02  0.1168973E+00
         21   -1    0    0  501  502  0.00000000000E+00  0.00000000000E+00  0.98801858850E+02  0.98801858850E+02  0.00000000000E+00 0. -1.
         21   -1    0    0  502  503 -0.00000000000E+00 -0.00000000000E+00 -0.57454284072E+03  0.57454284072E+03  0.00000000000E+00 0. -1.
         -6    2    1    2    0  503 -0.23986885996E+02  0.36230708418E+02 -0.46044459939E+03  0.49332295912E+03  0.17166909436E+03 0.  0.
        -24    2    3    3    0    0 -0.73134562064E+01 -0.30607250421E+01 -0.43769840340E+03  0.44472975552E+03  0.78369690756E+02 0.  0.
          6    2    1    2  501    0  0.23986885996E+02 -0.36230708418E+02 -0.15296382482E+02  0.18002174045E+03  0.17402819537E+03 0.  0.
         24    2    5    5    0    0  0.76202655862E+02 -0.96344322595E+01  0.16408809941E+02  0.11322984158E+03  0.81560290181E+02 0.  0.
          5    1    5    5  501    0 -0.52215769866E+02 -0.26596276159E+02 -0.31705192424E+02  0.66791898871E+02  0.47000000000E+01 0. -1.
        -13    1    6    6    0    0  0.99086263453E+01  0.31283268087E+02  0.12857986361E+02  0.35244170462E+02  0.00000000000E+00 0.  1.
         14    1    6    6    0    0  0.66294029517E+02 -0.40917700346E+02  0.35508235800E+01  0.77985671115E+02  0.00000000000E+00 0. -1.
         -5    1    3    3    0  503 -0.16673429790E+02  0.39291433460E+02 -0.22746195992E+02  0.48593203603E+02  0.47000000000E+01 0.  1.
         11    1    4    4    0    0  0.33943221015E+02 -0.11447800235E+02 -0.16916572942E+03  0.17291685399E+03  0.00000000000E+00 0. -1.
        -12    1    4    4    0    0 -0.41256677222E+02  0.83870751931E+01 -0.26853267398E+03  0.27181290153E+03  0.00000000000E+00 0.  1.
</event>
<event>
12    1  0.8258923E-002  0.1851539E+03  0.7818608E-02  0.1163847E+00
         21   -1    0    0  503  502  0.00000000000E+00  0.00000000000E+00  0.90676057190E+03  0.90676057190E+03  0.00000000000E+00 0.  1.
         21   -1    0    0  501  503 -0.00000000000E+00 -0.00000000000E+00 -0.77958954299E+02  0.77958954299E+02  0.00000000000E+00 0.  1.
          6    2    1    2  501    0 -0.51164493971E+02  0.43670051279E+02  0.55377604896E+02  0.18944178766E+03  0.16821603065E+03 0.  0.
         24    2    3    3    0    0  0.33860618148E+02  0.37967970860E+02  0.23950955639E+02  0.98493958137E+02  0.80865958480E+02 0.  0.
         -6    2    1    2    0  502  0.51164493971E+02 -0.43670051279E+02  0.77342401271E+03  0.79527773854E+03  0.17250246132E+03 0.  0.
        -24    2    5    5    0    0  0.48534371459E+02 -0.79559889350E+02  0.36741822965E+03  0.38765317611E+03  0.81200174023E+02 0.  0.
          5    1    3    3  501    0 -0.85025112119E+02  0.57020804184E+01  0.31426649258E+02  0.90947829526E+02  0.47000000000E+01 0. -1.
        -13    1    4    4    0    0 -0.10304551083E+02  0.27697370207E+02 -0.19729979185E+02  0.35533085541E+02  0.00000000000E+00 0.  1.
         14    1    4    4    0    0  0.44165169231E+02  0.10270600653E+02  0.43680934824E+02  0.62960872596E+02  0.00000000000E+00 0. -1.
         -5    1    5    5    0  502  0.26301225118E+01  0.35889838072E+02  0.40600578305E+03  0.40762456243E+03  0.47000000000E+01 0.  1.
         11    1    6    6    0    0  0.57153661027E+02 -0.67168695898E+02  0.36035083397E+03  0.37098638549E+03  0.00000000000E+00 0. -1.
        -12    1    6    6    0    0 -0.86192895683E+01 -0.12391193452E+02  0.70673956842E+01  0.16666790620E+02  0.00000000000E+00 0.  1.
</event>
<event>
12    1  0.8258923E-002  0.1935204E+03  0.7818608E-02  0.1155681E+00
         21   -1    0    0  503  502  0.00000000000E+00  0.00000000000E+00  0.53522063922E+03  0.53522063922E+03  0.00000000000E+00 0. -1.
         21   -1    0    0  501  503 -0.00000000000E+00 -0.00000000000E+00 -0.69775208805E+02  0.69775208805E+02  0.00000000000E+00 0. -1.
          6    2    1    2  501    0 -0.67900033081E+02  0.56340516336E+02  0.20922729685E+03  0.28390729172E+03  0.17041895513E+03 0.  0.
         24    2    3    3    0    0 -0.32800885664E+02  0.17525953369E+02  0.21392007259E+03  0.23115662734E+03  0.79300263340E+02 0.  0.
         -6    2    1    2    0  502  0.67900033081E+02 -0.56340516336E+02  0.25621813356E+03  0.32108855631E+03  0.17223664173E+03 0.  0.
        -24    2    5    5    0    0  0.13571080999E+02 -0.84653817422E+02  0.22209918196E+03  0.25080718672E+03  0.78903455182E+02 0.  0.
          5    1    3    3  501    0 -0.35099147417E+02  0.38814562967E+02 -0.46927757370E+01  0.52750664373E+02  0.47000000000E+01 0. -1.
        -13    1    4    4    0    0  0.19858578864E+02  0.85506853900E+01  0.18150325281E+02  0.28229624209E+02  0.00000000000E+00 0.  1.
         14    1    4    4    0    0 -0.52659464528E+02  0.89752679792E+01  0.19576974731E+03  0.20292700313E+03  0.00000000000E+00 0. -1.
         -5    1    5    5    0  502  0.54328952082E+02  0.28313301085E+02  0.34118951600E+02  0.70281369586E+02  0.47000000000E+01 0.  1.
         11    1    6    6    0    0 -0.20509575966E+02 -0.38890343050E+02  0.16231243130E+03  0.16816190664E+03  0.00000000000E+00 0. -1.
        -12    1    6    6    0    0  0.34080656964E+02 -0.45763474372E+02  0.59786750659E+02  0.82645280083E+02  0.00000000000E+00 0.  1.
</event>
<event>
12    1  0.8258923E-002  0.3076050E+03  0.7818608E-02  0.1081517E+00
         21   -1    0    0  501  502  0.00000000000E+00  0.00000000000E+00  0.57491837219E+03  0.57491837219E+03  0.00000000000E+00 0.  1.
         21   -1    0    0  502  503 -0.00000000000E+00 -0.00000000000E+00 -0.25916394219E+03  0.25916394219E+03  0.00000000000E+00 0. -1.
         -6    2    1    2    0  503 -0.52527387634E+02  0.25009331020E+03 -0.94186885052E+02  0.32156626113E+03  0.17096169373E+03 0.  0.
        -24    2    3    3    0    0 -0.44599290012E+02  0.25208413505E+03 -0.43915731099E+02  0.27041846513E+03  0.75246574888E+02 0.  0.
          6    2    1    2  501    0  0.52527387634E+02 -0.25009331020E+03  0.40994131505E+03  0.51251605325E+03  0.17121633332E+03 0.  0.
         24    2    5    5    0    0  0.65620076775E+02 -0.23191955159E+03  0.26890711540E+03  0.36963694533E+03  0.78916169125E+02 0.  0.
          5    1    5    5  501    0 -0.13092689141E+02 -0.18173758611E+02  0.14103419965E+03  0.14287910793E+03  0.47000000000E+01 0. -1.
        -11    1    6    6    0    0 -0.30863417537E+01 -0.11030206366E+03  0.14988332043E+03  0.18612114468E+03  0.00000000000E+00 0.  1.
         12    1    6    6    0    0  0.68706418529E+02 -0.12161748793E+03  0.11902379497E+03  0.18351580065E+03  0.00000000000E+00 0. -1.
         -5    1    3    3    0  503 -0.79280976218E+01 -0.19908248508E+01 -0.50271153953E+02  0.51147795996E+02  0.47000000000E+01 0.  1.
         11    1    4    4    0    0 -0.62693740349E+02  0.17266853296E+03 -0.44310901060E+02  0.18896661956E+03  0.00000000000E+00 0. -1.
        -12    1    4    4    0    0  0.18094450337E+02  0.79415602091E+02  0.39516996149E+00  0.81451845576E+02  0.00000000000E+00 0.  1.
</event>
<event>
12    1  0.8258923E-002  0.2251749E+03  0.7818608E-02  0.1130280E+00
         21   -1    0    0  501  502  0.00000000000E+00  0.00000000000E+00  0.35231182238E+03  0.35231182238E+03  0.00000000000E+00 0.  1.
         21   -1    0    0  502  503 -0.00000000000E+00 -0.00000000000E+00 -0.14367937883E+03  0.14367937883E+03  0.00000000000E+00 0.  1.
         -6    2    1    2    0  503 -0.12702605575E+03 -0.70393584558E+02  0.90086364008E+02  0.24151744980E+03  0.17065828428E+03 0.  0.
        -24    2    3    3    0    0 -0.29237509040E+01 -0.22011596988E+02  0.67931252750E+02  0.10640587463E+03  0.78832076816E+02 0.  0.
          6    2    1    2  501    0  0.12702605575E+03  0.70393584558E+02  0.11854607955E+03  0.25447375141E+03  0.17208382142E+03 0.  0.
         24    2    5    5    0    0  0.15760830148E+03  0.74227084546E+02  0.11183381016E+03  0.22258152609E+03  0.81766116984E+02 0.  0.
          5    1    5    5  501    0 -0.30582245724E+02 -0.38334999883E+01  0.67122693891E+01  0.31892225323E+02  0.47000000000E+01 0. -1.
        -13    1    6    6    0    0  0.99298481410E+02  0.47328585730E+02  0.22036792080E+02  0.11218646818E+03  0.00000000000E+00 0.  1.
         14    1    6    6    0    0  0.58309820065E+02  0.26898498816E+02  0.89797018079E+02  0.11039505791E+03  0.00000000000E+00 0. -1.
         -5    1    3    3    0  503 -0.12410230485E+03 -0.48381987570E+02  0.22155111258E+02  0.13511157517E+03  0.47000000000E+01 0.  1.
         11    1    4    4    0    0 -0.37721415503E+02 -0.24331047946E+01  0.49887595256E+02  0.62590712945E+02  0.00000000000E+00 0. -1.
        -12    1    4    4    0    0  0.34797664599E+02 -0.19578492193E+02  0.18043657494E+02  0.43815161689E+02  0.00000000000E+00 0.  1.
</event>
<event>
12    1  0.8258923E-002  0.1862501E+03  0.7818608E-02  0.1162365E+00
         21   -1    0    0  501  502  0.00000000000E+00  0.00000000000E+00  0.76688063887E+03  0.76688063887E+03  0.00000000000E+00 0. -1.
         21   -1    0    0  502  503 -0.00000000000E+00 -0.00000000000E+00 -0.77463401009E+02  0.77463401009E+02  0.00000000000E+00 0. -1.
         -6    2    1    2    0  503  0.14949152867E+02 -0.67610210522E+02  0.69208817819E+02  0.19677352105E+03  0.17069077417E+03 0.  0.
        -24    2    3    3    0    0 -0.49742765655E+02 -0.81357662131E+02  0.52478370943E+02  0.12839198407E+03  0.68096330543E+02 0.  0.
          6    2    1    2  501    0 -0.14949152867E+02  0.67610210522E+02  0.62020842005E+03  0.64757051883E+03  0.17290018746E+03 0.  0.
         24    2    5    5    0    0 -0.12547571000E+02 -0.91992876798E+01  0.12592972499E+03  0.14733159092E+03  0.74874786245E+02 0.  0.
          5    1    5    5  501    0 -0.24015818674E+01  0.76809498202E+02  0.49427869506E+03  0.50023892791E+03  0.47000000000E+01 0. -1.
        -13    1    6    6    0    0 -0.29354910911E+02 -0.31476915249E+02  0.47572829080E+02  0.64153573983E+02  0.00000000000E+00 0.  1.
         14    1    6    6    0    0  0.16807339911E+02  0.22277627569E+02  0.78356895907E+02  0.83178016935E+02  0.00000000000E+00 0. -1.
         -5    1    3    3    0  503  0.64691918522E+02  0.13747451609E+02  0.16730446876E+02  0.68381536985E+02  0.47000000000E+01 0.  1.
         11    1    4    4    0    0 -0.26765389209E+02 -0.19610336179E+02 -0.12876382275E+02  0.35591467588E+02  0.00000000000E+00 0. -1.
        -12    1    4    4    0    0 -0.22977376446E+02 -0.61747325952E+02  0.65354753219E+02  0.92800516480E+02  0.00000000000E+00 0.  1.
</event>
<event>
12    1  0.8258923E-002  0.2272442E+03  0.7818608E-02  0.1128689E+00
         21   -1    0    0  503  502  0.00000000000E+00  0.00000000000E+00  0.36734506682E+04  0.36734506682E+04  0.00000000000E+00 0.  1.
         21   -1    0    0  501  503 -0.00000000000E+00 -0.00000000000E+00 -0.25137707266E+02  0.25137707266E+02  0.00000000000E+00 0. -1.
          6    2    1    2  501    0  0.92672291198E+02 -0.11633205115E+03  0.59577230850E+03  0.63763985744E+03  0.17180990814E+03 0.  0.
         24    2    3    3    0    0  0.65343453324E+02  0.21158601092E+01  0.22122924346E+03  0.24383613649E+03  0.78990123058E+02 0.  0.
         -6    2    1    2    0  502 -0.92672291198E+02  0.11633205115E+03  0.30525406524E+04  0.30609485180E+04  0.17111427638E+03 0.  0.
        -24    2    5    5    0    0 -0.25348627172E+01 -0.22682874219E+00  0.11762984878E+04  0.11789236832E+04  0.78590339559E+02 0.  0.
          5    1    3    3  501    0  0.27328837874E+02 -0.11844791126E+03  0.37454306505E+03  0.39380372095E+03  0.47000000000E+01 0. -1.
        -13    1    4    4    0    0  0.18999426673E+02 -0.28580743466E+02  0.14783747787E+03  0.15176876152E+03  0.00000000000E+00 0.  1.
         14    1    4    4    0    0  0.46344026651E+02  0.30696603575E+02  0.73391765586E+02  0.92067374966E+02  0.00000000000E+00 0. -1.
         -5    1    5    5    0  502 -0.90137428481E+02  0.11655887989E+03  0.18762421646E+04  0.18820248348E+04  0.47000000000E+01 0.  1.
         13    1    6    6    0    0  0.61467679007E+00  0.13456452236E+02  0.34465779338E+02  0.37004646732E+02  0.00000000000E+00 0. -1.
        -14    1    6    6    0    0 -0.31495395073E+01 -0.13683280978E+02  0.11418327084E+04  0.11419190364E+04  0.00000000000E+00 0.  1.
</event>
<event>
12    1  0.8258923E-002  0.2184464E+03  0.7818608E-02  0.1135444E+00
         21   -1    0    0  501  502  0.00000000000E+00  0.00000000000E+00  0.46888156232E+02  0.46888156232E+02  0.00000000000E+00 0.  1.
         21   -1    0    0  502  503 -0.00000000000E+00 -0.00000000000E+00 -0.13971274906E+04  0.13971274906E+04  0.00000000000E+00 0. -1.
         -6    2    1    2    0  503 -0.12018274693E+03  0.56022552228E+02 -0.10585317140E+04  0.10808368055E+04  0.17359836268E+03 0.  0.
        -24    2    3    3    0    0 -0.11840443175E+03  0.60347605894E+02 -0.10619769085E+04  0.10733650012E+04  0.81584487541E+02 0.  0.
          6    2    1    2  501    0  0.12018274693E+03 -0.56022552228E+02 -0.29170762036E+03  0.36317884135E+03  0.17094769962E+03 0.  0.
         24    2    5    5    0    0  0.14818608244E+03 -0.22622024225E+02 -0.25264623436E+03  0.30446202989E+03  0.79975851997E+02 0.  0.
          5    1    5    5  501    0 -0.28003335512E+02 -0.33400528004E+02 -0.39061386005E+02  0.58716811454E+02  0.47000000000E+01 0. -1.
        -13    1    6    6    0    0  0.13706394089E+03  0.20582990926E+01 -0.17541202919E+03  0.22262106925E+03  0.00000000000E+00 0.  1.
         14    1    6    6    0    0  0.11122141546E+02 -0.24680323317E+02 -0.77234205164E+02  0.81840960643E+02  0.00000000000E+00 0. -1.
         -5    1    3    3    0  503 -0.17783151734E+01 -0.43250536656E+01  0.34451945042E+01  0.74718042826E+01  0.47000000000E+01 0.  1.
         13    1    4    4    0    0 -0.12653236333E+02  0.36592435142E+02 -0.46653241964E+03  0.46813631485E+03  0.00000000000E+00 0. -1.
        -14    1    4    4    0    0 -0.10575119542E+03  0.23755170752E+02 -0.59544448889E+03  0.60522868638E+03  0.00000000000E+00 0.  1.
</event>
<event>
12    1  0.8258923E-002  0.2280082E+03  0.7818608E-02  0.1128091E+00
         21   -1    0    0  503  502  0.00000000000E+00  0.00000000000E+00  0.99419701517E+03  0.99419701517E+03  0.00000000000E+00 0. -1.
         21   -1    0    0  501  503 -0.00000000000E+00 -0.00000000000E+00 -0.35972353764E+03  0.35972353764E+03  0.00000000000E+00 0. -1.
          6    2    1    2  501    0  0.83976640855E+02  0.12329476079E+03 -0.30866751654E+03  0.38360995117E+03  0.17212578140E+03 0.  0.
         24    2    3    3    0    0  0.11157254100E+03  0.86413367848E+02 -0.15944926991E+03  0.22737312460E+03  0.79741871470E+02 0.  0.
         -6    2    1    2    0  502 -0.83976640855E+02 -0.12329476079E+03  0.94314099408E+03  0.97031060164E+03  0.17243565382E+03 0.  0.
        -24    2    5    5    0    0 -0.13839683616E+02 -0.89450264491E+02  0.31548170758E+03  0.33782114511E+03  0.80009571963E+02 0.  0.
          5    1    3    3  501    0 -0.27595900146E+02  0.36881392938E+02 -0.14921824663E+03  0.15623682658E+03  0.47000000000E+01 0. -1.
        -13    1    4    4    0    0  0.20845776055E+02  0.58980158079E+02 -0.91126566321E+02  0.11053169914E+03  0.00000000000E+00 0.  1.
         14    1    4    4    0    0  0.90726764946E+02  0.27433209769E+02 -0.68322703588E+02  0.11684142545E+03  0.00000000000E+00 0. -1.
         -5    1    5    5    0  502 -0.70136957239E+02 -0.33844496295E+02  0.62765928650E+03  0.63248945654E+03  0.47000000000E+01 0.  1.
         11    1    6    6    0    0 -0.37948445926E+02 -0.88321768437E+02  0.23847628000E+03  0.25712206333E+03  0.00000000000E+00 0. -1.
        -12    1    6    6    0    0  0.24108762310E+02 -0.11284960537E+01  0.77005427578E+02  0.80699081779E+02  0.00000000000E+00 0.  1.
</event>
<event>
12    1  0.8258923E-002  0.1775233E+03  0.7818608E-02  0.1170435E+00
         21   -1    0    0  501  502  0.00000000000E+00  0.00000000000E+00  0.25048657386E+03  0.25048657386E+03  0.00000000000E+00 0.  1.
         21   -1    0    0  502  503 -0.00000000000E+00 -0.00000000000E+00 -0.23142145563E+03  0.23142145563E+03  0.00000000000E+00 0.  1.
         -6    2    1    2    0  503 -0.39896285658E+02  0.76020851557E+01 -0.15369657220E+03  0.23481300133E+03  0.17281494142E+03 0.  0.
        -24    2    3    3    0    0  0.10218915792E+02  0.61771538872E+02 -0.81524749460E+02  0.13148476158E+03  0.81986636095E+02 0.  0.
          6    2    1    2  501    0  0.39896285658E+02 -0.76020851557E+01  0.17276169042E+03  0.24709502816E+03  0.17192977042E+03 0.  0.
         24    2    5    5    0    0  0.79128536656E+02  0.15797015094E+02  0.64722163167E+02  0.12970117457E+03  0.78246822821E+02 0.  0.
          5    1    5    5  501    0 -0.39232250999E+02 -0.23399100250E+02  0.10803952726E+03  0.11739385359E+03  0.47000000000E+01 0. -1.
        -11    1    6    6    0    0  0.23494897623E+02 -0.29965499633E+02  0.35180663743E+02  0.51842265421E+02  0.00000000000E+00 0.  1.
         12    1    6    6    0    0  0.55633639033E+02  0.45762514727E+02  0.29541499424E+02  0.77858909153E+02  0.00000000000E+00 0. -1.
         -5    1    3    3    0  503 -0.50115201449E+02 -0.54169453716E+02 -0.72171822740E+02  0.10332823975E+03  0.47000000000E+01 0.  1.
         13    1    4    4    0    0 -0.10448546368E+02  0.32748971785E+02  0.78583248883E+01  0.35262168740E+02  0.00000000000E+00 0. -1.
        -14    1    4    4    0    0  0.20667462160E+02  0.29022567086E+02 -0.89383074348E+02  0.96222592838E+02  0.00000000000E+00 0.  1.
</event>
<event>
12    1  0.8258923E-002  0.1982173E+03  0.7818608E-02  0.1151328E+00
         21   -1    0    0  503  502  0.00000000000E+00  0.00000000000E+00  0.78338740734E+02  0.78338740734E+02  0.00000000000E+00 0.  1.
         21   -1    0    0  501  503 -0.00000000000E+00 -0.00000000000E+00 -0.60554507685E+03  0.60554507685E+03  0.00000000000E+00 0. -1.
          6    2    1    2  501    0  0.91220859107E+01 -0.98409713760E+02 -0.40612095619E+03  0.45191187699E+03  0.17182092215E+03 0.  0.
         24    2    3    3    0    0  0.12724570408E+02  0.62434684725E+01 -0.11836171287E+03  0.14565587531E+03  0.83697331785E+02 0.  0.
         -6    2    1    2    0  502 -0.91220859107E+01  0.98409713760E+02 -0.12108537992E+03  0.23197194060E+03  0.17141069914E+03 0.  0.
        -24    2    5    5    0    0  0.55344563036E+02  0.26598303772E+02 -0.72756260988E+02  0.12394129139E+03  0.79356661835E+02 0.  0.
          5    1    3    3  501    0 -0.36024844970E+01 -0.10465318223E+03 -0.28775924332E+03  0.30625600167E+03  0.47000000000E+01 0. -1.
        -13    1    4    4    0    0  0.22836530903E+02 -0.31250335009E+02 -0.29455621183E+02  0.48638710932E+02  0.00000000000E+00 0.  1.
         14    1    4    4    0    0 -0.10111960495E+02  0.37493803482E+02 -0.88906091692E+02  0.97017164381E+02  0.00000000000E+00 0. -1.
         -5    1    5    5    0  502 -0.64466648947E+02  0.71811409989E+02 -0.48329118934E+02  0.10803064921E+03  0.47000000000E+01 0.  1.
         13    1    6    6    0    0  0.12934915364E+02  0.50160513800E+02 -0.38875302081E+02  0.64766336101E+02  0.00000000000E+00 0. -1.
        -14    1    6    6    0    0  0.42409647672E+02 -0.23562210028E+02 -0.33880958907E+02  0.59174955290E+02  0.00000000000E+00 0.  1.
</event>
<event>
12    1  0.8258923E-002  0.1807499E+03  0.7818608E-02  0.1167189E+00
         21   -1    0    0  503  502  0.00000000000E+00  0.00000000000E+00  0.17485182176E+03  0.17485182176E+03  0.00000000000E+00 0. -1.
         21   -1    0    0  501  503 -0.00000000000E+00 -0.00000000000E+00 -0.28178594047E+03  0.28178594047E+03  0.00000000000E+00 0. -1.
          6    2    1    2  501    0 -0.54877113120E+02 -0.11542610994E+02 -0.18636552945E+03  0.25962016625E+03  0.17183070372E+03 0.  0.
         24    2    3    3    0    0  0.34146990880E+02 -0.18109695101E+02 -0.10286792508E+03  0.13729945000E+03  0.82312519811E+02 0.  0.
         -6    2    1    2    0  502  0.54877113120E+02  0.11542610994E+02  0.79431410746E+02  0.19701759599E+03  0.17135301194E+03 0.  0.
        -24    2    5    5    0    0  0.60012190269E+02  0.56985941127E+02  0.12402171919E+02  0.11573737620E+03  0.79952898097E+02 0.  0.
          5    1    3    3  501    0 -0.89024104000E+02  0.65670841069E+01 -0.83497604371E+02  0.12232071624E+03  0.47000000000E+01 0. -1.
        -11    1    4    4    0    0  0.38152949530E+02 -0.20926195220E+02 -0.11567447165E+03  0.12358857794E+03  0.00000000000E+00 0.  1.
         12    1    4    4    0    0 -0.40059586504E+01  0.28165001196E+01  0.12806546573E+02  0.13710872064E+02  0.00000000000E+00 0. -1.
         -5    1    5    5    0  502 -0.51350771491E+01 -0.45443330133E+02  0.67029238827E+02  0.81280219787E+02  0.47000000000E+01 0.  1.
         11    1    6    6    0    0 -0.10937476339E+02  0.39393255085E+02 -0.31442673271E+01  0.41004187004E+02  0.00000000000E+00 0. -1.
        -12    1    6    6    0    0  0.70949666609E+02  0.17592686042E+02  0.15546439246E+02  0.74733189195E+02  0.00000000000E+00 0.  1.
</event>
<event>
12    1  0.8258923E-002  0.1832018E+03  0.7818608E-02  0.1164946E+00
         21   -1    0    0  503  502  0.00000000000E+00  0.00000000000E+00  0.18106778347E+03  0.18106778347E+03  0.00000000000E+00 0. -1.
         21   -1    0    0  501  503 -0.00000000000E+00 -0.00000000000E+00 -0.35439225425E+03  0.35439225425E+03  0.00000000000E+00 0. -1.
          6    2    1    2  501    0  0.22174611137E+02  0.60942442591E+02 -0.27193533070E+03  0.32740475213E+03  0.17040936872E+03 0.  0.
         24    2    3    3    0    0  0.77611054426E+02  0.55034985205E+02 -0.20964276842E+03  0.24367572125E+03  0.79846361282E+02 0.  0.
         -6    2    1    2    0  502 -0.22174611137E+02 -0.60942442591E+02  0.98610859925E+02  0.20805528559E+03  0.17133944519E+03 0.  0.
        -24    2    5    5    0    0 -0.49553290371E+02  0.41025774673E+01  0.87900309732E+01  0.93729794009E+02  0.78966131424E+02 0.  0.
          5    1    3    3  501    0 -0.55436443289E+02  0.59074573859E+01 -0.62292562284E+02  0.83729030887E+02  0.47000000000E+01 0. -1.
        -11    1    4    4    0    0  0.49512626513E+02 -0.32520311325E+00 -0.42072338443E+02  0.64974515030E+02  0.00000000000E+00 0.  1.
         12    1    4    4    0    0  0.28098427914E+02  0.55360188318E+02 -0.16757042997E+03  0.17870120622E+03  0.00000000000E+00 0. -1.
         -5    1    5    5    0  502  0.27378679234E+02 -0.65045020058E+02  0.89820828952E+02  0.11432549158E+03  0.47000000000E+01 0.  1.
         13    1    6    6    0    0 -0.45451965542E+01  0.78476613322E+01  0.38576494282E+02  0.39628153012E+02  0.00000000000E+00 0. -1.
        -14    1    6    6    0    0 -0.45008093817E+02 -0.37450838650E+01 -0.29786463308E+02  0.54101640997E+02  0.00000000000E+00 0.  1.
</event>
<event>
12    1  0.8258923E-002  0.2224707E+03  0.7818608E-02  0.1132112E+00
         21   -1    0    0  501  502  0.00000000000E+00  0.00000000000E+00  0.26146549371E+04  0.26146549371E+04  0.00000000000E+00 0. -1.
         21   -1    0    0  502  503 -0.00000000000E+00 -0.00000000000E+00 -0.67394743886E+02  0.67394743886E+02  0.00000000000E+00 0.  1.
         -6    2    1    2    0  503  0.12468828827E+03 -0.64115874501E+02  0.13635992388E+03  0.26093530831E+03  0.17272866493E+03 0.  0.
        -24    2    3    3    0    0  0.76077076756E+02  0.26541258636E+02  0.39982535340E+02  0.11989468759E+03  0.79271514186E+02 0.  0.
          6    2    1    2  501    0 -0.12468828827E+03  0.64115874501E+02  0.24109002693E+04  0.24211143726E+04  0.17232725351E+03 0.  0.
         24    2    5    5    0    0 -0.86253044697E+02 -0.20974519482E+02  0.10142960185E+04  0.10213846964E+04  0.80936807330E+02 0.  0.
          5    1    5    5  501    0 -0.38435243570E+02  0.85090393983E+02  0.13966042508E+04  0.13997296762E+04  0.47000000000E+01 0. -1.
        -11    1    6    6    0    0 -0.68091212905E+02  0.22722285335E+02  0.54443166003E+03  0.54914346757E+03  0.00000000000E+00 0.  1.
         12    1    6    6    0    0 -0.18161831791E+02 -0.43696804816E+02  0.46986435847E+03  0.47224122887E+03  0.00000000000E+00 0. -1.
         -5    1    3    3    0  503  0.48611211511E+02 -0.90657133137E+02  0.96377388541E+02  0.14104062073E+03  0.47000000000E+01 0.  1.
         13    1    4    4    0    0  0.79068454055E+02  0.33226321034E+02  0.55898805166E+02  0.10237424117E+03  0.00000000000E+00 0. -1.
        -14    1    4    4    0    0 -0.29913772996E+01 -0.66850623982E+01 -0.15916269826E+02  0.17520446415E+02  0.00000000000E+00 0.  1.
</event>
<event>
12    1  0.8258923E-002  0.2244761E+03  0.7818608E-02  0.1131375E+00
         21   -1    0    0  503  502  0.00000000000E+00  0.00000000000E+00  0.90395065793E+02  0.90395065793E+02  0.00000000000E+00 0. -1.
         21   -1    0    0  501  503 -0.00000000000E+00 -0.00000000000E+00 -0.57628919786E+03  0.57628919786E+03  0.00000000000E+00 0.  1.
          6    2    1    2  501    0  0.13758866838E+03  0.21455369188E+01 -0.32049732119E+03  0.39129021960E+03  0.17735348339E+03 0.  0.
         24    2    3    3    0    0  0.11936788627E+03  0.47854905017E+02 -0.30312561130E+03  0.33889547237E+03  0.80163712250E+02 0.  0.
         -6    2    1    2    0  502 -0.13758866838E+03 -0.21455369188E+01 -0.16539681087E+03  0.27539404405E+03  0.17190267437E+03 0.  0.
        -24    2    5    5    0    0 -0.72730622646E+02  0.42302167868E+02 -0.15853700673E+03  0.19632880851E+03  0.79572618866E+02 0.  0.
          5    1    3    3  501    0  0.18220782111E+02 -0.45709368098E+02 -0.17371709893E+02  0.52394747230E+02  0.47000000000E+01 0. -1.
        -11    1    4    4    0    0  0.74283029550E+02  0.69359240966E+01 -0.23941600007E+03  0.25077100433E+03  0.00000000000E+00 0.  1.
         12    1    4    4    0    0  0.45084856721E+02  0.40918980920E+02 -0.63709611232E+02  0.88124468047E+02  0.00000000000E+00 0. -1.
         -5    1    5    5    0  502 -0.64858045736E+02 -0.44447704787E+02 -0.68598041459E+01  0.79065235537E+02  0.47000000000E+01 0.  1.
         13    1    6    6    0    0 -0.19755587736E+01  0.36474446343E+02 -0.92170063780E+02  0.99144383228E+02  0.00000000000E+00 0. -1.
        -14    1    6    6    0    0 -0.70755063872E+02  0.58277215246E+01 -0.66366942948E+02  0.97184425285E+02  0.00000000000E+00 0.  1.
</event>
<event>
12    1  0.8258923E-002  0.2531182E+03  0.7818608E-02  0.1111708E+00
         21   -1    0    0  501  502  0.00000000000E+00  0.00000000000E+00  0.27422368280E+03  0.27422368280E+03  0.00000000000E+00 0. -1.
         21   -1    0    0  502  503 -0.00000000000E+00 -0.00000000000E+00 -0.23154674539E+03  0.23154674539E+03  0.00000000000E+00 0. -1.
         -6    2    1    2    0  503 -0.17699386028E+03 -0.55349907876E+02  0.18721898057E+02  0.25152120978E+03  0.16888448900E+03 0.  0.
        -24    2    3    3    0    0 -0.12592574767E+03  0.84602583299E+01 -0.32335054738E+02  0.15504016571E+03  0.84041818883E+02 0.  0.
          6    2    1    2  501    0  0.17699386028E+03  0.55349907876E+02  0.23955039357E+02  0.25424921841E+03  0.17227414859E+03 0.  0.
         24    2    5    5    0    0  0.56965845351E+02  0.43205083810E+01  0.63778203228E+02  0.11779886714E+03  0.80902036832E+02 0.  0.
          5    1    5    5  501    0  0.12002801493E+03  0.51029399495E+02 -0.39823163871E+02  0.13645035127E+03  0.47000000000E+01 0. -1.
        -11    1    6    6    0    0  0.14426924684E+02 -0.36977621235E+02  0.23584095053E+02  0.46170230317E+02  0.00000000000E+00 0.  1.
         12    1    6    6    0    0  0.42538920667E+02  0.41298129616E+02  0.40194108175E+02  0.71628636824E+02  0.00000000000E+00 0. -1.
         -5    1    3    3    0  503 -0.51068112617E+02 -0.63810166206E+02  0.51056952795E+02  0.96481044077E+02  0.47000000000E+01 0.  1.
         13    1    4    4    0    0 -0.11245223142E+03 -0.20639164095E+02 -0.76760001156E+01  0.11458795934E+03  0.00000000000E+00 0. -1.
        -14    1    4    4    0    0 -0.13473516241E+02  0.29099422425E+02 -0.24659054622E+02  0.40452206370E+02  0.00000000000E+00 0.  1.
</event>
<event>
12    1  0.8258923E-002  0.1858292E+03  0.7818608E-02  0.1162642E+00
         21   -1    0    0  501  502  0.00000000000E+00  0.00000000000E+00  0.52622491792E+03  0.52622491792E+03  0.00000000000E+00 0. -1.
         21   -1    0    0  502  503 -0.00000000000E+00 -0.00000000000E+00 -0.66924946440E+02  0.66924946440E+02  0.00000000000E+00 0. -1.
         -6    2    1    2    0  503  0.64847037354E+02 -0.14451717487E+02  0.27803842997E+03  0.33355740459E+03  0.17187548757E+03 0.  0.
        -24    2    3    3    0    0  0.25916970510E+02  0.19486370262E+02  0.26700314710E+03  0.28053654669E+03  0.79741240785E+02 0.  0.
          6    2    1    2  501    0 -0.64847037354E+02  0.14451717487E+02  0.18126154151E+03  0.25959245977E+03  0.17354684770E+03 0.  0.
         24    2    5    5    0    0 -0.56215608554E+01  0.69242276826E+01  0.12027141272E+02  0.80074515279E+02  0.78662119184E+02 0.  0.
          5    1    5    5  501    0 -0.59225476499E+02  0.75274898046E+01  0.16923440024E+03  0.17951794449E+03  0.47000000000E+01 0. -1.
        -11    1    6    6    0    0 -0.93951284758E+01 -0.30455276560E+02  0.24810207247E+02  0.40389834031E+02  0.00000000000E+00 0.  1.
         12    1    6    6    0    0  0.37735676204E+01  0.37379504243E+02 -0.12783065975E+02  0.39684681248E+02  0.00000000000E+00 0. -1.
         -5    1    3    3    0  503  0.38930066844E+02 -0.33938087749E+02  0.11035282869E+02  0.53020857901E+02  0.47000000000E+01 0.  1.
         11    1    4    4    0    0  0.65316246485E+01 -0.28915494192E+02  0.58107305859E+02  0.65232100373E+02  0.00000000000E+00 0. -1.
        -12    1    4    4    0    0  0.19385345862E+02  0.48401864453E+02  0.20889584124E+03  0.21530444632E+03  0.00000000000E+00 0.  1.
</event>
<event>
12    1  0.8258923E-002  0.2260224E+03  0.7818608E-02  0.1129724E+00
         21   -1    0    0  501  502  0.00000000000E+00  0.00000000000E+00  0.26609995298E+03  0.26609995298E+03  0.00000000000E+00 0. -1.
         21   -1    0    0  502  503 -0.00000000000E+00 -0.00000000000E+00 -0.24186207447E+03  0.24186207447E+03  0.00000000000E+00 0. -1.
         -6    2    1    2    0  503 -0.12159214363E+03  0.83102849168E+02 -0.10455981493E+03  0.24903594010E+03  0.17145090151E+03 0.  0.
        -24    2    3    3    0    0 -0.22866334836E+02  0.65015501882E+02 -0.10474020995E+03  0.14855678805E+03  0.79678873871E+02 0.  0.
          6    2    1    2  501    0  0.12159214363E+03 -0.83102849168E+02  0.12879769343E+03  0.25892608735E+03  0.16959699274E+03 0.  0.
         24    2    5    5    0    0  0.79439509623E+01 -0.53417775314E+02  0.19483743466E+02  0.98399625471E+02  0.79914360143E+02 0.  0.
          5    1    5    5  501    0  0.11364819267E+03 -0.29685073854E+02  0.10931394997E+03  0.16052646188E+03  0.47000000000E+01 0. -1.
        -13    1    6    6    0    0 -0.22357514191E+02 -0.21503992630E+02  0.39357351078E+02  0.50112685258E+02  0.00000000000E+00 0.  1.
         14    1    6    6    0    0  0.30301465153E+02 -0.31913782684E+02 -0.19873607613E+02  0.48286940214E+02  0.00000000000E+00 0. -1.
         -5    1    3    3    0  503 -0.98725808797E+02  0.18087347286E+02  0.18039501755E+00  0.10047915205E+03  0.47000000000E+01 0.  1.
         13    1    4    4    0    0 -0.42356773865E+02  0.21618200188E+02 -0.20444014690E+02  0.51762926968E+02  0.00000000000E+00 0. -1.
        -14    1    4    4    0    0  0.19490439029E+02  0.43397301694E+02 -0.84296195257E+02  0.96793861079E+02  0.00000000000E+00 0.  1.
</event>
<event>
12    1  0.8258923E-002  0.1817809E+03  0.7818608E-02  0.1166234E+00
         21   -1    0    0  503  502  0.00000000000E+00  0.00000000000E+00  0.21225620080E+03  0.21225620080E+03  0.00000000000E+00 0. -1.
         21   -1    0    0  501  503 -0.00000000000E+00 -0.00000000000E+00 -0.15813662291E+03  0.15813662291E+03  0.00000000000E+00 0. -1.
          6    2    1    2  501    0 -0.45360031226E+02 -0.36259604535E+02  0.52472924262E+02  0.18920284970E+03  0.17225567973E+03 0.  0.
         24    2    3    3    0    0  0.18744338099E+02 -0.51337405110E+02  0.70603166646E+02  0.12073748674E+03  0.81276406103E+02 0.  0.
         -6    2    1    2    0  502  0.45360031226E+02  0.36259604535E+02  0.16466536379E+01  0.18118997401E+03  0.17162401889E+03 0.  0.
        -24    2    5    5    0    0  0.20827374592E+02 -0.65247247115E+01  0.62277982498E+02  0.10289183795E+03  0.78941951132E+02 0.  0.
          5    1    3    3  501    0 -0.64104369325E+02  0.15077800575E+02 -0.18130242384E+02  0.68465362963E+02  0.47000000000E+01 0. -1.
        -13    1    4    4    0    0 -0.27396027452E+02 -0.10132931369E+02  0.34156453854E+01  0.29408931495E+02  0.00000000000E+00 0.  1.
         14    1    4    4    0    0  0.46140365551E+02 -0.41204473742E+02  0.67187521260E+02  0.91328555242E+02  0.00000000000E+00 0. -1.
         -5    1    5    5    0  502  0.24532656633E+02  0.42784329246E+02 -0.60631328860E+02  0.78298136056E+02  0.47000000000E+01 0.  1.
         13    1    6    6    0    0 -0.17273619751E+01 -0.32338186587E+01  0.76130702322E+02  0.76218929398E+02  0.00000000000E+00 0. -1.
        -14    1    6    6    0    0  0.22554736567E+02 -0.32909060528E+01 -0.13852719825E+02  0.26672908556E+02  0.00000000000E+00 0.  1.
</event>
<event>
12    1  0.8258923E-002  0.2215018E+03  0.7818608E-02  0.1132857E+00
         21   -1    0    0  501  502  0.00000000000E+00  0.00000000000E+00  0.24327729103E+02  0.24327729103E+02  0.00000000000E+00 0. -1.
         21   -1    0    0  502  503 -0.00000000000E+00 -0.00000000000E+00 -0.20458139771E+04  0.20458139771E+04  0.00000000000E+00 0.  1.
         -6    2    1    2    0  503  0.11314067682E+03 -0.86092089361E+02 -0.11440721775E+04  0.11653172162E+04  0.16985407392E+03 0.  0.
        -24    2    3    3    0    0  0.11333433512E+03 -0.12723759694E+02 -0.56727026700E+03  0.58384883076E+03  0.77957268952E+02 0.  0.
          6    2    1    2  501    0 -0.11314067682E+03  0.86092089361E+02 -0.87741407051E+03  0.90482449002E+03  0.16923133873E+03 0.  0.
         24    2    5    5    0    0 -0.96277795994E+02  0.10871666279E+02 -0.35688578439E+03  0.37859806019E+03  0.81125957330E+02 0.  0.
          5    1    5    5  501    0 -0.16862880831E+02  0.75220423082E+02 -0.52052828612E+03  0.52622642983E+03  0.47000000000E+01 0. -1.
        -13    1    6    6    0    0  0.13456871918E+01 -0.19634609276E+02 -0.10338993957E+03  0.10524641732E+03  0.00000000000E+00 0.  1.
         14    1    6    6    0    0 -0.97623483186E+02  0.30506275554E+02 -0.25349584482E+03  0.27335164287E+03  0.00000000000E+00 0. -1.
         -5    1    3    3    0  503 -0.19365829175E+00 -0.73368329667E+02 -0.57680191048E+03  0.58146838541E+03  0.47000000000E+01 0.  1.
         13    1    4    4    0    0 -0.10992191875E+02  0.36888085367E+01 -0.30641553709E+02  0.32761874249E+02  0.00000000000E+00 0. -1.
        -14    1    4    4    0    0  0.12432652699E+03 -0.16412568231E+02 -0.53662871329E+03  0.55108695651E+03  0.00000000000E+00 0.  1.
</event>
<event>
12    1  0.8258923E-002  0.1993410E+03  0.7818608E-02  0.1150388E+00
         21   -1    0    0  503  502  0.00000000000E+00  0.00000000000E+00  0.62474355801E+03  0.62474355801E+03  0.00000000000E+00 0.  1.
         21   -1    0    0  501  503 -0.00000000000E+00 -0.00000000000E+00 -0.73820516066E+02  0.73820516066E+02  0.00000000000E+00 0.  1.
          6    2    1    2  501    0 -0.96588330558E+02 -0.29336002559E+02  0.14491341787E+03  0.24644821645E+03  0.17189216988E+03 0.  0.
         24    2    3    3    0    0 -0.87712999748E+02 -0.36073818203E+02  0.17500727046E+03  0.21401521443E+03  0.78613463300E+02 0.  0.
         -6    2    1    2    0  502  0.96588330558E+02  0.29336002559E+02  0.40600962407E+03  0.45211585762E+03  0.17139144446E+03 0.  0.
        -24    2    5    5    0    0  0.18648808112E+02 -0.10424014478E+02  0.31543558804E+03  0.32609532709E+03  0.79888134456E+02 0.  0.
          5    1    3    3  501    0 -0.88753308106E+01  0.67378156448E+01 -0.30093852580E+02  0.32433002016E+02  0.47000000000E+01 0. -1.
        -11    1    4    4    0    0 -0.67086049313E+01 -0.41112839946E+02  0.51685579646E+02  0.66382754778E+02  0.00000000000E+00 0.  1.
         12    1    4    4    0    0 -0.81004394816E+02  0.50390217429E+01  0.12332169081E+03  0.14763245965E+03  0.00000000000E+00 0. -1.
         -5    1    5    5    0  502  0.77939522446E+02  0.39760017037E+02  0.90574036030E+02  0.12602053054E+03  0.47000000000E+01 0.  1.
         13    1    6    6    0    0  0.55583824972E+01 -0.13174837912E+02  0.46709332172E+01  0.15042924819E+02  0.00000000000E+00 0. -1.
        -14    1    6    6    0    0  0.13090425615E+02  0.27508234339E+01  0.31076465482E+03  0.31105240227E+03  0.00000000000E+00 0.  1.
</event>
<event>
12    1  0.8258923E-002  0.2095371E+03  0.7818608E-02  0.1142240E+00
         21   -1    0    0  503  502  0.00000000000E+00  0.00000000000E+00  0.67300904467E+02  0.67300904467E+02  0.00000000000E+00 0.  1.
         21   -1    0    0  501  503 -0.00000000000E+00 -0.00000000000E+00 -0.95693441519E+03  0.95693441519E+03  0.00000000000E+00 0.  1.
          6    2    1    2  501    0  0.10831973056E+03  0.45528116588E+02 -0.73709260452E+03  0.76629712605E+03  0.17349295179E+03 0.  0.
         24    2    3    3    0    0  0.91170216422E+01  0.14483634893E+02 -0.15633871619E+03  0.17629534121E+03  0.79657751595E+02 0.  0.
         -6    2    1    2    0  502 -0.10831973056E+03 -0.45528116588E+02 -0.15254090620E+03  0.25793819360E+03  0.17163161197E+03 0.  0.
        -24    2    5    5    0    0 -0.14464236628E+03 -0.29251314809E+02 -0.12994997777E+03  0.21193049654E+03  0.79060009490E+02 0.  0.
          5    1    3    3  501    0  0.99202708918E+02  0.31044481695E+02 -0.58075388833E+03  0.59000178484E+03  0.47000000000E+01 0. -1.
        -13    1    4    4    0    0  0.19018750058E+02  0.44299019202E+02 -0.11219025177E+03  0.12210965788E+03  0.00000000000E+00 0.  1.
         14    1    4    4    0    0 -0.99017284154E+01 -0.29815384308E+02 -0.44148464422E+02  0.54185683329E+02  0.00000000000E+00 0. -1.
         -5    1    5    5    0  502  0.36322635719E+02 -0.16276801779E+02 -0.22590928423E+02  0.46007697060E+02  0.47000000000E+01 0.  1.
         13    1    6    6    0    0  0.46334408198E+01  0.65034231004E+01  0.33230062376E+01  0.86490263214E+01  0.00000000000E+00 0. -1.
        -14    1    6    6    0    0 -0.14927580710E+03 -0.35754737909E+02 -0.13327298401E+03  0.20328147022E+03  0.00000000000E+00 0.  1.
</event>
<event>
12    1  0.8258923E-002  0.3113842E+03  0.7818608E-02  0.1079824E+00
         21   -1    0    0  501  502  0.00000000000E+00  0.00000000000E+00  0.11927654103E+04  0.11927654103E+04  0.00000000000E+00 0.  1.
         21   -1    0    0  502  503 -0.00000000000E+00 -0.00000000000E+00 -0.13603722460E+03  0.13603722460E+03  0.00000000000E+00 0. -1.
         -6    2    1    2    0  503  0.21667107022E+03 -0.14250683215E+03  0.95161074848E+03  0.10012607839E+04  0.17235309961E+03 0.  0.
        -24    2    3    3    0    0  0.91238492988E+02  0.19327895306E+01  0.35147912587E+03  0.37135905335E+03  0.77728838293E+02 0.  0.
          6    2    1    2  501    0 -0.21667107022E+03  0.14250683215E+03  0.10511743720E+03  0.32754185095E+03  0.17023348273E+03 0.  0.
         24    2    5    5    0    0 -0.23011747864E+02  0.44005633409E+02  0.27401360744E+02  0.96742592224E+02  0.78372560684E+02 0.  0.
          5    1    5    5  501    0 -0.19365932236E+03  0.98501198740E+02  0.77716076459E+02  0.23079925873E+03  0.47000000000E+01 0. -1.
        -11    1    6    6    0    0 -0.21882779816E+02 -0.17568008615E+02  0.20542861713E+02  0.34777868632E+02  0.00000000000E+00 0.  1.
         12    1    6    6    0    0 -0.11289680480E+01  0.61573642024E+02  0.68584990305E+01  0.61964723592E+02  0.00000000000E+00 0. -1.
         -5    1    3    3    0  503  0.12543257724E+03 -0.14443962168E+03  0.60013162261E+03  0.62990173059E+03  0.47000000000E+01 0.  1.
         11    1    4    4    0    0  0.47731467801E+02 -0.18190301981E+02  0.74919182873E+02  0.90675597968E+02  0.00000000000E+00 0. -1.
        -12    1    4    4    0    0  0.43507025187E+02  0.20123091511E+02  0.27655994300E+03  0.28068345538E+03  0.00000000000E+00 0.  1.
</event>
<event>
12    1  0.8258923E-002  0.2005980E+03  0.7818608E-02  0.1150503E+00
         21   -1    0    0  501  502  0.00000000000E+00  0.00000000000E+00  0.54983737855E+02  0.54983737855E+02  0.00000000000E+00 0.  1.
         21   -1    0    0  502  503 -0.00000000000E+00 -0.00000000000E+00 -0.14860940199E+04  0.14860940199E+04  0.00000000000E+00 0.  1.
         -6    2    1    2    0  503 -0.78754833816E+02  0.45849678741E+02 -0.12671016008E+04  0.12819669597E+04  0.17201250604E+03 0.  0.
        -24    2    3    3    0    0 -0.23911348226E+02 -0.40395628500E+02 -0.56348090811E+03  0.57094640440E+03  0.79154933657E+02 0.  0.
          6    2    1    2  501    0  0.78754833816E+02 -0.45849678741E+02 -0.16400868133E+03  0.25911079810E+03  0.17870378073E+03 0.  0.
         24    2    5    5    0    0  0.71452251010E+02 -0.93327539819E+02 -0.15385072143E+03  0.20978789107E+03  0.80780324914E+02 0.  0.
          5    1    5    5  501    0  0.73025828062E+01  0.47477861078E+02 -0.10157959904E+02  0.49322907027E+02  0.47000000000E+01 0. -1.
        -13    1    6    6    0    0  0.39359613681E+02  0.45442775916E+01 -0.42336084893E+02  0.57984254173E+02  0.00000000000E+00 0.  1.
         14    1    6    6    0    0  0.32092637329E+02 -0.97871817411E+02 -0.11151463654E+03  0.15180363690E+03  0.00000000000E+00 0. -1.
         -5    1    3    3    0  503 -0.54843485590E+02  0.86245307242E+02 -0.70362069266E+03  0.71102055530E+03  0.47000000000E+01 0.  1.
         11    1    4    4    0    0  0.16600404673E+02  0.10188055175E+02 -0.25439194166E+03  0.25513649265E+03  0.00000000000E+00 0. -1.
        -12    1    4    4    0    0 -0.40511752900E+02 -0.50583683675E+02 -0.30908896645E+03  0.31580991175E+03  0.00000000000E+00 0.  1.
</event>
<event>
12    1  0.8258923E-002  0.2361552E+03  0.7818608E-02  0.1122501E+00
         21   -1    0    0  501  502  0.00000000000E+00  0.00000000000E+00  0.46353829436E+03  0.46353829436E+03  0.00000000000E+00 0. -1.
         21   -1    0    0  502  503 -0.00000000000E+00 -0.00000000000E+00 -0.13129509987E+03  0.13129509987E+03  0.00000000000E+00 0.  1.
         -6    2    1    2    0  503  0.15163769914E+03 -0.59940252052E+02  0.78477005403E+02  0.24818289406E+03  0.16985076659E+03 0.  0.
        -24    2    3    3    0    0  0.12533223251E+03 -0.93502919634E+02  0.22551257609E+02  0.17769736721E+03  0.81343903314E+02 0.  0.
          6    2    1    2  501    0 -0.15163769914E+03  0.59940252052E+02  0.25376618909E+03  0.34665050017E+03  0.17082875907E+03 0.  0.
         24    2    5    5    0    0 -0.63970881031E+02  0.75777554851E+02  0.92192818763E+02  0.16208524028E+03  0.89093197538E+02 0.  0.
          5    1    5    5  501    0 -0.87666818109E+02 -0.15837302799E+02  0.16157337033E+03  0.18456525988E+03  0.47000000000E+01 0. -1.
        -13    1    6    6    0    0 -0.63071648998E+02  0.90483522835E+02  0.96693516860E+02  0.14667970894E+03  0.00000000000E+00 0.  1.
         14    1    6    6    0    0 -0.89923203211E+00 -0.14705967984E+02 -0.45006980978E+01  0.15405531343E+02  0.00000000000E+00 0. -1.
         -5    1    3    3    0  503  0.26305466629E+02  0.33562667582E+02  0.55925747795E+02  0.70485526856E+02  0.47000000000E+01 0.  1.
         11    1    4    4    0    0  0.85994639009E+02 -0.27553653268E+02  0.40295156232E+02  0.98883675915E+02  0.00000000000E+00 0. -1.
        -12    1    4    4    0    0  0.39337593502E+02 -0.65949266366E+02 -0.17743898623E+02  0.78813691292E+02  0.00000000000E+00 0.  1.
</event>
<event>
12    1  0.8258923E-002  0.1853088E+03  0.7818608E-02  0.1162774E+00
         21   -1    0    0  501  502  0.00000000000E+00  0.00000000000E+00  0.16548193549E+03  0.16548193549E+03  0.00000000000E+00 0. -1.
         21   -1    0    0  502  503 -0.00000000000E+00 -0.00000000000E+00 -0.59308572547E+03  0.59308572547E+03  0.00000000000E+00 0. -1.
         -6    2    1    2    0  503 -0.24812095069E+02  0.62703352265E+02 -0.51965185666E+03  0.55170407436E+03  0.17260354309E+03 0.  0.
        -24    2    3    3    0    0 -0.44042651122E+02  0.98084568479E+02 -0.46369476072E+03  0.48260319642E+03  0.79578114937E+02 0.  0.
          6    2    1    2  501    0  0.24812095069E+02 -0.62703352265E+02  0.92048066685E+02  0.20686358660E+03  0.17254665002E+03 0.  0.
         24    2    5    5    0    0  0.32896166710E+02 -0.10244709053E+03  0.98047584130E+02  0.16559615204E+03  0.78937903922E+02 0.  0.
          5    1    5    5  501    0 -0.80840716410E+01  0.39743738261E+02 -0.59995174447E+01  0.41267434556E+02  0.47000000000E+01 0. -1.
        -11    1    6    6    0    0  0.13605709265E+01 -0.81986162252E+02  0.28992584304E+02  0.86972132886E+02  0.00000000000E+00 0.  1.
         12    1    6    6    0    0  0.31535595783E+02 -0.20460928274E+02  0.69054999825E+02  0.78624019155E+02  0.00000000000E+00 0. -1.
         -5    1    3    3    0  503  0.19230556053E+02 -0.35381216214E+02 -0.55957095938E+02  0.69100877944E+02  0.47000000000E+01 0.  1.
         13    1    4    4    0    0 -0.14582411175E+02 -0.11877653307E+02 -0.90407282992E+02  0.92342851276E+02  0.00000000000E+00 0. -1.
        -14    1    4    4    0    0 -0.29460239947E+02  0.10996222179E+03 -0.37328747773E+03  0.39026034514E+03  0.00000000000E+00 0.  1.
</event>
<event>
12    1  0.8258923E-002  0.2233676E+03  0.7818608E-02  0.1131762E+00
         21   -1    0    0  501  502  0.00000000000E+00  0.00000000000E+00  0.12080920111E+04  0.12080920111E+04  0.00000000000E+00 0. -1.
         21   -1    0    0  502  503 -0.00000000000E+00 -0.00000000000E+00 -0.41072250944E+02  0.41072250944E+02  0.00000000000E+00 0.  1.
         -6    2    1    2    0  503 -0.92682808992E+02 -0.10659841605E+03  0.54972109519E+03  0.59336865031E+03  0.17303105875E+03 0.  0.
        -24    2    3    3    0    0 -0.12182794361E+03 -0.55688775445E+02  0.46249869776E+03  0.48814951236E+03  0.80259662572E+02 0.  0.
          6    2    1    2  501    0  0.92682808992E+02  0.10659841605E+03  0.61729866493E+03  0.65579561169E+03  0.17046089641E+03 0.  0.
         24    2    5    5    0    0  0.55928940993E+02  0.12340650191E+03  0.57977202953E+03  0.60044493936E+03  0.77725850424E+02 0.  0.
          5    1    5    5  501    0  0.36753867999E+02 -0.16808085856E+02  0.37526635392E+02  0.55350672325E+02  0.47000000000E+01 0. -1.
        -11    1    6    6    0    0  0.14158097313E+02  0.11102374974E+03  0.39046169729E+03  0.40618599407E+03  0.00000000000E+00 0.  1.
         12    1    6    6    0    0  0.41770843680E+02  0.12382752162E+02  0.18931033225E+03  0.19425894530E+03  0.00000000000E+00 0. -1.
         -5    1    3    3    0  503  0.29145134614E+02 -0.50909640604E+02  0.87222397430E+02  0.10521913795E+03  0.47000000000E+01 0.  1.
         11    1    4    4    0    0 -0.10913278893E+03 -0.12064531612E+02  0.30182959668E+03  0.32118004915E+03  0.00000000000E+00 0. -1.
        -12    1    4    4    0    0 -0.12695154676E+02 -0.43624243832E+02  0.16066910108E+03  0.16696946321E+03  0.00000000000E+00 0.  1.
</event>
<event>
12    1  0.8258923E-002  0.2481277E+03  0.7818608E-02  0.1114535E+00
         21   -1    0    0  501  502  0.00000000000E+00  0.00000000000E+00  0.24090352109E+03  0.24090352109E+03  0.00000000000E+00 0. -1.
         21   -1    0    0  502  503 -0.00000000000E+00 -0.00000000000E+00 -0.26558661622E+03  0.26558661622E+03  0.00000000000E+00 0.  1.
         -6    2    1    2    0  503 -0.18989242070E+01  0.17860488883E+03 -0.62166913388E+02  0.25554718061E+03  0.17186135159E+03 0.  0.
        -24    2    3    3    0    0 -0.71325248158E+02  0.83916573991E+02 -0.20928163913E+02  0.13101358722E+03  0.67803315374E+02 0.  0.
          6    2    1    2  501    0  0.18989242070E+01 -0.17860488883E+03  0.37483818261E+02  0.25094295670E+03  0.17223245530E+03 0.  0.
         24    2    5    5    0    0 -0.59180630162E+02 -0.10783533290E+03  0.53064289703E+02  0.15605416337E+03  0.80039221991E+02 0.  0.
          5    1    5    5  501    0  0.61079554369E+02 -0.70769555934E+02 -0.15580471442E+02  0.94888793329E+02  0.47000000000E+01 0. -1.
        -11    1    6    6    0    0 -0.98636298703E+01 -0.31282963702E+02 -0.20766199828E+02  0.38822030698E+02  0.00000000000E+00 0.  1.
         12    1    6    6    0    0 -0.49317000292E+02 -0.76552369196E+02  0.73830489531E+02  0.11723213268E+03  0.00000000000E+00 0. -1.
         -5    1    3    3    0  503  0.69426323951E+02  0.94688314840E+02 -0.41238749475E+02  0.12453359339E+03  0.47000000000E+01 0.  1.
         13    1    4    4    0    0 -0.12531947726E+02 -0.11301774878E+02 -0.68966808090E+01  0.18230305411E+02  0.00000000000E+00 0. -1.
        -14    1    4    4    0    0 -0.58793300432E+02  0.95218348869E+02 -0.14031483104E+02  0.11278328181E+03  0.00000000000E+00 0.  1.
</event>
<event>
12    1  0.8258923E-002  0.2093778E+03  0.7818608E-02  0.1142319E+00
         21   -1    0    0  503  502  0.00000000000E+00  0.00000000000E+00  0.12503600089E+04  0.12503600089E+04  0.00000000000E+00 0.  1.
         21   -1    0    0  501  503 -0.00000000000E+00 -0.00000000000E+00 -0.69861144995E+02  0.69861144995E+02  0.00000000000E+00 0. -1.
          6    2    1    2  501    0 -0.35492138292E+01  0.11705752272E+03  0.12381825424E+03  0.24324891374E+03  0.17356270742E+03 0.  0.
         24    2    3    3    0    0  0.30779966326E+02  0.14023221598E+03  0.11458773116E+03  0.20055404784E+03  0.80492839724E+02 0.  0.
         -6    2    1    2    0  502  0.35492138292E+01 -0.11705752272E+03  0.10566806097E+04  0.10769722402E+04  0.17198905398E+03 0.  0.
        -24    2    5    5    0    0  0.33707640339E+02 -0.30134337749E+01  0.51637377783E+03  0.52391785998E+03  0.81870383970E+02 0.  0.
          5    1    3    3  501    0 -0.34329180155E+02 -0.23174693257E+02  0.92305230841E+01  0.42694865898E+02  0.47000000000E+01 0. -1.
        -11    1    4    4    0    0 -0.19316500030E+02  0.13794721471E+02  0.37054908696E+02  0.44005542518E+02  0.00000000000E+00 0.  1.
         12    1    4    4    0    0  0.50096466356E+02  0.12643749451E+03  0.77532822463E+02  0.15654850532E+03  0.00000000000E+00 0. -1.
         -5    1    5    5    0  502 -0.30158426510E+02 -0.11404408895E+03  0.54030683187E+03  0.55305438022E+03  0.47000000000E+01 0.  1.
         11    1    6    6    0    0 -0.18323811665E+02  0.18326138199E+02  0.84130779054E+02  0.88031797661E+02  0.00000000000E+00 0. -1.
        -12    1    6    6    0    0  0.52031452004E+02 -0.21339571974E+02  0.43224299878E+03  0.43588606232E+03  0.00000000000E+00 0.  1.
</event>
<event>
12    1  0.8258923E-002  0.1798324E+03  0.7818608E-02  0.1169703E+00
         21   -1    0    0  503  502  0.00000000000E+00  0.00000000000E+00  0.95548669713E+02  0.95548669713E+02  0.00000000000E+00 0. -1.
         21   -1    0    0  501  503 -0.00000000000E+00 -0.00000000000E+00 -0.88391790497E+03  0.88391790497E+03  0.00000000000E+00 0. -1.
          6    2    1    2  501    0 -0.13888430353E+02  0.37764127407E+02 -0.78056466627E+03  0.79946490977E+03  0.16805929280E+03 0.  0.
         24    2    3    3    0    0 -0.51833755733E+02 -0.23816177114E+02 -0.49027411871E+03  0.50026151135E+03  0.81479566324E+02 0.  0.
         -6    2    1    2    0  502  0.13888430353E+02 -0.37764127407E+02 -0.78045689865E+01  0.18000166492E+03  0.17527313046E+03 0.  0.
        -24    2    5    5    0    0  0.15781184074E+02 -0.89801893208E+02  0.16696126647E+02  0.12226185480E+03  0.79723112707E+02 0.  0.
          5    1    3    3  501    0  0.37945325380E+02  0.61580304521E+02 -0.29029054756E+03  0.29920339842E+03  0.47000000000E+01 0. -1.
        -13    1    4    4    0    0 -0.16804154972E+02  0.29879838213E+02 -0.20731350029E+03  0.21012870284E+03  0.00000000000E+00 0.  1.
         14    1    4    4    0    0 -0.35029600761E+02 -0.53696015327E+02 -0.28296061843E+03  0.29013280851E+03  0.00000000000E+00 0. -1.
         -5    1    5    5    0  502 -0.18927537212E+01  0.52037765801E+02 -0.24500695634E+02  0.57739810120E+02  0.47000000000E+01 0.  1.
         13    1    6    6    0    0  0.36997770036E+02 -0.41156021934E+02 -0.18762055955E+02  0.58435159559E+02  0.00000000000E+00 0. -1.
        -14    1    6    6    0    0 -0.21216585962E+02 -0.48645871274E+02  0.35458182603E+02  0.63826695241E+02  0.00000000000E+00 0.  1.
</event>
<event>
12    1  0.8258923E-002  0.1799764E+03  0.7818608E-02  0.1169417E+00
         21   -1    0    0  501  502  0.00000000000E+00  0.00000000000E+00  0.31002536278E+03  0.31002536278E+03  0.00000000000E+00 0. -1.
         21   -1    0    0  502  503 -0.00000000000E+00 -0.00000000000E+00 -0.18771274856E+03  0.18771274856E+03  0.00000000000E+00 0. -1.
         -6    2    1    2    0  503  0.30520428244E+02 -0.58114700072E+01 -0.10879850913E+03  0.20481514067E+03  0.17072450478E+03 0.  0.
        -24    2    3    3    0    0  0.31523342837E+01  0.35751548799E+02 -0.21461805425E+01  0.87030140380E+02  0.79256096237E+02 0.  0.
          6    2    1    2  501    0 -0.30520428244E+02  0.58114700072E+01  0.23111112336E+03  0.29292297067E+03  0.17727449248E+03 0.  0.
         24    2    5    5    0    0  0.44348106546E+02 -0.12489476860E+02  0.17219313954E+03  0.19579603839E+03  0.81011540888E+02 0.  0.
          5    1    5    5  501    0 -0.74868534790E+02  0.18300946867E+02  0.58917983812E+02  0.97126932281E+02  0.47000000000E+01 0. -1.
        -11    1    6    6    0    0  0.44525648051E+01  0.23397436995E+02  0.11633693908E+02  0.26506758104E+02  0.00000000000E+00 0.  1.
         12    1    6    6    0    0  0.39895541741E+02 -0.35886913855E+02  0.16055944564E+03  0.16928928029E+03  0.00000000000E+00 0. -1.
         -5    1    3    3    0  503  0.27368093960E+02 -0.41563018806E+02 -0.10665232859E+03  0.11778500029E+03  0.47000000000E+01 0.  1.
         13    1    4    4    0    0  0.26860584990E+02  0.51757462224E+02  0.37824046572E+00  0.58313540346E+02  0.00000000000E+00 0. -1.
        -14    1    4    4    0    0 -0.23708250706E+02 -0.16005913425E+02 -0.25244210082E+01  0.28716600034E+02  0.00000000000E+00 0.  1.
</event>
<event>
12    1  0.8258923E-002  0.1920325E+03  0.7818608E-02  0.1160679E+00
         21   -1    0    0  503  502  0.00000000000E+00  0.00000000000E+00  0.18275217444E+02  0.18275217444E+02  0.00000000000E+00 0.  1.
         21   -1    0    0  501  503 -0.00000000000E+00 -0.00000000000E+00 -0.22587257297E+04  0.22587257297E+04  0.00000000000E+00 0.  1.
          6    2    1    2  501    0  0.83557041944E+02  0.15655774121E+02 -0.58778445201E+03  0.61321562706E+03  0.15269564734E+03 0.  0.
         24    2    3    3    0    0  0.82925363665E+02 -0.33957957746E+02 -0.47107909689E+03  0.48631349420E+03  0.80966291070E+02 0.  0.
         -6    2    1    2    0  502 -0.83557041944E+02 -0.15655774121E+02 -0.16526660602E+04  0.16637853200E+04  0.17219059827E+03 0.  0.
        -24    2    5    5    0    0 -0.52841744058E+02 -0.77016882034E+02 -0.10139116406E+04  0.10213385023E+04  0.79947928515E+02 0.  0.
          5    1    3    3  501    0  0.63167827908E+00  0.49613731867E+02 -0.11670535513E+03  0.12690213285E+03  0.47000000000E+01 0. -1.
        -13    1    4    4    0    0  0.75452913373E+01 -0.82632699347E+01 -0.26716912541E+03  0.26740335567E+03  0.00000000000E+00 0.  1.
         14    1    4    4    0    0  0.75380072328E+02 -0.25694687811E+02 -0.20390997147E+03  0.21891013853E+03  0.00000000000E+00 0. -1.
         -5    1    5    5    0  502 -0.30715297886E+02  0.61361107912E+02 -0.63875441960E+03  0.64244681776E+03  0.47000000000E+01 0.  1.
         11    1    6    6    0    0  0.55868190984E+01 -0.56143861950E+02 -0.34816984222E+03  0.35271175883E+03  0.00000000000E+00 0. -1.
        -12    1    6    6    0    0 -0.58428563157E+02 -0.20873020083E+02 -0.66574179838E+03  0.66862674346E+03  0.00000000000E+00 0.  1.
</event>
<event>
12    1  0.8258923E-002  0.1854025E+03  0.7818608E-02  0.1162869E+00
         21   -1    0    0  501  502  0.00000000000E+00  0.00000000000E+00  0.37860127789E+03  0.37860127789E+03  0.00000000000E+00 0.  1.
         21   -1    0    0  502  503 -0.00000000000E+00 -0.00000000000E+00 -0.90951917137E+02  0.90951917137E+02  0.00000000000E+00 0. -1.
         -6    2    1    2    0  503 -0.55368954350E+02 -0.39635952898E+02  0.12561809697E+03  0.22395090230E+03  0.17244526809E+03 0.  0.
        -24    2    3    3    0    0 -0.25660716738E+02  0.42241095484E+02  0.40001409631E+02  0.10172677381E+03  0.79406808309E+02 0.  0.
          6    2    1    2  501    0  0.55368954350E+02  0.39635952898E+02  0.16203126378E+03  0.24560229273E+03  0.17155065107E+03 0.  0.
         24    2    5    5    0    0  0.75495009818E+02  0.77618573400E+02  0.14826881071E+03  0.20022352365E+03  0.79885416366E+02 0.  0.
          5    1    5    5  501    0 -0.20126055468E+02 -0.37982620502E+02  0.13762453071E+02  0.45378769083E+02  0.47000000000E+01 0. -1.
        -11    1    6    6    0    0  0.15154410448E+02  0.14607008381E+02  0.96517010100E+02  0.98785394105E+02  0.00000000000E+00 0.  1.
         12    1    6    6    0    0  0.60340599370E+02  0.63011565019E+02  0.51751800610E+02  0.10143812954E+03  0.00000000000E+00 0. -1.
         -5    1    3    3    0  503 -0.29708237612E+02 -0.81877048382E+02  0.85616687340E+02  0.12222412849E+03  0.47000000000E+01 0.  1.
         11    1    4    4    0    0  0.17482952383E+02 -0.27434900284E+01  0.34971818178E+02  0.39194494871E+02  0.00000000000E+00 0. -1.
        -12    1    4    4    0    0 -0.43143669121E+02  0.44984585513E+02  0.50295914537E+01  0.62532278938E+02  0.00000000000E+00 0.  1.
</event>
<event>
12    1  0.8258923E-002  0.2037958E+03  0.7818608E-02  0.1146603E+00
         21   -1    0    0  501  502  0.00000000000E+00  0.00000000000E+00  0.10859998063E+03  0.10859998063E+03  0.00000000000E+00 0. -1.
         21   -1    0    0  502  503 -0.00000000000E+00 -0.00000000000E+00 -0.59967194006E+03  0.59967194006E+03  0.00000000000E+00 0. -1.
         -6    2    1    2    0  503 -0.96162399796E+02 -0.35245238606E+02 -0.45875375295E+03  0.50192953967E+03  0.17603642510E+03 0.  0.
        -24    2    3    3    0    0  0.18714394340E+02 -0.23727556569E+02 -0.15776076115E+03  0.17951954301E+03  0.80159734698E+02 0.  0.
          6    2    1    2  501    0  0.96162399796E+02  0.35245238606E+02 -0.32318206486E+02  0.20634238102E+03  0.17619102633E+03 0.  0.
         24    2    5    5    0    0  0.11231203516E+03  0.60921089180E+02  0.12571213167E+02  0.15196214544E+03  0.81296284662E+02 0.  0.
          5    1    5    5  501    0 -0.16149635360E+02 -0.25675850575E+02 -0.44889419653E+02  0.54380235580E+02  0.47000000000E+01 0. -1.
        -13    1    6    6    0    0  0.76538957376E+02  0.23230173880E+01 -0.14909011994E+02  0.78012095502E+02  0.00000000000E+00 0.  1.
         14    1    6    6    0    0  0.35773077780E+02  0.58598071792E+02  0.27480225161E+02  0.73950049943E+02  0.00000000000E+00 0. -1.
         -5    1    3    3    0  503 -0.11487679414E+03 -0.11517682037E+02 -0.30099299180E+03  0.32240999666E+03  0.47000000000E+01 0.  1.
         11    1    4    4    0    0  0.28144506172E+02  0.66486708174E+01 -0.13719581206E+02  0.32008513864E+02  0.00000000000E+00 0. -1.
        -12    1    4    4    0    0 -0.94301118326E+01 -0.30376227386E+02 -0.14404117994E+03  0.14751102914E+03  0.00000000000E+00 0.  1.
</event>
<event>
12    1  0.8258923E-002  0.1774582E+03  0.7818608E-02  0.1170744E+00
         21   -1    0    0  503  502  0.00000000000E+00  0.00000000000E+00  0.16335966121E+03  0.16335966121E+03  0.00000000000E+00 0.  1.
         21   -1    0    0  501  503 -0.00000000000E+00 -0.00000000000E+00 -0.19077344369E+03  0.19077344369E+03  0.00000000000E+00 0.  1.
          6    2    1    2  501    0 -0.86394762691E+01 -0.44864058026E+02 -0.13993635043E+02  0.17616823075E+03  0.16956414554E+03 0.  0.
         24    2    3    3    0    0 -0.38457940844E+02  0.25515265915E+02  0.14528849875E+02  0.94449125192E+02  0.81114164991E+02 0.  0.
         -6    2    1    2    0  502  0.86394762691E+01  0.44864058026E+02 -0.13420147439E+02  0.17796487415E+03  0.17147586367E+03 0.  0.
        -24    2    5    5    0    0 -0.39945109038E+02 -0.23396411329E+02  0.62387051594E+01  0.91776046039E+02  0.78999477121E+02 0.  0.
          5    1    3    3  501    0  0.29818464575E+02 -0.70379323941E+02 -0.28522484918E+02  0.81719105562E+02  0.47000000000E+01 0. -1.
        -11    1    4    4    0    0  0.25527139928E+01 -0.16136301416E+02  0.29844309882E+02  0.34023218608E+02  0.00000000000E+00 0.  1.
         12    1    4    4    0    0 -0.41010654837E+02  0.41651567331E+02 -0.15315460007E+02  0.60425906584E+02  0.00000000000E+00 0. -1.
         -5    1    5    5    0  502  0.48584585307E+02  0.68260469355E+02 -0.19658852598E+02  0.86188828113E+02  0.47000000000E+01 0.  1.
         13    1    6    6    0    0  0.10620507726E+02 -0.33094382137E+02  0.17736396996E+02  0.39020675184E+02  0.00000000000E+00 0. -1.
        -14    1    6    6    0    0 -0.50565616764E+02  0.96979708082E+01 -0.11497691836E+02  0.52755370855E+02  0.00000000000E+00 0.  1.
</event>
<event>
12    1  0.8258923E-002  0.3678251E+03  0.7818608E-02  0.1055566E+00
         21   -1    0    0  503  502  0.00000000000E+00  0.00000000000E+00  0.60412522003E+03  0.60412522003E+03  0.00000000000E+00 0. -1.
         21   -1    0    0  501  503 -0.00000000000E+00 -0.00000000000E+00 -0.25756898204E+03  0.25756898204E+03  0.00000000000E+00 0.  1.
          6    2    1    2  501    0  0.10802434213E+03 -0.30592733638E+03  0.17145787273E+02  0.36822449901E+03  0.17330467394E+03 0.  0.
         24    2    3    3    0    0  0.80597933592E+02 -0.20077752224E+03  0.79257548712E+02  0.24297014895E+03  0.77104435132E+02 0.  0.
         -6    2    1    2    0  502 -0.10802434213E+03  0.30592733638E+03  0.32941045072E+03  0.49346970306E+03  0.17245378846E+03 0.  0.
        -24    2    5    5    0    0  0.15701350736E+02  0.12128413011E+03  0.13353100687E+03  0.19717254273E+03  0.78039151576E+02 0.  0.
          5    1    3    3  501    0  0.27426408534E+02 -0.10514981415E+03 -0.62111761438E+02  0.12525435006E+03  0.47000000000E+01 0. -1.
        -11    1    4    4    0    0  0.84824371387E+02 -0.13003798873E+03  0.34159463341E+02  0.15897144847E+03  0.00000000000E+00 0.  1.
         12    1    4    4    0    0 -0.42264377950E+01 -0.70739533505E+02  0.45098085371E+02  0.83998700472E+02  0.00000000000E+00 0. -1.
         -5    1    5    5    0  502 -0.12372569286E+03  0.18464320627E+03  0.19587944385E+03  0.29629716033E+03  0.47000000000E+01 0.  1.
         11    1    6    6    0    0  0.16602968588E+02 -0.38861050355E+01  0.30945730606E+02  0.35332684883E+02  0.00000000000E+00 0. -1.
        -12    1    6    6    0    0 -0.90161785196E+00  0.12517023515E+03  0.10258527626E+03  0.16183985784E+03  0.00000000000E+00 0.  1.
</event>
<event>
12    1  0.8258923E-002  0.3369395E+03  0.7818608E-02  0.1068148E+00
         21   -1    0    0  501  502  0.00000000000E+00  0.00000000000E+00  0.26667284616E+03  0.26667284616E+03  0.00000000000E+00 0.  1.
         21   -1    0    0  502  503 -0.00000000000E+00 -0.00000000000E+00 -0.54937831694E+03  0.54937831694E+03  0.00000000000E+00 0. -1.
         -6    2    1    2    0  503 -0.15332710756E+03  0.24537486365E+03 -0.33537240816E+03  0.47539758538E+03  0.17265626661E+03 0.  0.
        -24    2    3    3    0    0 -0.11973643628E+03  0.25505336792E+03 -0.25579701028E+03  0.38835540830E+03  0.77451778721E+02 0.  0.
          6    2    1    2  501    0  0.15332710756E+03 -0.24537486365E+03  0.52666937387E+02  0.34065357772E+03  0.17190994182E+03 0.  0.
         24    2    5    5    0    0  0.59021117030E+02 -0.72111645332E+02  0.72070722200E+02  0.14238013135E+03  0.79964561878E+02 0.  0.
          5    1    5    5  501    0  0.94305990528E+02 -0.17326321831E+03 -0.19403784812E+02  0.19827344637E+03  0.47000000000E+01 0. -1.
        -13    1    6    6    0    0  0.27036288278E+02  0.76168465876E+00 -0.92614889629E+01  0.28588742980E+02  0.00000000000E+00 0.  1.
         14    1    6    6    0    0  0.31984828753E+02 -0.72873329991E+02  0.81332211162E+02  0.11379138837E+03  0.00000000000E+00 0. -1.
         -5    1    3    3    0  503 -0.33590671278E+02 -0.96785042709E+01 -0.79575397887E+02  0.87042177080E+02  0.47000000000E+01 0.  1.
         13    1    4    4    0    0 -0.40990297781E+01  0.58352301830E+02 -0.85683333981E+02  0.10374693680E+03  0.00000000000E+00 0. -1.
        -14    1    4    4    0    0 -0.11563740650E+03  0.19670106609E+03 -0.17011367630E+03  0.28460847149E+03  0.00000000000E+00 0.  1.
</event>
<event>
12    1  0.8258923E-002  0.1826010E+03  0.7818608E-02  0.1166303E+00
         21   -1    0    0  503  502  0.00000000000E+00  0.00000000000E+00  0.38852662699E+03  0.38852662699E+03  0.00000000000E+00 0. -1.
         21   -1    0    0  501  503 -0.00000000000E+00 -0.00000000000E+00 -0.99203390303E+02  0.99203390303E+02  0.00000000000E+00 0. -1.
          6    2    1    2  501    0 -0.13539212474E+02 -0.54077446772E+02  0.50247402972E+02  0.18938829842E+03  0.17388342517E+03 0.  0.
         24    2    3    3    0    0 -0.24374721406E+02  0.84866480407E+01 -0.28087032580E+02  0.88442530771E+02  0.79793794316E+02 0.  0.
         -6    2    1    2    0  502  0.13539212474E+02  0.54077446772E+02  0.23907583372E+03  0.29834171887E+03  0.16953715353E+03 0.  0.
        -24    2    5    5    0    0  0.47039718840E+02  0.11347876003E+02  0.22389672518E+03  0.24176791327E+03  0.77333504393E+02 0.  0.
          5    1    3    3  501    0  0.10835508932E+02 -0.62564094813E+02  0.78334435552E+02  0.10094576765E+03  0.47000000000E+01 0. -1.
        -13    1    4    4    0    0 -0.29006236243E+02  0.27272837905E+02  0.13933062482E+02  0.42181745560E+02  0.00000000000E+00 0.  1.
         14    1    4    4    0    0  0.46315148364E+01 -0.18786189865E+02 -0.42020095062E+02  0.46260785211E+02  0.00000000000E+00 0. -1.
         -5    1    5    5    0  502 -0.33500506366E+02  0.42729570769E+02  0.15179108543E+02  0.56573805609E+02  0.47000000000E+01 0.  1.
         13    1    6    6    0    0 -0.17515644343E+02 -0.13423007899E+02  0.55910026461E+02  0.60107453753E+02  0.00000000000E+00 0. -1.
        -14    1    6    6    0    0  0.64555363183E+02  0.24770883902E+02  0.16798669872E+03  0.18166045951E+03  0.00000000000E+00 0.  1.
</event>
<event>
12    1  0.8258923E-002  0.1810286E+03  0.7818608E-02  0.1167005E+00
         21   -1    0    0  503  502  0.00000000000E+00  0.00000000000E+00  0.14253005792E+03  0.14253005792E+03  0.00000000000E+00 0.  1.
         21   -1    0    0  501  503 -0.00000000000E+00 -0.00000000000E+00 -0.23539068614E+03  0.23539068614E+03  0.00000000000E+00 0.  1.
          6    2    1    2  501    0  0.21683352346E+02  0.51747012123E+02 -0.77692374766E+02  0.19625775065E+03  0.17126902394E+03 0.  0.
         24    2    3    3    0    0  0.25413010060E+01  0.88359317119E+02 -0.94006492325E+02  0.15159099077E+03  0.79553634428E+02 0.  0.
         -6    2    1    2    0  502 -0.21683352346E+02 -0.51747012123E+02 -0.15168253448E+02  0.18166299341E+03  0.17211463107E+03 0.  0.
        -24    2    5    5    0    0  0.18944799877E+01  0.33230298848E+02  0.16104772469E+02  0.87976549846E+02  0.79828991041E+02 0.  0.
          5    1    3    3  501    0  0.19142051340E+02 -0.36612304996E+02  0.16314117559E+02  0.44666759882E+02  0.47000000000E+01 0. -1.
        -13    1    4    4    0    0  0.12024477615E+02  0.50893621950E+02 -0.99645695369E+02  0.11253449881E+03  0.00000000000E+00 0.  1.
         14    1    4    4    0    0 -0.94831766089E+01  0.37465695169E+02  0.56392030445E+01  0.39056491958E+02  0.00000000000E+00 0. -1.
         -5    1    5    5    0  502 -0.23577832334E+02 -0.84977310970E+02 -0.31273025917E+02  0.93686443562E+02  0.47000000000E+01 0.  1.
         13    1    6    6    0    0  0.19133737108E+02  0.35216814850E+02 -0.22277094370E+02  0.45854038834E+02  0.00000000000E+00 0. -1.
        -14    1    6    6    0    0 -0.17239257120E+02 -0.19865160017E+01  0.38381866839E+02  0.42122511012E+02  0.00000000000E+00 0.  1.
</event>
<event>
12    1  0.8258923E-002  0.1891479E+03  0.7818608E-02  0.1159265E+00
         21   -1    0    0  501  502  0.00000000000E+00  0.00000000000E+00  0.30534819671E+03  0.30534819671E+03  0.00000000000E+00 0. -1.
         21   -1    0    0  502  503 -0.00000000000E+00 -0.00000000000E+00 -0.40575623141E+03  0.40575623141E+03  0.00000000000E+00 0.  1.
         -6    2    1    2    0  503 -0.63770543029E+02 -0.45480499126E+02 -0.35009985308E+03  0.39785861150E+03  0.17200700468E+03 0.  0.
        -24    2    3    3    0    0 -0.10220890524E+03 -0.65605701884E+02 -0.26429714039E+03  0.30159477104E+03  0.79722387495E+02 0.  0.
          6    2    1    2  501    0  0.63770543029E+02  0.45480499126E+02  0.24969181838E+03  0.31324581663E+03  0.17216788176E+03 0.  0.
         24    2    5    5    0    0  0.22038616385E+02  0.63399636050E+02  0.64947576894E+02  0.12294296870E+03  0.79947303544E+02 0.  0.
          5    1    5    5  501    0  0.41731926644E+02 -0.17919136924E+02  0.18474424148E+03  0.19030284793E+03  0.47000000000E+01 0. -1.
        -13    1    6    6    0    0  0.48810371953E+02  0.58519560426E+02  0.54959489653E+02  0.93954972543E+02  0.00000000000E+00 0.  1.
         14    1    6    6    0    0 -0.26771755567E+02  0.48800756240E+01  0.99880872408E+01  0.28987996153E+02  0.00000000000E+00 0. -1.
         -5    1    3    3    0  503  0.38438362212E+02  0.20125202757E+02 -0.85802712685E+02  0.96263840457E+02  0.47000000000E+01 0.  1.
         11    1    4    4    0    0 -0.82422911157E+02 -0.19397653364E+02 -0.10693727720E+03  0.13640156339E+03  0.00000000000E+00 0. -1.
        -12    1    4    4    0    0 -0.19785994084E+02 -0.46208048519E+02 -0.15735986320E+03  0.16519320765E+03  0.00000000000E+00 0.  1.
</event>
<event>
12    1  0.8258923E-002  0.1904965E+03  0.7818608E-02  0.1158570E+00
         21   -1    0    0  503  502  0.00000000000E+00  0.00000000000E+00  0.16476371748E+03  0.16476371748E+03  0.00000000000E+00 0. -1.
         21   -1    0    0  501  503 -0.00000000000E+00 -0.00000000000E+00 -0.39131190889E+03  0.39131190889E+03  0.00000000000E+00 0. -1.
          6    2    1    2  501    0 -0.64194714148E+02  0.48893229506E+02 -0.29902702237E+03  0.35455054143E+03  0.17256134301E+03 0.  0.
         24    2    3    3    0    0 -0.49393952963E+02 -0.38760647356E+02 -0.15274830666E+03  0.18331439649E+03  0.79561123689E+02 0.  0.
         -6    2    1    2    0  502  0.64194714148E+02 -0.48893229506E+02  0.72478830958E+02  0.20152508494E+03  0.16984601764E+03 0.  0.
        -24    2    5    5    0    0 -0.23767722912E+02 -0.45426948136E+02  0.59403492773E+02  0.11240460520E+03  0.80482967437E+02 0.  0.
          5    1    3    3  501    0 -0.14800761184E+02  0.87653876862E+02 -0.14627871571E+03  0.17123614493E+03  0.47000000000E+01 0. -1.
        -11    1    4    4    0    0  0.83114515314E+01 -0.39163886360E+02 -0.39663630945E+02  0.56356843783E+02  0.00000000000E+00 0.  1.
         12    1    4    4    0    0 -0.57705404495E+02  0.40323900441E+00 -0.11308467571E+03  0.12695755271E+03  0.00000000000E+00 0. -1.
         -5    1    5    5    0  502  0.87962437060E+02 -0.34662813699E+01  0.13075338185E+02  0.89120479738E+02  0.47000000000E+01 0.  1.
         11    1    6    6    0    0 -0.14959520870E+02 -0.82728194592E+01  0.70578321372E+02  0.72619048838E+02  0.00000000000E+00 0. -1.
        -12    1    6    6    0    0 -0.88082020418E+01 -0.37154128677E+02 -0.11174828598E+02  0.39785556363E+02  0.00000000000E+00 0.  1.
</event>
<event>
12    1  0.8258923E-002  0.2463718E+03  0.7818608E-02  0.1115624E+00
         21   -1    0    0  503  502  0.00000000000E+00  0.00000000000E+00  0.19750760952E+03  0.19750760952E+03  0.00000000000E+00 0. -1.
         21   -1    0    0  501  503 -0.00000000000E+00 -0.00000000000E+00 -0.10164815698E+04  0.10164815698E+04  0.00000000000E+00 0. -1.
          6    2    1    2  501    0 -0.13989073039E+03 -0.10627135886E+03 -0.91650518821E+03  0.94904206036E+03  0.17273116150E+03 0.  0.
         24    2    3    3    0    0 -0.59808966887E+02  0.91448044427E+01 -0.28259244320E+03  0.29973362988E+03  0.79504842386E+02 0.  0.
         -6    2    1    2    0  502  0.13989073039E+03  0.10627135886E+03  0.97531227958E+02  0.26494711893E+03  0.17268936631E+03 0.  0.
        -24    2    5    5    0    0  0.17008518126E+03  0.10925224585E+03  0.78736244092E+02  0.22894806382E+03  0.73162816280E+02 0.  0.
          5    1    3    3  501    0 -0.80081763506E+02 -0.11541616330E+03 -0.63391274502E+03  0.64930843048E+03  0.47000000000E+01 0. -1.
        -11    1    4    4    0    0  0.12401230260E+02  0.21286677165E+02 -0.47603199453E+02  0.53600165436E+02  0.00000000000E+00 0.  1.
         12    1    4    4    0    0 -0.72210197147E+02 -0.12141872722E+02 -0.23498924374E+03  0.24613346445E+03  0.00000000000E+00 0. -1.
         -5    1    5    5    0  502 -0.30194450863E+02 -0.29808869895E+01  0.18794983866E+02  0.35999055108E+02  0.47000000000E+01 0.  1.
         13    1    6    6    0    0  0.77007917445E+02  0.91979614388E+02  0.37446895849E+02  0.12566916416E+03  0.00000000000E+00 0. -1.
        -14    1    6    6    0    0  0.93077263812E+02  0.17272631464E+02  0.41289348243E+02  0.10327889966E+03  0.00000000000E+00 0.  1.
</event>
<event>
12    1  0.8258923E-002  0.2242447E+03  0.7818608E-02  0.1131047E+00
         21   -1    0    0  503  502  0.00000000000E+00  0.00000000000E+00  0.70380272360E+03  0.70380272360E+03  0.00000000000E+00 0. -1.
         21   -1    0    0  501  503 -0.00000000000E+00 -0.00000000000E+00 -0.77806919693E+02  0.77806919693E+02  0.00000000000E+00 0. -1.
          6    2    1    2  501    0 -0.11377228833E+03 -0.89807359101E+02  0.19794617524E+03  0.29911263470E+03  0.17110284803E+03 0.  0.
         24    2    3    3    0    0 -0.26503507076E+02 -0.98788824456E+02  0.84331238075E+02  0.15549177671E+03  0.81266642516E+02 0.  0.
         -6    2    1    2    0  502  0.11377228833E+03  0.89807359101E+02  0.42804962867E+03  0.48249700859E+03  0.16901888462E+03 0.  0.
        -24    2    5    5    0    0  0.46506052827E+01  0.64259671110E+02  0.13623962457E+03  0.16987040294E+03  0.78382300489E+02 0.  0.
          5    1    3    3  501    0 -0.87268781255E+02  0.89814653551E+01  0.11361493717E+03  0.14362085799E+03  0.47000000000E+01 0. -1.
        -13    1    4    4    0    0 -0.30919158485E+02 -0.44106430631E+02 -0.12008898320E+01  0.53877766479E+02  0.00000000000E+00 0.  1.
         14    1    4    4    0    0  0.44156514092E+01 -0.54682393825E+02  0.85532127907E+02  0.10161401024E+03  0.00000000000E+00 0. -1.
         -5    1    5    5    0  502  0.10912168305E+03  0.25547687991E+02  0.29181000410E+03  0.31262660566E+03  0.47000000000E+01 0.  1.
         13    1    6    6    0    0  0.23834888602E+02  0.39359359357E+02  0.12989355064E+03  0.13780274156E+03  0.00000000000E+00 0. -1.
        -14    1    6    6    0    0 -0.19184283319E+02  0.24900311753E+02  0.63460739319E+01  0.32067661377E+02  0.00000000000E+00 0.  1.
</event>
<event>
12    1  0.8258923E-002  0.2259676E+03  0.7818608E-02  0.1129529E+00
         21   -1    0    0  503  502  0.00000000000E+00  0.00000000000E+00  0.21170504378E+03  0.21170504378E+03  0.00000000000E+00 0. -1.
         21   -1    0    0  501  503 -0.00000000000E+00 -0.00000000000E+00 -0.34602891326E+03  0.34602891326E+03  0.00000000000E+00 0. -1.
          6    2    1    2  501    0  0.95844723057E+02 -0.11196402269E+03 -0.22075034694E+03  0.31589884464E+03  0.17128692611E+03 0.  0.
         24    2    3    3    0    0  0.21278065933E+02 -0.40882254236E+02 -0.22841707688E+02  0.92733606191E+02  0.77159985134E+02 0.  0.
         -6    2    1    2    0  502 -0.95844723057E+02  0.11196402269E+03  0.86426477464E+02  0.24183511240E+03  0.17115061282E+03 0.  0.
        -24    2    5    5    0    0 -0.20128348392E+02  0.12292093224E+03  0.46107230604E+02  0.15522821356E+03  0.80344356240E+02 0.  0.
          5    1    3    3  501    0  0.74566657124E+02 -0.71081768452E+02 -0.19790863925E+03  0.22316523845E+03  0.47000000000E+01 0. -1.
        -11    1    4    4    0    0 -0.20873078538E+02 -0.40441587259E+02 -0.22054514202E+02  0.50572808746E+02  0.00000000000E+00 0.  1.
         12    1    4    4    0    0  0.42151144472E+02 -0.44066697636E+00 -0.78719348561E+00  0.42160797446E+02  0.00000000000E+00 0. -1.
         -5    1    5    5    0  502 -0.75716374665E+02 -0.10956909555E+02  0.40319246860E+02  0.86606898841E+02  0.47000000000E+01 0.  1.
         13    1    6    6    0    0 -0.33636163974E+02  0.89101299640E+02 -0.15476749673E+01  0.95251395907E+02  0.00000000000E+00 0. -1.
        -14    1    6    6    0    0  0.13507815582E+02  0.33819632602E+02  0.47654905571E+02  0.59976817656E+02  0.00000000000E+00 0.  1.
</event>
<event>
12    1  0.8258923E-002  0.2209981E+03  0.7818608E-02  0.1133298E+00
         21   -1    0    0  503  502  0.00000000000E+00  0.00000000000E+00  0.72437596757E+03  0.72437596757E+03  0.00000000000E+00 0. -1.
         21   -1    0    0  501  503 -0.00000000000E+00 -0.00000000000E+00 -0.98127594054E+02  0.98127594054E+02  0.00000000000E+00 0. -1.
          6    2    1    2  501    0  0.13950782269E+03  0.16530078028E+02  0.81709506757E+02  0.23482784970E+03  0.16950516048E+03 0.  0.
         24    2    3    3    0    0  0.17616989852E+02 -0.98579737171E+01  0.72744489568E+02  0.10970324805E+03  0.79595878619E+02 0.  0.
         -6    2    1    2    0  502 -0.13950782269E+03 -0.16530078028E+02  0.54453886676E+03  0.58767571192E+03  0.17060037778E+03 0.  0.
        -24    2    5    5    0    0 -0.11170552969E+03 -0.74192642130E+02  0.36947830019E+03  0.40121866389E+03  0.80495518065E+02 0.  0.
          5    1    3    3  501    0  0.12189083284E+03  0.26388051745E+02  0.89650171883E+01  0.12512460165E+03  0.47000000000E+01 0. -1.
        -13    1    4    4    0    0  0.27710773852E+02  0.29513117933E+02  0.44785660457E+02  0.60371073373E+02  0.00000000000E+00 0.  1.
         14    1    4    4    0    0 -0.10093784000E+02 -0.39371091650E+02  0.27958829112E+02  0.49332174678E+02  0.00000000000E+00 0. -1.
         -5    1    5    5    0  502 -0.27802293004E+02  0.57662564102E+02  0.17506056656E+03  0.18645704803E+03  0.47000000000E+01 0.  1.
         11    1    6    6    0    0 -0.61791930039E+02 -0.37420534321E+02  0.92389625463E+02  0.11727907699E+03  0.00000000000E+00 0. -1.
        -12    1    6    6    0    0 -0.49913599650E+02 -0.36772107809E+02  0.27708867473E+03  0.28393958690E+03  0.00000000000E+00 0.  1.
</event>
<event>
12    1  0.8258923E-002  0.1880173E+03  0.7818608E-02  0.1160549E+00
         21   -1    0    0  503  502  0.00000000000E+00  0.00000000000E+00  0.30779845499E+03  0.30779845499E+03  0.00000000000E+00 0. -1.
         21   -1    0    0  501  503 -0.00000000000E+00 -0.00000000000E+00 -0.20547756117E+03  0.20547756117E+03  0.00000000000E+00 0. -1.
          6    2    1    2  501    0  0.31549509224E+02 -0.67813519085E+02 -0.11989960487E+03  0.22299417418E+03  0.17250055527E+03 0.  0.
         24    2    3    3    0    0 -0.21772309061E+02 -0.84554261913E+02 -0.11788354843E+03  0.16687266975E+03  0.79539300165E+02 0.  0.
         -6    2    1    2    0  502 -0.31549509224E+02  0.67813519085E+02  0.22222049868E+03  0.29028184198E+03  0.17113606530E+03 0.  0.
        -24    2    5    5    0    0  0.17609907321E+02  0.14524989493E+02  0.39107071664E+02  0.93282012601E+02  0.81554194651E+02 0.  0.
          5    1    3    3  501    0  0.53321818285E+02  0.16740742828E+02 -0.20160564401E+01  0.56121504428E+02  0.47000000000E+01 0. -1.
        -13    1    4    4    0    0  0.14120531269E+02 -0.44325339907E+02 -0.11983510145E+02  0.48038835088E+02  0.00000000000E+00 0.  1.
         14    1    4    4    0    0 -0.35892840330E+02 -0.40228922006E+02 -0.10590003828E+03  0.11883383466E+03  0.00000000000E+00 0. -1.
         -5    1    5    5    0  502 -0.49159416545E+02  0.53288529592E+02  0.18311342702E+03  0.19699982938E+03  0.47000000000E+01 0.  1.
         11    1    6    6    0    0  0.24197438067E+02  0.27245304676E+01  0.62048664953E+02  0.66655651656E+02  0.00000000000E+00 0. -1.
        -12    1    6    6    0    0 -0.65875307451E+01  0.11800459025E+02 -0.22941593289E+02  0.26626360945E+02  0.00000000000E+00 0.  1.
</event>
<event>
12    1  0.8258923E-002  0.2150626E+03  0.7818608E-02  0.1138118E+00
         21   -1    0    0  503  502  0.00000000000E+00  0.00000000000E+00  0.75223721459E+03  0.75223721459E+03  0.00000000000E+00 0. -1.
         21   -1    0    0  501  503 -0.00000000000E+00 -0.00000000000E+00 -0.65952500633E+02  0.65952500633E+02  0.00000000000E+00 0.  1.
          6    2    1    2  501    0 -0.11074842618E+03  0.66333914803E+02  0.45995535342E+03  0.50775078366E+03  0.17200735163E+03 0.  0.
         24    2    3    3    0    0 -0.14506880464E+03  0.41113979079E+02  0.34169294895E+03  0.38196517301E+03  0.80050013594E+02 0.  0.
         -6    2    1    2    0  502  0.11074842618E+03 -0.66333914803E+02  0.22632936054E+03  0.31043893157E+03  0.16876595816E+03 0.  0.
        -24    2    5    5    0    0  0.39195225058E+02 -0.24623619338E+02  0.20503055811E+03  0.22479234189E+03  0.79696166264E+02 0.  0.
          5    1    3    3  501    0  0.34320378461E+02  0.25219935723E+02  0.11826240447E+03  0.12578561065E+03  0.47000000000E+01 0. -1.
        -11    1    4    4    0    0 -0.11617194074E+02  0.18201311560E+02  0.10192706135E+02  0.23877566857E+02  0.00000000000E+00 0.  1.
         12    1    4    4    0    0 -0.13345161056E+03  0.22912667520E+02  0.33150024281E+03  0.35808760615E+03  0.00000000000E+00 0. -1.
         -5    1    5    5    0  502  0.71553201118E+02 -0.41710295465E+02  0.21298802432E+02  0.85646589676E+02  0.47000000000E+01 0.  1.
         13    1    6    6    0    0  0.14533435262E+02 -0.48790042254E+02  0.77926628963E+02  0.93081944894E+02  0.00000000000E+00 0. -1.
        -14    1    6    6    0    0  0.24661789796E+02  0.24166422916E+02  0.12710392915E+03  0.13171039700E+03  0.00000000000E+00 0.  1.
</event>
<event>
12    1  0.8258923E-002  0.1822657E+03  0.7818608E-02  0.1166527E+00
         21   -1    0    0  503  502  0.00000000000E+00  0.00000000000E+00  0.36567365121E+04  0.36567365121E+04  0.00000000000E+00 0.  1.
         21   -1    0    0  501  503 -0.00000000000E+00 -0.00000000000E+00 -0.19648045517E+02  0.19648045517E+02  0.00000000000E+00 0.  1.
          6    2    1    2  501    0 -0.22098420542E+02  0.53489396580E+02  0.45047115325E+03  0.48455895482E+03  0.16888950547E+03 0.  0.
         24    2    3    3    0    0  0.51390782232E+02  0.15960374469E+02  0.22712950416E+03  0.24641472827E+03  0.78972530646E+02 0.  0.
         -6    2    1    2    0  502  0.22098420542E+02 -0.53489396580E+02  0.31866173133E+04  0.31918256028E+04  0.17283321801E+03 0.  0.
        -24    2    5    5    0    0  0.22159816860E+01 -0.73293006911E+02  0.11784972821E+04  0.11835040040E+04  0.80306339158E+02 0.  0.
          5    1    3    3  501    0 -0.73489202774E+02  0.37529022111E+02  0.22334164909E+03  0.23814422656E+03  0.47000000000E+01 0. -1.
        -11    1    4    4    0    0 -0.49915203190E+01  0.18407637600E+02  0.89748621857E+01  0.21078532880E+02  0.00000000000E+00 0.  1.
         12    1    4    4    0    0  0.56382302551E+02 -0.24472631313E+01  0.21815464197E+03  0.22533619539E+03  0.00000000000E+00 0. -1.
         -5    1    5    5    0  502  0.19882438856E+02  0.19803610331E+02  0.20081200313E+04  0.20083215988E+04  0.47000000000E+01 0.  1.
         13    1    6    6    0    0 -0.65231454653E+01  0.50769274692E+01  0.13421752357E+02  0.15762932964E+02  0.00000000000E+00 0. -1.
        -14    1    6    6    0    0  0.87391271513E+01 -0.78369934380E+02  0.11650755297E+04  0.11677410710E+04  0.00000000000E+00 0.  1.
</event>
<event>
12    1  0.8258923E-002  0.2556402E+03  0.7818608E-02  0.1110012E+00
         21   -1    0    0  501  502  0.00000000000E+00  0.00000000000E+00  0.39048226892E+03  0.39048226892E+03  0.00000000000E+00 0.  1.
         21   -1    0    0  502  503 -0.00000000000E+00 -0.00000000000E+00 -0.18299147301E+03  0.18299147301E+03  0.00000000000E+00 0. -1.
         -6    2    1    2    0  503  0.17026790605E+02  0.18956154366E+03  0.17738307420E+02  0.25625483958E+03  0.17067045680E+03 0.  0.
        -24    2    3    3    0    0  0.31910048182E+02  0.18058709405E+03 -0.19572952263E+02  0.21482692386E+03  0.11017058155E+03 0.  0.
          6    2    1    2  501    0 -0.17026790605E+02 -0.18956154366E+03  0.18975248848E+03  0.31721890235E+03  0.16851805450E+03 0.  0.
         24    2    5    5    0    0 -0.25955054625E+02 -0.23860737131E+02  0.80026920463E+02  0.11822578323E+03  0.79561474246E+02 0.  0.
          5    1    5    5  501    0  0.89282640206E+01 -0.16570080653E+03  0.10972556802E+03  0.19899311912E+03  0.47000000000E+01 0. -1.
        -11    1    6    6    0    0 -0.57011536722E+01 -0.51581086365E+02  0.40199440044E+02  0.65643785720E+02  0.00000000000E+00 0.  1.
         12    1    6    6    0    0 -0.20253900953E+02  0.27720349234E+02  0.39827480419E+02  0.52581997509E+02  0.00000000000E+00 0. -1.
         -5    1    3    3    0  503 -0.14883257577E+02  0.89744496026E+01  0.37311259682E+02  0.41427915719E+02  0.47000000000E+01 0.  1.
         11    1    4    4    0    0  0.57947333674E+02  0.51439241769E+02  0.14305725391E+02  0.78794307235E+02  0.00000000000E+00 0. -1.
        -12    1    4    4    0    0 -0.26037285492E+02  0.12914785229E+03 -0.33878677654E+02  0.13603261662E+03  0.00000000000E+00 0.  1.
</event>
<event>
12    1  0.8258923E-002  0.1862603E+03  0.7818608E-02  0.1162845E+00
         21   -1    0    0  503  502  0.00000000000E+00  0.00000000000E+00  0.15837843699E+03  0.15837843699E+03  0.00000000000E+00 0. -1.
         21   -1    0    0  501  503 -0.00000000000E+00 -0.00000000000E+00 -0.96919499631E+03  0.96919499631E+03  0.00000000000E+00 0. -1.
          6    2    1    2  501    0 -0.34810160911E+02 -0.62812960962E+02 -0.90199056351E+03  0.92019548941E+03  0.16737845350E+03 0.  0.
         24    2    3    3    0    0 -0.23733348739E+02 -0.25888402966E+02 -0.22028048154E+03  0.23738010835E+03  0.81193251205E+02 0.  0.
         -6    2    1    2    0  502  0.34810160911E+02  0.62812960962E+02  0.91174004193E+02  0.20737794388E+03  0.17185952753E+03 0.  0.
        -24    2    5    5    0    0  0.33395776286E+02  0.72938988983E+01  0.11675590440E+03  0.14605184541E+03  0.80812879538E+02 0.  0.
          5    1    3    3  501    0 -0.11076812172E+02 -0.36924557996E+02 -0.68171008197E+03  0.68281538106E+03  0.47000000000E+01 0. -1.
        -11    1    4    4    0    0  0.86500001450E+01 -0.33535834016E+02 -0.18749787926E+03  0.19066968661E+03  0.00000000000E+00 0.  1.
         12    1    4    4    0    0 -0.32383348884E+02  0.76474310506E+01 -0.32782602285E+02  0.46710421741E+02  0.00000000000E+00 0. -1.
         -5    1    5    5    0  502  0.14143846255E+01  0.55519062064E+02 -0.25581900208E+02  0.61326098478E+02  0.47000000000E+01 0.  1.
         13    1    6    6    0    0 -0.12013481156E+02  0.23712905426E+02  0.82956160290E+02  0.87111136735E+02  0.00000000000E+00 0. -1.
        -14    1    6    6    0    0  0.45409257441E+02 -0.16419006527E+02  0.33799744111E+02  0.58940708671E+02  0.00000000000E+00 0.  1.
</event>
<event>
12    1  0.8258923E-002  0.3885038E+03  0.7818608E-02  0.1047913E+00
         21   -1    0    0  501  502  0.00000000000E+00  0.00000000000E+00  0.16508066713E+04  0.16508066713E+04  0.00000000000E+00 0.  1.
         21   -1    0    0  502  503 -0.00000000000E+00 -0.00000000000E+00 -0.23289020335E+03  0.23289020335E+03  0.00000000000E+00 0. -1.
         -6    2    1    2    0  503 -0.34681046205E+03  0.26354080150E+02 -0.25303406684E+02  0.38932693762E+03  0.17309872281E+03 0.  0.
        -24    2    3    3    0    0 -0.29322594952E+03  0.47523876712E+02 -0.70403800400E+02  0.31600848304E+03  0.81637552078E+02 0.  0.
          6    2    1    2  501    0  0.34681046205E+03 -0.26354080150E+02  0.14432198746E+04  0.14943699370E+04  0.17113114274E+03 0.  0.
         24    2    5    5    0    0  0.13397833235E+03  0.43411024745E+02  0.67930179869E+03  0.69828099598E+03  0.79439946124E+02 0.  0.
          5    1    5    5  501    0  0.21283212969E+03 -0.69765104895E+02  0.76391807594E+03  0.79608894103E+03  0.47000000000E+01 0. -1.
        -11    1    6    6    0    0  0.18053770590E+02  0.25076323780E+02  0.55384849918E+02  0.63421149842E+02  0.00000000000E+00 0.  1.
         12    1    6    6    0    0  0.11592456177E+03  0.18334700966E+02  0.62391694877E+03  0.63485984614E+03  0.00000000000E+00 0. -1.
         -5    1    3    3    0  503 -0.53584512527E+02 -0.21169796562E+02  0.45100393716E+02  0.73318454584E+02  0.47000000000E+01 0.  1.
         11    1    4    4    0    0 -0.73601469732E+02 -0.21591505235E+02 -0.60518391432E+01  0.76941498569E+02  0.00000000000E+00 0. -1.
        -12    1    4    4    0    0 -0.21962447979E+03  0.69115381947E+02 -0.64351961257E+02  0.23906698447E+03  0.00000000000E+00 0.  1.
</event>
<event>
12    1  0.8258923E-002  0.2153543E+03  0.7818608E-02  0.1137600E+00
         21   -1    0    0  503  502  0.00000000000E+00  0.00000000000E+00  0.13096228917E+03  0.13096228917E+03  0.00000000000E+00 0.  1.
         21   -1    0    0  501  503 -0.00000000000E+00 -0.00000000000E+00 -0.19575907119E+04  0.19575907119E+04  0.00000000000E+00 0. -1.
          6    2    1    2  501    0 -0.93785511680E+02  0.88949499893E+02 -0.18585351665E+04  0.18708479111E+04  0.17091286020E+03 0.  0.
         24    2    3    3    0    0 -0.15340397426E+02  0.97637536005E+02 -0.90585827943E+03  0.91489578939E+03  0.81772041722E+02 0.  0.
         -6    2    1    2    0  502  0.93785511680E+02 -0.88949499893E+02  0.31906743775E+02  0.21770508991E+03  0.17224903525E+03 0.  0.
        -24    2    5    5    0    0  0.83598529143E+02 -0.12348299042E+03  0.51322425414E+02  0.17652991202E+03  0.79322477822E+02 0.  0.
          5    1    3    3  501    0 -0.78445114254E+02 -0.86880361113E+01 -0.95267688707E+03  0.95595212175E+03  0.47000000000E+01 0. -1.
        -11    1    4    4    0    0  0.32601891974E+02  0.24386010041E+02 -0.28035817310E+03  0.28329889881E+03  0.00000000000E+00 0.  1.
         12    1    4    4    0    0 -0.47942289400E+02  0.73251525964E+02 -0.62550010633E+03  0.63159689058E+03  0.00000000000E+00 0. -1.
         -5    1    5    5    0  502  0.10186982537E+02  0.34533490529E+02 -0.19415681638E+02  0.41175177897E+02  0.47000000000E+01 0.  1.
         11    1    6    6    0    0  0.31825583447E+02  0.15276795088E+01  0.13106548908E+00  0.31862497463E+02  0.00000000000E+00 0. -1.
        -12    1    6    6    0    0  0.51772945696E+02 -0.12501066993E+03  0.51191359925E+02  0.14466741455E+03  0.00000000000E+00 0.  1.
</event>
<event>
12    1  0.8258923E-002  0.1905131E+03  0.7818608E-02  0.1158435E+00
         21   -1    0    0  503  502  0.00000000000E+00  0.00000000000E+00  0.82837980423E+02  0.82837980423E+02  0.00000000000E+00 0.  1.
         21   -1    0    0  501  503 -0.00000000000E+00 -0.00000000000E+00 -0.54965181580E+03  0.54965181580E+03  0.00000000000E+00 0.  1.
          6    2    1    2  501    0 -0.88297283912E+01 -0.81321912628E+02 -0.37958124426E+03  0.42470830640E+03  0.17205814993E+03 0.  0.
         24    2    3    3    0    0  0.28848191005E+02 -0.11258646953E+03 -0.28404143787E+03  0.31725113943E+03  0.80379200028E+02 0.  0.
         -6    2    1    2    0  502  0.88297283912E+01  0.81321912628E+02 -0.87232591115E+02  0.20778148982E+03  0.16991881880E+03 0.  0.
        -24    2    5    5    0    0  0.67079040657E+02  0.58031951578E+02 -0.29549846742E+02  0.12243048711E+03  0.79048881280E+02 0.  0.
          5    1    3    3  501    0 -0.37677919397E+02  0.31264556904E+02 -0.95539806388E+02  0.10745716697E+03  0.47000000000E+01 0. -1.
        -11    1    4    4    0    0  0.10679006810E+02 -0.42318848157E+02 -0.29788692987E+02  0.52842145354E+02  0.00000000000E+00 0.  1.
         12    1    4    4    0    0  0.18169184195E+02 -0.70267621375E+02 -0.25425274489E+03  0.26440899408E+03  0.00000000000E+00 0. -1.
         -5    1    5    5    0  502 -0.58249312266E+02  0.23289961050E+02 -0.57682744373E+02  0.85351002710E+02  0.47000000000E+01 0.  1.
         13    1    6    6    0    0 -0.10216466254E+02 -0.83067544901E+01 -0.14294240466E+02  0.19434599645E+02  0.00000000000E+00 0. -1.
        -14    1    6    6    0    0  0.77295506911E+02  0.66338706068E+02 -0.15255606276E+02  0.10299588746E+03  0.00000000000E+00 0.  1.
</event>
<event>
12    1  0.8258923E-002  0.2108561E+03  0.7818608E-02  0.1140927E+00
         21   -1    0    0  501  502  0.00000000000E+00  0.00000000000E+00  0.10352514869E+04  0.10352514869E+04  0.00000000000E+00 0.  1.
         21   -1    0    0  502  503 -0.00000000000E+00 -0.00000000000E+00 -0.44444676175E+02  0.44444676175E+02  0.00000000000E+00 0. -1.
         -6    2    1    2    0  503  0.21783250051E+02  0.11833214136E+03  0.39524308937E+03  0.44797028674E+03  0.17315678572E+03 0.  0.
        -24    2    3    3    0    0  0.57903648873E+01  0.12575825037E+02  0.74237610627E+02  0.10958178486E+03  0.79405699042E+02 0.  0.
          6    2    1    2  501    0 -0.21783250051E+02 -0.11833214136E+03  0.59556372134E+03  0.63172587633E+03  0.17292897670E+03 0.  0.
         24    2    5    5    0    0 -0.65710841124E+02 -0.89618060591E+02  0.53084914007E+03  0.54827410150E+03  0.80339090375E+02 0.  0.
          5    1    5    5  501    0  0.43927591073E+02 -0.28714080771E+02  0.64714581275E+02  0.83451774826E+02  0.47000000000E+01 0. -1.
        -13    1    6    6    0    0 -0.13007982404E+02 -0.58068847706E+02  0.13292923254E+03  0.14564127006E+03  0.00000000000E+00 0.  1.
         14    1    6    6    0    0 -0.52702858720E+02 -0.31549212886E+02  0.39791990753E+03  0.40263283144E+03  0.00000000000E+00 0. -1.
         -5    1    3    3    0  503  0.15992885163E+02  0.10575631633E+03  0.32100547875E+03  0.33838850188E+03  0.47000000000E+01 0.  1.
         13    1    4    4    0    0  0.24770332922E+02  0.14281841218E+01 -0.67034928762E+01  0.25701087908E+02  0.00000000000E+00 0. -1.
        -14    1    4    4    0    0 -0.18979968034E+02  0.11147640915E+02  0.80941103503E+02  0.83880696950E+02  0.00000000000E+00 0.  1.
</event>
<event>
12    1  0.8258923E-002  0.2532889E+03  0.7818608E-02  0.1111340E+00
         21   -1    0    0  503  502  0.00000000000E+00  0.00000000000E+00  0.71999724846E+02  0.71999724846E+02  0.00000000000E+00 0.  1.
         21   -1    0    0  501  503 -0.00000000000E+00 -0.00000000000E+00 -0.88893067387E+03  0.88893067387E+03  0.00000000000E+00 0. -1.
          6    2    1    2  501    0  0.17582845238E+03  0.60724343195E+02 -0.41194870886E+03  0.48326326348E+03  0.17099284363E+03 0.  0.
         24    2    3    3    0    0  0.65216753016E+02  0.28407300092E+01 -0.29007594846E+03  0.30873383777E+03  0.83133820353E+02 0.  0.
         -6    2    1    2    0  502 -0.17582845238E+03 -0.60724343195E+02 -0.40498224016E+03  0.47766713523E+03  0.17190749464E+03 0.  0.
        -24    2    5    5    0    0 -0.16558013410E+03  0.16745417731E+01 -0.34073768367E+03  0.38740029796E+03  0.80976767578E+02 0.  0.
          5    1    3    3  501    0  0.11061169936E+03  0.57883613186E+02 -0.12187276040E+03  0.17452942571E+03  0.47000000000E+01 0. -1.
        -11    1    4    4    0    0  0.26378134757E+02 -0.21559016361E+02 -0.32423520801E+02  0.47030648314E+02  0.00000000000E+00 0.  1.
         12    1    4    4    0    0  0.38838618259E+02  0.24399746370E+02 -0.25765242766E+03  0.26170318946E+03  0.00000000000E+00 0. -1.
         -5    1    5    5    0  502 -0.10248318276E+02 -0.62398884968E+02 -0.64244556491E+02  0.90266837275E+02  0.47000000000E+01 0.  1.
         13    1    6    6    0    0 -0.10093727549E+03  0.86156577704E+01 -0.11876099477E+03  0.15609848501E+03  0.00000000000E+00 0. -1.
        -14    1    6    6    0    0 -0.64642858610E+02 -0.69411159974E+01 -0.22197668890E+03  0.23130181295E+03  0.00000000000E+00 0.  1.
</event>
<event>
12    1  0.8258923E-002  0.1855371E+03  0.7818608E-02  0.1162880E+00
         21   -1    0    0  501  502  0.00000000000E+00  0.00000000000E+00  0.12153418922E+03  0.12153418922E+03  0.00000000000E+00 0. -1.
         21   -1    0    0  502  503 -0.00000000000E+00 -0.00000000000E+00 -0.31594628628E+03  0.31594628628E+03  0.00000000000E+00 0. -1.
         -6    2    1    2    0  503 -0.62522968334E+02 -0.32359145585E+02 -0.16953083040E+03  0.25028245367E+03  0.17013044492E+03 0.  0.
        -24    2    3    3    0    0 -0.10799252808E+03 -0.25878780407E+02 -0.96296540341E+02  0.16370978341E+03  0.72081704387E+02 0.  0.
          6    2    1    2  501    0  0.62522968334E+02  0.32359145585E+02 -0.24881266662E+02  0.18719802183E+03  0.17166183639E+03 0.  0.
         24    2    5    5    0    0  0.32481076916E+02  0.49590550937E+02 -0.76227055673E+02  0.12508589242E+03  0.79508951485E+02 0.  0.
          5    1    5    5  501    0  0.30041891418E+02 -0.17231405352E+02  0.51345789011E+02  0.62112129408E+02  0.47000000000E+01 0. -1.
        -13    1    6    6    0    0 -0.34849420153E+01  0.66140265619E+01 -0.68041234541E+02  0.68450710487E+02  0.00000000000E+00 0.  1.
         14    1    6    6    0    0  0.35966018931E+02  0.42976524375E+02 -0.81858211319E+01  0.56635181934E+02  0.00000000000E+00 0. -1.
         -5    1    3    3    0  503  0.45469559742E+02 -0.64803651778E+01 -0.73234290055E+02  0.86572670259E+02  0.47000000000E+01 0.  1.
         13    1    4    4    0    0 -0.92463257468E+02 -0.25285824890E+02 -0.37563526216E+02  0.10295555072E+03  0.00000000000E+00 0. -1.
        -14    1    4    4    0    0 -0.15529270607E+02 -0.59295551749E+00 -0.58733014125E+02  0.60754232692E+02  0.00000000000E+00 0.  1.
</event>
<event>
12    1  0.8258923E-002  0.1728711E+03  0.7818608E-02  0.1175731E+00
         21   -1    0    0  503  502  0.00000000000E+00  0.00000000000E+00  0.43908928410E+03  0.43908928410E+03  0.00000000000E+00 0. -1.
         21   -1    0    0  501  503 -0.00000000000E+00 -0.00000000000E+00 -0.83154625301E+02  0.83154625301E+02  0.00000000000E+00 0. -1.
          6    2    1    2  501    0  0.92278270590E+01  0.38588561990E+01  0.60714961355E+02  0.18013413507E+03  0.16929842445E+03 0.  0.
         24    2    3    3    0    0 -0.21525677855E+02  0.58146587147E+02  0.11618757656E+02  0.10060135558E+03  0.78366171337E+02 0.  0.
         -6    2    1    2    0  502 -0.92278270590E+01 -0.38588561990E+01  0.29521969744E+03  0.34210977433E+03  0.17258152964E+03 0.  0.
        -24    2    5    5    0    0 -0.62291046118E+02  0.16485596528E+02  0.12283444579E+03  0.16053784104E+03  0.80821705084E+02 0.  0.
          5    1    3    3  501    0  0.30753504914E+02 -0.54287730948E+02  0.49096203699E+02  0.79532779492E+02  0.47000000000E+01 0. -1.
        -13    1    4    4    0    0 -0.17018481266E+02  0.18405784896E+02  0.42993638106E+02  0.49768007191E+02  0.00000000000E+00 0.  1.
         14    1    4    4    0    0 -0.45071965892E+01  0.39740802251E+02 -0.31374880450E+02  0.50833348384E+02  0.00000000000E+00 0. -1.
         -5    1    5    5    0  502  0.53063219059E+02 -0.20344452727E+02  0.17238525165E+03  0.18157193329E+03  0.47000000000E+01 0.  1.
         13    1    6    6    0    0  0.11989519835E+02  0.26936400213E+01  0.62934541336E+02  0.64123012840E+02  0.00000000000E+00 0. -1.
        -14    1    6    6    0    0 -0.74280565953E+02  0.13791956507E+02  0.59899904456E+02  0.96414828198E+02  0.00000000000E+00 0.  1.
</event>
<event>
12    1  0.8258923E-002  0.1873388E+03  0.7818608E-02  0.1161030E+00
         21   -1    0    0  503  502  0.00000000000E+00  0.00000000000E+00  0.61000613570E+03  0.61000613570E+03  0.00000000000E+00 0.  1.
         21   -1    0    0  501  503 -0.00000000000E+00 -0.00000000000E+00 -0.57734598743E+02  0.57734598743E+02  0.00000000000E+00 0.  1.
          6    2    1    2  501    0  0.64177740056E+02 -0.35269498071E+02  0.24892750490E+03  0.31154572070E+03  0.17243292487E+03 0.  0.
         24    2    3    3    0    0 -0.32908212628E+02 -0.11172355374E+02  0.14652355440E+03  0.16831508999E+03  0.75186737811E+02 0.  0.
         -6    2    1    2    0  502 -0.64177740056E+02  0.35269498071E+02  0.30334403205E+03  0.35619501374E+03  0.17173982129E+03 0.  0.
        -24    2    5    5    0    0 -0.33878233395E+01  0.71281592342E+02  0.12994640302E+03  0.16889548715E+03  0.80913998582E+02 0.  0.
          5    1    3    3  501    0  0.97085952684E+02 -0.24097142697E+02  0.10240395050E+03  0.14323063071E+03  0.47000000000E+01 0. -1.
        -11    1    4    4    0    0  0.19993037128E+02 -0.15381149053E+02  0.24112571085E+02  0.34895807257E+02  0.00000000000E+00 0.  1.
         12    1    4    4    0    0 -0.52901249756E+02  0.42087936786E+01  0.12241098331E+03  0.13341928274E+03  0.00000000000E+00 0. -1.
         -5    1    5    5    0  502 -0.60789916717E+02 -0.36012094270E+02  0.17339762903E+03  0.18729952659E+03  0.47000000000E+01 0.  1.
         13    1    6    6    0    0  0.68836998155E-01  0.29760975665E+02  0.12313207742E+03  0.12667765746E+03  0.00000000000E+00 0. -1.
        -14    1    6    6    0    0 -0.34566603376E+01  0.41520616677E+02  0.68143256057E+01  0.42217829686E+02  0.00000000000E+00 0.  1.
</event>
<event>
12    1  0.8258923E-002  0.1729052E+03  0.7818608E-02  0.1175562E+00
         21   -1    0    0  501  502  0.00000000000E+00  0.00000000000E+00  0.62877716422E+03  0.62877716422E+03  0.00000000000E+00 0. -1.
         21   -1    0    0  502  503 -0.00000000000E+00 -0.00000000000E+00 -0.61637122600E+02  0.61637122600E+02  0.00000000000E+00 0. -1.
         -6    2    1    2    0  503 -0.88547080599E+01  0.15825662443E+02  0.11241795461E+03  0.20392852506E+03  0.16917502584E+03 0.  0.
        -24    2    3    3    0    0 -0.36484083636E+02  0.17518837577E+02 -0.45750027023E+01  0.83613558007E+02  0.73022588314E+02 0.  0.
          6    2    1    2  501    0  0.88547080599E+01 -0.15825662443E+02  0.45472208701E+03  0.48648576176E+03  0.17195162847E+03 0.  0.
         24    2    5    5    0    0  0.48270190920E+02 -0.62701722604E+02  0.29937290297E+03  0.31943366124E+03  0.78436034784E+02 0.  0.
          5    1    5    5  501    0 -0.39415482860E+02  0.46876060161E+02  0.15534918404E+03  0.16705210052E+03  0.47000000000E+01 0. -1.
        -13    1    6    6    0    0 -0.21107540725E+02 -0.23770907804E+02  0.80335893858E+02  0.86396991703E+02  0.00000000000E+00 0.  1.
         14    1    6    6    0    0  0.69377731645E+02 -0.38930814800E+02  0.21903700911E+03  0.23303666954E+03  0.00000000000E+00 0. -1.
         -5    1    3    3    0  503  0.27629375576E+02 -0.16931751339E+01  0.11699295731E+03  0.12031496705E+03  0.47000000000E+01 0.  1.
         11    1    4    4    0    0 -0.56449096478E+02 -0.39851372289E+00 -0.31463903486E+00  0.56451380002E+02  0.00000000000E+00 0. -1.
        -12    1    4    4    0    0  0.19965012842E+02  0.17917351300E+02 -0.42603636674E+01  0.27162178005E+02  0.00000000000E+00 0.  1.
</event>
<event>
12    1  0.8258923E-002  0.2029258E+03  0.7818608E-02  0.1148231E+00
         21   -1    0    0  503  502  0.00000000000E+00  0.00000000000E+00  0.54387521814E+03  0.54387521814E+03  0.00000000000E+00 0.  1.
         21   -1    0    0  501  503 -0.00000000000E+00 -0.00000000000E+00 -0.19162256280E+03  0.19162256280E+03  0.00000000000E+00 0.  1.
          6    2    1    2  501    0  0.10697738332E+03 -0.36820137226E+01 -0.11268099642E+03  0.22820871441E+03  0.16710623151E+03 0.  0.
         24    2    3    3    0    0  0.13920240430E+03 -0.18846562306E+02 -0.10019961513E+03  0.19017858965E+03  0.79971437500E+02 0.  0.
         -6    2    1    2    0  502 -0.10697738332E+03  0.36820137226E+01  0.46493365176E+03  0.50728906654E+03  0.17239831413E+03 0.  0.
        -24    2    5    5    0    0 -0.56256794860E+01 -0.39429010070E+01  0.98012054805E+02  0.12652161059E+03  0.79712987148E+02 0.  0.
          5    1    3    3  501    0 -0.32225020972E+02  0.15164548583E+02 -0.12481381289E+02  0.38030124760E+02  0.47000000000E+01 0. -1.
        -11    1    4    4    0    0  0.61748728698E+02 -0.29565647364E+02 -0.87279033574E+02  0.11092638415E+03  0.00000000000E+00 0.  1.
         12    1    4    4    0    0  0.77453675599E+02  0.10719085059E+02 -0.12920581560E+02  0.79252205497E+02  0.00000000000E+00 0. -1.
         -5    1    5    5    0  502 -0.10135170384E+03  0.76249147296E+01  0.36692159696E+03  0.38076745595E+03  0.47000000000E+01 0.  1.
         13    1    6    6    0    0 -0.26354866476E+02  0.15960262444E+02  0.77151929310E+01  0.31762134157E+02  0.00000000000E+00 0. -1.
        -14    1    6    6    0    0  0.20729186990E+02 -0.19903163451E+02  0.90296861874E+02  0.94759476428E+02  0.00000000000E+00 0.  1.
</event>
<event>
12    1  0.8258923E-002  0.2891784E+03  0.7818608E-02  0.1090948E+00
         21   -1    0    0  503  502  0.00000000000E+00  0.00000000000E+00  0.80821091213E+03  0.80821091213E+03  0.00000000000E+00 0. -1.
         21   -1    0    0  501  503 -0.00000000000E+00 -0.00000000000E+00 -0.10452917349E+03  0.10452917349E+03  0.00000000000E+00 0. -1.
          6    2    1    2  501    0 -0.21307970986E+01  0.23038307902E+03  0.40766469362E+03  0.49981459329E+03  0.17476619194E+03 0.  0.
         24    2    3    3    0    0  0.29950968951E+02  0.22323261413E+03  0.40093256614E+03  0.46593568537E+03  0.74961855368E+02 0.  0.
         -6    2    1    2    0  502  0.21307970986E+01 -0.23038307902E+03  0.29601704501E+03  0.41292549233E+03  0.17262812021E+03 0.  0.
        -24    2    5    5    0    0 -0.35116178097E+02 -0.20618745613E+03  0.29242034124E+03  0.36811710466E+03  0.79083081256E+02 0.  0.
          5    1    3    3  501    0 -0.32081766050E+02  0.71504648857E+01  0.67321274782E+01  0.33878907912E+02  0.47000000000E+01 0. -1.
        -13    1    4    4    0    0 -0.71009501264E+01  0.89805143027E+01  0.63447428444E+02  0.64472081601E+02  0.00000000000E+00 0.  1.
         14    1    4    4    0    0  0.37051919078E+02  0.21425209983E+03  0.33748513769E+03  0.40146360377E+03  0.00000000000E+00 0. -1.
         -5    1    5    5    0  502  0.37246975196E+02 -0.24195622888E+02  0.35967037736E+01  0.44808387677E+02  0.47000000000E+01 0.  1.
         13    1    6    6    0    0 -0.24812535361E+02 -0.17739648273E+03  0.18953994644E+03  0.26078835345E+03  0.00000000000E+00 0. -1.
        -14    1    6    6    0    0 -0.10303642736E+02 -0.28790973401E+02  0.10288039479E+03  0.10732875121E+03  0.00000000000E+00 0.  1.
</event>
<event>
12    1  0.8258923E-002  0.1925407E+03  0.7818608E-02  0.1157185E+00
         21   -1    0    0  501  502  0.00000000000E+00  0.00000000000E+00  0.58553179483E+03  0.58553179483E+03  0.00000000000E+00 0.  1.
         21   -1    0    0  502  503 -0.00000000000E+00 -0.00000000000E+00 -0.12055738290E+03  0.12055738290E+03  0.00000000000E+00 0.  1.
         -6    2    1    2    0  503 -0.71287230747E+02 -0.19157242928E+02 -0.12452132874E+02  0.19294294561E+03  0.17782872497E+03 0.  0.
        -24    2    3    3    0    0  0.25843090942E+02  0.63835130025E+01  0.22768603742E+02  0.86410228135E+02  0.78991794652E+02 0.  0.
          6    2    1    2  501    0  0.71287230747E+02  0.19157242928E+02  0.47742654480E+03  0.51314623211E+03  0.17301468327E+03 0.  0.
         24    2    5    5    0    0 -0.66154550054E+01 -0.38862868918E+02  0.20620195228E+03  0.22501426337E+03  0.80982015090E+02 0.  0.
          5    1    5    5  501    0  0.77902685752E+02  0.58020111847E+02  0.27122459252E+03  0.28813196875E+03  0.47000000000E+01 0. -1.
        -13    1    6    6    0    0 -0.67666655294E+01  0.32594234565E+01  0.16794135813E+03  0.16810922453E+03  0.00000000000E+00 0.  1.
         14    1    6    6    0    0  0.15121052397E+00 -0.42122292375E+02  0.38260594155E+02  0.56905038834E+02  0.00000000000E+00 0. -1.
         -5    1    3    3    0  503 -0.97130321689E+02 -0.25540755931E+02 -0.35220736616E+02  0.10653271748E+03  0.47000000000E+01 0.  1.
         13    1    4    4    0    0  0.14582136803E+02  0.13675668827E+02 -0.27715885994E+02  0.34173571192E+02  0.00000000000E+00 0. -1.
        -14    1    4    4    0    0  0.11260954139E+02 -0.72921558243E+01  0.50484489736E+02  0.52236656943E+02  0.00000000000E+00 0.  1.
</event>
<event>
12    1  0.8258923E-002  0.1918142E+03  0.7818608E-02  0.1157210E+00
         21   -1    0    0  501  502  0.00000000000E+00  0.00000000000E+00  0.47659994792E+03  0.47659994792E+03  0.00000000000E+00 0. -1.
         21   -1    0    0  502  503 -0.00000000000E+00 -0.00000000000E+00 -0.76601321496E+02  0.76601321496E+02  0.00000000000E+00 0. -1.
         -6    2    1    2    0  503 -0.42548400739E+02 -0.74255677193E+02  0.19044609467E+03  0.26911510368E+03  0.16979090686E+03 0.  0.
        -24    2    3    3    0    0  0.27732751995E+02 -0.76082506286E+02  0.82898364060E+02  0.14054068129E+03  0.79510320318E+02 0.  0.
          6    2    1    2  501    0  0.42548400739E+02  0.74255677193E+02  0.20955253175E+03  0.28408616573E+03  0.17166366534E+03 0.  0.
         24    2    5    5    0    0 -0.45083051766E+02  0.33998324630E+02  0.78999468419E+02  0.12170969500E+03  0.73375515069E+02 0.  0.
          5    1    5    5  501    0  0.87631452505E+02  0.40257352563E+02  0.13055306333E+03  0.16237647074E+03  0.47000000000E+01 0. -1.
        -13    1    6    6    0    0 -0.21274482584E+02 -0.30189390029E+01  0.74419167370E+02  0.77459215552E+02  0.00000000000E+00 0.  1.
         14    1    6    6    0    0 -0.23808569182E+02  0.37017263633E+02  0.45803010485E+01  0.44250479445E+02  0.00000000000E+00 0. -1.
         -5    1    3    3    0  503 -0.70281152734E+02  0.18268290933E+01  0.10754773061E+03  0.12857442240E+03  0.47000000000E+01 0.  1.
         11    1    4    4    0    0  0.27448929946E+02 -0.35237033194E+02 -0.36727181241E+01  0.44817196721E+02  0.00000000000E+00 0. -1.
        -12    1    4    4    0    0  0.28382204860E+00 -0.40845473093E+02  0.86571082184E+02  0.95723484567E+02  0.00000000000E+00 0.  1.
</event>
<event>
12    1  0.8258923E-002  0.1794291E+03  0.7818608E-02  0.1168729E+00
         21   -1    0    0  503  502  0.00000000000E+00  0.00000000000E+00  0.82202118679E+03  0.82202118679E+03  0.00000000000E+00 0. -1.
         21   -1    0    0  501  503 -0.00000000000E+00 -0.00000000000E+00 -0.52952823882E+02  0.52952823882E+02  0.00000000000E+00 0. -1.
          6    2    1    2  501    0  0.33594474709E+02 -0.31707903771E+02  0.15983001558E+03  0.24029238447E+03  0.17338055330E+03 0.  0.
         24    2    3    3    0    0  0.83186031400E+02 -0.35256604396E+01  0.75197899942E+02  0.13812464822E+03  0.80568903354E+02 0.  0.
         -6    2    1    2    0  502 -0.33594474709E+02  0.31707903771E+02  0.60923834733E+03  0.63468162620E+03  0.17180053227E+03 0.  0.
        -24    2    5    5    0    0 -0.91070390928E+01  0.75760798280E+02  0.52202675248E+03  0.53384391354E+03  0.81576694015E+02 0.  0.
          5    1    3    3  501    0 -0.49591556690E+02 -0.28182243331E+02  0.84632115638E+02  0.10216773626E+03  0.47000000000E+01 0. -1.
        -13    1    4    4    0    0  0.20837051763E+02  0.27367846162E+02  0.56375543757E+02  0.66040772737E+02  0.00000000000E+00 0.  1.
         14    1    4    4    0    0  0.62348979637E+02 -0.30893506602E+02  0.18822356184E+02  0.72083875480E+02  0.00000000000E+00 0. -1.
         -5    1    5    5    0  502 -0.24487435617E+02 -0.44052894509E+02  0.87211594847E+02  0.10083771265E+03  0.47000000000E+01 0.  1.
         11    1    6    6    0    0  0.20461611069E+01  0.69702135679E+02  0.20447162271E+03  0.21603522626E+03  0.00000000000E+00 0. -1.
        -12    1    6    6    0    0 -0.11153200200E+02  0.60586626014E+01  0.31755512977E+03  0.31780868728E+03  0.00000000000E+00 0.  1.
</event>
<event>
12    1  0.8258923E-002  0.3354997E+03  0.7818608E-02  0.1068749E+00
         21   -1    0    0  501  502  0.00000000000E+00  0.00000000000E+00  0.34375625041E+03  0.34375625041E+03  0.00000000000E+00 0. -1.
         21   -1    0    0  502  503 -0.00000000000E+00 -0.00000000000E+00 -0.32838858643E+03  0.32838858643E+03  0.00000000000E+00 0. -1.
         -6    2    1    2    0  503  0.43104831918E+02 -0.28493028125E+03  0.27363413433E+02  0.33661373938E+03  0.17180442788E+03 0.  0.
        -24    2    3    3    0    0  0.17753836061E+02 -0.11447353965E+03 -0.46423843537E+02  0.14909087934E+03  0.81569155189E+02 0.  0.
          6    2    1    2  501    0 -0.43104831918E+02  0.28493028125E+03 -0.11995749454E+02  0.33553109745E+03  0.17144657373E+03 0.  0.
         24    2    5    5    0    0 -0.13374270300E+02  0.24246300303E+03 -0.60478469100E+02  0.26439713849E+03  0.85328908769E+02 0.  0.
          5    1    5    5  501    0 -0.29730561617E+02  0.42467278217E+02  0.48482719646E+02  0.71133958961E+02  0.47000000000E+01 0. -1.
        -11    1    6    6    0    0 -0.18417938083E+01  0.54120654684E+01 -0.23520709973E+02  0.24205504636E+02  0.00000000000E+00 0.  1.
         12    1    6    6    0    0 -0.11532476492E+02  0.23705093756E+03 -0.36957759127E+02  0.24019163385E+03  0.00000000000E+00 0. -1.
         -5    1    3    3    0  503  0.25350995857E+02 -0.17045674160E+03  0.73787256971E+02  0.18752286004E+03  0.47000000000E+01 0.  1.
         11    1    4    4    0    0 -0.10370835590E+02 -0.10989422830E+03 -0.24325328494E+02  0.11303104552E+03  0.00000000000E+00 0. -1.
        -12    1    4    4    0    0  0.28124671651E+02 -0.45793113474E+01 -0.22098515044E+02  0.36059833819E+02  0.00000000000E+00 0.  1.
</event>
<event>
12    1  0.8258923E-002  0.1972971E+03  0.7818608E-02  0.1152248E+00
         21   -1    0    0  501  502  0.00000000000E+00  0.00000000000E+00  0.20286857308E+03  0.20286857308E+03  0.00000000000E+00 0.  1.
         21   -1    0    0  502  503 -0.00000000000E+00 -0.00000000000E+00 -0.19127728470E+03  0.19127728470E+03  0.00000000000E+00 0.  1.
         -6    2    1    2    0  503 -0.59107597136E+02  0.73901061456E+02 -0.24660927674E+01  0.19731252325E+03  0.17312156219E+03 0.  0.
        -24    2    3    3    0    0  0.54256819143E+01  0.22178283955E+02  0.51949091820E+02  0.98202018603E+02  0.80147451696E+02 0.  0.
          6    2    1    2  501    0  0.59107597136E+02 -0.73901061456E+02  0.14057381145E+02  0.19683333454E+03  0.17201940791E+03 0.  0.
         24    2    5    5    0    0  0.90427107828E+02 -0.17734656252E+02  0.31683750316E+02  0.12998757391E+03  0.86030979736E+02 0.  0.
          5    1    5    5  501    0 -0.31319510692E+02 -0.56166405204E+02 -0.17626369171E+02  0.66845760626E+02  0.47000000000E+01 0. -1.
        -11    1    6    6    0    0  0.60445890398E+02 -0.25069393944E+02  0.59494720275E+02  0.88440951596E+02  0.00000000000E+00 0.  1.
         12    1    6    6    0    0  0.29981217430E+02  0.73347376914E+01 -0.27810969959E+02  0.41546622313E+02  0.00000000000E+00 0. -1.
         -5    1    3    3    0  503 -0.64533279051E+02  0.51722777501E+02 -0.54415184587E+02  0.99110504646E+02  0.47000000000E+01 0.  1.
         11    1    4    4    0    0  0.35867506216E+02 -0.53095830002E+01  0.62448850714E+01  0.36792231019E+02  0.00000000000E+00 0. -1.
        -12    1    4    4    0    0 -0.30441824302E+02  0.27487866955E+02  0.45704206749E+02  0.61409787584E+02  0.00000000000E+00 0.  1.
</event>
<event>
12    1  0.8258923E-002  0.2190345E+03  0.7818608E-02  0.1134814E+00
         21   -1    0    0  503  502  0.00000000000E+00  0.00000000000E+00  0.85167288221E+03  0.85167288221E+03  0.00000000000E+00 0.  1.
         21   -1    0    0  501  503 -0.00000000000E+00 -0.00000000000E+00 -0.91997745376E+02  0.91997745376E+02  0.00000000000E+00 0.  1.
          6    2    1    2  501    0  0.49737057700E+02  0.12502603620E+03  0.84291575544E+02  0.23365720781E+03  0.17142151679E+03 0.  0.
         24    2    3    3    0    0  0.71602275498E+02  0.53068896459E+02 -0.15971318738E+01  0.11939926379E+03  0.79438276266E+02 0.  0.
         -6    2    1    2    0  502 -0.49737057700E+02 -0.12502603620E+03  0.67538356129E+03  0.71001341978E+03  0.17283175856E+03 0.  0.
        -24    2    5    5    0    0 -0.17787074628E+02 -0.11516396469E+03  0.65596948124E+03  0.67106398619E+03  0.80323063008E+02 0.  0.
          5    1    3    3  501    0 -0.21865217798E+02  0.71957139739E+02  0.85888707418E+02  0.11425794402E+03  0.47000000000E+01 0. -1.
        -13    1    4    4    0    0  0.50648788596E+02  0.67920508224E+02  0.18578813926E+02  0.86739077414E+02  0.00000000000E+00 0.  1.
         14    1    4    4    0    0  0.20953486902E+02 -0.14851611765E+02 -0.20175945800E+02  0.32660186379E+02  0.00000000000E+00 0. -1.
         -5    1    5    5    0  502 -0.31949983072E+02 -0.98620715067E+01  0.19414080046E+02  0.38949433587E+02  0.47000000000E+01 0.  1.
         13    1    6    6    0    0  0.90065479326E+00 -0.25195113296E+02  0.36635927748E+03  0.36722571412E+03  0.00000000000E+00 0. -1.
        -14    1    6    6    0    0 -0.18687729422E+02 -0.89968851395E+02  0.28961020376E+03  0.30383827207E+03  0.00000000000E+00 0.  1.
</event>
<event>
12    1  0.8258923E-002  0.2031009E+03  0.7818608E-02  0.1147860E+00
         21   -1    0    0  501  502  0.00000000000E+00  0.00000000000E+00  0.13841805614E+03  0.13841805614E+03  0.00000000000E+00 0. -1.
         21   -1    0    0  502  503 -0.00000000000E+00 -0.00000000000E+00 -0.33484527986E+03  0.33484527986E+03  0.00000000000E+00 0.  1.
         -6    2    1    2    0  503 -0.15601018400E+01  0.10007844139E+03 -0.13865890780E+02  0.20017249038E+03  0.17279651220E+03 0.  0.
        -24    2    3    3    0    0  0.38870991330E+02  0.60920217896E+02  0.48690532596E+02  0.11589060699E+03  0.76404436442E+02 0.  0.
          6    2    1    2  501    0  0.15601018400E+01 -0.10007844139E+03 -0.18256133294E+03  0.27309084563E+03  0.17672532736E+03 0.  0.
         24    2    5    5    0    0  0.70698099202E+02 -0.60692837678E+02 -0.10232932364E+03  0.15999551515E+03  0.80283451690E+02 0.  0.
          5    1    5    5  501    0 -0.69137997362E+02 -0.39385603708E+02 -0.80232009305E+02  0.11309533048E+03  0.47000000000E+01 0. -1.
        -13    1    6    6    0    0  0.28865118664E+02 -0.71544803922E+02 -0.49170449347E+02  0.91485447656E+02  0.00000000000E+00 0.  1.
         14    1    6    6    0    0  0.41832980538E+02  0.10851966244E+02 -0.53158874292E+02  0.68510067494E+02  0.00000000000E+00 0. -1.
         -5    1    3    3    0  503 -0.40431093170E+02  0.39158223490E+02 -0.62556423375E+02  0.84281883388E+02  0.47000000000E+01 0.  1.
         11    1    4    4    0    0  0.32541975660E+02  0.79256774828E+02  0.37810278381E+02  0.93649525825E+02  0.00000000000E+00 0. -1.
        -12    1    4    4    0    0  0.63290156701E+01 -0.18336556933E+02  0.10880254214E+02  0.22241081162E+02  0.00000000000E+00 0.  1.
</event>
<event>
12    1  0.8258923E-002  0.1744657E+03  0.7818608E-02  0.1173421E+00
         21   -1    0    0  501  502  0.00000000000E+00  0.00000000000E+00  0.10118402787E+03  0.10118402787E+03  0.00000000000E+00 0. -1.
         21   -1    0    0  502  503 -0.00000000000E+00 -0.00000000000E+00 -0.87694989957E+03  0.87694989957E+03  0.00000000000E+00 0. -1.
         -6    2    1    2    0  503 -0.17479955970E+02 -0.30177673003E+02 -0.78441616995E+03  0.80345392337E+03  0.17033272877E+03 0.  0.
        -24    2    3    3    0    0 -0.49601900220E+02 -0.60555413699E+02 -0.69723303189E+03  0.70558862822E+03  0.74793748985E+02 0.  0.
          6    2    1    2  501    0  0.17479955970E+02  0.30177673003E+02  0.86502982553E+01  0.17468000407E+03  0.17094453882E+03 0.  0.
         24    2    5    5    0    0  0.36002898094E+02  0.71877622974E+02 -0.27135896301E+02  0.11650159799E+03  0.79835231017E+02 0.  0.
          5    1    5    5  501    0 -0.18522942124E+02 -0.41699949971E+02  0.35786194556E+02  0.58178406074E+02  0.47000000000E+01 0. -1.
        -11    1    6    6    0    0 -0.23077562362E+02  0.39916915938E+02 -0.12067824349E+02  0.47660953065E+02  0.00000000000E+00 0.  1.
         12    1    6    6    0    0  0.59080460456E+02  0.31960707036E+02 -0.15068071952E+02  0.68840644929E+02  0.00000000000E+00 0. -1.
         -5    1    3    3    0  503  0.32121944249E+02  0.30377740696E+02 -0.87183138068E+02  0.97865295154E+02  0.47000000000E+01 0.  1.
         13    1    4    4    0    0 -0.18860543848E+02 -0.68862366058E+02 -0.56894424067E+03  0.57340674444E+03  0.00000000000E+00 0. -1.
        -14    1    4    4    0    0 -0.30741356371E+02  0.83069523593E+01 -0.12828879122E+03  0.13218188378E+03  0.00000000000E+00 0.  1.
</event>
<event>
12    1  0.8258923E-002  0.2187256E+03  0.7818608E-02  0.1135020E+00
         21   -1    0    0  503  502  0.00000000000E+00  0.00000000000E+00  0.32842039774E+02  0.32842039774E+02  0.00000000000E+00 0. -1.
         21   -1    0    0  501  503 -0.00000000000E+00 -0.00000000000E+00 -0.14575783323E+04  0.14575783323E+04  0.00000000000E+00 0. -1.
          6    2    1    2  501    0 -0.11972312624E+03 -0.64240073920E+02 -0.66097726393E+03  0.69622685828E+03  0.17140735313E+03 0.  0.
         24    2    3    3    0    0 -0.10232669741E+03  0.14603476814E+02 -0.49011283436E+03  0.50718801433E+03  0.79655991261E+02 0.  0.
         -6    2    1    2    0  502  0.11972312624E+03  0.64240073920E+02 -0.76375902859E+03  0.79419351379E+03  0.17016189213E+03 0.  0.
        -24    2    5    5    0    0  0.36260392980E+02  0.49231929350E+02 -0.23772703634E+03  0.26134924093E+03  0.89725598134E+02 0.  0.
          5    1    3    3  501    0 -0.17396428833E+02 -0.78843550734E+02 -0.17086442957E+03  0.18903884395E+03  0.47000000000E+01 0. -1.
        -11    1    4    4    0    0 -0.14320125795E+02  0.36968129437E+02 -0.15527786844E+03  0.16025893118E+03  0.00000000000E+00 0.  1.
         12    1    4    4    0    0 -0.88006571611E+02 -0.22364652623E+02 -0.33483496592E+03  0.34692908315E+03  0.00000000000E+00 0. -1.
         -5    1    5    5    0  502  0.83462733259E+02  0.15008144570E+02 -0.52603199226E+03  0.53284427286E+03  0.47000000000E+01 0.  1.
         13    1    6    6    0    0  0.42323859346E+02  0.34532671352E+01 -0.40124715288E+02  0.58422828593E+02  0.00000000000E+00 0. -1.
        -14    1    6    6    0    0 -0.60634663664E+01  0.45778662215E+02 -0.19760232105E+03  0.20292641233E+03  0.00000000000E+00 0.  1.
</event>
<event>
12    1  0.8258923E-002  0.3376882E+03  0.7818608E-02  0.1067857E+00
         21   -1    0    0  501  502  0.00000000000E+00  0.00000000000E+00  0.17475626544E+03  0.17475626544E+03  0.00000000000E+00 0. -1.
         21   -1    0    0  502  503 -0.00000000000E+00 -0.00000000000E+00 -0.65975507821E+03  0.65975507821E+03  0.00000000000E+00 0. -1.
         -6    2    1    2    0  503 -0.21110101582E+03 -0.19909856546E+03 -0.29018028630E+03  0.44523918106E+03  0.17271204980E+03 0.  0.
        -24    2    3    3    0    0 -0.22502942617E+02 -0.71796979131E+02 -0.10405837179E+03  0.15123512640E+03  0.79891990079E+02 0.  0.
          6    2    1    2  501    0  0.21110101582E+03  0.19909856546E+03 -0.19481852648E+03  0.38927216259E+03  0.17139043340E+03 0.  0.
         24    2    5    5    0    0  0.31017933188E+02  0.82683104540E+02 -0.91125413812E+02  0.15103524731E+03  0.81909687648E+02 0.  0.
          5    1    5    5  501    0  0.18008308263E+03  0.11641546092E+03 -0.10369311266E+03  0.23823691529E+03  0.47000000000E+01 0. -1.
        -11    1    6    6    0    0  0.12419082555E+02 -0.15583617051E+02 -0.10211235934E+02  0.22390892595E+02  0.00000000000E+00 0.  1.
         12    1    6    6    0    0  0.18598850633E+02  0.98266721591E+02 -0.80914177878E+02  0.12864435471E+03  0.00000000000E+00 0. -1.
         -5    1    3    3    0  503 -0.18859807320E+03 -0.12730158633E+03 -0.18612191450E+03  0.29400405466E+03  0.47000000000E+01 0.  1.
         11    1    4    4    0    0 -0.44919210250E+02 -0.65447888658E+02 -0.53957660485E+02  0.95982241608E+02  0.00000000000E+00 0. -1.
        -12    1    4    4    0    0  0.22416267632E+02 -0.63490904739E+01 -0.50100711308E+02  0.55252884793E+02  0.00000000000E+00 0.  1.
</event>
<event>
12    1  0.8258923E-002  0.1799910E+03  0.7818608E-02  0.1167850E+00
         21   -1    0    0  501  502  0.00000000000E+00  0.00000000000E+00  0.22641596182E+02  0.22641596182E+02  0.00000000000E+00 0.  1.
         21   -1    0    0  502  503 -0.00000000000E+00 -0.00000000000E+00 -0.15083828572E+04  0.15083828572E+04  0.00000000000E+00 0.  1.
         -6    2    1    2    0  503 -0.19860582384E+02  0.45230889783E+02 -0.91815236724E+03  0.93562841096E+03  0.17307939742E+03 0.  0.
        -24    2    3    3    0    0  0.64411599149E+01  0.94396175767E+02 -0.65396891707E+03  0.66558398437E+03  0.79840899340E+02 0.  0.
          6    2    1    2  501    0  0.19860582384E+02 -0.45230889783E+02 -0.56758889376E+03  0.59539604240E+03  0.17291332760E+03 0.  0.
         24    2    5    5    0    0  0.66158354631E+02  0.14695867681E+02 -0.34133977191E+03  0.35676357371E+03  0.78578058160E+02 0.  0.
          5    1    5    5  501    0 -0.46297772247E+02 -0.59926757463E+02 -0.22624912185E+03  0.23863246869E+03  0.47000000000E+01 0. -1.
        -11    1    6    6    0    0  0.37684069312E+02 -0.78861508697E+01 -0.49698405015E+02  0.62866620050E+02  0.00000000000E+00 0.  1.
         12    1    6    6    0    0  0.28474285319E+02  0.22582018551E+02 -0.29164136690E+03  0.29389695366E+03  0.00000000000E+00 0. -1.
         -5    1    3    3    0  503 -0.26301742299E+02 -0.49165285984E+02 -0.26418345016E+03  0.27004442659E+03  0.47000000000E+01 0.  1.
         11    1    4    4    0    0  0.29734769329E+02  0.42331803083E+02 -0.15587710179E+03  0.16423705100E+03  0.00000000000E+00 0. -1.
        -12    1    4    4    0    0 -0.23293609414E+02  0.52064372684E+02 -0.49809181528E+03  0.50134693336E+03  0.00000000000E+00 0.  1.
</event>
<event>
12    1  0.8258923E-002  0.1823627E+03  0.7818608E-02  0.1166686E+00
         21   -1    0    0  501  502  0.00000000000E+00  0.00000000000E+00  0.42088838933E+02  0.42088838933E+02  0.00000000000E+00 0. -1.
         21   -1    0    0  502  503 -0.00000000000E+00 -0.00000000000E+00 -0.98213569942E+03  0.98213569942E+03  0.00000000000E+00 0. -1.
         -6    2    1    2    0  503  0.41160118588E+02 -0.31879255669E+01 -0.71310740121E+03  0.73605591598E+03  0.17762834106E+03 0.  0.
        -24    2    3    3    0    0  0.13268418483E+01  0.63953672974E+02 -0.34247313181E+03  0.35725974935E+03  0.79087607767E+02 0.  0.
          6    2    1    2  501    0 -0.41160118588E+02  0.31879255669E+01 -0.22693945928E+03  0.28816862238E+03  0.17272903206E+03 0.  0.
         24    2    5    5    0    0 -0.36567839722E+02  0.66107077557E+02 -0.17527019109E+03  0.20648807398E+03  0.78805660991E+02 0.  0.
          5    1    5    5  501    0 -0.45922788654E+01 -0.62919151990E+02 -0.51669268185E+02  0.81680548401E+02  0.47000000000E+01 0. -1.
        -11    1    6    6    0    0  0.21712435736E+02  0.14640110487E+01 -0.42222085647E+02  0.47500291687E+02  0.00000000000E+00 0.  1.
         12    1    6    6    0    0 -0.58280275459E+02  0.64643066508E+02 -0.13304810544E+03  0.15898778229E+03  0.00000000000E+00 0. -1.
         -5    1    3    3    0  503  0.39833276739E+02 -0.67141598541E+02 -0.37063426941E+03  0.37879616662E+03  0.47000000000E+01 0.  1.
         13    1    4    4    0    0  0.18719962296E+02 -0.74656672915E+01 -0.14786147263E+03  0.14922864425E+03  0.00000000000E+00 0. -1.
        -14    1    4    4    0    0 -0.17393120448E+02  0.71419340265E+02 -0.19461165918E+03  0.20803110510E+03  0.00000000000E+00 0.  1.
</event>
<event>
12    1  0.8258923E-002  0.1852505E+03  0.7818608E-02  0.1162871E+00
         21   -1    0    0  501  502  0.00000000000E+00  0.00000000000E+00  0.10187612812E+03  0.10187612812E+03  0.00000000000E+00 0. -1.
         21   -1    0    0  502  503 -0.00000000000E+00 -0.00000000000E+00 -0.42666885955E+03  0.42666885955E+03  0.00000000000E+00 0. -1.
         -6    2    1    2    0  503  0.58843786140E+02 -0.35142244172E+02 -0.28384907631E+03  0.33882374752E+03  0.17185361582E+03 0.  0.
        -24    2    3    3    0    0  0.50618595289E+02 -0.43947136136E+02 -0.30032207161E+03  0.31788026497E+03  0.79755396036E+02 0.  0.
          6    2    1    2  501    0 -0.58843786140E+02  0.35142244172E+02 -0.40943655131E+02  0.18972124016E+03  0.17210519335E+03 0.  0.
         24    2    5    5    0    0  0.26227482386E+02  0.33176330453E+02 -0.49852552785E+02  0.10403317796E+03  0.80926357652E+02 0.  0.
          5    1    5    5  501    0 -0.85071268525E+02  0.19659137184E+01  0.89088976536E+01  0.85688062194E+02  0.47000000000E+01 0. -1.
        -13    1    6    6    0    0  0.16044063049E+02  0.33709249044E+02 -0.71189593254E+02  0.80384598139E+02  0.00000000000E+00 0.  1.
         14    1    6    6    0    0  0.10183419337E+02 -0.53291859122E+00  0.21337040469E+02  0.23648579822E+02  0.00000000000E+00 0. -1.
         -5    1    3    3    0  503  0.82251908507E+01  0.88048919647E+01  0.16472995303E+02  0.20943482549E+02  0.47000000000E+01 0.  1.
         11    1    4    4    0    0  0.22379441400E+02  0.11419977447E+02 -0.18658468332E+03  0.18826868920E+03  0.00000000000E+00 0. -1.
        -12    1    4    4    0    0  0.28239153889E+02 -0.55367113584E+02 -0.11373738829E+03  0.12961157577E+03  0.00000000000E+00 0.  1.
</event>
<event>
12    1  0.8258923E-002  0.2039572E+03  0.7818608E-02  0.1147025E+00
         21   -1    0    0  501  502  0.00000000000E+00  0.00000000000E+00  0.25772731644E+03  0.25772731644E+03  0.00000000000E+00 0. -1.
         21   -1    0    0  502  503 -0.00000000000E+00 -0.00000000000E+00 -0.20678435227E+03  0.20678435227E+03  0.00000000000E+00 0. -1.
         -6    2    1    2    0  503  0.90641113986E+02  0.59188413118E+02 -0.85819030028E+02  0.22127681661E+03  0.17285671484E+03 0.  0.
        -24    2    3    3    0    0 -0.15321930132E+02  0.35474621967E+02 -0.70231361985E+02  0.11147892955E+03  0.77471912199E+02 0.  0.
          6    2    1    2  501    0 -0.90641113986E+02 -0.59188413118E+02  0.13676199420E+03  0.24323485210E+03  0.16952955621E+03 0.  0.
         24    2    5    5    0    0 -0.90496292514E+02 -0.33171722956E+02  0.22560321746E+02  0.12601283569E+03  0.77976435410E+02 0.  0.
          5    1    5    5  501    0 -0.14482147228E+00 -0.26016690162E+02  0.11420167245E+03  0.11722201641E+03  0.47000000000E+01 0. -1.
        -13    1    6    6    0    0 -0.43142669467E+02  0.21547500126E+02 -0.52061873251E+01  0.48504526354E+02  0.00000000000E+00 0.  1.
         14    1    6    6    0    0 -0.47353623047E+02 -0.54719223082E+02  0.27766509071E+02  0.77508309338E+02  0.00000000000E+00 0. -1.
         -5    1    3    3    0  503  0.10596304412E+03  0.23713791151E+02 -0.15587668043E+02  0.10979788707E+03  0.47000000000E+01 0.  1.
         13    1    4    4    0    0  0.18363849398E+02  0.43909893211E+02 -0.23015023880E+02  0.52867769111E+02  0.00000000000E+00 0. -1.
        -14    1    4    4    0    0 -0.33685779530E+02 -0.84352712445E+01 -0.47216338105E+02  0.58611160435E+02  0.00000000000E+00 0.  1.
</event>
<event>
12    1  0.8258923E-002  0.1964062E+03  0.7818608E-02  0.1153080E+00
         21   -1    0    0  503  502  0.00000000000E+00  0.00000000000E+00  0.44435743315E+03  0.44435743315E+03  0.00000000000E+00 0.  1.
         21   -1    0    0  501  503 -0.00000000000E+00 -0.00000000000E+00 -0.11197219506E+03  0.11197219506E+03  0.00000000000E+00 0.  1.
          6    2    1    2  501    0 -0.40083899801E+02 -0.83607042685E+02  0.33298304935E+02  0.19920887681E+03  0.17314312830E+03 0.  0.
         24    2    3    3    0    0  0.13150111342E+02  0.50490347870E+01  0.39841406644E+02  0.95484905642E+02  0.85624829001E+02 0.  0.
         -6    2    1    2    0  502  0.40083899801E+02  0.83607042685E+02  0.29908693316E+03  0.35712075139E+03  0.17171307720E+03 0.  0.
        -24    2    5    5    0    0  0.30349405665E+02  0.13821814304E+01  0.48341924708E+02  0.93016913015E+02  0.73431652390E+02 0.  0.
          5    1    3    3  501    0 -0.53234011143E+02 -0.88656077472E+02 -0.65431017093E+01  0.10372397117E+03  0.47000000000E+01 0. -1.
        -13    1    4    4    0    0 -0.67923289276E+01 -0.25848892212E+02  0.50551960911E+02  0.57182180028E+02  0.00000000000E+00 0.  1.
         14    1    4    4    0    0  0.19942440269E+02  0.30897926999E+02 -0.10710554266E+02  0.38302725614E+02  0.00000000000E+00 0. -1.
         -5    1    5    5    0  502  0.97344941355E+01  0.82224861255E+02  0.25074500845E+03  0.26410383838E+03  0.47000000000E+01 0.  1.
         13    1    6    6    0    0 -0.20518846522E+02  0.16472997178E+02  0.13898262003E+02  0.29758097811E+02  0.00000000000E+00 0. -1.
        -14    1    6    6    0    0  0.50868252187E+02 -0.15090815748E+02  0.34443662705E+02  0.63258815204E+02  0.00000000000E+00 0.  1.
</event>
<event>
12    1  0.8258923E-002  0.1839750E+03  0.7818608E-02  0.1164130E+00
         21   -1    0    0  503  502  0.00000000000E+00  0.00000000000E+00  0.14374404436E+04  0.14374404436E+04  0.00000000000E+00 0.  1.
         21   -1    0    0  501  503 -0.00000000000E+00 -0.00000000000E+00 -0.43972377247E+02  0.43972377247E+02  0.00000000000E+00 0.  1.
          6    2    1    2  501    0 -0.66046221180E+02 -0.12927820724E+02  0.19161563536E+03  0.26563765291E+03  0.17122376893E+03 0.  0.
         24    2    3    3    0    0 -0.94496537085E+02 -0.41268504969E+02  0.18138521585E+03  0.22393194177E+03  0.81315638037E+02 0.  0.
         -6    2    1    2    0  502  0.66046221180E+02  0.12927820724E+02  0.12018524310E+04  0.12157751679E+04  0.17067735998E+03 0.  0.
        -24    2    5    5    0    0  0.10627608369E+03  0.15958979429E+02  0.10591376337E+04  0.10673931167E+04  0.77499957967E+02 0.  0.
          5    1    3    3  501    0  0.28450315905E+02  0.28340684245E+02  0.10230419507E+02  0.41705711142E+02  0.47000000000E+01 0. -1.
        -11    1    4    4    0    0 -0.46834186130E+02  0.38500402294E+01  0.22654132654E+02  0.52167744120E+02  0.00000000000E+00 0.  1.
         12    1    4    4    0    0 -0.47662350955E+02 -0.45118545199E+02  0.15873108320E+03  0.17176419765E+03  0.00000000000E+00 0. -1.
         -5    1    5    5    0  502 -0.40229862514E+02 -0.30311587052E+01  0.14271479727E+03  0.14838205121E+03  0.47000000000E+01 0.  1.
         11    1    6    6    0    0  0.20232683702E+02 -0.27156313749E+02  0.19570999086E+03  0.19861829570E+03  0.00000000000E+00 0. -1.
        -12    1    6    6    0    0  0.86043399992E+02  0.43115293178E+02  0.86342764283E+03  0.86877482099E+03  0.00000000000E+00 0.  1.
</event>
<event>
12    1  0.8258923E-002  0.1864710E+03  0.7818608E-02  0.1162895E+00
         21   -1    0    0  501  502  0.00000000000E+00  0.00000000000E+00  0.20534044394E+03  0.20534044394E+03  0.00000000000E+00 0.  1.
         21   -1    0    0  502  503 -0.00000000000E+00 -0.00000000000E+00 -0.35192284676E+03  0.35192284676E+03  0.00000000000E+00 0.  1.
         -6    2    1    2    0  503 -0.68907519924E+02 -0.18473281253E+02  0.13042340987E+03  0.22334163741E+03  0.16667847112E+03 0.  0.
        -24    2    3    3    0    0 -0.44099105809E+02  0.29627059973E+02  0.13836435572E+03  0.16843946206E+03  0.80029142373E+02 0.  0.
          6    2    1    2  501    0  0.68907519924E+02  0.18473281253E+02 -0.27700581269E+03  0.33392165328E+03  0.17228447940E+03 0.  0.
         24    2    5    5    0    0 -0.16164616796E+01 -0.38135115668E+02 -0.18457139091E+03  0.20452167294E+03  0.79407911213E+02 0.  0.
          5    1    5    5  501    0  0.70523981603E+02  0.56608396921E+02 -0.92434421783E+02  0.12939998035E+03  0.47000000000E+01 0. -1.
        -11    1    6    6    0    0 -0.24727234200E+02  0.15738431682E+02 -0.67681002951E+02  0.73755355761E+02  0.00000000000E+00 0.  1.
         12    1    6    6    0    0  0.23110772520E+02 -0.53873547350E+02 -0.11689038796E+03  0.13076631718E+03  0.00000000000E+00 0. -1.
         -5    1    3    3    0  503 -0.24808414114E+02 -0.48100341226E+02 -0.79409458481E+01  0.54902175348E+02  0.47000000000E+01 0.  1.
         11    1    4    4    0    0  0.56082514190E+01 -0.11744804170E+01 -0.85627467935E+01  0.10303034547E+02  0.00000000000E+00 0. -1.
        -12    1    4    4    0    0 -0.49707357228E+02  0.30801540390E+02  0.14692710252E+03  0.15813642751E+03  0.00000000000E+00 0.  1.
</event>
<event>
12    1  0.8258923E-002  0.2134366E+03  0.7818608E-02  0.1139080E+00
         21   -1    0    0  501  502  0.00000000000E+00  0.00000000000E+00  0.23996906784E+03  0.23996906784E+03  0.00000000000E+00 0.  1.
         21   -1    0    0  502  503 -0.00000000000E+00 -0.00000000000E+00 -0.21394813637E+03  0.21394813637E+03  0.00000000000E+00 0.  1.
         -6    2    1    2    0  503  0.12607297655E+03  0.70399117681E+00  0.90649685267E+02  0.23091038645E+03  0.17090158018E+03 0.  0.
        -24    2    3    3    0    0  0.16251944627E+02  0.33115561093E+02  0.65341568558E+01  0.88753145909E+02  0.80459055502E+02 0.  0.
          6    2    1    2  501    0 -0.12607297655E+03 -0.70399117681E+00 -0.64628753803E+02  0.22300681776E+03  0.17222158381E+03 0.  0.
         24    2    5    5    0    0  0.54103219537E+01  0.58604387348E+01 -0.33693347689E+02  0.87692225507E+02  0.80567167073E+02 0.  0.
          5    1    5    5  501    0 -0.13148329850E+03 -0.65644299116E+01 -0.30935406114E+02  0.13531459225E+03  0.47000000000E+01 0. -1.
        -11    1    6    6    0    0 -0.25153751695E+02  0.23026423235E+02  0.61190842039E+01  0.34646364641E+02  0.00000000000E+00 0.  1.
         12    1    6    6    0    0  0.30564073649E+02 -0.17165984500E+02 -0.39812431893E+02  0.53045860866E+02  0.00000000000E+00 0. -1.
         -5    1    3    3    0  503  0.10982103192E+03 -0.32411569916E+02  0.84115528412E+02  0.14215724054E+03  0.47000000000E+01 0.  1.
         11    1    4    4    0    0 -0.25834268862E+02  0.29600373119E+02  0.20443090142E+02  0.44288954277E+02  0.00000000000E+00 0. -1.
        -12    1    4    4    0    0  0.42086213489E+02  0.35151879743E+01 -0.13908933286E+02  0.44464191632E+02  0.00000000000E+00 0.  1.
</event>
<event>
12    1  0.8258923E-002  0.1798225E+03  0.7818608E-02  0.1170842E+00
         21   -1    0    0  501  502  0.00000000000E+00  0.00000000000E+00  0.13287161258E+03  0.13287161258E+03  0.00000000000E+00 0. -1.
         21   -1    0    0  502  503 -0.00000000000E+00 -0.00000000000E+00 -0.23137813270E+03  0.23137813270E+03  0.00000000000E+00 0. -1.
         -6    2    1    2    0  503 -0.37113061420E+02  0.38576184190E+02 -0.29332100685E+02  0.18219903615E+03  0.17167007698E+03 0.  0.
        -24    2    3    3    0    0 -0.24411929274E+02 -0.34589002251E+02 -0.52627175698E+02  0.10422972306E+03  0.79384344671E+02 0.  0.
          6    2    1    2  501    0  0.37113061420E+02 -0.38576184190E+02 -0.69174419431E+02  0.18205070913E+03  0.15966170197E+03 0.  0.
         24    2    5    5    0    0  0.29218053569E+02  0.35794370087E+02 -0.15343768427E+02  0.89784033236E+02  0.75437456282E+02 0.  0.
          5    1    5    5  501    0  0.78950078504E+01 -0.74370554277E+02 -0.53830651004E+02  0.92266675891E+02  0.47000000000E+01 0. -1.
        -11    1    6    6    0    0  0.12620976368E+02  0.56227742527E+02 -0.23486050125E+02  0.62228953266E+02  0.00000000000E+00 0.  1.
         12    1    6    6    0    0  0.16597077201E+02 -0.20433372440E+02  0.81422816979E+01  0.27555079970E+02  0.00000000000E+00 0. -1.
         -5    1    3    3    0  503 -0.12701132146E+02  0.73165186441E+02  0.23295075013E+02  0.77969313096E+02  0.47000000000E+01 0.  1.
         13    1    4    4    0    0  0.49035160221E+01  0.39124388935E+01 -0.55404398692E+02  0.55758398846E+02  0.00000000000E+00 0. -1.
        -14    1    4    4    0    0 -0.29315445296E+02 -0.38501441145E+02  0.27772229941E+01  0.48471324210E+02  0.00000000000E+00 0.  1.
</event>
<event>
12    1  0.8258923E-002  0.1753017E+03  0.7818608E-02  0.1173776E+00
         21   -1    0    0  501  502  0.00000000000E+00  0.00000000000E+00  0.11797497937E+03  0.11797497937E+03  0.00000000000E+00 0. -1.
         21   -1    0    0  502  503 -0.00000000000E+00 -0.00000000000E+00 -0.28935395316E+03  0.28935395316E+03  0.00000000000E+00 0. -1.
         -6    2    1    2    0  503  0.23805064676E+02  0.26782924250E+02 -0.15704102640E+03  0.23144188556E+03  0.16619102347E+03 0.  0.
        -24    2    3    3    0    0 -0.93280038331E+01  0.34994158314E+02 -0.21224843082E+02  0.91322828168E+02  0.81103404423E+02 0.  0.
          6    2    1    2  501    0 -0.23805064676E+02 -0.26782924250E+02 -0.14337947399E+02  0.17588704697E+03  0.17160032174E+03 0.  0.
         24    2    5    5    0    0 -0.54310787898E+02  0.36983604862E+02 -0.19108635738E+02  0.10488268900E+03  0.79484525418E+02 0.  0.
          5    1    5    5  501    0  0.30505723222E+02 -0.63766529112E+02  0.47706883388E+01  0.71004357976E+02  0.47000000000E+01 0. -1.
        -13    1    6    6    0    0 -0.69163695566E+02  0.88786215283E+01 -0.21591487900E+02  0.72997527727E+02  0.00000000000E+00 0.  1.
         14    1    6    6    0    0  0.14852907668E+02  0.28104983334E+02  0.24828521620E+01  0.31885161270E+02  0.00000000000E+00 0. -1.
         -5    1    3    3    0  503  0.33133068509E+02 -0.82112340638E+01 -0.13581618331E+03  0.14011905739E+03  0.47000000000E+01 0.  1.
         13    1    4    4    0    0 -0.35947148652E+02 -0.49382264903E+01 -0.23580215691E+02  0.43273665769E+02  0.00000000000E+00 0. -1.
        -14    1    4    4    0    0  0.26619144819E+02  0.39932384805E+02  0.23553726090E+01  0.48049162398E+02  0.00000000000E+00 0.  1.
</event>
<event>
12    1  0.8258923E-002  0.3106865E+03  0.7818608E-02  0.1080081E+00
         21   -1    0    0  503  502  0.00000000000E+00  0.00000000000E+00  0.14470295334E+04  0.14470295334E+04  0.00000000000E+00 0.  1.
         21   -1    0    0  501  503 -0.00000000000E+00 -0.00000000000E+00 -0.74427602914E+02  0.74427602914E+02  0.00000000000E+00 0. -1.
          6    2    1    2  501    0  0.98269625713E+02  0.23881460728E+03  0.43999518910E+03  0.53862959786E+03  0.17273315045E+03 0.  0.
         24    2    3    3    0    0  0.11188495062E+03  0.12210677224E+03  0.25096103068E+03  0.31600413012E+03  0.97205274203E+02 0.  0.
         -6    2    1    2    0  502 -0.98269625713E+02 -0.23881460728E+03  0.93260674139E+03  0.98282753847E+03  0.17177106942E+03 0.  0.
        -24    2    5    5    0    0 -0.11784429608E+03 -0.16252453707E+03  0.52498515927E+03  0.56763988602E+03  0.79398485371E+02 0.  0.
          5    1    3    3  501    0 -0.13615324909E+02  0.11670783504E+03  0.18903415842E+03  0.22262546773E+03  0.47000000000E+01 0. -1.
        -11    1    4    4    0    0  0.30996779559E+02  0.61372534479E+02  0.17932842662E+03  0.19205747298E+03  0.00000000000E+00 0.  1.
         12    1    4    4    0    0  0.80888171062E+02  0.60734237757E+02  0.71632604062E+02  0.12394665715E+03  0.00000000000E+00 0. -1.
         -5    1    5    5    0  502  0.19574670365E+02 -0.76290070215E+02  0.40762158212E+03  0.41518765244E+03  0.47000000000E+01 0.  1.
         13    1    6    6    0    0 -0.41092585625E+02 -0.63896797127E+01  0.89601907561E+02  0.98782237465E+02  0.00000000000E+00 0. -1.
        -14    1    6    6    0    0 -0.76751710453E+02 -0.15613485735E+03  0.43538325171E+03  0.46885764856E+03  0.00000000000E+00 0.  1.
</event>
<event>
12    1  0.8258923E-002  0.2213530E+03  0.7818608E-02  0.1132961E+00
         21   -1    0    0  501  502  0.00000000000E+00  0.00000000000E+00  0.12191623669E+03  0.12191623669E+03  0.00000000000E+00 0. -1.
         21   -1    0    0  502  503 -0.00000000000E+00 -0.00000000000E+00 -0.40910182764E+03  0.40910182764E+03  0.00000000000E+00 0. -1.
         -6    2    1    2    0  503  0.10067459237E+03  0.95598212500E+02 -0.18091215426E+03  0.28587820640E+03  0.17240286992E+03 0.  0.
        -24    2    3    3    0    0  0.27160346180E+02  0.11628967426E+03 -0.13517157170E+03  0.19673353817E+03  0.78560540351E+02 0.  0.
          6    2    1    2  501    0 -0.10067459237E+03 -0.95598212500E+02 -0.10627343669E+03  0.24513985793E+03  0.17182873688E+03 0.  0.
         24    2    5    5    0    0 -0.35069851104E+02 -0.60455133970E+02 -0.12726471651E+03  0.16766894808E+03  0.83856129173E+02 0.  0.
          5    1    5    5  501    0 -0.65604741261E+02 -0.35143078530E+02  0.20991279825E+02  0.77470909851E+02  0.47000000000E+01 0. -1.
        -11    1    6    6    0    0  0.21445261697E+02  0.45019114057E+01 -0.16796020840E+02  0.27609287778E+02  0.00000000000E+00 0.  1.
         12    1    6    6    0    0 -0.56515112801E+02 -0.64957045376E+02 -0.11046869567E+03  0.14005966030E+03  0.00000000000E+00 0. -1.
         -5    1    3    3    0  503  0.73514246185E+02 -0.20691461758E+02 -0.45740582561E+02  0.89144668236E+02  0.47000000000E+01 0.  1.
         13    1    4    4    0    0  0.29333152898E+02  0.11307656367E+03 -0.14497887672E+03  0.18618705058E+03  0.00000000000E+00 0. -1.
        -14    1    4    4    0    0 -0.21728067183E+01  0.32131105874E+01  0.98073050169E+01  0.10546487585E+02  0.00000000000E+00 0.  1.
</event>
<event>
12    1  0.8258923E-002  0.2341400E+03  0.7818608E-02  0.1124344E+00
         21   -1    0    0  503  502  0.00000000000E+00  0.00000000000E+00  0.15226494102E+03  0.15226494102E+03  0.00000000000E+00 0. -1.
         21   -1    0    0  501  503 -0.00000000000E+00 -0.00000000000E+00 -0.35643264803E+03  0.35643264803E+03  0.00000000000E+00 0.  1.
          6    2    1    2  501    0  0.15264504255E+03 -0.28856978387E+02 -0.84521527785E+02  0.24575887495E+03  0.17064671618E+03 0.  0.
         24    2    3    3    0    0  0.16465065066E+03 -0.60445481619E+02 -0.55240717287E+02  0.20079862555E+03  0.80653940797E+02 0.  0.
         -6    2    1    2    0  502 -0.15264504255E+03  0.28856978387E+02 -0.11964617922E+03  0.26293871410E+03  0.17518083500E+03 0.  0.
        -24    2    5    5    0    0 -0.14449972122E+03 -0.15091020269E+01 -0.30616672072E+02  0.16840412655E+03  0.80871023294E+02 0.  0.
          5    1    3    3  501    0 -0.12005608112E+02  0.31588503232E+02 -0.29280810497E+02  0.44960249398E+02  0.47000000000E+01 0. -1.
        -11    1    4    4    0    0  0.90171925345E+02 -0.12352102981E+02 -0.64657577094E+02  0.11164297042E+03  0.00000000000E+00 0.  1.
         12    1    4    4    0    0  0.74478725318E+02 -0.48093378638E+02  0.94168598070E+01  0.89155655134E+02  0.00000000000E+00 0. -1.
         -5    1    5    5    0  502 -0.81453213276E+01  0.30366080414E+02 -0.89029507151E+02  0.94534587547E+02  0.47000000000E+01 0.  1.
         11    1    6    6    0    0 -0.15122408448E+02  0.26409029713E+02  0.61276779415E+01  0.31043075308E+02  0.00000000000E+00 0. -1.
        -12    1    6    6    0    0 -0.12937731278E+03 -0.27918131740E+02 -0.36744350014E+02  0.13736105124E+03  0.00000000000E+00 0.  1.
</event>
<event>
12    1  0.8258923E-002  0.2557366E+03  0.7818608E-02  0.1109972E+00
         21   -1    0    0  501  502  0.00000000000E+00  0.00000000000E+00  0.34385701256E+02  0.34385701256E+02  0.00000000000E+00 0.  1.
         21   -1    0    0  502  503 -0.00000000000E+00 -0.00000000000E+00 -0.21504067441E+04  0.21504067441E+04  0.00000000000E+00 0.  1.
         -6    2    1    2    0  503 -0.18348793472E+03 -0.46246567842E+02 -0.67534448160E+03  0.72159383252E+03  0.16970834714E+03 0.  0.
        -24    2    3    3    0    0 -0.99608893703E+02  0.34662692024E+02 -0.28543626256E+03  0.31461408963E+03  0.79904514803E+02 0.  0.
          6    2    1    2  501    0  0.18348793472E+03  0.46246567842E+02 -0.14406765612E+04  0.14631986128E+04  0.17203098339E+03 0.  0.
         24    2    5    5    0    0  0.16569812651E+03  0.52698746045E+02 -0.80455012828E+03  0.82677341173E+03  0.77590840086E+02 0.  0.
          5    1    5    5  501    0  0.17789808206E+02 -0.64521782034E+01 -0.63612643294E+03  0.63642520108E+03  0.47000000000E+01 0. -1.
        -13    1    6    6    0    0  0.11891947421E+03  0.32348036810E+02 -0.69608611839E+03  0.70691167839E+03  0.00000000000E+00 0.  1.
         14    1    6    6    0    0  0.46778652302E+02  0.20350709235E+02 -0.10846400989E+03  0.11986173334E+03  0.00000000000E+00 0. -1.
         -5    1    3    3    0  503 -0.83879041012E+02 -0.80909259866E+02 -0.38990821904E+03  0.40697974289E+03  0.47000000000E+01 0.  1.
         13    1    4    4    0    0 -0.14332601481E+02  0.44825021904E+01  0.17673325802E+00  0.15018239769E+02  0.00000000000E+00 0. -1.
        -14    1    4    4    0    0 -0.85276292222E+02  0.30180189834E+02 -0.28561299582E+03  0.29959584986E+03  0.00000000000E+00 0.  1.
</event>
<event>
12    1  0.8258923E-002  0.2379354E+03  0.7818608E-02  0.1121371E+00
         21   -1    0    0  503  502  0.00000000000E+00  0.00000000000E+00  0.77802233476E+02  0.77802233476E+02  0.00000000000E+00 0.  1.
         21   -1    0    0  501  503 -0.00000000000E+00 -0.00000000000E+00 -0.11055858861E+04  0.11055858861E+04  0.00000000000E+00 0.  1.
          6    2    1    2  501    0  0.16142603947E+03 -0.29644990094E+02 -0.86063020237E+03  0.89260719376E+03  0.17066360322E+03 0.  0.
         24    2    3    3    0    0  0.12809358632E+03 -0.83167360072E+02 -0.59528142661E+03  0.61982933667E+03  0.80645229824E+02 0.  0.
         -6    2    1    2    0  502 -0.16142603947E+03  0.29644990094E+02 -0.16715345023E+03  0.29078092579E+03  0.17226746421E+03 0.  0.
        -24    2    5    5    0    0 -0.61474414244E+02  0.65619436146E+02 -0.13085318509E+03  0.17842307158E+03  0.81407754033E+02 0.  0.
          5    1    3    3  501    0  0.33332453151E+02  0.53522369977E+02 -0.26534877576E+03  0.27277785709E+03  0.47000000000E+01 0. -1.
        -11    1    4    4    0    0  0.57193090783E+02 -0.66428402448E+02 -0.43535723801E+03  0.44409425460E+03  0.00000000000E+00 0.  1.
         12    1    4    4    0    0  0.70900495533E+02 -0.16738957623E+02 -0.15992418860E+03  0.17573508206E+03  0.00000000000E+00 0. -1.
         -5    1    5    5    0  502 -0.99951625223E+02 -0.35974446052E+02 -0.36300265134E+02  0.11235785421E+03  0.47000000000E+01 0.  1.
         11    1    6    6    0    0 -0.54359674184E+01  0.25804606088E+01  0.11487954605E+02  0.12968485637E+02  0.00000000000E+00 0. -1.
        -12    1    6    6    0    0 -0.56038446825E+02  0.63038975537E+02 -0.14234113970E+03  0.16545458594E+03  0.00000000000E+00 0.  1.
</event>
<event>
12    1  0.8258923E-002  0.2352509E+03  0.7818608E-02  0.1123213E+00
         21   -1    0    0  503  502  0.00000000000E+00  0.00000000000E+00  0.67767867564E+03  0.67767867564E+03  0.00000000000E+00 0.  1.
         21   -1    0    0  501  503 -0.00000000000E+00 -0.00000000000E+00 -0.81745898431E+02  0.81745898431E+02  0.00000000000E+00 0. -1.
          6    2    1    2  501    0 -0.11340037663E+03 -0.11140260412E+03  0.26700666223E+03  0.35502952280E+03  0.17170678134E+03 0.  0.
         24    2    3    3    0    0 -0.41961698372E+02 -0.34812481974E+02  0.21966160857E+03  0.23999398191E+03  0.79832299486E+02 0.  0.
         -6    2    1    2    0  502  0.11340037663E+03  0.11140260412E+03  0.32892611497E+03  0.40439505127E+03  0.17341505920E+03 0.  0.
        -24    2    5    5    0    0  0.52878791467E+02  0.33166340087E+02  0.59677182243E+02  0.11751379873E+03  0.79699147490E+02 0.  0.
          5    1    3    3  501    0 -0.71438678257E+02 -0.76590122143E+02  0.47345053657E+02  0.11503554089E+03  0.47000000000E+01 0. -1.
        -11    1    4    4    0    0 -0.46638726615E+02 -0.49561971781E+02  0.11075162816E+03  0.12999031890E+03  0.00000000000E+00 0.  1.
         12    1    4    4    0    0  0.46770282433E+01  0.14749489807E+02  0.10890998041E+03  0.11000366301E+03  0.00000000000E+00 0. -1.
         -5    1    5    5    0  502  0.60521585162E+02  0.78236264029E+02  0.26924893273E+03  0.28688125253E+03  0.47000000000E+01 0.  1.
         11    1    6    6    0    0 -0.19685607745E+02  0.12311024404E+02  0.36695137117E+01  0.23506377965E+02  0.00000000000E+00 0. -1.
        -12    1    6    6    0    0  0.72564399212E+02  0.20855315683E+02  0.56007668531E+02  0.94007420769E+02  0.00000000000E+00 0.  1.
</event>
<event>
12    1  0.8258923E-002  0.2546014E+03  0.7818608E-02  0.1110493E+00
         21   -1    0    0  501  502  0.00000000000E+00  0.00000000000E+00  0.33643166976E+03  0.33643166976E+03  0.00000000000E+00 0.  1.
         21   -1    0    0  502  503 -0.00000000000E+00 -0.00000000000E+00 -0.26646913357E+03  0.26646913357E+03  0.00000000000E+00 0.  1.
         -6    2    1    2    0  503  0.28672597881E+02 -0.18374070089E+03 -0.12400221620E+03  0.28283178888E+03  0.17330466856E+03 0.  0.
        -24    2    3    3    0    0 -0.48782312225E+02 -0.69402381759E+02 -0.86388246485E+02  0.13962070328E+03  0.69531338782E+02 0.  0.
          6    2    1    2  501    0 -0.28672597881E+02  0.18374070089E+03  0.19396475239E+03  0.32006901444E+03  0.17389389237E+03 0.  0.
         24    2    5    5    0    0 -0.32310859127E+02  0.20947087718E+03  0.16411842306E+03  0.28021713505E+03  0.81637895527E+02 0.  0.
          5    1    5    5  501    0  0.36382612454E+01 -0.25730176285E+02  0.29846329332E+02  0.39851879392E+02  0.47000000000E+01 0. -1.
        -13    1    6    6    0    0 -0.28167886864E+02  0.12159938955E+03  0.46188012674E+02  0.13309084831E+03  0.00000000000E+00 0.  1.
         14    1    6    6    0    0 -0.41429722626E+01  0.87871487634E+02  0.11793041038E+03  0.14712628675E+03  0.00000000000E+00 0. -1.
         -5    1    3    3    0  503  0.77454910106E+02 -0.11433831914E+03 -0.37613969717E+02  0.14321108561E+03  0.47000000000E+01 0.  1.
         11    1    4    4    0    0 -0.13925835512E+02  0.95944200592E+01 -0.35685247391E+02  0.39489475463E+02  0.00000000000E+00 0. -1.
        -12    1    4    4    0    0 -0.34856476713E+02 -0.78996801818E+02 -0.50702999094E+02  0.10013122781E+03  0.00000000000E+00 0.  1.
</event>
<event>
12    1  0.8258923E-002  0.1822455E+03  0.7818608E-02  0.1166405E+00
         21   -1    0    0  503  502  0.00000000000E+00  0.00000000000E+00  0.40286253061E+03  0.40286253061E+03  0.00000000000E+00 0.  1.
         21   -1    0    0  501  503 -0.00000000000E+00 -0.00000000000E+00 -0.83784177380E+02  0.83784177380E+02  0.00000000000E+00 0. -1.
          6    2    1    2  501    0 -0.43123187062E+02  0.24461242138E+02  0.20504926731E+03  0.27433307035E+03  0.17537237478E+03 0.  0.
         24    2    3    3    0    0  0.29452998574E+02  0.40069492793E+02  0.16522522695E+03  0.18995911465E+03  0.79448387270E+02 0.  0.
         -6    2    1    2    0  502  0.43123187062E+02 -0.24461242138E+02  0.11402908592E+03  0.21231363764E+03  0.17209441206E+03 0.  0.
        -24    2    5    5    0    0  0.64431279701E+02 -0.95022875345E+01  0.88281386096E+01  0.10383721416E+03  0.80389972892E+02 0.  0.
          5    1    3    3  501    0 -0.72576185636E+02 -0.15608250655E+02  0.39824040354E+02  0.84373955698E+02  0.47000000000E+01 0. -1.
        -13    1    4    4    0    0  0.46754035344E+02  0.31781107436E+01  0.12133692099E+03  0.13007185939E+03  0.00000000000E+00 0.  1.
         14    1    4    4    0    0 -0.17301036771E+02  0.36891382050E+02  0.43888305962E+02  0.59887255264E+02  0.00000000000E+00 0. -1.
         -5    1    5    5    0  502 -0.21308092639E+02 -0.14958954604E+02  0.10520094731E+03  0.10847642347E+03  0.47000000000E+01 0.  1.
         13    1    6    6    0    0  0.41325123353E+02 -0.43483946020E+02 -0.56831945285E+01  0.60257099845E+02  0.00000000000E+00 0. -1.
        -14    1    6    6    0    0  0.23106156348E+02  0.33981658486E+02  0.14511333138E+02  0.43580114319E+02  0.00000000000E+00 0.  1.
</event>
<event>
12    1  0.8258923E-002  0.2368613E+03  0.7818608E-02  0.1122738E+00
         21   -1    0    0  503  502  0.00000000000E+00  0.00000000000E+00  0.61575973664E+03  0.61575973664E+03  0.00000000000E+00 0.  1.
         21   -1    0    0  501  503 -0.00000000000E+00 -0.00000000000E+00 -0.14618901512E+03  0.14618901512E+03  0.00000000000E+00 0. -1.
          6    2    1    2  501    0  0.97787737404E+02  0.12046046339E+03 -0.14898909454E+01  0.23686597376E+03  0.17896956424E+03 0.  0.
         24    2    3    3    0    0  0.11832958320E+03  0.51027499806E+02 -0.37118850620E+02  0.15603023520E+03  0.79761702760E+02 0.  0.
         -6    2    1    2    0  502 -0.97787737404E+02 -0.12046046339E+03  0.47106061247E+03  0.52508277800E+03  0.17245480076E+03 0.  0.
        -24    2    5    5    0    0 -0.28916179624E+02 -0.13402714925E+03  0.33257050262E+03  0.36974782713E+03  0.85503767591E+02 0.  0.
          5    1    3    3  501    0 -0.20541845801E+02  0.69432963587E+02  0.35628959675E+02  0.80835738562E+02  0.47000000000E+01 0. -1.
        -11    1    4    4    0    0  0.29830282499E+02 -0.18593794106E+02 -0.24230198675E+02  0.42692826810E+02  0.00000000000E+00 0.  1.
         12    1    4    4    0    0  0.88499300706E+02  0.69621293912E+02 -0.12888651945E+02  0.11333740839E+03  0.00000000000E+00 0. -1.
         -5    1    5    5    0  502 -0.68871557780E+02  0.13566685858E+02  0.13849010985E+03  0.15533495087E+03  0.47000000000E+01 0.  1.
         13    1    6    6    0    0 -0.56650764190E+01  0.75989858899E+01  0.68880635053E+02  0.69529702737E+02  0.00000000000E+00 0. -1.
        -14    1    6    6    0    0 -0.23251103205E+02 -0.14162613514E+03  0.26368986757E+03  0.30021812439E+03  0.00000000000E+00 0.  1.
</event>
<event>
12    1  0.8258923E-002  0.1837338E+03  0.7818608E-02  0.1167161E+00
         21   -1    0    0  501  502  0.00000000000E+00  0.00000000000E+00  0.16405240506E+03  0.16405240506E+03  0.00000000000E+00 0.  1.
         21   -1    0    0  502  503 -0.00000000000E+00 -0.00000000000E+00 -0.48962951626E+03  0.48962951626E+03  0.00000000000E+00 0.  1.
         -6    2    1    2    0  503 -0.17980021195E+02 -0.85185502348E+01 -0.41946167622E+03  0.45793691167E+03  0.18265341604E+03 0.  0.
        -24    2    3    3    0    0 -0.13053917418E+02 -0.76304810850E+02 -0.31327842661E+03  0.33177742481E+03  0.77071772490E+02 0.  0.
          6    2    1    2  501    0  0.17980021195E+02  0.85185502348E+01  0.93884565016E+02  0.19574500966E+03  0.17060466112E+03 0.  0.
         24    2    5    5    0    0  0.76338116413E+01 -0.60835509032E+02  0.70334148317E+02  0.12162523014E+03  0.78016472287E+02 0.  0.
          5    1    5    5  501    0  0.10346209554E+02  0.69354059267E+02  0.23550416698E+02  0.74119779516E+02  0.47000000000E+01 0. -1.
        -11    1    6    6    0    0  0.23851337194E+02 -0.25154264675E+02 -0.65959209858E+01  0.35286392433E+02  0.00000000000E+00 0.  1.
         12    1    6    6    0    0 -0.16217525552E+02 -0.35681244357E+02  0.76930069303E+02  0.86338837708E+02  0.00000000000E+00 0. -1.
         -5    1    3    3    0  503 -0.49261037771E+01  0.67786260615E+02 -0.10618324961E+03  0.12615948686E+03  0.47000000000E+01 0.  1.
         11    1    4    4    0    0 -0.25873417264E+02 -0.20246880577E+02 -0.36584623949E+02  0.49171176552E+02  0.00000000000E+00 0. -1.
        -12    1    4    4    0    0  0.12819499846E+02 -0.56057930272E+02 -0.27669380266E+03  0.28260624826E+03  0.00000000000E+00 0.  1.
</event>
<event>
12    1  0.8258923E-002  0.2085765E+03  0.7818608E-02  0.1142937E+00
         21   -1    0    0  503  502  0.00000000000E+00  0.00000000000E+00  0.32593148437E+02  0.32593148437E+02  0.00000000000E+00 0.  1.
         21   -1    0    0  501  503 -0.00000000000E+00 -0.00000000000E+00 -0.13724141980E+04  0.13724141980E+04  0.00000000000E+00 0. -1.
          6    2    1    2  501    0 -0.83862969256E+02 -0.82780012499E+02 -0.79934972967E+03  0.82611388947E+03  0.17210066811E+03 0.  0.
         24    2    3    3    0    0 -0.11690477309E+03 -0.53654461111E+02 -0.71481502848E+03  0.73067666271E+03  0.79889507000E+02 0.  0.
         -6    2    1    2    0  502  0.83862969256E+02  0.82780012499E+02 -0.54047131994E+03  0.57889345701E+03  0.17065420832E+03 0.  0.
        -24    2    5    5    0    0 -0.22707090006E+02  0.35841658047E+02 -0.24631610960E+03  0.26249218581E+03  0.80189060202E+02 0.  0.
          5    1    3    3  501    0  0.33041803836E+02 -0.29125551388E+02 -0.84534701196E+02  0.95437226756E+02  0.47000000000E+01 0. -1.
        -11    1    4    4    0    0 -0.15302447648E+02 -0.28331849613E+02 -0.65658124144E+02  0.73128981072E+02  0.00000000000E+00 0.  1.
         12    1    4    4    0    0 -0.10160232544E+03 -0.25322611498E+02 -0.64915690433E+03  0.65754768164E+03  0.00000000000E+00 0. -1.
         -5    1    5    5    0  502  0.10657005926E+03  0.46938354452E+02 -0.29415521034E+03  0.31640127120E+03  0.47000000000E+01 0.  1.
         13    1    6    6    0    0  0.43766226405E+01  0.47197828651E+02 -0.21241470880E+03  0.21763914715E+03  0.00000000000E+00 0. -1.
        -14    1    6    6    0    0 -0.27083712647E+02 -0.11356170604E+02 -0.33901400795E+02  0.44853038664E+02  0.00000000000E+00 0.  1.
</event>
<event>
12    1  0.8258923E-002  0.1818771E+03  0.7818608E-02  0.1168834E+00
         21   -1    0    0  503  502  0.00000000000E+00  0.00000000000E+00  0.96950133708E+02  0.96950133708E+02  0.00000000000E+00 0. -1.
         21   -1    0    0  501  503 -0.00000000000E+00 -0.00000000000E+00 -0.32012385356E+03  0.32012385356E+03  0.00000000000E+00 0. -1.
          6    2    1    2  501    0  0.21238085702E+02  0.55138396060E+02 -0.11904293344E+03  0.21737179199E+03  0.17201156050E+03 0.  0.
         24    2    3    3    0    0 -0.46320377891E+02  0.18185341422E+02 -0.99211297899E+02  0.13771591952E+03  0.81526123473E+02 0.  0.
         -6    2    1    2    0  502 -0.21238085702E+02 -0.55138396060E+02 -0.10413078641E+03  0.19970219528E+03  0.15983255963E+03 0.  0.
        -24    2    5    5    0    0 -0.11165323270E+01 -0.18035737862E+02 -0.12740920557E+03  0.15127225667E+03  0.79521415289E+02 0.  0.
          5    1    3    3  501    0  0.67558463593E+02  0.36953054638E+02 -0.19831635544E+02  0.79655872467E+02  0.47000000000E+01 0. -1.
        -13    1    4    4    0    0 -0.91773621666E+01 -0.60444405944E+01  0.13021731091E+02  0.17038917778E+02  0.00000000000E+00 0.  1.
         14    1    4    4    0    0 -0.37143015724E+02  0.24229782016E+02 -0.11223302899E+03  0.12067700174E+03  0.00000000000E+00 0. -1.
         -5    1    5    5    0  502 -0.20121553375E+02 -0.37102658198E+02  0.23278419155E+02  0.48429938612E+02  0.47000000000E+01 0.  1.
         13    1    6    6    0    0 -0.22773603535E+02 -0.26769643896E+02 -0.12245732047E+03  0.12740112318E+03  0.00000000000E+00 0. -1.
        -14    1    6    6    0    0  0.21657071208E+02  0.87339060345E+01 -0.49518851024E+01  0.23871133487E+02  0.00000000000E+00 0.  1.
</event>
<event>
12    1  0.8258923E-002  0.2539939E+03  0.7818608E-02  0.1111279E+00
         21   -1    0    0  501  502  0.00000000000E+00  0.00000000000E+00  0.13248627272E+03  0.13248627272E+03  0.00000000000E+00 0.  1.
         21   -1    0    0  502  503 -0.00000000000E+00 -0.00000000000E+00 -0.57595064419E+03  0.57595064419E+03  0.00000000000E+00 0.  1.
         -6    2    1    2    0  503 -0.11938633064E+03 -0.14334001443E+03 -0.36433266817E+03  0.44240167737E+03  0.16787345047E+03 0.  0.
        -24    2    3    3    0    0 -0.90523722049E+02 -0.44590275139E+02 -0.28451970813E+03  0.31210678195E+03  0.79223368601E+02 0.  0.
          6    2    1    2  501    0  0.11938633064E+03  0.14334001443E+03 -0.79131703306E+02  0.26603523953E+03  0.17237594532E+03 0.  0.
         24    2    5    5    0    0  0.11386530118E+03  0.13052009164E+03 -0.57625612810E+01  0.19120240457E+03  0.80773456449E+02 0.  0.
          5    1    5    5  501    0  0.55210294588E+01  0.12819922791E+02 -0.73369142025E+02  0.74832834960E+02  0.47000000000E+01 0. -1.
        -13    1    6    6    0    0  0.86644080450E+02  0.54668240659E+02 -0.30517172357E+02  0.10689766612E+03  0.00000000000E+00 0.  1.
         14    1    6    6    0    0  0.27221220728E+02  0.75851850980E+02  0.24754611076E+02  0.84304738447E+02  0.00000000000E+00 0. -1.
         -5    1    3    3    0  503 -0.28862608587E+02 -0.98749739291E+02 -0.79812960034E+02  0.13029489543E+03  0.47000000000E+01 0.  1.
         13    1    4    4    0    0  0.13238610555E+02 -0.11533634973E+02 -0.60886852807E+02  0.63367928717E+02  0.00000000000E+00 0. -1.
        -14    1    4    4    0    0 -0.10376233260E+03 -0.33056640166E+02 -0.22363285532E+03  0.24873885323E+03  0.00000000000E+00 0.  1.
</event>
<event>
12    1  0.8258923E-002  0.1900044E+03  0.7818608E-02  0.1159845E+00
         21   -1    0    0  503  502  0.00000000000E+00  0.00000000000E+00  0.18431035063E+04  0.18431035063E+04  0.00000000000E+00 0. -1.
         21   -1    0    0  501  503 -0.00000000000E+00 -0.00000000000E+00 -0.19130855736E+02  0.19130855736E+02  0.00000000000E+00 0. -1.
          6    2    1    2  501    0 -0.20792415899E+02 -0.73535326866E+02  0.10122811108E+04  0.10299586046E+04  0.17395950924E+03 0.  0.
         24    2    3    3    0    0 -0.29978112737E+02  0.22450541302E+02  0.59024266252E+03  0.59701957214E+03  0.81506164292E+02 0.  0.
         -6    2    1    2    0  502  0.20792415899E+02  0.73535326866E+02  0.81169153972E+03  0.83227575749E+03  0.16733204114E+03 0.  0.
        -24    2    5    5    0    0  0.36607686449E+02  0.68737043173E+02  0.29099075013E+03  0.31129154603E+03  0.78497809888E+02 0.  0.
          5    1    3    3  501    0  0.91856968383E+01 -0.95985868168E+02  0.42203844833E+03  0.43293903241E+03  0.47000000000E+01 0. -1.
        -11    1    4    4    0    0 -0.56092031212E+02  0.13535710496E+01  0.36317506875E+03  0.36748371213E+03  0.00000000000E+00 0.  1.
         12    1    4    4    0    0  0.26113918474E+02  0.21096970252E+02  0.22706759376E+03  0.22953586001E+03  0.00000000000E+00 0. -1.
         -5    1    5    5    0  502 -0.15815270550E+02  0.47982836932E+01  0.52070078959E+03  0.52098421146E+03  0.47000000000E+01 0.  1.
         13    1    6    6    0    0 -0.16266465476E+02  0.30921052490E+02  0.45655902390E+02  0.57490614966E+02  0.00000000000E+00 0. -1.
        -14    1    6    6    0    0  0.52874151924E+02  0.37815990683E+02  0.24533484774E+03  0.25380093106E+03  0.00000000000E+00 0.  1.
</event>
<event>
12    1  0.8258923E-002  0.2284016E+03  0.7818608E-02  0.1127826E+00
         21   -1    0    0  501  502  0.00000000000E+00  0.00000000000E+00  0.59393553015E+02  0.59393553015E+02  0.00000000000E+00 0. -1.
         21   -1    0    0  502  503 -0.00000000000E+00 -0.00000000000E+00 -0.11034276998E+04  0.11034276998E+04  0.00000000000E+00 0.  1.
         -6    2    1    2    0  503 -0.14539193886E+03  0.37986146914E+02 -0.78560491545E+03  0.81813346998E+03  0.17200444262E+03 0.  0.
        -24    2    3    3    0    0 -0.11427993706E+03  0.65187177304E+02 -0.74213552753E+03  0.75797093682E+03  0.80284044138E+02 0.  0.
          6    2    1    2  501    0  0.14539193886E+03 -0.37986146914E+02 -0.25842923129E+03  0.34468778279E+03  0.17158740273E+03 0.  0.
         24    2    5    5    0    0  0.84826227562E+02  0.41551915808E+02 -0.19159169952E+03  0.22433889638E+03  0.68545681956E+02 0.  0.
          5    1    5    5  501    0  0.60565711297E+02 -0.79538062722E+02 -0.66837531769E+02  0.12034888641E+03  0.47000000000E+01 0. -1.
        -11    1    6    6    0    0  0.64180951003E+02  0.60702626428E+01 -0.66222892451E+02  0.92420311862E+02  0.00000000000E+00 0.  1.
         12    1    6    6    0    0  0.20645276559E+02  0.35481653165E+02 -0.12536880707E+03  0.13191858452E+03  0.00000000000E+00 0. -1.
         -5    1    3    3    0  503 -0.31112001801E+02 -0.27201030391E+02 -0.43469387925E+02  0.60162533166E+02  0.47000000000E+01 0.  1.
         11    1    4    4    0    0 -0.17834090762E+02  0.49112072585E+02 -0.18142022967E+03  0.18879446549E+03  0.00000000000E+00 0. -1.
        -12    1    4    4    0    0 -0.96445846296E+02  0.16075104719E+02 -0.56071529786E+03  0.56917647132E+03  0.00000000000E+00 0.  1.
</event>
<event>
12    1  0.8258923E-002  0.2285647E+03  0.7818608E-02  0.1128124E+00
         21   -1    0    0  501  502  0.00000000000E+00  0.00000000000E+00  0.58819014876E+03  0.58819014876E+03  0.00000000000E+00 0.  1.
         21   -1    0    0  502  503 -0.00000000000E+00 -0.00000000000E+00 -0.17122322366E+03  0.17122322366E+03  0.00000000000E+00 0.  1.
         -6    2    1    2    0  503 -0.14487615732E+03 -0.27163956209E+02 -0.57178577323E+02  0.23305247334E+03  0.17122232374E+03 0.  0.
        -24    2    3    3    0    0 -0.21268987340E+02 -0.37150129894E+02 -0.58134659799E+02  0.10894985359E+03  0.81596139327E+02 0.  0.
          6    2    1    2  501    0  0.14487615732E+03  0.27163956209E+02  0.47414550242E+03  0.52636089908E+03  0.17468502266E+03 0.  0.
         24    2    5    5    0    0  0.53255024711E+02  0.75405583448E+02  0.21059664604E+03  0.24316171787E+03  0.79085865004E+02 0.  0.
          5    1    5    5  501    0  0.91621132612E+02 -0.48241627239E+02  0.26354885638E+03  0.28319918122E+03  0.47000000000E+01 0. -1.
        -11    1    6    6    0    0  0.57002584906E+02  0.34471761519E+02  0.69795479458E+02  0.96483190147E+02  0.00000000000E+00 0.  1.
         12    1    6    6    0    0 -0.37475601950E+01  0.40933821929E+02  0.14080116658E+03  0.14667852772E+03  0.00000000000E+00 0. -1.
         -5    1    3    3    0  503 -0.12360716998E+03  0.99861736854E+01  0.95608247665E+00  0.12410261975E+03  0.47000000000E+01 0.  1.
         13    1    4    4    0    0  0.20856354235E+02  0.13925797864E+02 -0.95737251064E+01  0.26843464205E+02  0.00000000000E+00 0. -1.
        -14    1    4    4    0    0 -0.42125341575E+02 -0.51075927758E+02 -0.48560934693E+02  0.82106389383E+02  0.00000000000E+00 0.  1.
</event>
<event>
12    1  0.8258923E-002  0.2213409E+03  0.7818608E-02  0.1134409E+00
         21   -1    0    0  503  502  0.00000000000E+00  0.00000000000E+00  0.33953411388E+03  0.33953411388E+03  0.00000000000E+00 0. -1.
         21   -1    0    0  501  503 -0.00000000000E+00 -0.00000000000E+00 -0.13909015905E+03  0.13909015905E+03  0.00000000000E+00 0.  1.
          6    2    1    2  501    0 -0.13765676979E+03  0.20732058284E+02  0.10401345294E+03  0.24456208668E+03  0.17208315240E+03 0.  0.
         24    2    3    3    0    0 -0.59840250276E+02  0.73561121600E+02  0.55310357458E+02  0.13854132386E+03  0.84512535231E+02 0.  0.
         -6    2    1    2    0  502  0.13765676979E+03 -0.20732058284E+02  0.96430501892E+02  0.23406218625E+03  0.16157679545E+03 0.  0.
        -24    2    5    5    0    0  0.63901644648E+02 -0.38381766144E+02  0.11195914619E+03  0.15650859532E+03  0.80021933441E+02 0.  0.
          5    1    3    3  501    0 -0.77816519512E+02 -0.52829063316E+02  0.48703095481E+02  0.10602076282E+03  0.47000000000E+01 0. -1.
        -13    1    4    4    0    0 -0.52555208149E+02  0.17644269434E+02 -0.53789824618E+01  0.55698326723E+02  0.00000000000E+00 0.  1.
         14    1    4    4    0    0 -0.72850421269E+01  0.55916852166E+02  0.60689339920E+02  0.82842997138E+02  0.00000000000E+00 0. -1.
         -5    1    5    5    0  502  0.73755125141E+02  0.17649707860E+02 -0.15528644302E+02  0.77553590928E+02  0.47000000000E+01 0.  1.
         13    1    6    6    0    0 -0.17040852349E+02  0.16894997754E+01  0.30017062006E+02  0.34558198300E+02  0.00000000000E+00 0. -1.
        -14    1    6    6    0    0  0.80942496997E+02 -0.40071265919E+02  0.81942084188E+02  0.12195039702E+03  0.00000000000E+00 0.  1.
</event>
<event>
12    1  0.8258923E-002  0.1749950E+03  0.7818608E-02  0.1173889E+00
         21   -1    0    0  503  502  0.00000000000E+00  0.00000000000E+00  0.20978859682E+03  0.20978859682E+03  0.00000000000E+00 0.  1.
         21   -1    0    0  501  503 -0.00000000000E+00 -0.00000000000E+00 -0.14297350649E+03  0.14297350649E+03  0.00000000000E+00 0. -1.
          6    2    1    2  501    0 -0.15346458406E+02  0.43581005293E+01  0.45762780400E+02  0.17650537038E+03  0.16972155691E+03 0.  0.
         24    2    3    3    0    0 -0.27286856803E+02  0.31384789263E+02  0.87639196604E+02  0.12503946660E+03  0.78896526388E+02 0.  0.
         -6    2    1    2    0  502  0.15346458406E+02 -0.43581005293E+01  0.21052309926E+02  0.17625673292E+03  0.17426625985E+03 0.  0.
        -24    2    5    5    0    0 -0.31690379052E+02  0.47068725981E+02 -0.12636589626E+02  0.98705365970E+02  0.79770425497E+02 0.  0.
          5    1    3    3  501    0  0.11940398397E+02 -0.27026688733E+02 -0.41876416204E+02  0.51465903780E+02  0.47000000000E+01 0. -1.
        -11    1    4    4    0    0  0.19444549053E+02  0.71980716045E+01 -0.22763962474E+01  0.20858684105E+02  0.00000000000E+00 0.  1.
         12    1    4    4    0    0 -0.46731405857E+02  0.24186717658E+02  0.89915592852E+02  0.10418078250E+03  0.00000000000E+00 0. -1.
         -5    1    5    5    0  502  0.47036837459E+02 -0.51426826510E+02  0.33688899552E+02  0.77551366951E+02  0.47000000000E+01 0.  1.
         11    1    6    6    0    0  0.15517745245E+02  0.44342504005E+02  0.70103234532E+01  0.47499502248E+02  0.00000000000E+00 0. -1.
        -12    1    6    6    0    0 -0.47208124298E+02  0.27262219763E+01 -0.19646913079E+02  0.51205863722E+02  0.00000000000E+00 0.  1.
</event>
<event>
12    1  0.8258923E-002  0.1826062E+03  0.7818608E-02  0.1165637E+00
         21   -1    0    0  501  502  0.00000000000E+00  0.00000000000E+00  0.10157392636E+03  0.10157392636E+03  0.00000000000E+00 0.  1.
         21   -1    0    0  502  503 -0.00000000000E+00 -0.00000000000E+00 -0.35373922182E+03  0.35373922182E+03  0.00000000000E+00 0. -1.
         -6    2    1    2    0  503 -0.39614324736E+02 -0.44972919451E+02 -0.18964048138E+03  0.26229923457E+03  0.17101321021E+03 0.  0.
        -24    2    3    3    0    0 -0.50668369161E+00 -0.13767146084E+02 -0.19550816168E+03  0.21170548444E+03  0.80037365138E+02 0.  0.
          6    2    1    2  501    0  0.39614324736E+02  0.44972919451E+02 -0.62524814077E+02  0.19301391362E+03  0.17249104402E+03 0.  0.
         24    2    5    5    0    0  0.21472195230E+02  0.80561959802E+02 -0.87783697858E+02  0.14551846262E+03  0.80736366147E+02 0.  0.
          5    1    5    5  501    0  0.18142129506E+02 -0.35589040351E+02  0.25258883781E+02  0.47495451003E+02  0.47000000000E+01 0. -1.
        -11    1    6    6    0    0  0.96917204406E+01  0.40866293098E+02  0.65404277134E+01  0.42506006062E+02  0.00000000000E+00 0.  1.
         12    1    6    6    0    0  0.11780474790E+02  0.39695666704E+02 -0.94324125571E+02  0.10301245656E+03  0.00000000000E+00 0. -1.
         -5    1    3    3    0  503 -0.39107641044E+02 -0.31205773367E+02  0.58676803005E+01  0.50593750124E+02  0.47000000000E+01 0.  1.
         13    1    4    4    0    0 -0.11243865400E+01 -0.28648066756E+02 -0.18607947717E+02  0.34179404503E+02  0.00000000000E+00 0. -1.
        -14    1    4    4    0    0  0.61770284839E+00  0.14880920672E+02 -0.17690021397E+03  0.17752607994E+03  0.00000000000E+00 0.  1.
</event>
<event>
12    1  0.8258923E-002  0.1727982E+03  0.7818608E-02  0.1175047E+00
         21   -1    0    0  503  502  0.00000000000E+00  0.00000000000E+00  0.12804848084E+03  0.12804848084E+03  0.00000000000E+00 0.  1.
         21   -1    0    0  501  503 -0.00000000000E+00 -0.00000000000E+00 -0.32059230645E+03  0.32059230645E+03  0.00000000000E+00 0.  1.
          6    2    1    2  501    0  0.58202349950E+01 -0.16257733564E+02 -0.21363606467E+03  0.27456010363E+03  0.17159456094E+03 0.  0.
         24    2    3    3    0    0 -0.35910318017E+02 -0.70121346005E+01 -0.21536847868E+03  0.23152510145E+03  0.76691394695E+02 0.  0.
         -6    2    1    2    0  502 -0.58202349950E+01  0.16257733564E+02  0.21092239063E+02  0.17408068366E+03  0.17193316387E+03 0.  0.
        -24    2    5    5    0    0  0.41178072827E+02  0.36951368735E+02  0.55136493644E+02  0.11228935138E+03  0.80671111118E+02 0.  0.
          5    1    3    3  501    0  0.41730553012E+02 -0.92455989630E+01  0.17324140073E+01  0.43035002186E+02  0.47000000000E+01 0. -1.
        -11    1    4    4    0    0  0.18642018297E+01  0.16512636883E+02 -0.15823774374E+03  0.15910790668E+03  0.00000000000E+00 0.  1.
         12    1    4    4    0    0 -0.37774519846E+02 -0.23524771483E+02 -0.57130734941E+02  0.72417194767E+02  0.00000000000E+00 0. -1.
         -5    1    5    5    0  502 -0.46998307822E+02 -0.20693635171E+02 -0.34044254582E+02  0.61791332278E+02  0.47000000000E+01 0.  1.
         11    1    6    6    0    0  0.10396913560E+02 -0.25618857807E+02  0.20566982000E+02  0.34458996437E+02  0.00000000000E+00 0. -1.
        -12    1    6    6    0    0  0.30781159267E+02  0.62570226541E+02  0.34569511645E+02  0.77830354943E+02  0.00000000000E+00 0.  1.
</event>
<event>
12    1  0.8258923E-002  0.2158755E+03  0.7818608E-02  0.1137098E+00
         21   -1    0    0  503  502  0.00000000000E+00  0.00000000000E+00  0.59553616260E+02  0.59553616260E+02  0.00000000000E+00 0.  1.
         21   -1    0    0  501  503 -0.00000000000E+00 -0.00000000000E+00 -0.83722180335E+03  0.83722180335E+03  0.00000000000E+00 0.  1.
          6    2    1    2  501    0 -0.21078190042E+02  0.12867215901E+03 -0.27175876309E+03  0.34673308241E+03  0.17137733375E+03 0.  0.
         24    2    3    3    0    0 -0.72559795970E+02  0.11580493917E+03 -0.17199738314E+03  0.23363867925E+03  0.79550139606E+02 0.  0.
         -6    2    1    2    0  502  0.21078190042E+02 -0.12867215901E+03 -0.50590942400E+03  0.55004233720E+03  0.17205061121E+03 0.  0.
        -24    2    5    5    0    0  0.12095807289E+02 -0.68376063868E+02 -0.46457603048E+03  0.47623961564E+03  0.78432702026E+02 0.  0.
          5    1    3    3  501    0  0.51481605928E+02  0.12867219840E+02 -0.99761379954E+02  0.11309440316E+03  0.47000000000E+01 0. -1.
        -11    1    4    4    0    0 -0.17925045725E+02  0.95178687270E+02 -0.12804389261E+03  0.16054758862E+03  0.00000000000E+00 0.  1.
         12    1    4    4    0    0 -0.54634750244E+02  0.20626251898E+02 -0.43953490521E+02  0.73091090638E+02  0.00000000000E+00 0. -1.
         -5    1    5    5    0  502  0.89823827531E+01 -0.60296095140E+02 -0.41333393522E+02  0.73802721556E+02  0.47000000000E+01 0.  1.
         11    1    6    6    0    0  0.29947286117E+02 -0.71022094864E+02 -0.43353826909E+03  0.44033669921E+03  0.00000000000E+00 0. -1.
        -12    1    6    6    0    0 -0.17851478827E+02  0.26460309957E+01 -0.31037761388E+02  0.35902916432E+02  0.00000000000E+00 0.  1.
</event>
<event>
12    1  0.8258923E-002  0.2142973E+03  0.7818608E-02  0.1138304E+00
         21   -1    0    0  501  502  0.00000000000E+00  0.00000000000E+00  0.10696277948E+03  0.10696277948E+03  0.00000000000E+00 0. -1.
         21   -1    0    0  502  503 -0.00000000000E+00 -0.00000000000E+00 -0.43434623904E+03  0.43434623904E+03  0.00000000000E+00 0. -1.
         -6    2    1    2    0  503  0.10246985451E+03 -0.76525169974E+02 -0.19533810624E+03  0.28959623100E+03  0.17132667199E+03 0.  0.
        -24    2    3    3    0    0  0.54310901730E+02 -0.11479998815E+03 -0.95125492068E+02  0.17191486255E+03  0.66160028718E+02 0.  0.
          6    2    1    2  501    0 -0.10246985451E+03  0.76525169974E+02 -0.13204535332E+03  0.25171278753E+03  0.17195109581E+03 0.  0.
         24    2    5    5    0    0 -0.46265545766E+02  0.64687882804E+02 -0.15406821384E+03  0.19001884881E+03  0.77750405004E+02 0.  0.
          5    1    5    5  501    0 -0.56204308743E+02  0.11837287170E+02  0.22022860528E+02  0.61693938719E+02  0.47000000000E+01 0. -1.
        -13    1    6    6    0    0 -0.14649511744E+02 -0.17423233017E+02 -0.24981267510E+02  0.33797055633E+02  0.00000000000E+00 0.  1.
         14    1    6    6    0    0 -0.31616034022E+02  0.82111115821E+02 -0.12908694634E+03  0.15622179317E+03  0.00000000000E+00 0. -1.
         -5    1    3    3    0  503  0.48158952779E+02  0.38274818175E+02 -0.10021261417E+03  0.11768136844E+03  0.47000000000E+01 0.  1.
         13    1    4    4    0    0  0.21049054900E+02 -0.64679992457E+02 -0.88175365038E+02  0.11136183878E+03  0.00000000000E+00 0. -1.
        -14    1    4    4    0    0  0.33261846830E+02 -0.50119995691E+02 -0.69501270302E+01  0.60553023776E+02  0.00000000000E+00 0.  1.
</event>
<event>
12    1  0.8258923E-002  0.2003481E+03  0.7818608E-02  0.1149486E+00
         21   -1    0    0  503  502  0.00000000000E+00  0.00000000000E+00  0.20380307007E+03  0.20380307007E+03  0.00000000000E+00 0. -1.
         21   -1    0    0  501  503 -0.00000000000E+00 -0.00000000000E+00 -0.20749026136E+03  0.20749026136E+03  0.00000000000E+00 0.  1.
          6    2    1    2  501    0 -0.28378736233E+02 -0.98246556573E+02 -0.48601878607E+02  0.20597237786E+03  0.17206027807E+03 0.  0.
         24    2    3    3    0    0  0.39746395354E+02 -0.15474988592E+02 -0.36862111123E+02  0.98027585672E+02  0.80195642655E+02 0.  0.
         -6    2    1    2    0  502  0.28378736233E+02  0.98246556573E+02  0.44914687321E+02  0.20532095357E+03  0.17228356360E+03 0.  0.
        -24    2    5    5    0    0 -0.19967160602E+02  0.36503991626E+02 -0.30828608530E+02  0.96194389736E+02  0.81066198909E+02 0.  0.
          5    1    3    3  501    0 -0.68125131587E+02 -0.82771567981E+02 -0.11739767484E+02  0.10794479219E+03  0.47000000000E+01 0. -1.
        -11    1    4    4    0    0  0.47203425512E+02  0.78117926401E+01 -0.50880312316E+02  0.69842635014E+02  0.00000000000E+00 0.  1.
         12    1    4    4    0    0 -0.74570301582E+01 -0.23286781232E+02  0.14018201194E+02  0.28184950658E+02  0.00000000000E+00 0. -1.
         -5    1    5    5    0  502  0.48345896835E+02  0.61742564947E+02  0.75743295851E+02  0.10912656383E+03  0.47000000000E+01 0.  1.
         13    1    6    6    0    0 -0.31403850889E+02 -0.16242857593E+02 -0.21619350400E+02  0.41441869952E+02  0.00000000000E+00 0. -1.
        -14    1    6    6    0    0  0.11436690287E+02  0.52746849219E+02 -0.92092581304E+01  0.54752519783E+02  0.00000000000E+00 0.  1.
</event>
<event>
12    1  0.8258923E-002  0.1858205E+03  0.7818608E-02  0.1162307E+00
         21   -1    0    0  501  502  0.00000000000E+00  0.00000000000E+00  0.30021385413E+02  0.30021385413E+02  0.00000000000E+00 0.  1.
         21   -1    0    0  502  503 -0.00000000000E+00 -0.00000000000E+00 -0.11649057338E+04  0.11649057338E+04  0.00000000000E+00 0.  1.
         -6    2    1    2    0  503  0.11999779054E+02  0.69843728656E+02 -0.49878403119E+03  0.53224102866E+03  0.17167661952E+03 0.  0.
        -24    2    3    3    0    0  0.14379918298E+02  0.17879874284E+01 -0.14262338859E+03  0.16959830874E+03  0.90621059388E+02 0.  0.
          6    2    1    2  501    0 -0.11999779054E+02 -0.69843728656E+02 -0.63610031722E+03  0.66268609058E+03  0.17177630786E+03 0.  0.
         24    2    5    5    0    0  0.35127049336E+02 -0.23866070783E+01 -0.18841686647E+03  0.20747848598E+03  0.79415370588E+02 0.  0.
          5    1    5    5  501    0 -0.47126828389E+02 -0.67457121578E+02 -0.44768345075E+03  0.45520760460E+03  0.47000000000E+01 0. -1.
        -13    1    6    6    0    0 -0.55048389544E+01 -0.28203747766E+02 -0.28497673590E+02  0.40470631821E+02  0.00000000000E+00 0.  1.
         14    1    6    6    0    0  0.40631888290E+02  0.25817140687E+02 -0.15991919288E+03  0.16700785416E+03  0.00000000000E+00 0. -1.
         -5    1    3    3    0  503 -0.23801392440E+01  0.68055741228E+02 -0.35616064260E+03  0.36264271992E+03  0.47000000000E+01 0.  1.
         11    1    4    4    0    0  0.44975070109E+02 -0.34733200930E+01 -0.33617403182E+02  0.56257894384E+02  0.00000000000E+00 0. -1.
        -12    1    4    4    0    0 -0.30595151811E+02  0.52613075214E+01 -0.10900598541E+03  0.11334041436E+03  0.00000000000E+00 0.  1.
</event>
<event>
12    1  0.8258923E-002  0.1825402E+03  0.7818608E-02  0.1165443E+00
         21   -1    0    0  501  502  0.00000000000E+00  0.00000000000E+00  0.24666758653E+03  0.24666758653E+03  0.00000000000E+00 0.  1.
         21   -1    0    0  502  503 -0.00000000000E+00 -0.00000000000E+00 -0.15005322131E+03  0.15005322131E+03  0.00000000000E+00 0.  1.
         -6    2    1    2    0  503 -0.47409762533E+02  0.33343962254E+02 -0.14874278983E+02  0.18282677951E+03  0.17275671254E+03 0.  0.
        -24    2    3    3    0    0 -0.41655584576E+02 -0.46964165292E+02 -0.26882445870E+00  0.10086389025E+03  0.78947017304E+02 0.  0.
          6    2    1    2  501    0  0.47409762533E+02 -0.33343962254E+02  0.11148864421E+03  0.21389402833E+03  0.17309370920E+03 0.  0.
         24    2    5    5    0    0  0.40148986461E+02 -0.27841469317E+02  0.14889170645E+03  0.17511161785E+03  0.78155293672E+02 0.  0.
          5    1    5    5  501    0  0.72607760715E+01 -0.55024929374E+01 -0.37403062240E+02  0.38782410480E+02  0.47000000000E+01 0. -1.
        -13    1    6    6    0    0  0.54761557652E+02 -0.13375418077E+02  0.14301882678E+03  0.15372740426E+03  0.00000000000E+00 0.  1.
         14    1    6    6    0    0 -0.14612571191E+02 -0.14466051239E+02  0.58728796605E+01  0.21384213588E+02  0.00000000000E+00 0. -1.
         -5    1    3    3    0  503 -0.57541779563E+01  0.80308127547E+02 -0.14605454525E+02  0.81962889260E+02  0.47000000000E+01 0.  1.
         13    1    4    4    0    0  0.13840374085E+02 -0.30613347517E+02 -0.20753612391E+02  0.39489814235E+02  0.00000000000E+00 0. -1.
        -14    1    4    4    0    0 -0.55495958662E+02 -0.16350817775E+02  0.20484787932E+02  0.61374076012E+02  0.00000000000E+00 0.  1.
</event>
<event>
12    1  0.8258923E-002  0.2292210E+03  0.7818608E-02  0.1127238E+00
         21   -1    0    0  503  502  0.00000000000E+00  0.00000000000E+00  0.18821165922E+03  0.18821165922E+03  0.00000000000E+00 0.  1.
         21   -1    0    0  501  503 -0.00000000000E+00 -0.00000000000E+00 -0.28538546657E+03  0.28538546657E+03  0.00000000000E+00 0.  1.
          6    2    1    2  501    0  0.44870081898E+02  0.14468307482E+03 -0.12669469345E+02  0.22929558529E+03  0.17166663506E+03 0.  0.
         24    2    3    3    0    0 -0.79119372479E+01  0.46153446811E+02  0.46342861803E+02  0.10281011432E+03  0.78927304288E+02 0.  0.
         -6    2    1    2    0  502 -0.44870081898E+02 -0.14468307482E+03 -0.84504338004E+02  0.24430154050E+03  0.17203413371E+03 0.  0.
        -24    2    5    5    0    0  0.30045009288E+02 -0.89859830698E+02 -0.80247902918E+01  0.12393098679E+03  0.79479560083E+02 0.  0.
          5    1    3    3  501    0  0.52782019146E+02  0.98529628006E+02 -0.59012331148E+02  0.12648547097E+03  0.47000000000E+01 0. -1.
        -11    1    4    4    0    0 -0.37963736041E+02  0.23686181763E+02  0.20963087610E+01  0.44795925832E+02  0.00000000000E+00 0.  1.
         12    1    4    4    0    0  0.30051798793E+02  0.22467265049E+02  0.44246553042E+02  0.58014188485E+02  0.00000000000E+00 0. -1.
         -5    1    5    5    0  502 -0.74915091186E+02 -0.54823244119E+02 -0.76479547712E+02  0.12037055371E+03  0.47000000000E+01 0.  1.
         13    1    6    6    0    0  0.74096038260E+01  0.12233770986E+02 -0.12877454025E+02  0.19245680128E+02  0.00000000000E+00 0. -1.
        -14    1    6    6    0    0  0.22635405462E+02 -0.10209360168E+03  0.48526637336E+01  0.10468530666E+03  0.00000000000E+00 0.  1.
</event>
<event>
12    1  0.8258923E-002  0.1955197E+03  0.7818608E-02  0.1154102E+00
         21   -1    0    0  501  502  0.00000000000E+00  0.00000000000E+00  0.26642618966E+03  0.26642618966E+03  0.00000000000E+00 0. -1.
         21   -1    0    0  502  503 -0.00000000000E+00 -0.00000000000E+00 -0.21218176443E+03  0.21218176443E+03  0.00000000000E+00 0. -1.
         -6    2    1    2    0  503  0.84771667399E+02 -0.26110456166E+02 -0.11066483164E+03  0.22466564384E+03  0.17424108312E+03 0.  0.
        -24    2    3    3    0    0 -0.25664590696E+02 -0.78882493490E+01 -0.49757435618E+02  0.97150872879E+02  0.79003759458E+02 0.  0.
          6    2    1    2  501    0 -0.84771667399E+02  0.26110456166E+02  0.16490925687E+03  0.25394231025E+03  0.17153321084E+03 0.  0.
         24    2    5    5    0    0  0.12696922389E+02  0.13113981443E+02  0.12823741377E+03  0.14889018782E+03  0.73418426793E+02 0.  0.
          5    1    5    5  501    0 -0.97468589788E+02  0.12996474723E+02  0.36671843100E+02  0.10505212243E+03  0.47000000000E+01 0. -1.
        -13    1    6    6    0    0  0.15452939056E+02 -0.29242172485E+02  0.51800808401E+02  0.61459106145E+02  0.00000000000E+00 0.  1.
         14    1    6    6    0    0 -0.27560166674E+01  0.42356153928E+02  0.76436605369E+02  0.87431081680E+02  0.00000000000E+00 0. -1.
         -5    1    3    3    0  503  0.11043625810E+03 -0.18222206818E+02 -0.60907396025E+02  0.12751477096E+03  0.47000000000E+01 0.  1.
         11    1    4    4    0    0 -0.22759694750E+02 -0.42625882144E+02 -0.32669825218E+02  0.58329126630E+02  0.00000000000E+00 0. -1.
        -12    1    4    4    0    0 -0.29048959469E+01  0.34737632795E+02 -0.17087610400E+02  0.38821746249E+02  0.00000000000E+00 0.  1.
</event>
<event>
12    1  0.8258923E-002  0.1844227E+03  0.7818608E-02  0.1165850E+00
         21   -1    0    0  503  502  0.00000000000E+00  0.00000000000E+00  0.46759613930E+02  0.46759613930E+02  0.00000000000E+00 0.  1.
         21   -1    0    0  501  503 -0.00000000000E+00 -0.00000000000E+00 -0.14807492726E+04  0.14807492726E+04  0.00000000000E+00 0.  1.
          6    2    1    2  501    0  0.13604912379E+02  0.29622520995E+02 -0.12834535358E+04  0.12966359274E+04  0.18151904082E+03 0.  0.
         24    2    3    3    0    0 -0.56591155459E+02  0.64299481643E+02 -0.87163791597E+03  0.87741739929E+03  0.52646498596E+02 0.  0.
         -6    2    1    2    0  502 -0.13604912379E+02 -0.29622520995E+02 -0.15053612290E+03  0.23087295919E+03  0.17198433533E+03 0.  0.
        -24    2    5    5    0    0 -0.42585763421E+02  0.42097201637E+02 -0.12881033347E+03  0.15038874790E+03  0.49385745458E+02 0.  0.
          5    1    3    3  501    0  0.70196067838E+02 -0.34676960647E+02 -0.41181561985E+03  0.41921852809E+03  0.47000000000E+01 0. -1.
        -11    1    4    4    0    0 -0.66511665250E+01  0.46312969319E+02 -0.35813983881E+03  0.36118315753E+03  0.00000000000E+00 0.  1.
         12    1    4    4    0    0 -0.49939988934E+02  0.17986512324E+02 -0.51349807716E+03  0.51623424176E+03  0.00000000000E+00 0. -1.
         -5    1    5    5    0  502  0.28980851042E+02 -0.71719722633E+02 -0.21725789431E+02  0.80484211297E+02  0.47000000000E+01 0.  1.
         11    1    6    6    0    0 -0.24157559363E+02 -0.63008992725E+01 -0.31890920598E+02  0.40500861998E+02  0.00000000000E+00 0. -1.
        -12    1    6    6    0    0 -0.18428204058E+02  0.48398100910E+02 -0.96919412868E+02  0.10988788590E+03  0.00000000000E+00 0.  1.
</event>
<event>
12    1  0.8258923E-002  0.2361317E+03  0.7818608E-02  0.1122399E+00
         21   -1    0    0  501  502  0.00000000000E+00  0.00000000000E+00  0.32349291457E+03  0.32349291457E+03  0.00000000000E+00 0. -1.
         21   -1    0    0  502  503 -0.00000000000E+00 -0.00000000000E+00 -0.21921448082E+03  0.21921448082E+03  0.00000000000E+00 0. -1.
         -6    2    1    2    0  503 -0.25785636273E+02  0.15954744849E+03 -0.73324191204E+02  0.24724014698E+03  0.17213647464E+03 0.  0.
        -24    2    3    3    0    0 -0.11815265910E+02  0.11775740331E+03  0.20055715779E+02  0.14387924454E+03  0.79325902012E+02 0.  0.
          6    2    1    2  501    0  0.25785636273E+02 -0.15954744849E+03  0.17760262495E+03  0.29546724842E+03  0.17215665872E+03 0.  0.
         24    2    5    5    0    0 -0.14784097651E+02 -0.51102985559E+02  0.14826031956E+03  0.17592994990E+03  0.78359046959E+02 0.  0.
          5    1    5    5  501    0  0.40569733924E+02 -0.10844446293E+03  0.29342305391E+02  0.11953729852E+03  0.47000000000E+01 0. -1.
        -11    1    6    6    0    0 -0.92822845444E+01 -0.12061094745E+01 -0.76806882958E+01  0.12108198839E+02  0.00000000000E+00 0.  1.
         12    1    6    6    0    0 -0.55018131067E+01 -0.49896876085E+02  0.15594100786E+03  0.16382175106E+03  0.00000000000E+00 0. -1.
         -5    1    3    3    0  503 -0.13970370363E+02  0.41790045179E+02 -0.93379906983E+02  0.10336090244E+03  0.47000000000E+01 0.  1.
         13    1    4    4    0    0  0.20925192372E+02  0.10413281747E+03  0.83803765963E+01  0.10654453558E+03  0.00000000000E+00 0. -1.
        -14    1    4    4    0    0 -0.32740458282E+02  0.13624585842E+02  0.11675339183E+02  0.37334708957E+02  0.00000000000E+00 0.  1.
</event>
<event>
12    1  0.8258923E-002  0.2048295E+03  0.7818608E-02  0.1145875E+00
         21   -1    0    0  503  502  0.00000000000E+00  0.00000000000E+00  0.17130998831E+03  0.17130998831E+03  0.00000000000E+00 0. -1.
         21   -1    0    0  501  503 -0.00000000000E+00 -0.00000000000E+00 -0.40063150568E+03  0.40063150568E+03  0.00000000000E+00 0. -1.
          6    2    1    2  501    0 -0.10163012606E+03 -0.44599143212E+02 -0.29331930257E+03  0.35734691181E+03  0.17129750735E+03 0.  0.
         24    2    3    3    0    0 -0.10295576048E+03 -0.33763530489E+02 -0.30883906968E+03  0.33779899681E+03  0.83586641752E+02 0.  0.
         -6    2    1    2    0  502  0.10163012606E+03  0.44599143212E+02  0.63997785194E+02  0.21459458218E+03  0.17215502343E+03 0.  0.
        -24    2    5    5    0    0  0.72699942220E+01  0.68765230114E+02  0.20541907737E+02  0.10783158521E+03  0.80150927048E+02 0.  0.
          5    1    3    3  501    0  0.13256344148E+01 -0.10835612723E+02  0.15519767111E+02  0.19547915000E+02  0.47000000000E+01 0. -1.
        -11    1    4    4    0    0 -0.25708367195E+02  0.12764604256E+02 -0.19417240707E+02  0.34653780491E+02  0.00000000000E+00 0.  1.
         12    1    4    4    0    0 -0.77247393282E+02 -0.46528134745E+02 -0.28942182897E+03  0.30314521632E+03  0.00000000000E+00 0. -1.
         -5    1    5    5    0  502  0.94360131840E+02 -0.24166086902E+02  0.43455877457E+02  0.10676299697E+03  0.47000000000E+01 0.  1.
         11    1    6    6    0    0  0.22531643911E+02 -0.99268537607E+01 -0.15937355639E+01  0.24673009463E+02  0.00000000000E+00 0. -1.
        -12    1    6    6    0    0 -0.15261649689E+02  0.78692083875E+02  0.22135643301E+02  0.83158575746E+02  0.00000000000E+00 0.  1.
</event>
<event>
12    1  0.8258923E-002  0.2002134E+03  0.7818608E-02  0.1149788E+00
         21   -1    0    0  501  502  0.00000000000E+00  0.00000000000E+00  0.26269940833E+02  0.26269940833E+02  0.00000000000E+00 0. -1.
         21   -1    0    0  502  503 -0.00000000000E+00 -0.00000000000E+00 -0.20139287341E+04  0.20139287341E+04  0.00000000000E+00 0. -1.
         -6    2    1    2    0  503 -0.43489202264E+02  0.92060687580E+02 -0.14981831542E+04  0.15113586137E+04  0.17113040306E+03 0.  0.
        -24    2    3    3    0    0 -0.69985427423E+02  0.11915840882E+03 -0.11373827905E+04  0.11485427805E+04  0.80088825149E+02 0.  0.
          6    2    1    2  501    0  0.43489202264E+02 -0.92060687580E+02 -0.48947563915E+03  0.52884006129E+03  0.17239178690E+03 0.  0.
         24    2    5    5    0    0  0.66073190293E+02 -0.24436701609E+02 -0.40133087708E+03  0.41537363862E+03  0.80659580313E+02 0.  0.
          5    1    5    5  501    0 -0.22583988029E+02 -0.67623985971E+02 -0.88144762068E+02  0.11346642267E+03  0.47000000000E+01 0. -1.
        -13    1    6    6    0    0  0.68874934618E+02  0.90356957701E+01 -0.31858115478E+03  0.32606648493E+03  0.00000000000E+00 0.  1.
         14    1    6    6    0    0 -0.28017443250E+01 -0.33472397379E+02 -0.82749722306E+02  0.89307153685E+02  0.00000000000E+00 0. -1.
         -5    1    3    3    0  503  0.26496225159E+02 -0.27097721244E+02 -0.36080036365E+03  0.36281583324E+03  0.47000000000E+01 0.  1.
         13    1    4    4    0    0 -0.48323568576E+02  0.86136052920E+02 -0.10183758939E+04  0.10231539709E+04  0.00000000000E+00 0. -1.
        -14    1    4    4    0    0 -0.21661858847E+02  0.33022355904E+02 -0.11900689665E+03  0.12538880958E+03  0.00000000000E+00 0.  1.
</event>
<event>
12    1  0.8258923E-002  0.1728117E+03  0.7818608E-02  0.1175359E+00
         21   -1    0    0  503  502  0.00000000000E+00  0.00000000000E+00  0.35562251593E+03  0.35562251593E+03  0.00000000000E+00 0. -1.
         21   -1    0    0  501  503 -0.00000000000E+00 -0.00000000000E+00 -0.12338777783E+03  0.12338777783E+03  0.00000000000E+00 0. -1.
          6    2    1    2  501    0  0.12264675962E+02 -0.60771082222E+01 -0.20936318454E+02  0.17248219210E+03  0.17065879304E+03 0.  0.
         24    2    3    3    0    0  0.35021179729E+02  0.31561438431E+02  0.39259076219E+02  0.97782164004E+02  0.76141113115E+02 0.  0.
         -6    2    1    2    0  502 -0.12264675962E+02  0.60771082222E+01  0.25317105655E+03  0.30652810166E+03  0.17226880076E+03 0.  0.
        -24    2    5    5    0    0  0.51519991360E+02 -0.14462901814E+02  0.89215557402E+02  0.12934494361E+03  0.76858400427E+02 0.  0.
          5    1    3    3  501    0 -0.22756503767E+02 -0.37638546653E+02 -0.60195394672E+02  0.74700028097E+02  0.47000000000E+01 0. -1.
        -11    1    4    4    0    0 -0.51738507478E+01  0.35308935449E+02 -0.70202437742E+01  0.36369952939E+02  0.00000000000E+00 0.  1.
         12    1    4    4    0    0  0.40195030477E+02 -0.37474970185E+01  0.46279319993E+02  0.61412211065E+02  0.00000000000E+00 0. -1.
         -5    1    5    5    0  502 -0.63784667321E+02  0.20540010036E+02  0.16395549915E+03  0.17718315805E+03  0.47000000000E+01 0.  1.
         11    1    6    6    0    0  0.52521517721E+02  0.12837785396E+02  0.86343934158E+02  0.10187538232E+03  0.00000000000E+00 0. -1.
        -12    1    6    6    0    0 -0.10015263616E+01 -0.27300687210E+02  0.28716232431E+01  0.27469561286E+02  0.00000000000E+00 0.  1.
</event>
<event>
12    1  0.8258923E-002  0.1830416E+03  0.7818608E-02  0.1164970E+00
         21   -1    0    0  501  502  0.00000000000E+00  0.00000000000E+00  0.15355193366E+03  0.15355193366E+03  0.00000000000E+00 0.  1.
         21   -1    0    0  502  503 -0.00000000000E+00 -0.00000000000E+00 -0.25841018976E+03  0.25841018976E+03  0.00000000000E+00 0.  1.
         -6    2    1    2    0  503  0.75816536314E+01 -0.63647162116E+02 -0.13412500685E+03  0.22692235102E+03  0.17145201432E+03 0.  0.
        -24    2    3    3    0    0 -0.41971330299E+02 -0.91481577826E+02 -0.78371677365E+02  0.14716787364E+03  0.73387952489E+02 0.  0.
          6    2    1    2  501    0 -0.75816536314E+01  0.63647162116E+02  0.29266750751E+02  0.18503977240E+03  0.17109860301E+03 0.  0.
         24    2    5    5    0    0  0.51216619940E+02  0.73728947844E+02  0.33928986328E+02  0.12501722814E+03  0.80118857399E+02 0.  0.
          5    1    5    5  501    0 -0.58798273572E+02 -0.10081785728E+02 -0.46622355776E+01  0.60022544257E+02  0.47000000000E+01 0. -1.
        -13    1    6    6    0    0 -0.12786803380E+02  0.50393197819E+02  0.18352588530E+02  0.55134328988E+02  0.00000000000E+00 0.  1.
         14    1    6    6    0    0  0.64003423321E+02  0.23335750025E+02  0.15576397798E+02  0.69882899155E+02  0.00000000000E+00 0. -1.
         -5    1    3    3    0  503  0.49552983931E+02  0.27834415710E+02 -0.55753329481E+02  0.79754477383E+02  0.47000000000E+01 0.  1.
         13    1    4    4    0    0 -0.23703167571E+01  0.46815629469E+01  0.96079035422E+01  0.10947476587E+02  0.00000000000E+00 0. -1.
        -14    1    4    4    0    0 -0.39601013542E+02 -0.96163140773E+02 -0.87979580908E+02  0.13622039705E+03  0.00000000000E+00 0.  1.
</event>
<event>
12    1  0.8258923E-002  0.1872316E+03  0.7818608E-02  0.1161225E+00
         21   -1    0    0  503  502  0.00000000000E+00  0.00000000000E+00  0.98984924685E+03  0.98984924685E+03  0.00000000000E+00 0.  1.
         21   -1    0    0  501  503 -0.00000000000E+00 -0.00000000000E+00 -0.42937788758E+02  0.42937788758E+02  0.00000000000E+00 0.  1.
          6    2    1    2  501    0 -0.31395828411E+02 -0.63516051470E+02  0.25337488394E+03  0.31442176597E+03  0.17216918502E+03 0.  0.
         24    2    3    3    0    0  0.31298946477E+02 -0.75686441659E-01  0.10411799752E+03  0.14048205557E+03  0.88966402361E+02 0.  0.
         -6    2    1    2    0  502  0.31395828411E+02  0.63516051470E+02  0.69353657415E+03  0.71836526963E+03  0.17330809011E+03 0.  0.
        -24    2    5    5    0    0  0.38157499293E+02 -0.28073119139E+02  0.30291155639E+03  0.31706202909E+03  0.80801141881E+02 0.  0.
          5    1    3    3  501    0 -0.62694774889E+02 -0.63440365028E+02  0.14925688642E+03  0.17393971041E+03  0.47000000000E+01 0. -1.
        -13    1    4    4    0    0  0.12169299699E+02 -0.14497986614E+02 -0.11673231359E+02  0.22238430731E+02  0.00000000000E+00 0.  1.
         14    1    4    4    0    0  0.19129646778E+02  0.14422300173E+02  0.11579122888E+03  0.11824362483E+03  0.00000000000E+00 0. -1.
         -5    1    5    5    0  502 -0.67616708812E+01  0.91589170609E+02  0.39062501776E+03  0.40130324054E+03  0.47000000000E+01 0.  1.
         13    1    6    6    0    0  0.22832474413E+02 -0.10584396476E+02  0.28873166145E+03  0.28982636812E+03  0.00000000000E+00 0. -1.
        -14    1    6    6    0    0  0.15325024880E+02 -0.17488722664E+02  0.14179894938E+02  0.27235660969E+02  0.00000000000E+00 0.  1.
</event>
<event>
12    1  0.8258923E-002  0.1741776E+03  0.7818608E-02  0.1176006E+00
         21   -1    0    0  503  502  0.00000000000E+00  0.00000000000E+00  0.13726187144E+03  0.13726187144E+03  0.00000000000E+00 0.  1.
         21   -1    0    0  501  503 -0.00000000000E+00 -0.00000000000E+00 -0.21553495415E+03  0.21553495415E+03  0.00000000000E+00 0.  1.
          6    2    1    2  501    0 -0.29181685435E+02 -0.13461483457E+01 -0.70296979624E+02  0.18782839496E+03  0.17171038911E+03 0.  0.
         24    2    3    3    0    0 -0.12523916006E+02 -0.62701898309E+02 -0.14772139480E+02  0.10328782950E+03  0.79760786694E+02 0.  0.
         -6    2    1    2    0  502  0.29181685435E+02  0.13461483457E+01 -0.79761030856E+01  0.16496843062E+03  0.16216529222E+03 0.  0.
        -24    2    5    5    0    0  0.76617182396E+02  0.14960059199E+02  0.25305590689E+01  0.11429353654E+03  0.83442271996E+02 0.  0.
          5    1    3    3  501    0 -0.16657769429E+02  0.61355749963E+02 -0.55524840144E+02  0.84540565464E+02  0.47000000000E+01 0. -1.
        -11    1    4    4    0    0 -0.21921355580E+02 -0.84157473793E+00 -0.31624087426E+02  0.38488140823E+02  0.00000000000E+00 0.  1.
         12    1    4    4    0    0  0.93974395742E+01 -0.61860323571E+02  0.16851947946E+02  0.64799688676E+02  0.00000000000E+00 0. -1.
         -5    1    5    5    0  502 -0.47435496961E+02 -0.13613910854E+02 -0.10506662154E+02  0.50674894083E+02  0.47000000000E+01 0.  1.
         13    1    6    6    0    0  0.37279756982E+01  0.34973675805E+02  0.13972418140E+02  0.37845531715E+02  0.00000000000E+00 0. -1.
        -14    1    6    6    0    0  0.72889206698E+02 -0.20013616605E+02 -0.11441859071E+02  0.76448004824E+02  0.00000000000E+00 0.  1.
</event>
<event>
12    1  0.8258923E-002  0.1815087E+03  0.7818608E-02  0.1166430E+00
         21   -1    0    0  503  502  0.00000000000E+00  0.00000000000E+00  0.68837633461E+03  0.68837633461E+03  0.00000000000E+00 0. -1.
         21   -1    0    0  501  503 -0.00000000000E+00 -0.00000000000E+00 -0.17129792692E+03  0.17129792692E+03  0.00000000000E+00 0. -1.
          6    2    1    2  501    0 -0.21974038176E+02 -0.47838838109E+02 -0.10640619012E+03  0.21039885385E+03  0.17370661363E+03 0.  0.
         24    2    3    3    0    0 -0.29153080879E+02  0.18333449328E+02 -0.18820938983E+01  0.86392051738E+02  0.79208754801E+02 0.  0.
         -6    2    1    2    0  502  0.21974038176E+02  0.47838838109E+02  0.62348459782E+03  0.64927540768E+03  0.17336117938E+03 0.  0.
        -24    2    5    5    0    0 -0.16073465686E+02  0.47484039729E+02  0.59279061807E+03  0.60016381205E+03  0.79264078251E+02 0.  0.
          5    1    3    3  501    0  0.71790427031E+01 -0.66172287437E+02 -0.10452409623E+03  0.12400680211E+03  0.47000000000E+01 0. -1.
        -13    1    4    4    0    0  0.22442003106E+02  0.17935802050E+02 -0.16020157838E+02  0.32893494125E+02  0.00000000000E+00 0.  1.
         14    1    4    4    0    0 -0.51595083984E+02  0.39764727736E+00  0.14138063940E+02  0.53498557613E+02  0.00000000000E+00 0. -1.
         -5    1    5    5    0  502  0.38047503861E+02  0.35479837982E+00  0.30693979750E+02  0.49111595625E+02  0.47000000000E+01 0.  1.
         11    1    6    6    0    0 -0.45883098136E+02  0.44120583457E+02  0.41752841664E+03  0.42235277113E+03  0.00000000000E+00 0. -1.
        -12    1    6    6    0    0  0.29809632450E+02  0.33634562720E+01  0.17526220142E+03  0.17781104092E+03  0.00000000000E+00 0.  1.
</event>
<event>
12    1  0.8258923E-002  0.2243861E+03  0.7818608E-02  0.1131332E+00
         21   -1    0    0  503  502  0.00000000000E+00  0.00000000000E+00  0.92162153271E+02  0.92162153271E+02  0.00000000000E+00 0.  1.
         21   -1    0    0  501  503 -0.00000000000E+00 -0.00000000000E+00 -0.75785061198E+03  0.75785061198E+03  0.00000000000E+00 0. -1.
          6    2    1    2  501    0  0.13436829659E+03  0.47362341971E+02 -0.56404787345E+03  0.60704127503E+03  0.17335246027E+03 0.  0.
         24    2    3    3    0    0  0.95299541454E+02  0.64325375654E+02 -0.53883790293E+03  0.55732463040E+03  0.83932719881E+02 0.  0.
         -6    2    1    2    0  502 -0.13436829659E+03 -0.47362341971E+02 -0.10164058525E+03  0.24297149022E+03  0.16854170380E+03 0.  0.
        -24    2    5    5    0    0 -0.96600369284E+02 -0.49256792062E+02 -0.13622826977E+03  0.19150885140E+03  0.79747324517E+02 0.  0.
          5    1    3    3  501    0  0.39068755137E+02 -0.16963033683E+02 -0.25209970525E+02  0.49716644633E+02  0.47000000000E+01 0. -1.
        -11    1    4    4    0    0  0.35766807227E+02  0.68239552521E+02 -0.37814228329E+03  0.38591124296E+03  0.00000000000E+00 0.  1.
         12    1    4    4    0    0  0.59532734227E+02 -0.39141768672E+01 -0.16069561963E+03  0.17141338744E+03  0.00000000000E+00 0. -1.
         -5    1    5    5    0  502 -0.37767927306E+02  0.18944500906E+01  0.34587684517E+02  0.51462638820E+02  0.47000000000E+01 0.  1.
         13    1    6    6    0    0 -0.23537596464E+02  0.18818994921E+02 -0.12799856129E+02  0.32741553629E+02  0.00000000000E+00 0. -1.
        -14    1    6    6    0    0 -0.73062772820E+02 -0.68075786982E+02 -0.12342841364E+03  0.15876729777E+03  0.00000000000E+00 0.  1.
</event>
<event>
12    1  0.8258923E-002  0.2014728E+03  0.7818608E-02  0.1148699E+00
         21   -1    0    0  501  502  0.00000000000E+00  0.00000000000E+00  0.26991810679E+03  0.26991810679E+03  0.00000000000E+00 0. -1.
         21   -1    0    0  502  503 -0.00000000000E+00 -0.00000000000E+00 -0.15618433166E+03  0.15618433166E+03  0.00000000000E+00 0. -1.
         -6    2    1    2    0  503 -0.99648670955E+02  0.30602018363E+02  0.13269224614E+02  0.20097044197E+03  0.17130880034E+03 0.  0.
        -24    2    3    3    0    0 -0.46027347913E+02  0.14799486019E+02  0.73729378143E+02  0.11849325435E+03  0.79164945417E+02 0.  0.
          6    2    1    2  501    0  0.99648670955E+02 -0.30602018363E+02  0.10046455052E+03  0.22513199648E+03  0.17240924794E+03 0.  0.
         24    2    5    5    0    0 -0.33316533129E+01  0.26251578905E+02  0.55344761103E+02  0.99055971377E+02  0.77774016066E+02 0.  0.
          5    1    5    5  501    0  0.10298032427E+03 -0.56853597269E+02  0.45119789418E+02  0.12607602510E+03  0.47000000000E+01 0. -1.
        -13    1    6    6    0    0 -0.24748409212E+02  0.42892777452E+02  0.17553603346E+02  0.52539538507E+02  0.00000000000E+00 0.  1.
         14    1    6    6    0    0  0.21416755899E+02 -0.16641198547E+02  0.37791157757E+02  0.46516432870E+02  0.00000000000E+00 0. -1.
         -5    1    3    3    0  503 -0.53621323042E+02  0.15802532345E+02 -0.60460153529E+02  0.82477187621E+02  0.47000000000E+01 0.  1.
         11    1    4    4    0    0 -0.54215557692E+02 -0.12081607309E+02  0.22234842503E+02  0.59830428313E+02  0.00000000000E+00 0. -1.
        -12    1    4    4    0    0  0.81882097788E+01  0.26881093328E+02  0.51494535640E+02  0.58662826038E+02  0.00000000000E+00 0.  1.
</event>
<event>
12    1  0.8258923E-002  0.2652229E+03  0.7818608E-02  0.1104069E+00
         21   -1    0    0  501  502  0.00000000000E+00  0.00000000000E+00  0.11832075581E+04  0.11832075581E+04  0.00000000000E+00 0.  1.
         21   -1    0    0  502  503 -0.00000000000E+00 -0.00000000000E+00 -0.11474632650E+03  0.11474632650E+03  0.00000000000E+00 0. -1.
         -6    2    1    2    0  503  0.34875226051E+02  0.19936431698E+03  0.83486973436E+02  0.27789630310E+03  0.17115451577E+03 0.  0.
        -24    2    3    3    0    0  0.64151372811E+02  0.19599782667E+03  0.10016130371E+03  0.24371225249E+03  0.82660925226E+02 0.  0.
          6    2    1    2  501    0 -0.34875226051E+02 -0.19936431698E+03  0.98497425813E+03  0.10200575815E+04  0.17140819135E+03 0.  0.
         24    2    5    5    0    0 -0.92459115051E+00 -0.18172909739E+03  0.93802397834E+03  0.95931167336E+03  0.85811322044E+02 0.  0.
          5    1    5    5  501    0 -0.33950634900E+02 -0.17635219588E+02  0.46950279782E+02  0.60745908106E+02  0.47000000000E+01 0. -1.
        -13    1    6    6    0    0  0.32956048706E+01 -0.19078998063E+03  0.88235684213E+03  0.90275427142E+03  0.00000000000E+00 0.  1.
         14    1    6    6    0    0 -0.42201960211E+01  0.90608832410E+01  0.55667136217E+02  0.56557401940E+02  0.00000000000E+00 0. -1.
         -5    1    3    3    0  503 -0.29276146760E+02  0.33664903128E+01 -0.16674330278E+02  0.34184050614E+02  0.47000000000E+01 0.  1.
         13    1    4    4    0    0  0.25036428291E+02  0.11971369299E+03  0.15595988731E+02  0.12329406269E+03  0.00000000000E+00 0. -1.
        -14    1    4    4    0    0  0.39114944520E+02  0.76284133683E+02  0.84565314983E+02  0.12041818980E+03  0.00000000000E+00 0.  1.
</event>
<event>
12    1  0.8258923E-002  0.2045101E+03  0.7818608E-02  0.1146284E+00
         21   -1    0    0  501  502  0.00000000000E+00  0.00000000000E+00  0.48767643620E+02  0.48767643620E+02  0.00000000000E+00 0.  1.
         21   -1    0    0  502  503 -0.00000000000E+00 -0.00000000000E+00 -0.88029129853E+03  0.88029129853E+03  0.00000000000E+00 0. -1.
         -6    2    1    2    0  503 -0.42541524242E+01  0.10995193618E+03 -0.33050406618E+03  0.38790739866E+03  0.17068006941E+03 0.  0.
        -24    2    3    3    0    0  0.55121475174E+02  0.52286091977E+02 -0.12631393166E+03  0.16752927866E+03  0.79615560278E+02 0.  0.
          6    2    1    2  501    0  0.42541524242E+01 -0.10995193618E+03 -0.50101958873E+03  0.54115154348E+03  0.17238572633E+03 0.  0.
         24    2    5    5    0    0  0.65119594815E+02 -0.46669260125E+02 -0.29887199483E+03  0.32070871896E+03  0.84326933132E+02 0.  0.
          5    1    5    5  501    0 -0.60865442391E+02 -0.63282676056E+02 -0.20214759390E+03  0.22044282453E+03  0.47000000000E+01 0. -1.
        -11    1    6    6    0    0  0.58835660775E+02 -0.77272853387E+01 -0.87735812418E+02  0.10591939718E+03  0.00000000000E+00 0.  1.
         12    1    6    6    0    0  0.62839340403E+01 -0.38941974786E+02 -0.21113618241E+03  0.21478932178E+03  0.00000000000E+00 0. -1.
         -5    1    3    3    0  503 -0.59375627598E+02  0.57665844203E+02 -0.20419013452E+03  0.22037812000E+03  0.47000000000E+01 0.  1.
         13    1    4    4    0    0  0.37319809744E+02  0.11245419388E+02 -0.11494262838E+03  0.12137147719E+03  0.00000000000E+00 0. -1.
        -14    1    4    4    0    0  0.17801665430E+02  0.41040672589E+02 -0.11371303282E+02  0.46157801475E+02  0.00000000000E+00 0.  1.
</event>
<event>
12    1  0.8258923E-002  0.1843933E+03  0.7818608E-02  0.1164344E+00
         21   -1    0    0  501  502  0.00000000000E+00  0.00000000000E+00  0.11076521385E+04  0.11076521385E+04  0.00000000000E+00 0. -1.
         21   -1    0    0  502  503 -0.00000000000E+00 -0.00000000000E+00 -0.73983239168E+02  0.73983239168E+02  0.00000000000E+00 0. -1.
         -6    2    1    2    0  503  0.58314122703E+02  0.11202558139E+02  0.64038101404E+02  0.19519670109E+03  0.17457044272E+03 0.  0.
        -24    2    3    3    0    0  0.65846775069E+02 -0.31306655348E+02 -0.12312314924E+02  0.10736020437E+03  0.77837753875E+02 0.  0.
          6    2    1    2  501    0 -0.58314122703E+02 -0.11202558139E+02  0.96963079794E+03  0.98643867659E+03  0.17132233986E+03 0.  0.
         24    2    5    5    0    0 -0.53898705330E+02  0.16117723700E+02  0.31014003250E+03  0.32635076319E+03  0.84576175265E+02 0.  0.
          5    1    5    5  501    0 -0.44154173735E+01 -0.27320281839E+02  0.65949076545E+03  0.66008791341E+03  0.47000000000E+01 0. -1.
        -13    1    6    6    0    0 -0.73746820201E+02 -0.47513969780E+00  0.25487820346E+03  0.26533322039E+03  0.00000000000E+00 0.  1.
         14    1    6    6    0    0  0.19848114871E+02  0.16592863398E+02  0.55261829040E+02  0.61017542793E+02  0.00000000000E+00 0. -1.
         -5    1    3    3    0  503 -0.75326523653E+01  0.42509213487E+02  0.76350416327E+02  0.87836496721E+02  0.47000000000E+01 0.  1.
         11    1    4    4    0    0 -0.52069850140E+01  0.18762419775E+02 -0.51607376494E+01  0.20143840295E+02  0.00000000000E+00 0. -1.
        -12    1    4    4    0    0  0.71053760083E+02 -0.50069075122E+02 -0.71515772742E+01  0.87216364078E+02  0.00000000000E+00 0.  1.
</event>
<event>
12    1  0.8258923E-002  0.1838178E+03  0.7818608E-02  0.1167066E+00
         21   -1    0    0  503  502  0.00000000000E+00  0.00000000000E+00  0.57288787524E+02  0.57288787524E+02  0.00000000000E+00 0. -1.
         21   -1    0    0  501  503 -0.00000000000E+00 -0.00000000000E+00 -0.55821396991E+03  0.55821396991E+03  0.00000000000E+00 0. -1.
          6    2    1    2  501    0  0.59440182487E+02  0.19310661262E+02 -0.29070524805E+03  0.34394551683E+03  0.17286682843E+03 0.  0.
         24    2    3    3    0    0  0.29489538476E+02  0.14014256316E+02 -0.30098420557E+03  0.31149802156E+03  0.73304114307E+02 0.  0.
         -6    2    1    2    0  502 -0.59440182487E+02 -0.19310661262E+02 -0.21021993433E+03  0.27155724060E+03  0.16014017984E+03 0.  0.
        -24    2    5    5    0    0 -0.34455754459E+02  0.15816811921E+02 -0.36840795753E+02  0.92837972723E+02  0.76316933854E+02 0.  0.
          5    1    3    3  501    0  0.29950644011E+02  0.52964049467E+01  0.10278957515E+02  0.32447495275E+02  0.47000000000E+01 0. -1.
        -13    1    4    4    0    0  0.10520541457E+02 -0.29532452617E+02 -0.92387648860E+02  0.97561904512E+02  0.00000000000E+00 0.  1.
         14    1    4    4    0    0  0.18968997018E+02  0.43546708933E+02 -0.20859655671E+03  0.21393611705E+03  0.00000000000E+00 0. -1.
         -5    1    5    5    0  502 -0.24984428027E+02 -0.35127473183E+02 -0.17337913858E+03  0.17871926788E+03  0.47000000000E+01 0.  1.
         13    1    6    6    0    0 -0.28933986297E+02 -0.20784057622E+02 -0.42430700276E+02  0.55403221388E+02  0.00000000000E+00 0. -1.
        -14    1    6    6    0    0 -0.55217681626E+01  0.36600869543E+02  0.55899045228E+01  0.37434751335E+02  0.00000000000E+00 0.  1.
</event>
<event>
12    1  0.8258923E-002  0.2446875E+03  0.7818608E-02  0.1117038E+00
         21   -1    0    0  503  502  0.00000000000E+00  0.00000000000E+00  0.10002600318E+03  0.10002600318E+03  0.00000000000E+00 0. -1.
         21   -1    0    0  501  503 -0.00000000000E+00 -0.00000000000E+00 -0.59500529634E+03  0.59500529634E+03  0.00000000000E+00 0.  1.
          6    2    1    2  501    0  0.12065578528E+03  0.12261261212E+03 -0.26311608645E+03  0.35793706058E+03  0.17116422879E+03 0.  0.
         24    2    3    3    0    0  0.10816515462E+03  0.15458906236E+03 -0.24259516473E+03  0.31766663157E+03  0.80387785051E+02 0.  0.
         -6    2    1    2    0  502 -0.12065578528E+03 -0.12261261212E+03 -0.23186320672E+03  0.33709423894E+03  0.17401237922E+03 0.  0.
        -24    2    5    5    0    0 -0.39438563277E+02  0.88211128760E+01 -0.11577524870E+03  0.14378214616E+03  0.75074529885E+02 0.  0.
          5    1    3    3  501    0  0.12490630663E+02 -0.31976450245E+02 -0.20520921717E+02  0.40270429011E+02  0.47000000000E+01 0. -1.
        -13    1    4    4    0    0  0.63043918388E+02  0.14050925452E+03 -0.15722228978E+03  0.22008233608E+03  0.00000000000E+00 0.  1.
         14    1    4    4    0    0  0.45121236231E+02  0.14079807841E+02 -0.85372874958E+02  0.97584295491E+02  0.00000000000E+00 0. -1.
         -5    1    5    5    0  502 -0.81217222005E+02 -0.13143372500E+03 -0.11608795801E+03  0.19331209277E+03  0.47000000000E+01 0.  1.
         11    1    6    6    0    0 -0.24348933569E+02 -0.28977213670E+01  0.18734292744E+01  0.24592216092E+02  0.00000000000E+00 0. -1.
        -12    1    6    6    0    0 -0.15089629708E+02  0.11718834243E+02 -0.11764867798E+03  0.11918993007E+03  0.00000000000E+00 0.  1.
</event>
<event>
12    1  0.8258923E-002  0.2829894E+03  0.7818608E-02  0.1094135E+00
         21   -1    0    0  503  502  0.00000000000E+00  0.00000000000E+00  0.26284723866E+03  0.26284723866E+03  0.00000000000E+00 0. -1.
         21   -1    0    0  501  503 -0.00000000000E+00 -0.00000000000E+00 -0.33809924807E+03  0.33809924807E+03  0.00000000000E+00 0.  1.
          6    2    1    2  501    0  0.18936225957E+03  0.12265753759E+03 -0.13283038072E+03  0.31215885811E+03  0.16998913430E+03 0.  0.
         24    2    3    3    0    0  0.15698815366E+03  0.56459266842E+02 -0.14753600501E+03  0.23686849240E+03  0.80665238583E+02 0.  0.
         -6    2    1    2    0  502 -0.18936225957E+03 -0.12265753759E+03  0.57578371319E+02  0.28878762862E+03  0.17082180400E+03 0.  0.
        -24    2    5    5    0    0 -0.20406037494E+03 -0.14015694544E+03  0.53302329938E+02  0.26506762861E+03  0.78326900790E+02 0.  0.
          5    1    3    3  501    0  0.32374105903E+02  0.66198270746E+02  0.14705624292E+02  0.75290365709E+02  0.47000000000E+01 0. -1.
        -11    1    4    4    0    0  0.58000554662E+02  0.44680332557E+01 -0.90378951736E+01  0.58870291416E+02  0.00000000000E+00 0.  1.
         12    1    4    4    0    0  0.98987599002E+02  0.51991233586E+02 -0.13849810984E+03  0.17799820099E+03  0.00000000000E+00 0. -1.
         -5    1    5    5    0  502  0.14698115368E+02  0.17499407848E+02  0.42760413816E+01  0.23720000007E+02  0.47000000000E+01 0.  1.
         11    1    6    6    0    0 -0.20698847470E+03 -0.13050304000E+03  0.39331315712E+02  0.24783507521E+03  0.00000000000E+00 0. -1.
        -12    1    6    6    0    0  0.29280997601E+01 -0.96539054324E+01  0.13971014226E+02  0.17232553404E+02  0.00000000000E+00 0.  1.
</event>
<event>
12    1  0.8258923E-002  0.2384037E+03  0.7818608E-02  0.1120901E+00
         21   -1    0    0  503  502  0.00000000000E+00  0.00000000000E+00  0.59253739017E+03  0.59253739017E+03  0.00000000000E+00 0.  1.
         21   -1    0    0  501  503 -0.00000000000E+00 -0.00000000000E+00 -0.12320485598E+03  0.12320485598E+03  0.00000000000E+00 0. -1.
          6    2    1    2  501    0 -0.49861040951E+02 -0.15589711142E+03  0.66047721613E+02  0.24738355261E+03  0.17333865067E+03 0.  0.
         24    2    3    3    0    0  0.17224025221E+02 -0.92634549615E+02  0.87533629705E+02  0.15258749744E+03  0.82115657569E+02 0.  0.
         -6    2    1    2    0  502  0.49861040951E+02  0.15589711142E+03  0.40328481258E+03  0.46835869353E+03  0.17300633801E+03 0.  0.
        -24    2    5    5    0    0  0.19960125536E+02  0.16796812347E+02  0.22358653759E+03  0.23910660962E+03  0.80625625285E+02 0.  0.
          5    1    3    3  501    0 -0.67085066172E+02 -0.63262561810E+02 -0.21485908092E+02  0.94796055174E+02  0.47000000000E+01 0. -1.
        -13    1    4    4    0    0 -0.63411943282E+01  0.10930331741E+02  0.28257199759E+02  0.30954034239E+02  0.00000000000E+00 0.  1.
         14    1    4    4    0    0  0.23565219549E+02 -0.10356488136E+03  0.59276429946E+02  0.12163346320E+03  0.00000000000E+00 0. -1.
         -5    1    5    5    0  502  0.29900915416E+02  0.13910029908E+03  0.17969827499E+03  0.22925208392E+03  0.47000000000E+01 0.  1.
         13    1    6    6    0    0  0.30401880599E+02  0.34659260555E+02  0.68031972349E+02  0.82182041517E+02  0.00000000000E+00 0. -1.
        -14    1    6    6    0    0 -0.10441755063E+02 -0.17862448207E+02  0.15555456524E+03  0.15692456810E+03  0.00000000000E+00 0.  1.
</event>
<event>
12    1  0.8258923E-002  0.2190341E+03  0.7818608E-02  0.1134815E+00
         21   -1    0    0  501  502  0.00000000000E+00  0.00000000000E+00  0.24202350297E+03  0.24202350297E+03  0.00000000000E+00 0. -1.
         21   -1    0    0  502  503 -0.00000000000E+00 -0.00000000000E+00 -0.41841762954E+03  0.41841762954E+03  0.00000000000E+00 0. -1.
         -6    2    1    2    0  503  0.79535753450E+02  0.10954241416E+03 -0.32840084794E+03  0.39474430104E+03  0.17219311746E+03 0.  0.
        -24    2    3    3    0    0 -0.93882333436E+01  0.29183154015E+02 -0.69919902060E+02  0.10978890892E+03  0.78898773208E+02 0.  0.
          6    2    1    2  501    0 -0.79535753450E+02 -0.10954241416E+03  0.15200672137E+03  0.26569683146E+03  0.17077261586E+03 0.  0.
         24    2    5    5    0    0  0.93568901040E+01 -0.38675478563E+02  0.21105487918E+02  0.92257367789E+02  0.80514820106E+02 0.  0.
          5    1    5    5  501    0 -0.88892643554E+02 -0.70866935598E+02  0.13090123345E+03  0.17343946367E+03  0.47000000000E+01 0. -1.
        -11    1    6    6    0    0 -0.13935379001E+02  0.20303970920E+02 -0.21396953453E+01  0.24718906108E+02  0.00000000000E+00 0.  1.
         12    1    6    6    0    0  0.23292269105E+02 -0.58979449483E+02  0.23245183263E+02  0.67538461681E+02  0.00000000000E+00 0. -1.
         -5    1    3    3    0  503  0.88923986794E+02  0.80359260146E+02 -0.25848094588E+03  0.28495539213E+03  0.47000000000E+01 0.  1.
         13    1    4    4    0    0  0.34811689771E+02  0.92462462267E+01 -0.32919902839E+02  0.48796176253E+02  0.00000000000E+00 0. -1.
        -14    1    4    4    0    0 -0.44199923115E+02  0.19936907788E+02 -0.36999999220E+02  0.60992732664E+02  0.00000000000E+00 0.  1.
</event>
<event>
12    1  0.8258923E-002  0.1999310E+03  0.7818608E-02  0.1149989E+00
         21   -1    0    0  503  502  0.00000000000E+00  0.00000000000E+00  0.33516951914E+02  0.33516951914E+02  0.00000000000E+00 0.  1.
         21   -1    0    0  501  503 -0.00000000000E+00 -0.00000000000E+00 -0.14907678354E+04  0.14907678354E+04  0.00000000000E+00 0.  1.
          6    2    1    2  501    0 -0.94377729586E+02 -0.34948524735E+02 -0.10738751445E+04  0.10923278984E+04  0.17275374520E+03 0.  0.
         24    2    3    3    0    0 -0.79687703214E+02 -0.75268224190E+02 -0.54944469681E+03  0.56612369899E+03  0.81185787486E+02 0.  0.
         -6    2    1    2    0  502  0.94377729586E+02  0.34948524735E+02 -0.38337573895E+03  0.43195688885E+03  0.17170102326E+03 0.  0.
        -24    2    5    5    0    0  0.77982015113E+02 -0.29441158457E+02 -0.31614185341E+03  0.33731368455E+03  0.82987190691E+02 0.  0.
          5    1    3    3  501    0 -0.14690026373E+02  0.40319699455E+02 -0.52443044769E+03  0.52620419943E+03  0.47000000000E+01 0. -1.
        -11    1    4    4    0    0 -0.58280199918E+02 -0.22856671886E+02 -0.14783952722E+03  0.16054760964E+03  0.00000000000E+00 0.  1.
         12    1    4    4    0    0 -0.21407503296E+02 -0.52411552304E+02 -0.40160516959E+03  0.40557608935E+03  0.00000000000E+00 0. -1.
         -5    1    5    5    0  502  0.16395714473E+02  0.64389683192E+02 -0.67233885540E+02  0.94643204296E+02  0.47000000000E+01 0.  1.
         13    1    6    6    0    0  0.94997306731E+02 -0.16986137420E+02 -0.26236802929E+03  0.27955321487E+03  0.00000000000E+00 0. -1.
        -14    1    6    6    0    0 -0.17015291618E+02 -0.12455021037E+02 -0.53773824121E+02  0.57760469687E+02  0.00000000000E+00 0.  1.
</event>
<event>
12    1  0.8258923E-002  0.2426970E+03  0.7818608E-02  0.1118339E+00
         21   -1    0    0  503  502  0.00000000000E+00  0.00000000000E+00  0.90378894770E+03  0.90378894770E+03  0.00000000000E+00 0.  1.
         21   -1    0    0  501  503 -0.00000000000E+00 -0.00000000000E+00 -0.14505024798E+03  0.14505024798E+03  0.00000000000E+00 0.  1.
          6    2    1    2  501    0  0.68431424557E+02 -0.15481841498E+03 -0.11800462356E+02  0.24098251629E+03  0.17111902513E+03 0.  0.
         24    2    3    3    0    0  0.63976744751E+02 -0.17481050410E+03  0.19066829071E+02  0.20364075040E+03  0.80338502836E+02 0.  0.
         -6    2    1    2    0  502 -0.68431424557E+02  0.15481841498E+03  0.77053916208E+03  0.80785667939E+03  0.17392588263E+03 0.  0.
        -24    2    5    5    0    0  0.73962866024E+01  0.13473962354E+03  0.59476700910E+03  0.61531852886E+03  0.81606529390E+02 0.  0.
          5    1    3    3  501    0  0.44546798062E+01  0.19992089124E+02 -0.30867291428E+02  0.37341765890E+02  0.47000000000E+01 0. -1.
        -11    1    4    4    0    0  0.16355882569E+02 -0.11633503282E+03  0.42090079227E+02  0.12479154429E+03  0.00000000000E+00 0.  1.
         12    1    4    4    0    0  0.47620862182E+02 -0.58475471281E+02 -0.23023250156E+02  0.78849206110E+02  0.00000000000E+00 0. -1.
         -5    1    5    5    0  502 -0.75827711160E+02  0.20078791440E+02  0.17577215298E+03  0.19253815053E+03  0.47000000000E+01 0.  1.
         13    1    6    6    0    0  0.35478875418E+02  0.39681083215E+02  0.13775972214E+03  0.14768574748E+03  0.00000000000E+00 0. -1.
        -14    1    6    6    0    0 -0.28082588815E+02  0.95058540322E+02  0.45700728696E+03  0.46763278138E+03  0.00000000000E+00 0.  1.
</event>
<event>
12    1  0.8258923E-002  0.1854172E+03  0.7818608E-02  0.1162849E+00
         21   -1    0    0  501  502  0.00000000000E+00  0.00000000000E+00  0.34071226865E+02  0.34071226865E+02  0.00000000000E+00 0.  1.
         21   -1    0    0  502  503 -0.00000000000E+00 -0.00000000000E+00 -0.12052216982E+04  0.12052216982E+04  0.00000000000E+00 0.  1.
         -6    2    1    2    0  503  0.60821942034E+02 -0.31500518556E+02 -0.83941868659E+03  0.85965300139E+03  0.17230194455E+03 0.  0.
        -24    2    3    3    0    0 -0.12280650163E+02 -0.60453933491E+02 -0.56708048624E+03  0.57615260528E+03  0.81031193095E+02 0.  0.
          6    2    1    2  501    0 -0.60821942034E+02  0.31500518556E+02 -0.33173178472E+03  0.37963992365E+03  0.17143192041E+03 0.  0.
         24    2    5    5    0    0  0.29034742056E+02 -0.10282220772E+02 -0.15741630582E+03  0.17907074066E+03  0.79609650879E+02 0.  0.
          5    1    5    5  501    0 -0.89856684090E+02  0.41782739328E+02 -0.17431547890E+03  0.20056918299E+03  0.47000000000E+01 0. -1.
        -11    1    6    6    0    0  0.13225277753E+02 -0.40643959266E+02 -0.12429636460E+03  0.13143981759E+03  0.00000000000E+00 0.  1.
         12    1    6    6    0    0  0.15809464303E+02  0.30361738494E+02 -0.33119941221E+02  0.47630923069E+02  0.00000000000E+00 0. -1.
         -5    1    3    3    0  503  0.73102592197E+02  0.28953414935E+02 -0.27233820035E+03  0.28350039610E+03  0.47000000000E+01 0.  1.
         13    1    4    4    0    0 -0.17680903380E+02 -0.34756463059E+02 -0.86825937946E+02  0.95180720574E+02  0.00000000000E+00 0. -1.
        -14    1    4    4    0    0  0.54002532170E+01 -0.25697470432E+02 -0.48025454830E+03  0.48097188471E+03  0.00000000000E+00 0.  1.
</event>
<event>
12    1  0.8258923E-002  0.2258466E+03  0.7818608E-02  0.1129699E+00
         21   -1    0    0  503  502  0.00000000000E+00  0.00000000000E+00  0.41911676866E+03  0.41911676866E+03  0.00000000000E+00 0.  1.
         21   -1    0    0  501  503 -0.00000000000E+00 -0.00000000000E+00 -0.18102798838E+03  0.18102798838E+03  0.00000000000E+00 0.  1.
          6    2    1    2  501    0 -0.32899340240E+01 -0.14579530438E+03 -0.53077416522E+02  0.23199975614E+03  0.17245167514E+03 0.  0.
         24    2    3    3    0    0  0.55002298216E+02 -0.10418272626E+03  0.10414415359E+01  0.14210797790E+03  0.79462566806E+02 0.  0.
         -6    2    1    2    0  502  0.32899340240E+01  0.14579530438E+03  0.29116619680E+03  0.36814500089E+03  0.17171456862E+03 0.  0.
        -24    2    5    5    0    0 -0.48717943321E+02  0.13336014210E+03  0.25722924906E+03  0.30463705659E+03  0.80489031403E+02 0.  0.
          5    1    3    3  501    0 -0.58292232240E+02 -0.41612578121E+02 -0.54118858058E+02  0.89891778239E+02  0.47000000000E+01 0. -1.
        -13    1    4    4    0    0  0.76209076327E+01 -0.89502894157E+02 -0.12492870439E+02  0.90691334247E+02  0.00000000000E+00 0.  1.
         14    1    4    4    0    0  0.47381390583E+02 -0.14679832100E+02  0.13534311975E+02  0.51416643655E+02  0.00000000000E+00 0. -1.
         -5    1    5    5    0  502  0.52007877345E+02  0.12435162274E+02  0.33936947746E+02  0.63507944299E+02  0.47000000000E+01 0.  1.
         11    1    6    6    0    0 -0.32590848100E+02  0.17207751207E+02  0.25164532609E+02  0.44626491941E+02  0.00000000000E+00 0. -1.
        -12    1    6    6    0    0 -0.16127095221E+02  0.11615239090E+03  0.23206471645E+03  0.26001056465E+03  0.00000000000E+00 0.  1.
</event>
<event>
12    1  0.8258923E-002  0.2481766E+03  0.7818608E-02  0.1114731E+00
         21   -1    0    0  503  502  0.00000000000E+00  0.00000000000E+00  0.34813827271E+03  0.34813827271E+03  0.00000000000E+00 0.  1.
         21   -1    0    0  501  503 -0.00000000000E+00 -0.00000000000E+00 -0.19290818150E+03  0.19290818150E+03  0.00000000000E+00 0.  1.
          6    2    1    2  501    0 -0.91518328682E+02 -0.15171416770E+03 -0.33652860720E+01  0.24652288480E+03  0.17137506941E+03 0.  0.
         24    2    3    3    0    0 -0.70136195860E+02 -0.61617763632E+02  0.56849037681E+02  0.13596786495E+03  0.80867870306E+02 0.  0.
         -6    2    1    2    0  502  0.91518328682E+02  0.15171416770E+03  0.15859537728E+03  0.29452356942E+03  0.17377815191E+03 0.  0.
        -24    2    5    5    0    0  0.94651212558E+02  0.97647225809E+02  0.17682382183E+03  0.23718758283E+03  0.80606778475E+02 0.  0.
          5    1    3    3  501    0 -0.21382132822E+02 -0.90096404070E+02 -0.60214323753E+02  0.11055501986E+03  0.47000000000E+01 0. -1.
        -11    1    4    4    0    0 -0.90707919098E+01 -0.39184607936E+02  0.58380492378E+02  0.70894249804E+02  0.00000000000E+00 0.  1.
         12    1    4    4    0    0 -0.61065403951E+02 -0.22433155697E+02 -0.15314546973E+01  0.65073615142E+02  0.00000000000E+00 0. -1.
         -5    1    5    5    0  502 -0.31328838757E+01  0.54066941894E+02 -0.18228444547E+02  0.57335986586E+02  0.47000000000E+01 0.  1.
         13    1    6    6    0    0  0.50946473312E+01  0.55962187800E+01  0.69240061402E+02  0.69652417036E+02  0.00000000000E+00 0. -1.
        -14    1    6    6    0    0  0.89556565227E+02  0.92051007029E+02  0.10758376043E+03  0.16753516579E+03  0.00000000000E+00 0.  1.
</event>
<event>
12    1  0.8258923E-002  0.1758631E+03  0.7818608E-02  0.1172243E+00
         21   -1    0    0  501  502  0.00000000000E+00  0.00000000000E+00  0.47395739745E+03  0.47395739745E+03  0.00000000000E+00 0. -1.
         21   -1    0    0  502  503 -0.00000000000E+00 -0.00000000000E+00 -0.65342961599E+02  0.65342961599E+02  0.00000000000E+00 0. -1.
         -6    2    1    2    0  503  0.30324421400E+02  0.15280340679E+02  0.17668300883E+03  0.24823332692E+03  0.17102584494E+03 0.  0.
        -24    2    3    3    0    0 -0.60996159029E+01 -0.40377431710E+02  0.15213564617E+03  0.17717587738E+03  0.81107918134E+02 0.  0.
          6    2    1    2  501    0 -0.30324421400E+02 -0.15280340679E+02  0.23193142702E+03  0.29106703213E+03  0.17255367574E+03 0.  0.
         24    2    5    5    0    0  0.28577489030E+02 -0.13414271448E+02  0.42200210450E+02  0.92338720591E+02  0.75821936144E+02 0.  0.
          5    1    5    5  501    0 -0.58901910429E+02 -0.18660692303E+01  0.18973121657E+03  0.19872831154E+03  0.47000000000E+01 0. -1.
        -13    1    6    6    0    0 -0.22612840446E+02 -0.19981096587E+02  0.19702207469E+02  0.36038337268E+02  0.00000000000E+00 0.  1.
         14    1    6    6    0    0  0.51190329476E+02  0.65668251386E+01  0.22498002981E+02  0.56300383324E+02  0.00000000000E+00 0. -1.
         -5    1    3    3    0  503  0.36424037302E+02  0.55657772388E+02  0.24547362655E+02  0.71057449532E+02  0.47000000000E+01 0.  1.
         13    1    4    4    0    0  0.16528719843E+02  0.10120438009E+02  0.50538917988E+01  0.20029070559E+02  0.00000000000E+00 0. -1.
        -14    1    4    4    0    0 -0.22628335746E+02 -0.50497869719E+02  0.14708175438E+03  0.15714680682E+03  0.00000000000E+00 0.  1.
</event>
<event>
12    1  0.8258923E-002  0.1800569E+03  0.7818608E-02  0.1168048E+00
         21   -1    0    0  501  502  0.00000000000E+00  0.00000000000E+00  0.10725477393E+03  0.10725477393E+03  0.00000000000E+00 0.  1.
         21   -1    0    0  502  503 -0.00000000000E+00 -0.00000000000E+00 -0.52698815663E+03  0.52698815663E+03  0.00000000000E+00 0.  1.
         -6    2    1    2    0  503  0.67320889080E+01  0.52022023629E+02 -0.41748643880E+03  0.45417196463E+03  0.17095506695E+03 0.  0.
        -24    2    3    3    0    0  0.66014339102E+02  0.54898656559E+02 -0.28097522462E+03  0.30524224362E+03  0.82788857827E+02 0.  0.
          6    2    1    2  501    0 -0.67320889080E+01 -0.52022023629E+02 -0.22469439011E+01  0.18007096592E+03  0.17224660243E+03 0.  0.
         24    2    5    5    0    0  0.25683826495E+02  0.20941658947E+02  0.31017048345E+02  0.93450681191E+02  0.81686966550E+02 0.  0.
          5    1    5    5  501    0 -0.32415915403E+02 -0.72963682575E+02 -0.33263992246E+02  0.86620284729E+02  0.47000000000E+01 0. -1.
        -11    1    6    6    0    0  0.10773417021E+01 -0.11738136522E+02  0.47801515043E+02  0.49233417051E+02  0.00000000000E+00 0.  1.
         12    1    6    6    0    0  0.24606484793E+02  0.32679795469E+02 -0.16784466698E+02  0.44217264140E+02  0.00000000000E+00 0. -1.
         -5    1    3    3    0  503 -0.59282250193E+02 -0.28766329306E+01 -0.13651121418E+03  0.14892972101E+03  0.47000000000E+01 0.  1.
         13    1    4    4    0    0 -0.12980738282E+02  0.80494928622E+01 -0.11095718804E+03  0.11200353333E+03  0.00000000000E+00 0. -1.
        -14    1    4    4    0    0  0.78995077383E+02  0.46849163697E+02 -0.17001803658E+03  0.19323871029E+03  0.00000000000E+00 0.  1.
</event>
<event>
12    1  0.8258923E-002  0.1927385E+03  0.7818608E-02  0.1156463E+00
         21   -1    0    0  501  502  0.00000000000E+00  0.00000000000E+00  0.58460011808E+03  0.58460011808E+03  0.00000000000E+00 0.  1.
         21   -1    0    0  502  503 -0.00000000000E+00 -0.00000000000E+00 -0.26296556301E+03  0.26296556301E+03  0.00000000000E+00 0. -1.
         -6    2    1    2    0  503  0.76868889555E+02 -0.26328727254E+02 -0.20904202059E+03  0.28297225252E+03  0.17254767824E+03 0.  0.
        -24    2    3    3    0    0  0.17378252737E+02 -0.76573159590E+02 -0.11019808893E+03  0.15705223158E+03  0.79726609118E+02 0.  0.
          6    2    1    2  501    0 -0.76868889555E+02  0.26328727254E+02  0.53067657566E+03  0.56459342857E+03  0.17477437907E+03 0.  0.
         24    2    5    5    0    0 -0.16896867097E+02 -0.26705929956E+02  0.15373658973E+03  0.17921677991E+03  0.86515919738E+02 0.  0.
          5    1    5    5  501    0 -0.59972022458E+02  0.53034657210E+02  0.37693998593E+03  0.38537664866E+03  0.47000000000E+01 0. -1.
        -13    1    6    6    0    0 -0.13018912491E+02  0.31281880499E+02  0.60830533221E+02  0.69630466766E+02  0.00000000000E+00 0.  1.
         14    1    6    6    0    0 -0.38779546063E+01 -0.57987810455E+02  0.92906056510E+02  0.10958631315E+03  0.00000000000E+00 0. -1.
         -5    1    3    3    0  503  0.59490636818E+02  0.50244432336E+02 -0.98843931654E+02  0.12592002094E+03  0.47000000000E+01 0.  1.
         11    1    4    4    0    0  0.10441605781E+02 -0.35461312759E+02  0.23386044557E+01  0.37040530567E+02  0.00000000000E+00 0. -1.
        -12    1    4    4    0    0  0.69366469565E+01 -0.41111846831E+02 -0.11253669339E+03  0.12001170101E+03  0.00000000000E+00 0.  1.
</event>
<event>
12    1  0.8258923E-002  0.2839523E+03  0.7818608E-02  0.1094213E+00
         21   -1    0    0  501  502  0.00000000000E+00  0.00000000000E+00  0.84756043194E+02  0.84756043194E+02  0.00000000000E+00 0. -1.
         21   -1    0    0  502  503 -0.00000000000E+00 -0.00000000000E+00 -0.93978118585E+03  0.93978118585E+03  0.00000000000E+00 0. -1.
         -6    2    1    2    0  503  0.18615656227E+03  0.12624800941E+03 -0.46047172517E+03  0.53842889943E+03  0.16516247909E+03 0.  0.
        -24    2    3    3    0    0  0.20308238187E+03  0.87562091562E+02 -0.40815062171E+03  0.47102955613E+03  0.79826931837E+02 0.  0.
          6    2    1    2  501    0 -0.18615656227E+03 -0.12624800941E+03 -0.39455341748E+03  0.48610832962E+03  0.17330921302E+03 0.  0.
         24    2    5    5    0    0 -0.17079837804E+03 -0.12448322303E+03 -0.40705175176E+03  0.46568073422E+03  0.80617980976E+02 0.  0.
          5    1    5    5  501    0 -0.15358184230E+02 -0.17647863816E+01  0.12498334279E+02  0.20427595394E+02  0.47000000000E+01 0. -1.
        -11    1    6    6    0    0 -0.57774472314E+01 -0.28228927182E+02 -0.23489267077E+02  0.37175218819E+02  0.00000000000E+00 0.  1.
         12    1    6    6    0    0 -0.16502093081E+03 -0.96254295844E+02 -0.38356248469E+03  0.42850551541E+03  0.00000000000E+00 0. -1.
         -5    1    3    3    0  503 -0.16925819600E+02  0.38685917847E+02 -0.52321103467E+02  0.67399343297E+02  0.47000000000E+01 0.  1.
         11    1    4    4    0    0  0.16626401706E+03  0.84007357106E+02 -0.27009212896E+03  0.32810168781E+03  0.00000000000E+00 0. -1.
        -12    1    4    4    0    0  0.36818364811E+02  0.35547344552E+01 -0.13805849274E+03  0.14292786832E+03  0.00000000000E+00 0.  1.
</event>
<event>
12    1  0.8258923E-002  0.2195303E+03  0.7818608E-02  0.1134904E+00
         21   -1    0    0  501  502  0.00000000000E+00  0.00000000000E+00  0.10476234029E+03  0.10476234029E+03  0.00000000000E+00 0.  1.
         21   -1    0    0  502  503 -0.00000000000E+00 -0.00000000000E+00 -0.55211914281E+03  0.55211914281E+03  0.00000000000E+00 0.  1.
         -6    2    1    2    0  503 -0.52380870733E+02  0.11976627204E+03 -0.85740372971E+02  0.23567979172E+03  0.17636846978E+03 0.  0.
        -24    2    3    3    0    0  0.38208140518E+02  0.55411493277E+02 -0.62031606915E+02  0.12196039102E+03  0.80598518172E+02 0.  0.
          6    2    1    2  501    0  0.52380870733E+02 -0.11976627204E+03 -0.36161642955E+03  0.42120169138E+03  0.17192064206E+03 0.  0.
         24    2    5    5    0    0 -0.14248204445E+02 -0.11310804199E+03 -0.18007932307E+03  0.22765175799E+03  0.80001998886E+02 0.  0.
          5    1    5    5  501    0  0.66629075178E+02 -0.66582300484E+01 -0.18153710648E+03  0.19354993339E+03  0.47000000000E+01 0. -1.
        -13    1    6    6    0    0 -0.59708045417E+01 -0.88902107173E+02 -0.18133001339E+03  0.20203912721E+03  0.00000000000E+00 0.  1.
         14    1    6    6    0    0 -0.82773999037E+01 -0.24205934821E+02  0.12506903137E+01  0.25612630790E+02  0.00000000000E+00 0. -1.
         -5    1    3    3    0  503 -0.90589011250E+02  0.64354778765E+02 -0.23708766056E+02  0.11371940071E+03  0.47000000000E+01 0.  1.
         11    1    4    4    0    0  0.42664781789E+02 -0.43392748858E+01 -0.38357529183E+02  0.57536188236E+02  0.00000000000E+00 0. -1.
        -12    1    4    4    0    0 -0.44566412715E+01  0.59750768163E+02 -0.23674077731E+02  0.64424202781E+02  0.00000000000E+00 0.  1.
</event>
<event>
12    1  0.8258923E-002  0.2194687E+03  0.7818608E-02  0.1134520E+00
         21   -1    0    0  503  502  0.00000000000E+00  0.00000000000E+00  0.13986024294E+03  0.13986024294E+03  0.00000000000E+00 0. -1.
         21   -1    0    0  501  503 -0.00000000000E+00 -0.00000000000E+00 -0.40930426030E+03  0.40930426030E+03  0.00000000000E+00 0. -1.
          6    2    1    2  501    0  0.49013269013E+01 -0.13533415747E+03 -0.24542153808E+03  0.32838497631E+03  0.17107192678E+03 0.  0.
         24    2    3    3    0    0 -0.58185499434E+02 -0.58371822750E+02 -0.10579674251E+03  0.15686144393E+03  0.81361783610E+02 0.  0.
         -6    2    1    2    0  502 -0.49013269013E+01  0.13533415747E+03 -0.24022479280E+02  0.22077952692E+03  0.17270542208E+03 0.  0.
        -24    2    5    5    0    0  0.13940206910E+02  0.87843837014E+02 -0.80724536101E+02  0.14431027048E+03  0.79988338949E+02 0.  0.
          5    1    3    3  501    0  0.63086826335E+02 -0.76962334715E+02 -0.13962479557E+03  0.17152353238E+03  0.47000000000E+01 0. -1.
        -11    1    4    4    0    0 -0.14835112701E+02  0.73266232238E+01  0.80927626554E+01  0.18418816034E+02  0.00000000000E+00 0.  1.
         12    1    4    4    0    0 -0.43350386733E+02 -0.65698445974E+02 -0.11388950517E+03  0.13844262790E+03  0.00000000000E+00 0. -1.
         -5    1    5    5    0  502 -0.18841533811E+02  0.47490320451E+02  0.56702056821E+02  0.76469256441E+02  0.47000000000E+01 0.  1.
         13    1    6    6    0    0  0.42423518361E+02  0.47734437638E+02 -0.21643774539E+02  0.67429848161E+02  0.00000000000E+00 0. -1.
        -14    1    6    6    0    0 -0.28483311451E+02  0.40109399376E+02 -0.59080761561E+02  0.76880422321E+02  0.00000000000E+00 0.  1.
</event>
<event>
12    1  0.8258923E-002  0.3566398E+03  0.7818608E-02  0.1060196E+00
         21   -1    0    0  503  502  0.00000000000E+00  0.00000000000E+00  0.17098695721E+03  0.17098695721E+03  0.00000000000E+00 0.  1.
         21   -1    0    0  501  503 -0.00000000000E+00 -0.00000000000E+00 -0.11460980604E+04  0.11460980604E+04  0.00000000000E+00 0. -1.
          6    2    1    2  501    0  0.30930562303E+03  0.49687509874E+02 -0.87921694270E+03  0.94777808502E+03  0.16468773192E+03 0.  0.
         24    2    3    3    0    0  0.13231530331E+03 -0.31821582408E+02 -0.42549615854E+03  0.45396238522E+03  0.80715015084E+02 0.  0.
         -6    2    1    2    0  502 -0.30930562303E+03 -0.49687509874E+02 -0.95894160457E+02  0.36930693255E+03  0.17044970914E+03 0.  0.
        -24    2    5    5    0    0 -0.32037446727E+03 -0.30425098720E+02 -0.10062450592E+03  0.34611154585E+03  0.78118020128E+02 0.  0.
          5    1    3    3  501    0  0.17699031972E+03  0.81509092281E+02 -0.45372078416E+03  0.49381569981E+03  0.47000000000E+01 0. -1.
        -13    1    4    4    0    0  0.47200802477E+02 -0.30761007317E+02 -0.78166273973E+02  0.96354147355E+02  0.00000000000E+00 0.  1.
         14    1    4    4    0    0  0.85114500834E+02 -0.10605750909E+01 -0.34732988457E+03  0.35760823786E+03  0.00000000000E+00 0. -1.
         -5    1    5    5    0  502  0.11068844237E+02 -0.19262411153E+02  0.47303454609E+01  0.23195386704E+02  0.47000000000E+01 0.  1.
         11    1    6    6    0    0 -0.19981042270E+03 -0.46528838750E+02 -0.35717795907E+02  0.20824240394E+03  0.00000000000E+00 0. -1.
        -12    1    6    6    0    0 -0.12056404457E+03  0.16103740030E+02 -0.64906710011E+02  0.13786914191E+03  0.00000000000E+00 0.  1.
</event>
<event>
12    1  0.8258923E-002  0.2061458E+03  0.7818608E-02  0.1145173E+00
         21   -1    0    0  503  502  0.00000000000E+00  0.00000000000E+00  0.37353832633E+03  0.37353832633E+03  0.00000000000E+00 0.  1.
         21   -1    0    0  501  503 -0.00000000000E+00 -0.00000000000E+00 -0.12236884327E+03  0.12236884327E+03  0.00000000000E+00 0.  1.
          6    2    1    2  501    0  0.10736922802E+03 -0.28015771027E+02  0.55419574410E+02  0.21346525943E+03  0.17373270621E+03 0.  0.
         24    2    3    3    0    0  0.11040535962E+03 -0.81327219447E+01 -0.17739069477E+02  0.13744663730E+03  0.79507351364E+02 0.  0.
         -6    2    1    2    0  502 -0.10736922802E+03  0.28015771027E+02  0.19574990864E+03  0.28244191017E+03  0.17071136850E+03 0.  0.
        -24    2    5    5    0    0 -0.20417332650E+02  0.55703039962E+02  0.15059816490E+03  0.18052043582E+03  0.79925742696E+02 0.  0.
          5    1    3    3  501    0 -0.30361315986E+01 -0.19883049083E+02  0.73158643887E+02  0.76018622135E+02  0.47000000000E+01 0. -1.
        -13    1    4    4    0    0  0.22484078520E+02  0.28316131689E+02  0.11395322662E+02  0.37910295162E+02  0.00000000000E+00 0.  1.
         14    1    4    4    0    0  0.87921281096E+02 -0.36448853634E+02 -0.29134392138E+02  0.99536342137E+02  0.00000000000E+00 0. -1.
         -5    1    5    5    0  502 -0.86951895368E+02 -0.27687268935E+02  0.45151743743E+02  0.10192147434E+03  0.47000000000E+01 0.  1.
         11    1    6    6    0    0 -0.47810605949E+02  0.53869299660E+02  0.11173725492E+03  0.13293972177E+03  0.00000000000E+00 0. -1.
        -12    1    6    6    0    0  0.27393273299E+02  0.18337403025E+01  0.38860909980E+02  0.47580714055E+02  0.00000000000E+00 0.  1.
</event>
<event>
12    1  0.8258923E-002  0.2674760E+03  0.7818608E-02  0.1102749E+00
         21   -1    0    0  503  502  0.00000000000E+00  0.00000000000E+00  0.68178590531E+03  0.68178590531E+03  0.00000000000E+00 0.  1.
         21   -1    0    0  501  503 -0.00000000000E+00 -0.00000000000E+00 -0.11149227166E+03  0.11149227166E+03  0.00000000000E+00 0. -1.
          6    2    1    2  501    0  0.20382295419E+03 -0.23318062117E+02  0.18858985233E+03  0.32718677732E+03  0.17145706802E+03 0.  0.
         24    2    3    3    0    0  0.16110331250E+03  0.40047654474E+02  0.10556752660E+03  0.21424883686E+03  0.84852633999E+02 0.  0.
         -6    2    1    2    0  502 -0.20382295419E+03  0.23318062117E+02  0.38170378132E+03  0.46609139965E+03  0.17162717582E+03 0.  0.
        -24    2    5    5    0    0 -0.16246841340E+03  0.30249946283E+02  0.38187821174E+03  0.42389697480E+03  0.80911260312E+02 0.  0.
          5    1    3    3  501    0  0.42719641691E+02 -0.63365716590E+02  0.83022325723E+02  0.11293794045E+03  0.47000000000E+01 0. -1.
        -13    1    4    4    0    0  0.13399426840E+02  0.26170855020E+02  0.45548240653E+02  0.54213471745E+02  0.00000000000E+00 0.  1.
         14    1    4    4    0    0  0.14770388566E+03  0.13876799454E+02  0.60019285951E+02  0.16003536512E+03  0.00000000000E+00 0. -1.
         -5    1    5    5    0  502 -0.41354540794E+02 -0.69318841665E+01 -0.17443041599E+00  0.42194424850E+02  0.47000000000E+01 0.  1.
         11    1    6    6    0    0 -0.55691623741E+01 -0.73068673183E+01  0.89426038765E+02  0.89896731246E+02  0.00000000000E+00 0. -1.
        -12    1    6    6    0    0 -0.15689925102E+03  0.37556813602E+02  0.29245217297E+03  0.33400024356E+03  0.00000000000E+00 0.  1.
</event>
<event>
12    1  0.8258923E-002  0.1950952E+03  0.7818608E-02  0.1154180E+00
         21   -1    0    0  503  502  0.00000000000E+00  0.00000000000E+00  0.76722051239E+03  0.76722051239E+03  0.00000000000E+00 0.  1.
         21   -1    0    0  501  503 -0.00000000000E+00 -0.00000000000E+00 -0.50717176728E+02  0.50717176728E+02  0.00000000000E+00 0.  1.
          6    2    1    2  501    0 -0.84828063037E+02 -0.29240430090E+02  0.28982744473E+03  0.34877413670E+03  0.17202513678E+03 0.  0.
         24    2    3    3    0    0 -0.10972237620E+03 -0.63291373683E+02  0.19999719800E+03  0.24942245420E+03  0.78535874809E+02 0.  0.
         -6    2    1    2    0  502  0.84828063037E+02  0.29240430090E+02  0.42667589093E+03  0.46916355242E+03  0.17323775565E+03 0.  0.
        -24    2    5    5    0    0  0.22845199806E+02  0.20053306217E+02  0.81950902568E+02  0.11875852080E+03  0.80396502326E+02 0.  0.
          5    1    3    3  501    0  0.24894313163E+02  0.34050943593E+02  0.89830246730E+02  0.99351682497E+02  0.47000000000E+01 0. -1.
        -11    1    4    4    0    0 -0.78032221131E+02 -0.57404139610E+02  0.19371067993E+03  0.21658275623E+03  0.00000000000E+00 0.  1.
         12    1    4    4    0    0 -0.31690155069E+02 -0.58872340732E+01  0.62865180690E+01  0.32839697970E+02  0.00000000000E+00 0. -1.
         -5    1    5    5    0  502  0.61982863232E+02  0.91871238728E+01  0.34472498836E+03  0.35040503162E+03  0.47000000000E+01 0.  1.
         11    1    6    6    0    0  0.16927687814E+02  0.45042833175E+02  0.79543356552E+02  0.92965310771E+02  0.00000000000E+00 0. -1.
        -12    1    6    6    0    0  0.59175119922E+01 -0.24989526958E+02  0.24075460167E+01  0.25793210029E+02  0.00000000000E+00 0.  1.
</event>
<event>
12    1  0.8258923E-002  0.2316698E+03  0.7818608E-02  0.1125768E+00
         21   -1    0    0  503  502  0.00000000000E+00  0.00000000000E+00  0.27866462114E+03  0.27866462114E+03  0.00000000000E+00 0.  1.
         21   -1    0    0  501  503 -0.00000000000E+00 -0.00000000000E+00 -0.30639139202E+03  0.30639139202E+03  0.00000000000E+00 0.  1.
          6    2    1    2  501    0  0.11952910953E+03  0.99662827558E+02 -0.19326906869E+03  0.30170155768E+03  0.17161296504E+03 0.  0.
         24    2    3    3    0    0  0.46342670750E+02  0.61408629594E+02 -0.19434037001E+03  0.21897987872E+03  0.65309608408E+02 0.  0.
         -6    2    1    2    0  502 -0.11952910953E+03 -0.99662827558E+02  0.16554229780E+03  0.28335445548E+03  0.16930920784E+03 0.  0.
        -24    2    5    5    0    0 -0.13130012783E+03 -0.11433953736E+03  0.10746427866E+03  0.22212448741E+03  0.86472327062E+02 0.  0.
          5    1    3    3  501    0  0.73186438776E+02  0.38254197963E+02  0.10713013139E+01  0.82721678955E+02  0.47000000000E+01 0. -1.
        -13    1    4    4    0    0  0.55665869757E+02  0.32424419658E+02 -0.92766523143E+02  0.11294095742E+03  0.00000000000E+00 0.  1.
         14    1    4    4    0    0 -0.93231990065E+01  0.28984209936E+02 -0.10157384686E+03  0.10603892131E+03  0.00000000000E+00 0. -1.
         -5    1    5    5    0  502  0.11771018304E+02  0.14676709801E+02  0.58078019141E+02  0.61229968070E+02  0.47000000000E+01 0.  1.
         11    1    6    6    0    0 -0.38833214464E+02  0.91270192748E+01  0.26748940347E+02  0.48029437184E+02  0.00000000000E+00 0. -1.
        -12    1    6    6    0    0 -0.92466913367E+02 -0.12346655663E+03  0.80715338316E+02  0.17409505023E+03  0.00000000000E+00 0.  1.
</event>
<event>
12    1  0.8258923E-002  0.2119461E+03  0.7818608E-02  0.1140317E+00
         21   -1    0    0  501  502  0.00000000000E+00  0.00000000000E+00  0.88681505080E+03  0.88681505080E+03  0.00000000000E+00 0.  1.
         21   -1    0    0  502  503 -0.00000000000E+00 -0.00000000000E+00 -0.52099294204E+02  0.52099294204E+02  0.00000000000E+00 0.  1.
         -6    2    1    2    0  503  0.19373094659E+01  0.12208853295E+03  0.33175670237E+03  0.39367964065E+03  0.17323910313E+03 0.  0.
        -24    2    3    3    0    0 -0.13438740633E+02  0.15372809985E+03  0.29771572190E+03  0.34450278165E+03  0.78959401355E+02 0.  0.
          6    2    1    2  501    0 -0.19373094659E+01 -0.12208853295E+03  0.50295905423E+03  0.54523470435E+03  0.17147509893E+03 0.  0.
         24    2    5    5    0    0 -0.33934171476E+02 -0.64715956260E+01  0.26535589227E+03  0.27902345751E+03  0.79037527367E+02 0.  0.
          5    1    5    5  501    0  0.31996862010E+02 -0.11561693732E+03  0.23760316196E+03  0.26621124684E+03  0.47000000000E+01 0. -1.
        -11    1    6    6    0    0 -0.45244960559E+02 -0.23386090217E+02  0.98090341005E+02  0.11052479663E+03  0.00000000000E+00 0.  1.
         12    1    6    6    0    0  0.11310789083E+02  0.16914494591E+02  0.16726555127E+03  0.16849866088E+03  0.00000000000E+00 0. -1.
         -5    1    3    3    0  503  0.15376050099E+02 -0.31639566903E+02  0.34040980462E+02  0.49176859002E+02  0.47000000000E+01 0.  1.
         13    1    4    4    0    0  0.22750041437E+00 -0.93978381316E+01  0.20707132830E+02  0.22741074470E+02  0.00000000000E+00 0. -1.
        -14    1    4    4    0    0 -0.13666241047E+02  0.16312593798E+03  0.27700858907E+03  0.32176170718E+03  0.00000000000E+00 0.  1.
</event>
<event>
12    1  0.8258923E-002  0.1739457E+03  0.7818608E-02  0.1173980E+00
         21   -1    0    0  501  502  0.00000000000E+00  0.00000000000E+00  0.12632377525E+04  0.12632377525E+04  0.00000000000E+00 0. -1.
         21   -1    0    0  502  503 -0.00000000000E+00 -0.00000000000E+00 -0.23869391644E+02  0.23869391644E+02  0.00000000000E+00 0. -1.
         -6    2    1    2    0  503 -0.19637130898E+02 -0.21876093181E+02  0.60337504932E+03  0.62794788264E+03  0.17144361408E+03 0.  0.
        -24    2    3    3    0    0 -0.75654973511E+02 -0.23134716657E+02  0.46651607277E+03  0.47998825204E+03  0.80576583538E+02 0.  0.
          6    2    1    2  501    0  0.19637130898E+02  0.21876093181E+02  0.63599331154E+03  0.65915926150E+03  0.17070225348E+03 0.  0.
         24    2    5    5    0    0  0.41214303930E+02  0.41918352654E+01  0.62038355948E+03  0.62684731738E+03  0.79659325221E+02 0.  0.
          5    1    5    5  501    0 -0.21577173032E+02  0.17684257916E+02  0.15609752053E+02  0.32311944126E+02  0.47000000000E+01 0. -1.
        -11    1    6    6    0    0  0.12391015569E+02 -0.71981053983E+01  0.15271200719E+02  0.20941813665E+02  0.00000000000E+00 0.  1.
         12    1    6    6    0    0  0.28823288361E+02  0.11389940664E+02  0.60511235877E+03  0.60590550371E+03  0.00000000000E+00 0. -1.
         -5    1    3    3    0  503  0.56017842613E+02  0.12586234764E+01  0.13685897655E+03  0.14795963060E+03  0.47000000000E+01 0.  1.
         11    1    4    4    0    0 -0.43264418052E+02 -0.50704499338E+02  0.22164441604E+03  0.23144978567E+03  0.00000000000E+00 0. -1.
        -12    1    4    4    0    0 -0.32390555460E+02  0.27569782681E+02  0.24487165673E+03  0.24853846638E+03  0.00000000000E+00 0.  1.
</event>
<event>
12    1  0.8258923E-002  0.1804387E+03  0.7818608E-02  0.1167390E+00
         21   -1    0    0  501  502  0.00000000000E+00  0.00000000000E+00  0.14315163544E+03  0.14315163544E+03  0.00000000000E+00 0. -1.
         21   -1    0    0  502  503 -0.00000000000E+00 -0.00000000000E+00 -0.39828894580E+03  0.39828894580E+03  0.00000000000E+00 0. -1.
         -6    2    1    2    0  503 -0.50997692871E+02  0.20004048846E+02 -0.30491567438E+03  0.35430451045E+03  0.17192204918E+03 0.  0.
        -24    2    3    3    0    0  0.14940929218E+02 -0.21737667139E+02 -0.77147930036E+02  0.11349232617E+03  0.78949018050E+02 0.  0.
          6    2    1    2  501    0  0.50997692871E+02 -0.20004048846E+02  0.49778364015E+02  0.18713607079E+03  0.17187523620E+03 0.  0.
         24    2    5    5    0    0 -0.32623381121E+02  0.15368296354E+02  0.30854519289E+02  0.94271175813E+02  0.81452953906E+02 0.  0.
          5    1    5    5  501    0  0.83621073992E+02 -0.35372345200E+02  0.18923844726E+02  0.92864894981E+02  0.47000000000E+01 0. -1.
        -13    1    6    6    0    0 -0.21068678494E+02  0.28218937721E+01 -0.26765542227E+02  0.34179621833E+02  0.00000000000E+00 0.  1.
         14    1    6    6    0    0 -0.11554702628E+02  0.12546402581E+02  0.57620061516E+02  0.60091553980E+02  0.00000000000E+00 0. -1.
         -5    1    3    3    0  503 -0.65938622089E+02  0.41741715986E+02 -0.22776774434E+03  0.24081218428E+03  0.47000000000E+01 0.  1.
         13    1    4    4    0    0  0.10638745454E+02 -0.90344849198E+01 -0.92246903138E+02  0.93296816458E+02  0.00000000000E+00 0. -1.
        -14    1    4    4    0    0  0.43021837640E+01 -0.12703182220E+02  0.15098973102E+02  0.20195509708E+02  0.00000000000E+00 0.  1.
</event>
<event>
12    1  0.8258923E-002  0.2149828E+03  0.7818608E-02  0.1138243E+00
         21   -1    0    0  503  502  0.00000000000E+00  0.00000000000E+00  0.28466282178E+03  0.28466282178E+03  0.00000000000E+00 0.  1.
         21   -1    0    0  501  503 -0.00000000000E+00 -0.00000000000E+00 -0.20118062437E+03  0.20118062437E+03  0.00000000000E+00 0. -1.
          6    2    1    2  501    0 -0.10679752892E+03  0.63915629839E+02 -0.68162829654E+02  0.22275826844E+03  0.17170950728E+03 0.  0.
         24    2    3    3    0    0 -0.10872053149E+03  0.15007619635E+02 -0.89071223038E+02  0.16932660821E+03  0.93233228299E+02 0.  0.
         -6    2    1    2    0  502  0.10679752892E+03 -0.63915629839E+02  0.15164502706E+03  0.26308517770E+03  0.17529026378E+03 0.  0.
        -24    2    5    5    0    0  0.13937205983E+03 -0.61849230017E+02  0.90267106724E+02  0.19340943460E+03  0.77518775284E+02 0.  0.
          5    1    3    3  501    0  0.19230025713E+01  0.48908010204E+02  0.20908393384E+02  0.53431660230E+02  0.47000000000E+01 0. -1.
        -11    1    4    4    0    0 -0.10884489989E+02 -0.25782299471E+02  0.39954642228E+01  0.28269468030E+02  0.00000000000E+00 0.  1.
         12    1    4    4    0    0 -0.97836041498E+02  0.40789919107E+02 -0.93066687261E+02  0.14105714018E+03  0.00000000000E+00 0. -1.
         -5    1    5    5    0  502 -0.32574530910E+02 -0.20663998223E+01  0.61377920340E+02  0.69675743107E+02  0.47000000000E+01 0.  1.
         11    1    6    6    0    0  0.77822282268E+02  0.75305445145E+01  0.44909312555E+02  0.90165753323E+02  0.00000000000E+00 0. -1.
        -12    1    6    6    0    0  0.61549777557E+02 -0.69379774532E+02  0.45357794168E+02  0.10324368128E+03  0.00000000000E+00 0.  1.
</event>
<event>
12    1  0.8258923E-002  0.1887090E+03  0.7818608E-02  0.1159656E+00
         21   -1    0    0  503  502  0.00000000000E+00  0.00000000000E+00  0.41363166862E+03  0.41363166862E+03  0.00000000000E+00 0. -1.
         21   -1    0    0  501  503 -0.00000000000E+00 -0.00000000000E+00 -0.94578263282E+02  0.94578263282E+02  0.00000000000E+00 0. -1.
          6    2    1    2  501    0  0.72395715426E+02  0.30943568473E+02  0.23581832382E+03  0.30195970921E+03  0.17137893713E+03 0.  0.
         24    2    3    3    0    0 -0.15262142835E+02 -0.23668797995E+02  0.87928317778E+02  0.12151593798E+03  0.79003728484E+02 0.  0.
         -6    2    1    2    0  502 -0.72395715426E+02 -0.30943568473E+02  0.83235081515E+02  0.20625022269E+03  0.17150052922E+03 0.  0.
        -24    2    5    5    0    0 -0.69661091914E+02  0.32790475755E+02  0.19286621637E+02  0.11580133060E+03  0.84321357724E+02 0.  0.
          5    1    3    3  501    0  0.87657858261E+02  0.54612366468E+02  0.14789000604E+03  0.18044377122E+03  0.47000000000E+01 0. -1.
        -13    1    4    4    0    0  0.96127607923E+01 -0.35788701168E+02  0.86157540590E+02  0.93788901805E+02  0.00000000000E+00 0.  1.
         14    1    4    4    0    0 -0.24874903628E+02  0.12119903173E+02  0.17707771880E+01  0.27727036179E+02  0.00000000000E+00 0. -1.
         -5    1    5    5    0  502 -0.27346235115E+01 -0.63734044228E+02  0.63948459877E+02  0.90448892089E+02  0.47000000000E+01 0.  1.
         13    1    6    6    0    0 -0.61811938896E+02 -0.11626101811E+02 -0.75012184623E+01  0.63341537018E+02  0.00000000000E+00 0. -1.
        -14    1    6    6    0    0 -0.78491530178E+01  0.44416577566E+02  0.26787840100E+02  0.52459793585E+02  0.00000000000E+00 0.  1.
</event>
<event>
12    1  0.8258923E-002  0.2747310E+03  0.7818608E-02  0.1099223E+00
         21   -1    0    0  503  502  0.00000000000E+00  0.00000000000E+00  0.47664418940E+03  0.47664418940E+03  0.00000000000E+00 0.  1.
         21   -1    0    0  501  503 -0.00000000000E+00 -0.00000000000E+00 -0.16375940819E+03  0.16375940819E+03  0.00000000000E+00 0. -1.
          6    2    1    2  501    0 -0.13420674997E+03  0.16710702640E+03  0.87160659478E+02  0.28822574955E+03  0.17187464076E+03 0.  0.
         24    2    3    3    0    0 -0.40596252874E+02  0.47063546651E+02  0.93596521448E+02  0.13578929553E+03  0.76258709550E+02 0.  0.
         -6    2    1    2    0  502  0.13420674997E+03 -0.16710702640E+03  0.22572412173E+03  0.35217784804E+03  0.16474722308E+03 0.  0.
        -24    2    5    5    0    0  0.49721657533E+02 -0.73985263892E+02  0.37571701115E+02  0.12583117393E+03  0.80472287826E+02 0.  0.
          5    1    3    3  501    0 -0.93610497092E+02  0.12004347975E+03 -0.64358619695E+01  0.15243645403E+03  0.47000000000E+01 0. -1.
        -13    1    4    4    0    0 -0.48874571038E+02  0.62506048015E+02  0.66532289046E+02  0.10354841968E+03  0.00000000000E+00 0.  1.
         14    1    4    4    0    0  0.82783181634E+01 -0.15442501364E+02  0.27064232402E+02  0.32240875849E+02  0.00000000000E+00 0. -1.
         -5    1    5    5    0  502  0.84485092433E+02 -0.93121762510E+02  0.18815242062E+03  0.22634667411E+03  0.47000000000E+01 0.  1.
         11    1    6    6    0    0  0.58427151184E+02 -0.14995742556E+02  0.15838180525E+02  0.62365473242E+02  0.00000000000E+00 0. -1.
        -12    1    6    6    0    0 -0.87054936511E+01 -0.58989521336E+02  0.21733520590E+02  0.63465700692E+02  0.00000000000E+00 0.  1.
</event>
<event>
12    1  0.8258923E-002  0.1795118E+03  0.7818608E-02  0.1169337E+00
         21   -1    0    0  503  502  0.00000000000E+00  0.00000000000E+00  0.60079315648E+02  0.60079315648E+02  0.00000000000E+00 0. -1.
         21   -1    0    0  501  503 -0.00000000000E+00 -0.00000000000E+00 -0.53043631920E+03  0.53043631920E+03  0.00000000000E+00 0. -1.
          6    2    1    2  501    0  0.44855928774E+02  0.21167690737E+02 -0.20438993957E+03  0.27202894963E+03  0.17252355365E+03 0.  0.
         24    2    3    3    0    0 -0.16214944416E+02  0.19392035007E+02 -0.31709575802E+02  0.88798486729E+02  0.78998092405E+02 0.  0.
         -6    2    1    2    0  502 -0.44855928774E+02 -0.21167690737E+02 -0.26596706399E+03  0.31848668522E+03  0.16803322308E+03 0.  0.
        -24    2    5    5    0    0 -0.88127619271E+02  0.34265331634E+01 -0.14610179299E+03  0.18861333061E+03  0.80318342603E+02 0.  0.
          5    1    3    3  501    0  0.61070873190E+02  0.17756557292E+01 -0.17268036376E+03  0.18323046290E+03  0.47000000000E+01 0. -1.
        -13    1    4    4    0    0 -0.32057586614E+02 -0.20805968151E+02 -0.23361444699E+02  0.44792122841E+02  0.00000000000E+00 0.  1.
         14    1    4    4    0    0  0.15842642198E+02  0.40198003158E+02 -0.83481311030E+01  0.44006363888E+02  0.00000000000E+00 0. -1.
         -5    1    5    5    0  502  0.43271690497E+02 -0.24594223900E+02 -0.11986527099E+03  0.12987335461E+03  0.47000000000E+01 0.  1.
         13    1    6    6    0    0 -0.99838489465E+02 -0.98685264925E+01 -0.11331203888E+03  0.15134308689E+03  0.00000000000E+00 0. -1.
        -14    1    6    6    0    0  0.11710870193E+02  0.13295059656E+02 -0.32789754115E+02  0.37270243719E+02  0.00000000000E+00 0.  1.
</event>
<event>
12    1  0.8258923E-002  0.2492920E+03  0.7818608E-02  0.1114544E+00
         21   -1    0    0  501  502  0.00000000000E+00  0.00000000000E+00  0.93243593592E+02  0.93243593592E+02  0.00000000000E+00 0. -1.
         21   -1    0    0  502  503 -0.00000000000E+00 -0.00000000000E+00 -0.71740840126E+03  0.71740840126E+03  0.00000000000E+00 0.  1.
         -6    2    1    2    0  503  0.16296466510E+03  0.61398012712E+02 -0.43601037699E+03  0.50224650561E+03  0.17837966677E+03 0.  0.
        -24    2    3    3    0    0  0.62748237215E+02  0.22904295234E+02 -0.81263043797E+02  0.13158107815E+03  0.79043974010E+02 0.  0.
          6    2    1    2  501    0 -0.16296466510E+03 -0.61398012712E+02 -0.18815443068E+03  0.30840548925E+03  0.17141953791E+03 0.  0.
         24    2    5    5    0    0 -0.17696304421E+03 -0.88406263103E+02 -0.17128315174E+03  0.27330377618E+03  0.78901518578E+02 0.  0.
          5    1    5    5  501    0  0.13998379111E+02  0.27008250391E+02 -0.16871278940E+02  0.35101713063E+02  0.47000000000E+01 0. -1.
        -13    1    6    6    0    0 -0.15015212596E+03 -0.36651655921E+02 -0.12016902703E+03  0.19577946743E+03  0.00000000000E+00 0.  1.
         14    1    6    6    0    0 -0.26810918251E+02 -0.51754607182E+02 -0.51114124714E+02  0.77524308751E+02  0.00000000000E+00 0. -1.
         -5    1    3    3    0  503  0.10021642788E+03  0.38493717478E+02 -0.35474733319E+03  0.37066542745E+03  0.47000000000E+01 0.  1.
         11    1    4    4    0    0  0.31859943114E+02  0.50050022320E+02 -0.63145431373E+02  0.86645289617E+02  0.00000000000E+00 0. -1.
        -12    1    4    4    0    0  0.30888294102E+02 -0.27145727086E+02 -0.18117612424E+02  0.44935788538E+02  0.00000000000E+00 0.  1.
</event>
<event>
12    1  0.8258923E-002  0.1740464E+03  0.7818608E-02  0.1174164E+00
         21   -1    0    0  503  502  0.00000000000E+00  0.00000000000E+00  0.41894121805E+03  0.41894121805E+03  0.00000000000E+00 0.  1.
         21   -1    0    0  501  503 -0.00000000000E+00 -0.00000000000E+00 -0.37043170106E+03  0.37043170106E+03  0.00000000000E+00 0.  1.
          6    2    1    2  501    0  0.43425628804E+01  0.14121582344E+02 -0.33025174699E+03  0.37330731208E+03  0.17341815337E+03 0.  0.
         24    2    3    3    0    0 -0.22155435636E+02 -0.22672363351E+02 -0.31112466351E+03  0.32387176123E+03  0.84198943519E+02 0.  0.
         -6    2    1    2    0  502 -0.43425628804E+01 -0.14121582344E+02  0.37876126399E+03  0.41606560703E+03  0.17155820386E+03 0.  0.
        -24    2    5    5    0    0  0.88874057366E+01 -0.72611890353E+02  0.22426507919E+03  0.25027263577E+03  0.83606781243E+02 0.  0.
          5    1    3    3  501    0  0.26497998516E+02  0.36793945695E+02 -0.19127083481E+02  0.49435550848E+02  0.47000000000E+01 0. -1.
        -13    1    4    4    0    0  0.26365977927E+02 -0.27863741588E+02 -0.98197537581E+02  0.10542442447E+03  0.00000000000E+00 0.  1.
         14    1    4    4    0    0 -0.48521413563E+02  0.51913782370E+01 -0.21292712593E+03  0.21844733677E+03  0.00000000000E+00 0. -1.
         -5    1    5    5    0  502 -0.13229968617E+02  0.58490308009E+02  0.15449618480E+03  0.16579297126E+03  0.47000000000E+01 0.  1.
         13    1    6    6    0    0  0.17598864169E+02  0.10508026220E+02  0.16450679610E+02  0.26282379929E+02  0.00000000000E+00 0. -1.
        -14    1    6    6    0    0 -0.87114584323E+01 -0.83119916573E+02  0.20781439958E+03  0.22399025584E+03  0.00000000000E+00 0.  1.
</event>
<event>
12    1  0.8258923E-002  0.2154992E+03  0.7818608E-02  0.1137353E+00
         21   -1    0    0  501  502  0.00000000000E+00  0.00000000000E+00  0.18006555219E+04  0.18006555219E+04  0.00000000000E+00 0.  1.
         21   -1    0    0  502  503 -0.00000000000E+00 -0.00000000000E+00 -0.29596844692E+02  0.29596844692E+02  0.00000000000E+00 0. -1.
         -6    2    1    2    0  503 -0.10946847886E+03  0.70080707953E+02  0.12149208541E+04  0.12338220143E+04  0.17143345005E+03 0.  0.
        -24    2    3    3    0    0 -0.93255172613E+02  0.11058026968E+03  0.87361426868E+03  0.88970668329E+03  0.86322468582E+02 0.  0.
          6    2    1    2  501    0  0.10946847886E+03 -0.70080707953E+02  0.55613782314E+03  0.59643035231E+03  0.17188726926E+03 0.  0.
         24    2    5    5    0    0  0.65719020889E+01 -0.59852227131E+02  0.15726283057E+03  0.18434337480E+03  0.75002686385E+02 0.  0.
          5    1    5    5  501    0  0.10289657677E+03 -0.10228480823E+02  0.39887499257E+03  0.41208697750E+03  0.47000000000E+01 0. -1.
        -11    1    6    6    0    0  0.67804848554E+01  0.96988203309E+01  0.77997563751E+02  0.78890189769E+02  0.00000000000E+00 0.  1.
         12    1    6    6    0    0 -0.20858276647E+00 -0.69551047462E+02  0.79265266822E+02  0.10545318504E+03  0.00000000000E+00 0. -1.
         -5    1    3    3    0  503 -0.16213306247E+02 -0.40499561729E+02  0.34130658537E+03  0.34411533098E+03  0.47000000000E+01 0.  1.
         11    1    4    4    0    0 -0.19703683009E+02 -0.12202911600E+02  0.80013579301E+02  0.83302575279E+02  0.00000000000E+00 0. -1.
        -12    1    4    4    0    0 -0.73551489604E+02  0.12278318128E+03  0.79360068938E+03  0.80640410801E+03  0.00000000000E+00 0.  1.
</event>
<event>
12    1  0.8258923E-002  0.1727490E+03  0.7818608E-02  0.1175019E+00
         21   -1    0    0  503  502  0.00000000000E+00  0.00000000000E+00  0.55347348846E+03  0.55347348846E+03  0.00000000000E+00 0. -1.
         21   -1    0    0  501  503 -0.00000000000E+00 -0.00000000000E+00 -0.90797458473E+02  0.90797458473E+02  0.00000000000E+00 0. -1.
          6    2    1    2  501    0 -0.38291317231E+00 -0.58935033760E+01  0.25995392619E+02  0.17466240243E+03  0.17261608957E+03 0.  0.
         24    2    3    3    0    0 -0.60481227073E+02  0.28285760584E+02  0.31880427374E+02  0.10511563361E+03  0.74665063450E+02 0.  0.
         -6    2    1    2    0  502  0.38291317231E+00  0.58935033760E+01  0.43668063736E+03  0.46960854450E+03  0.17264798295E+03 0.  0.
        -24    2    5    5    0    0 -0.49779110906E+02  0.19221115521E+02  0.38372852622E+03  0.39531271703E+03  0.78594855077E+02 0.  0.
          5    1    3    3  501    0  0.60098313900E+02 -0.34179263960E+02 -0.58850347557E+01  0.69546768815E+02  0.47000000000E+01 0. -1.
        -11    1    4    4    0    0 -0.43494251385E+02  0.53729899592E+02  0.17486532725E+02  0.71305195046E+02  0.00000000000E+00 0.  1.
         12    1    4    4    0    0 -0.16986975687E+02 -0.25444139008E+02  0.14393894649E+02  0.33810438566E+02  0.00000000000E+00 0. -1.
         -5    1    5    5    0  502  0.50162024079E+02 -0.13327612145E+02  0.52952111139E+02  0.74295827469E+02  0.47000000000E+01 0.  1.
         13    1    6    6    0    0  0.14251672250E+02  0.21936629576E+02  0.62506024083E+02  0.67759345671E+02  0.00000000000E+00 0. -1.
        -14    1    6    6    0    0 -0.64030783157E+02 -0.27155140545E+01  0.32122250214E+03  0.32755337136E+03  0.00000000000E+00 0.  1.
</event>
<event>
12    1  0.8258923E-002  0.2133735E+03  0.7818608E-02  0.1138958E+00
         21   -1    0    0  503  502  0.00000000000E+00  0.00000000000E+00  0.97798626481E+03  0.97798626481E+03  0.00000000000E+00 0. -1.
         21   -1    0    0  501  503 -0.00000000000E+00 -0.00000000000E+00 -0.49187474502E+02  0.49187474502E+02  0.00000000000E+00 0. -1.
          6    2    1    2  501    0  0.10823195796E+03 -0.63975980404E+02  0.58436247515E+03  0.62209948184E+03  0.17239831831E+03 0.  0.
         24    2    3    3    0    0  0.25524407494E+02 -0.31702213986E+02  0.12293888622E+03  0.15218890172E+03  0.79943519497E+02 0.  0.
         -6    2    1    2    0  502 -0.10823195796E+03  0.63975980404E+02  0.34443631516E+03  0.40507425746E+03  0.17216763943E+03 0.  0.
        -24    2    5    5    0    0 -0.13120098661E+03  0.55244323009E+02  0.34342995870E+03  0.38003586951E+03  0.78851071458E+02 0.  0.
          5    1    3    3  501    0  0.82707550469E+02 -0.32273766418E+02  0.46142358892E+03  0.46991058013E+03  0.47000000000E+01 0. -1.
        -13    1    4    4    0    0 -0.57604272010E+01  0.24309252506E+02  0.27098344017E+02  0.36857055327E+02  0.00000000000E+00 0.  1.
         14    1    4    4    0    0  0.31284834695E+02 -0.56011466492E+02  0.95840542208E+02  0.11533184639E+03  0.00000000000E+00 0. -1.
         -5    1    5    5    0  502  0.22969028647E+02  0.87316573951E+01  0.10063564542E+01  0.25038387950E+02  0.47000000000E+01 0.  1.
         11    1    6    6    0    0 -0.30418456550E+02  0.10358999791E+02  0.18004490243E+03  0.18289001686E+03  0.00000000000E+00 0. -1.
        -12    1    6    6    0    0 -0.10078253006E+03  0.44885323218E+02  0.16338505627E+03  0.19714585265E+03  0.00000000000E+00 0.  1.
</event>
<event>
12    1  0.8258923E-002  0.2627512E+03  0.7818608E-02  0.1105623E+00
         21   -1    0    0  503  502  0.00000000000E+00  0.00000000000E+00  0.10880406285E+04  0.10880406285E+04  0.00000000000E+00 0. -1.
         21   -1    0    0  501  503 -0.00000000000E+00 -0.00000000000E+00 -0.10771655170E+03  0.10771655170E+03  0.00000000000E+00 0.  1.
          6    2    1    2  501    0 -0.19694877557E+03  0.24949244547E+02  0.10648939517E+03  0.28351048801E+03  0.17212472374E+03 0.  0.
         24    2    3    3    0    0 -0.84517205477E+02  0.14577109781E+02 -0.91596988797E+01  0.12181558367E+03  0.86020266160E+02 0.  0.
         -6    2    1    2    0  502  0.19694877557E+03 -0.24949244547E+02  0.87383468165E+03  0.91224669222E+03  0.17086746796E+03 0.  0.
        -24    2    5    5    0    0  0.14039167424E+03 -0.85525247337E+02  0.61288617131E+03  0.63841394605E+03  0.70132142423E+02 0.  0.
          5    1    3    3  501    0 -0.11243157010E+03  0.10372134766E+02  0.11564909405E+03  0.16169490434E+03  0.47000000000E+01 0. -1.
        -13    1    4    4    0    0 -0.89798711684E+02 -0.10736837880E+02 -0.21805686566E+02  0.93029975139E+02  0.00000000000E+00 0.  1.
         14    1    4    4    0    0  0.52815062067E+01  0.25313947661E+02  0.12645987686E+02  0.28785608532E+02  0.00000000000E+00 0. -1.
         -5    1    5    5    0  502  0.56557101335E+02  0.60576002789E+02  0.26094851034E+03  0.27383274617E+03  0.47000000000E+01 0.  1.
         11    1    6    6    0    0  0.87719172137E+01 -0.35187892867E+02  0.16249573856E+03  0.16649324126E+03  0.00000000000E+00 0. -1.
        -12    1    6    6    0    0  0.13161975702E+03 -0.50337354469E+02  0.45039043275E+03  0.47192070478E+03  0.00000000000E+00 0.  1.
</event>
<event>
12    1  0.8258923E-002  0.3088897E+03  0.7818608E-02  0.1080979E+00
         21   -1    0    0  501  502  0.00000000000E+00  0.00000000000E+00  0.10567248856E+03  0.10567248856E+03  0.00000000000E+00 0. -1.
         21   -1    0    0  502  503 -0.00000000000E+00 -0.00000000000E+00 -0.97155304599E+03  0.97155304599E+03  0.00000000000E+00 0.  1.
         -6    2    1    2    0  503  0.14108888185E+03  0.21373690050E+03 -0.57805768794E+03  0.65502316951E+03  0.17121660779E+03 0.  0.
        -24    2    3    3    0    0  0.86553762750E+01  0.55601021161E+02 -0.23350432925E+03  0.25342050925E+03  0.80816419372E+02 0.  0.
          6    2    1    2  501    0 -0.14108888185E+03 -0.21373690050E+03 -0.28782286949E+03  0.42220236504E+03  0.17269423159E+03 0.  0.
         24    2    5    5    0    0 -0.16773790374E+03 -0.20973008428E+03 -0.27186339507E+03  0.39053187772E+03  0.80515398110E+02 0.  0.
          5    1    5    5  501    0  0.26649021883E+02 -0.40068162231E+01 -0.15959474421E+02  0.31670487325E+02  0.47000000000E+01 0. -1.
        -13    1    6    6    0    0 -0.17568569410E+02 -0.49764293380E+02 -0.95165643033E+02  0.10881929581E+03  0.00000000000E+00 0.  1.
         14    1    6    6    0    0 -0.15016933433E+03 -0.15996579090E+03 -0.17669775204E+03  0.28171258191E+03  0.00000000000E+00 0. -1.
         -5    1    3    3    0  503  0.13243350558E+03  0.15813587934E+03 -0.34455335870E+03  0.40160266026E+03  0.47000000000E+01 0.  1.
         13    1    4    4    0    0 -0.14957474406E+01 -0.17711442330E+02 -0.16922674864E+02  0.24541992062E+02  0.00000000000E+00 0. -1.
        -14    1    4    4    0    0  0.10151123716E+02  0.73312463492E+02 -0.21658165438E+03  0.22887851719E+03  0.00000000000E+00 0.  1.
</event>
<event>
12    1  0.8258923E-002  0.1844149E+03  0.7818608E-02  0.1163619E+00
         21   -1    0    0  501  502  0.00000000000E+00  0.00000000000E+00  0.18062689849E+04  0.18062689849E+04  0.00000000000E+00 0. -1.
         21   -1    0    0  502  503 -0.00000000000E+00 -0.00000000000E+00 -0.34577467744E+02  0.34577467744E+02  0.00000000000E+00 0. -1.
         -6    2    1    2    0  503  0.64065310780E+02 -0.45338666155E+01  0.26459563626E+03  0.32252087830E+03  0.17286973771E+03 0.  0.
        -24    2    3    3    0    0  0.39233163466E+01  0.56004510126E+02  0.15206874329E+03  0.18121855632E+03  0.81014596862E+02 0.  0.
          6    2    1    2  501    0 -0.64065310780E+02  0.45338666155E+01  0.15070958809E+04  0.15183255744E+04  0.17277047063E+03 0.  0.
         24    2    5    5    0    0  0.28988069715E+02 -0.18202007414E+02  0.77228866318E+03  0.77728604181E+03  0.81069046172E+02 0.  0.
          5    1    5    5  501    0 -0.93053380495E+02  0.22735874029E+02  0.73480721773E+03  0.74103953256E+03  0.47000000000E+01 0. -1.
        -13    1    6    6    0    0  0.32885530789E+02 -0.35774635364E+02  0.72594632612E+03  0.72757085640E+03  0.00000000000E+00 0.  1.
         14    1    6    6    0    0 -0.38974610740E+01  0.17572627951E+02  0.46342337063E+02  0.49715185410E+02  0.00000000000E+00 0. -1.
         -5    1    3    3    0  503  0.60141994434E+02 -0.60538376741E+02  0.11252689298E+03  0.14130232198E+03  0.47000000000E+01 0.  1.
         13    1    4    4    0    0  0.35643300302E+02  0.50992539151E+01  0.38046145255E+02  0.52382787398E+02  0.00000000000E+00 0. -1.
        -14    1    4    4    0    0 -0.31719983955E+02  0.50905256211E+02  0.11402259803E+03  0.12883576892E+03  0.00000000000E+00 0.  1.
</event>
<event>
12    1  0.8258923E-002  0.2275616E+03  0.7818608E-02  0.1128505E+00
         21   -1    0    0  501  502  0.00000000000E+00  0.00000000000E+00  0.23576792938E+03  0.23576792938E+03  0.00000000000E+00 0. -1.
         21   -1    0    0  502  503 -0.00000000000E+00 -0.00000000000E+00 -0.21901907683E+03  0.21901907683E+03  0.00000000000E+00 0.  1.
         -6    2    1    2    0  503  0.12369125389E+03  0.80818706509E+02  0.30492703377E+01  0.22758206283E+03  0.17306966129E+03 0.  0.
        -24    2    3    3    0    0  0.13105128338E+03  0.94491252608E+01  0.12953220903E+02  0.15500131195E+03  0.81202807395E+02 0.  0.
          6    2    1    2  501    0 -0.12369125389E+03 -0.80818706509E+02  0.13699582217E+02  0.22720494339E+03  0.17205585760E+03 0.  0.
         24    2    5    5    0    0 -0.96595171952E+02  0.15185509539E+02  0.83032259674E+01  0.12719385492E+03  0.80920369644E+02 0.  0.
          5    1    5    5  501    0 -0.27096081938E+02 -0.96004216048E+02  0.53963562496E+01  0.10001108847E+03  0.47000000000E+01 0. -1.
        -13    1    6    6    0    0 -0.40411860412E+02 -0.15170532687E+02 -0.30148205673E+02  0.52651475091E+02  0.00000000000E+00 0.  1.
         14    1    6    6    0    0 -0.56183311540E+02  0.30356042226E+02  0.38451431641E+02  0.74542379828E+02  0.00000000000E+00 0. -1.
         -5    1    3    3    0  503 -0.73600294914E+01  0.71369581249E+02 -0.99039505654E+01  0.72580750881E+02  0.47000000000E+01 0.  1.
         11    1    4    4    0    0  0.75902224738E+02 -0.34560525763E+02  0.13236122492E+02  0.84443902088E+02  0.00000000000E+00 0. -1.
        -12    1    4    4    0    0  0.55149058643E+02  0.44009651024E+02 -0.28290158914E+00  0.70557409857E+02  0.00000000000E+00 0.  1.
</event>
<event>
12    1  0.8258923E-002  0.1789919E+03  0.7818608E-02  0.1169444E+00
         21   -1    0    0  501  502  0.00000000000E+00  0.00000000000E+00  0.11717132182E+03  0.11717132182E+03  0.00000000000E+00 0. -1.
         21   -1    0    0  502  503 -0.00000000000E+00 -0.00000000000E+00 -0.56628748126E+03  0.56628748126E+03  0.00000000000E+00 0. -1.
         -6    2    1    2    0  503  0.28225534772E+02  0.30703664693E+02 -0.47282533217E+03  0.50557086591E+03  0.17406524605E+03 0.  0.
        -24    2    3    3    0    0  0.20968019800E+02  0.81144617840E+02 -0.41449021251E+03  0.42796907815E+03  0.65812527163E+02 0.  0.
          6    2    1    2  501    0 -0.28225534772E+02 -0.30703664693E+02  0.23709172726E+02  0.17788793716E+03  0.17129681105E+03 0.  0.
         24    2    5    5    0    0  0.98868559056E+01 -0.48064012629E+02  0.68575060067E+02  0.11633329598E+03  0.80143606493E+02 0.  0.
          5    1    5    5  501    0 -0.38112390677E+02  0.17360347935E+02 -0.44865887341E+02  0.61554641177E+02  0.47000000000E+01 0. -1.
        -13    1    6    6    0    0  0.29645034903E+01 -0.64223551109E+02  0.73911840224E+02  0.97961282777E+02  0.00000000000E+00 0.  1.
         14    1    6    6    0    0  0.69223524153E+01  0.16159538480E+02 -0.53367801573E+01  0.18372013207E+02  0.00000000000E+00 0. -1.
         -5    1    3    3    0  503  0.72575149714E+01 -0.50440953147E+02 -0.58335119661E+02  0.77601787761E+02  0.47000000000E+01 0.  1.
         13    1    4    4    0    0 -0.77039765551E+01  0.16004770384E+02 -0.22256710599E+03  0.22327476481E+03  0.00000000000E+00 0. -1.
        -14    1    4    4    0    0  0.28671996355E+02  0.65139847457E+02 -0.19192310651E+03  0.20469431335E+03  0.00000000000E+00 0.  1.
</event>
<event>
12    1  0.8258923E-002  0.2374065E+03  0.7818608E-02  0.1121557E+00
         21   -1    0    0  503  502  0.00000000000E+00  0.00000000000E+00  0.24743964671E+03  0.24743964671E+03  0.00000000000E+00 0.  1.
         21   -1    0    0  501  503 -0.00000000000E+00 -0.00000000000E+00 -0.37885115055E+03  0.37885115055E+03  0.00000000000E+00 0. -1.
          6    2    1    2  501    0 -0.10015707583E+03 -0.12901952677E+03 -0.26355023989E+03  0.35471196208E+03  0.17229152320E+03 0.  0.
         24    2    3    3    0    0  0.88592667697E+01 -0.28650141736E+02 -0.68564275456E+02  0.10976259439E+03  0.80296015022E+02 0.  0.
         -6    2    1    2    0  502  0.10015707583E+03  0.12901952677E+03  0.13213873605E+03  0.27157883518E+03  0.17209572925E+03 0.  0.
        -24    2    5    5    0    0  0.13638751964E+03  0.12149579396E+03  0.11557714447E+03  0.23076673000E+03  0.80823411750E+02 0.  0.
          5    1    3    3  501    0 -0.10901634260E+03 -0.10036938504E+03 -0.19498596443E+03  0.24494936769E+03  0.47000000000E+01 0. -1.
        -13    1    4    4    0    0  0.98368224978E+01 -0.34734312678E+02  0.45527979539E+01  0.36386309558E+02  0.00000000000E+00 0.  1.
         14    1    4    4    0    0 -0.97755572805E+00  0.60841709413E+01 -0.73117073410E+02  0.73376284829E+02  0.00000000000E+00 0. -1.
         -5    1    5    5    0  502 -0.36230443806E+02  0.75237328079E+01  0.16561591575E+02  0.40812105181E+02  0.47000000000E+01 0.  1.
         13    1    6    6    0    0  0.48899397598E+02  0.45377525724E+02 -0.46509476792E+00  0.66711972234E+02  0.00000000000E+00 0. -1.
        -14    1    6    6    0    0  0.87488122041E+02  0.76118268240E+02  0.11604223924E+03  0.16405475777E+03  0.00000000000E+00 0.  1.
</event>
<event>
12    1  0.8258923E-002  0.1882468E+03  0.7818608E-02  0.1160353E+00
         21   -1    0    0  501  502  0.00000000000E+00  0.00000000000E+00  0.61586390105E+02  0.61586390105E+02  0.00000000000E+00 0. -1.
         21   -1    0    0  502  503 -0.00000000000E+00 -0.00000000000E+00 -0.14092198867E+04  0.14092198867E+04  0.00000000000E+00 0. -1.
         -6    2    1    2    0  503 -0.74596439211E+02 -0.17371075709E+01 -0.12418139893E+04  0.12560011366E+04  0.17282715311E+03 0.  0.
        -24    2    3    3    0    0 -0.18787399638E+02  0.50807352654E+02 -0.92762871644E+03  0.93256637521E+03  0.79061084844E+02 0.  0.
          6    2    1    2  501    0  0.74596439211E+02  0.17371075709E+01 -0.10581950732E+03  0.21480514023E+03  0.17139379759E+03 0.  0.
         24    2    5    5    0    0  0.24712043805E+02 -0.62017508715E+02 -0.66646012265E+02  0.12475095255E+03  0.81634874380E+02 0.  0.
          5    1    5    5  501    0  0.49884395407E+02  0.63754616286E+02 -0.39173495058E+02  0.90054187676E+02  0.47000000000E+01 0. -1.
        -13    1    6    6    0    0  0.10549632700E+02 -0.46409376441E+01 -0.64596713204E+02  0.65616830227E+02  0.00000000000E+00 0.  1.
         14    1    6    6    0    0  0.14162411105E+02 -0.57376571071E+02 -0.20492990604E+01  0.59134122322E+02  0.00000000000E+00 0. -1.
         -5    1    3    3    0  503 -0.55809039573E+02 -0.52544460225E+02 -0.31418527283E+03  0.32343476137E+03  0.47000000000E+01 0.  1.
         11    1    4    4    0    0 -0.28319107659E+01  0.79777135147E+01 -0.71637485879E+03  0.71642487529E+03  0.00000000000E+00 0. -1.
        -12    1    4    4    0    0 -0.15955488872E+02  0.42829639140E+02 -0.21125385765E+03  0.21614149992E+03  0.00000000000E+00 0.  1.
</event>
<event>
12    1  0.8258923E-002  0.1801322E+03  0.7818608E-02  0.1168717E+00
         21   -1    0    0  501  502  0.00000000000E+00  0.00000000000E+00  0.25926726154E+03  0.25926726154E+03  0.00000000000E+00 0.  1.
         21   -1    0    0  502  503 -0.00000000000E+00 -0.00000000000E+00 -0.12835642965E+03  0.12835642965E+03  0.00000000000E+00 0.  1.
         -6    2    1    2    0  503 -0.35128905338E+02  0.39144502913E+02  0.10711386458E+03  0.20592639108E+03  0.16782719226E+03 0.  0.
        -24    2    3    3    0    0  0.12580361266E+02 -0.29757218543E+02  0.61085565460E+02  0.11019595883E+03  0.85836737414E+02 0.  0.
          6    2    1    2  501    0  0.35128905338E+02 -0.39144502913E+02  0.23796967306E+02  0.18169730011E+03  0.17228256185E+03 0.  0.
         24    2    5    5    0    0  0.89960010047E+02 -0.20881016060E+02  0.11228455706E+02  0.12236718567E+03  0.79491066618E+02 0.  0.
          5    1    5    5  501    0 -0.54831104709E+02 -0.18263486853E+02  0.12568511600E+02  0.59330114440E+02  0.47000000000E+01 0. -1.
        -11    1    6    6    0    0  0.73995348907E+02 -0.48353895288E+02  0.17159666877E+02  0.90043683936E+02  0.00000000000E+00 0.  1.
         12    1    6    6    0    0  0.15964661141E+02  0.27472879229E+02 -0.59312111718E+01  0.32323501735E+02  0.00000000000E+00 0. -1.
         -5    1    3    3    0  503 -0.47709266604E+02  0.68901721456E+02  0.46028299122E+02  0.95730432254E+02  0.47000000000E+01 0.  1.
         13    1    4    4    0    0  0.71626309251E+01 -0.31535574580E+02 -0.13752102570E+02  0.35141372639E+02  0.00000000000E+00 0. -1.
        -14    1    4    4    0    0  0.54177303407E+01  0.17783560368E+01  0.74837668030E+02  0.75054586191E+02  0.00000000000E+00 0.  1.
</event>
<event>
12    1  0.8258923E-002  0.1990293E+03  0.7818608E-02  0.1150696E+00
         21   -1    0    0  501  502  0.00000000000E+00  0.00000000000E+00  0.82767800333E+03  0.82767800333E+03  0.00000000000E+00 0. -1.
         21   -1    0    0  502  503 -0.00000000000E+00 -0.00000000000E+00 -0.47720444324E+02  0.47720444324E+02  0.00000000000E+00 0.  1.
         -6    2    1    2    0  503 -0.78221478165E+02  0.63401103890E+02  0.38320255839E+03  0.43180651918E+03  0.17168101129E+03 0.  0.
        -24    2    3    3    0    0 -0.11986194618E+03  0.36472129622E+02  0.27082807174E+03  0.30888697850E+03  0.79788587319E+02 0.  0.
          6    2    1    2  501    0  0.78221478165E+02 -0.63401103890E+02  0.39675500062E+03  0.44359192847E+03  0.17094141940E+03 0.  0.
         24    2    5    5    0    0  0.36466159451E+02 -0.77569133943E+02  0.13478428318E+03  0.17789475778E+03  0.78313412185E+02 0.  0.
          5    1    5    5  501    0  0.41755318714E+02  0.14168030053E+02  0.26197071744E+03  0.26569717069E+03  0.47000000000E+01 0. -1.
        -13    1    6    6    0    0  0.14420152492E+02 -0.89694133335E+02  0.10250522267E+03  0.13696824095E+03  0.00000000000E+00 0.  1.
         14    1    6    6    0    0  0.22046006959E+02  0.12124999392E+02  0.32279060511E+02  0.40926516838E+02  0.00000000000E+00 0. -1.
         -5    1    3    3    0  503  0.41640468017E+02  0.26928974268E+02  0.11237448665E+03  0.12291954068E+03  0.47000000000E+01 0.  1.
         11    1    4    4    0    0 -0.57917833044E+02  0.27635881997E+02  0.21718960907E+03  0.22647194892E+03  0.00000000000E+00 0. -1.
        -12    1    4    4    0    0 -0.61944113137E+02  0.88362476248E+01  0.53638462669E+02  0.82415029587E+02  0.00000000000E+00 0.  1.
</event>
<event>
12    1  0.8258923E-002  0.1961784E+03  0.7818608E-02  0.1153306E+00
         21   -1    0    0  503  502  0.00000000000E+00  0.00000000000E+00  0.27860721028E+03  0.27860721028E+03  0.00000000000E+00 0. -1.
         21   -1    0    0  501  503 -0.00000000000E+00 -0.00000000000E+00 -0.21062113820E+03  0.21062113820E+03  0.00000000000E+00 0. -1.
          6    2    1    2  501    0 -0.41981546015E+02 -0.86010524061E+02 -0.11039136038E+03  0.22510486325E+03  0.17124744248E+03 0.  0.
         24    2    3    3    0    0  0.19021162549E+02 -0.12121141386E+02  0.20542748350E+02  0.62787882763E+02  0.54877928340E+02 0.  0.
         -6    2    1    2    0  502  0.41981546015E+02  0.86010524061E+02  0.17837743245E+03  0.26412348523E+03  0.16965390236E+03 0.  0.
        -24    2    5    5    0    0  0.47152625138E+02  0.10969666490E+03  0.18888110962E+03  0.23728711883E+03  0.79827156060E+02 0.  0.
          5    1    3    3  501    0 -0.61002708565E+02 -0.73889382675E+02 -0.13093410873E+03  0.16231698048E+03  0.47000000000E+01 0. -1.
        -13    1    4    4    0    0  0.24609231094E+02 -0.21326046908E-01 -0.12177496515E+02  0.27457351133E+02  0.00000000000E+00 0.  1.
         14    1    4    4    0    0 -0.55880685450E+01 -0.12099815339E+02  0.32720244865E+02  0.35330531631E+02  0.00000000000E+00 0. -1.
         -5    1    5    5    0  502 -0.51710791224E+01 -0.23686140842E+02 -0.10503677168E+02  0.26836366396E+02  0.47000000000E+01 0.  1.
         13    1    6    6    0    0 -0.20173590408E+02  0.13629074735E+02  0.19218331271E+02  0.31017248184E+02  0.00000000000E+00 0. -1.
        -14    1    6    6    0    0  0.67326215546E+02  0.96067590168E+02  0.16966277835E+03  0.20626987065E+03  0.00000000000E+00 0.  1.
</event>
<event>
12    1  0.8258923E-002  0.1938822E+03  0.7818608E-02  0.1155882E+00
         21   -1    0    0  503  502  0.00000000000E+00  0.00000000000E+00  0.84687875990E+02  0.84687875990E+02  0.00000000000E+00 0. -1.
         21   -1    0    0  501  503 -0.00000000000E+00 -0.00000000000E+00 -0.46045222135E+03  0.46045222135E+03  0.00000000000E+00 0. -1.
          6    2    1    2  501    0  0.88879138563E+02 -0.49003887910E+01 -0.25394386138E+03  0.31949616259E+03  0.17224052396E+03 0.  0.
         24    2    3    3    0    0  0.20243525914E+02  0.45830188484E+02 -0.74116493633E+02  0.12038711964E+03  0.80558037639E+02 0.  0.
         -6    2    1    2    0  502 -0.88879138563E+02  0.49003887910E+01 -0.12182048398E+03  0.22564393475E+03  0.16778390832E+03 0.  0.
        -24    2    5    5    0    0 -0.34777716743E+02  0.59453893694E+02 -0.30785438902E+02  0.10642766836E+03  0.75065639853E+02 0.  0.
          5    1    3    3  501    0  0.68635612649E+02 -0.50730577275E+02 -0.17982736775E+03  0.19910904295E+03  0.47000000000E+01 0. -1.
        -13    1    4    4    0    0 -0.14465564066E+02  0.16374103526E+01  0.11102691507E+02  0.18308561252E+02  0.00000000000E+00 0.  1.
         14    1    4    4    0    0  0.34709089980E+02  0.44192778132E+02 -0.85219185140E+02  0.10207855839E+03  0.00000000000E+00 0. -1.
         -5    1    5    5    0  502 -0.54101421820E+02 -0.54553504903E+02 -0.91035045080E+02  0.11921626639E+03  0.47000000000E+01 0.  1.
         13    1    6    6    0    0  0.10915619867E+02  0.15680906245E+02  0.18214184491E+02  0.26396933428E+02  0.00000000000E+00 0. -1.
        -14    1    6    6    0    0 -0.45693336610E+02  0.43772987449E+02 -0.48999623393E+02  0.80030734930E+02  0.00000000000E+00 0.  1.
</event>
<event>
12    1  0.8258923E-002  0.1903775E+03  0.7818608E-02  0.1158376E+00
         21   -1    0    0  501  502  0.00000000000E+00  0.00000000000E+00  0.73714119107E+03  0.73714119107E+03  0.00000000000E+00 0.  1.
         21   -1    0    0  502  503 -0.00000000000E+00 -0.00000000000E+00 -0.70239576108E+02  0.70239576108E+02  0.00000000000E+00 0.  1.
         -6    2    1    2    0  503 -0.76046828393E+02 -0.14177475429E+02  0.11150875282E+03  0.22063048950E+03  0.17395255107E+03 0.  0.
        -24    2    3    3    0    0  0.10176668245E+02  0.30638775010E+02  0.82818408040E+02  0.11919965809E+03  0.79418956608E+02 0.  0.
          6    2    1    2  501    0  0.76046828393E+02  0.14177475429E+02  0.55539286214E+03  0.58675027768E+03  0.17271518787E+03 0.  0.
         24    2    5    5    0    0  0.31562313813E+01 -0.41614898706E+02  0.15196228387E+03  0.17298204591E+03  0.71333658920E+02 0.  0.
          5    1    5    5  501    0  0.72890597012E+02  0.55792374135E+02  0.40343057826E+03  0.41376823177E+03  0.47000000000E+01 0. -1.
        -13    1    6    6    0    0  0.14883277156E+02  0.58897515722E+01  0.10126923309E+03  0.10252638042E+03  0.00000000000E+00 0.  1.
         14    1    6    6    0    0 -0.11727045775E+02 -0.47504650278E+02  0.50693050786E+02  0.70455665483E+02  0.00000000000E+00 0. -1.
         -5    1    3    3    0  503 -0.86223496638E+02 -0.44816250439E+02  0.28690344782E+02  0.10143083141E+03  0.47000000000E+01 0.  1.
         11    1    4    4    0    0 -0.26144126048E+02  0.37879234600E+02  0.60291329165E+02  0.75851144442E+02  0.00000000000E+00 0. -1.
        -12    1    4    4    0    0  0.36320794293E+02 -0.72404595899E+01  0.22527078875E+02  0.43348513651E+02  0.00000000000E+00 0.  1.
</event>
<event>
12    1  0.8258923E-002  0.2142811E+03  0.7818608E-02  0.1138494E+00
         21   -1    0    0  501  502  0.00000000000E+00  0.00000000000E+00  0.59031374987E+03  0.59031374987E+03  0.00000000000E+00 0.  1.
         21   -1    0    0  502  503 -0.00000000000E+00 -0.00000000000E+00 -0.99584239978E+02  0.99584239978E+02  0.00000000000E+00 0.  1.
         -6    2    1    2    0  503  0.61134195893E+02 -0.10828621228E+03  0.82709430123E+02  0.22968946366E+03  0.17450818378E+03 0.  0.
        -24    2    3    3    0    0  0.24330419176E+02  0.73930851406E+01  0.69788995370E+02  0.10752054180E+03  0.77740182851E+02 0.  0.
          6    2    1    2  501    0 -0.61134195893E+02  0.10828621228E+03  0.40802007977E+03  0.46020852619E+03  0.17276634049E+03 0.  0.
         24    2    5    5    0    0 -0.10185619943E+03  0.62438768595E+02  0.31996452304E+03  0.35280209838E+03  0.88423636141E+02 0.  0.
          5    1    5    5  501    0  0.40722003539E+02  0.45847443686E+02  0.88055556727E+02  0.10740642781E+03  0.47000000000E+01 0. -1.
        -11    1    6    6    0    0 -0.29731730992E+02  0.69934145336E+02  0.17107288279E+03  0.18719159099E+03  0.00000000000E+00 0.  1.
         12    1    6    6    0    0 -0.72124468441E+02 -0.74953767407E+01  0.14889164025E+03  0.16561050739E+03  0.00000000000E+00 0. -1.
         -5    1    3    3    0  503  0.36803776717E+02 -0.11567929742E+03  0.12920434753E+02  0.12216892185E+03  0.47000000000E+01 0.  1.
         13    1    4    4    0    0  0.47261660397E+02  0.16184012278E+02  0.23690820467E+02  0.55288712874E+02  0.00000000000E+00 0. -1.
        -14    1    4    4    0    0 -0.22931241221E+02 -0.87909271376E+01  0.46098174903E+02  0.52231828929E+02  0.00000000000E+00 0.  1.
</event>
<event>
12    1  0.8258923E-002  0.1764987E+03  0.7818608E-02  0.1171383E+00
         21   -1    0    0  501  502  0.00000000000E+00  0.00000000000E+00  0.29336173578E+03  0.29336173578E+03  0.00000000000E+00 0.  1.
         21   -1    0    0  502  503 -0.00000000000E+00 -0.00000000000E+00 -0.18427921744E+03  0.18427921744E+03  0.00000000000E+00 0.  1.
         -6    2    1    2    0  503 -0.38885668132E+02  0.10562077072E+02 -0.10122567298E+03  0.20346603640E+03  0.17183753502E+03 0.  0.
        -24    2    3    3    0    0 -0.64940226933E+02 -0.87887352379E+01 -0.12561092311E+03  0.16260010444E+03  0.79788564463E+02 0.  0.
          6    2    1    2  501    0  0.38885668132E+02 -0.10562077072E+02  0.21030819133E+03  0.27417491682E+03  0.17122703353E+03 0.  0.
         24    2    5    5    0    0 -0.55934781905E+01 -0.52098872364E+02  0.18424722420E+03  0.20780501529E+03  0.80562430791E+02 0.  0.
          5    1    5    5  501    0  0.44479146323E+02  0.41536795293E+02  0.26060967130E+02  0.66369901526E+02  0.47000000000E+01 0. -1.
        -13    1    6    6    0    0  0.30500340187E+02 -0.14218833643E+02  0.30566959850E+02  0.45461907309E+02  0.00000000000E+00 0.  1.
         14    1    6    6    0    0 -0.36093818378E+02 -0.37880038722E+02  0.15368026435E+03  0.16234310798E+03  0.00000000000E+00 0. -1.
         -5    1    3    3    0  503  0.26054558801E+02  0.19350812310E+02  0.24385250125E+02  0.40865931961E+02  0.47000000000E+01 0.  1.
         13    1    4    4    0    0  0.16397205748E+02 -0.14212123088E+02 -0.24744303463E+02  0.32910991369E+02  0.00000000000E+00 0. -1.
        -14    1    4    4    0    0 -0.81337432681E+02  0.54233878501E+01 -0.10086661965E+03  0.12968911307E+03  0.00000000000E+00 0.  1.
</event>
<event>
12    1  0.8258923E-002  0.2029509E+03  0.7818608E-02  0.1147374E+00
         21   -1    0    0  503  502  0.00000000000E+00  0.00000000000E+00  0.70388564207E+03  0.70388564207E+03  0.00000000000E+00 0.  1.
         21   -1    0    0  501  503 -0.00000000000E+00 -0.00000000000E+00 -0.31242257134E+03  0.31242257134E+03  0.00000000000E+00 0.  1.
          6    2    1    2  501    0 -0.10680069982E+03 -0.61908979335E+01 -0.26254011822E+03  0.33153873766E+03  0.17188922071E+03 0.  0.
         24    2    3    3    0    0 -0.80745054965E+02  0.62714155075E+01 -0.27628924365E+03  0.29920710709E+03  0.81425132638E+02 0.  0.
         -6    2    1    2    0  502  0.10680069982E+03  0.61908979335E+01  0.65400318895E+03  0.68476947575E+03  0.17246549527E+03 0.  0.
        -24    2    5    5    0    0  0.73788919200E+02 -0.61168348188E+00  0.63802668561E+03  0.64717437722E+03  0.79444598518E+02 0.  0.
          5    1    3    3  501    0 -0.26055644860E+02 -0.12462313441E+02  0.13749125428E+02  0.32331630572E+02  0.47000000000E+01 0. -1.
        -13    1    4    4    0    0  0.10813923052E+02 -0.70978918454E+01 -0.75343058144E+01  0.14969527866E+02  0.00000000000E+00 0.  1.
         14    1    4    4    0    0 -0.91558978016E+02  0.13369307353E+02 -0.26875493783E+03  0.28423757923E+03  0.00000000000E+00 0. -1.
         -5    1    5    5    0  502  0.33011780625E+02  0.68025814154E+01  0.15976503339E+02  0.37595098522E+02  0.47000000000E+01 0.  1.
         13    1    6    6    0    0  0.18712718059E+02  0.23435651228E+01  0.23288617399E+02  0.29966945373E+02  0.00000000000E+00 0. -1.
        -14    1    6    6    0    0  0.55076201141E+02 -0.29552486047E+01  0.61473806821E+03  0.61720743185E+03  0.00000000000E+00 0.  1.
</event>
<event>
12    1  0.8258923E-002  0.2116649E+03  0.7818608E-02  0.1140813E+00
         21   -1    0    0  503  502  0.00000000000E+00  0.00000000000E+00  0.22373439836E+03  0.22373439836E+03  0.00000000000E+00 0. -1.
         21   -1    0    0  501  503 -0.00000000000E+00 -0.00000000000E+00 -0.19765432010E+03  0.19765432010E+03  0.00000000000E+00 0. -1.
          6    2    1    2  501    0 -0.29587192018E+02 -0.11457469496E+03  0.17102664581E+02  0.20953350909E+03  0.17207273938E+03 0.  0.
         24    2    3    3    0    0 -0.62835640896E+02 -0.15463751367E+02  0.64861214483E+00  0.10360303975E+03  0.80905647358E+02 0.  0.
         -6    2    1    2    0  502  0.29587192018E+02  0.11457469496E+03  0.89774136829E+01  0.21185520938E+03  0.17549721687E+03 0.  0.
        -24    2    5    5    0    0  0.17517013085E+02  0.15144208779E+02  0.56326257402E+02  0.10096736603E+03  0.80533030009E+02 0.  0.
          5    1    3    3  501    0  0.33248448877E+02 -0.99110943593E+02  0.16454052436E+02  0.10593046934E+03  0.47000000000E+01 0. -1.
        -11    1    4    4    0    0 -0.12648587850E+02 -0.43356335924E+02  0.74869073210E+01  0.45780043912E+02  0.00000000000E+00 0.  1.
         12    1    4    4    0    0 -0.50187053046E+02  0.27892584557E+02 -0.68382951761E+01  0.57822995837E+02  0.00000000000E+00 0. -1.
         -5    1    5    5    0  502  0.12070178933E+02  0.99430486181E+02 -0.47348843719E+02  0.11088784335E+03  0.47000000000E+01 0.  1.
         13    1    6    6    0    0 -0.29384092560E+02  0.94297061211E+01  0.40958541645E+02  0.51283002903E+02  0.00000000000E+00 0. -1.
        -14    1    6    6    0    0  0.46901105645E+02  0.57145026584E+01  0.15367715757E+02  0.49684363123E+02  0.00000000000E+00 0.  1.
</event>
<event>
12    1  0.8258923E-002  0.2181710E+03  0.7818608E-02  0.1135500E+00
         21   -1    0    0  503  502  0.00000000000E+00  0.00000000000E+00  0.23694796025E+03  0.23694796025E+03  0.00000000000E+00 0.  1.
         21   -1    0    0  501  503 -0.00000000000E+00 -0.00000000000E+00 -0.21615788092E+03  0.21615788092E+03  0.00000000000E+00 0. -1.
          6    2    1    2  501    0  0.10447880265E+03  0.83495677957E+02 -0.52171871542E+02  0.22305795095E+03  0.17072081555E+03 0.  0.
         24    2    3    3    0    0  0.52793040879E+02 -0.22839364871E+02 -0.65533892491E+01  0.96244326959E+02  0.76884860722E+02 0.  0.
         -6    2    1    2    0  502 -0.10447880265E+03 -0.83495677957E+02  0.72961950872E+02  0.23004789022E+03  0.17236947839E+03 0.  0.
        -24    2    5    5    0    0 -0.61293378160E+02 -0.11180729537E+03  0.90525494879E+02  0.17530214476E+03  0.79235265063E+02 0.  0.
          5    1    3    3  501    0  0.51685761768E+02  0.10633504283E+03 -0.45618482293E+02  0.12681362399E+03  0.47000000000E+01 0. -1.
        -11    1    4    4    0    0 -0.76318098851E+01 -0.27565983716E+02  0.14518061387E+02  0.32076503656E+02  0.00000000000E+00 0.  1.
         12    1    4    4    0    0  0.60424850764E+02  0.47266188453E+01 -0.21071450637E+02  0.64167823303E+02  0.00000000000E+00 0. -1.
         -5    1    5    5    0  502 -0.43185424487E+02  0.28311617409E+02 -0.17563544007E+02  0.54745745465E+02  0.47000000000E+01 0.  1.
         11    1    6    6    0    0 -0.16819552017E+02 -0.57677676406E+02 -0.94302593662E+00  0.60087444476E+02  0.00000000000E+00 0. -1.
        -12    1    6    6    0    0 -0.44473826143E+02 -0.54129618960E+02  0.91468520816E+02  0.11521470028E+03  0.00000000000E+00 0.  1.
</event>
<event>
12    1  0.8258923E-002  0.2583982E+03  0.7818608E-02  0.1108164E+00
         21   -1    0    0  503  502  0.00000000000E+00  0.00000000000E+00  0.22763819696E+02  0.22763819696E+02  0.00000000000E+00 0.  1.
         21   -1    0    0  501  503 -0.00000000000E+00 -0.00000000000E+00 -0.29679014017E+04  0.29679014017E+04  0.00000000000E+00 0. -1.
          6    2    1    2  501    0 -0.18226914685E+03 -0.61597952504E+02 -0.13004909899E+04  0.13258432890E+04  0.17195133705E+03 0.  0.
         24    2    3    3    0    0 -0.10663316325E+03 -0.68580450852E+02 -0.50639079681E+03  0.52810475784E+03  0.79931760998E+02 0.  0.
         -6    2    1    2    0  502  0.18226914685E+03  0.61597952504E+02 -0.16446465921E+04  0.16648219325E+04  0.17249146151E+03 0.  0.
        -24    2    5    5    0    0  0.21848581864E+02  0.40589370495E+02 -0.55433745970E+03  0.56256415301E+03  0.84044925497E+02 0.  0.
          5    1    3    3  501    0 -0.75635983595E+02  0.69824983483E+01 -0.79410019314E+03  0.79773853112E+03  0.47000000000E+01 0. -1.
        -13    1    4    4    0    0 -0.31998148287E+02  0.12013877382E+02 -0.19343581106E+03  0.19643224721E+03  0.00000000000E+00 0.  1.
         14    1    4    4    0    0 -0.74635014966E+02 -0.80594328234E+02 -0.31295498575E+03  0.33167251063E+03  0.00000000000E+00 0. -1.
         -5    1    5    5    0  502  0.16042056499E+03  0.21008582009E+02 -0.10903091324E+04  0.11022577795E+04  0.47000000000E+01 0.  1.
         11    1    6    6    0    0  0.30155058046E+02  0.63776871537E+02 -0.37965381931E+03  0.38615261152E+03  0.00000000000E+00 0. -1.
        -12    1    6    6    0    0 -0.83064761823E+01 -0.23187501042E+02 -0.17468364039E+03  0.17641154149E+03  0.00000000000E+00 0.  1.
</event>
<event>
12    1  0.8258923E-002  0.1966574E+03  0.7818608E-02  0.1153010E+00
         21   -1    0    0  503  502  0.00000000000E+00  0.00000000000E+00  0.11625163211E+03  0.11625163211E+03  0.00000000000E+00 0.  1.
         21   -1    0    0  501  503 -0.00000000000E+00 -0.00000000000E+00 -0.33148183361E+03  0.33148183361E+03  0.00000000000E+00 0. -1.
          6    2    1    2  501    0 -0.45445872864E+01  0.94311501912E+02 -0.12584065016E+03  0.23347380033E+03  0.17250748837E+03 0.  0.
         24    2    3    3    0    0 -0.12784179113E+02 -0.32249253362E+01 -0.83295464124E+02  0.12664015222E+03  0.94476232101E+02 0.  0.
         -6    2    1    2    0  502  0.45445872864E+01 -0.94311501912E+02 -0.89389551332E+02  0.21425966539E+03  0.17029797315E+03 0.  0.
        -24    2    5    5    0    0 -0.47265543431E+02 -0.58311273011E+02 -0.10113161463E+03  0.14991471861E+03  0.81317791545E+02 0.  0.
          5    1    3    3  501    0  0.82395918269E+01  0.97536427248E+02 -0.42545186038E+02  0.10683364811E+03  0.47000000000E+01 0. -1.
        -13    1    4    4    0    0 -0.17477928267E+02  0.41663342479E+02 -0.21283714450E+02  0.49943053409E+02  0.00000000000E+00 0.  1.
         14    1    4    4    0    0  0.46937491541E+01 -0.44888267815E+02 -0.62011749674E+02  0.76697098812E+02  0.00000000000E+00 0. -1.
         -5    1    5    5    0  502  0.51810130718E+02 -0.36000228900E+02  0.11742063293E+02  0.64344946781E+02  0.47000000000E+01 0.  1.
         11    1    6    6    0    0  0.91167251536E+01 -0.53276136480E+02 -0.50307609721E+02  0.73839806281E+02  0.00000000000E+00 0. -1.
        -12    1    6    6    0    0 -0.56382268585E+02 -0.50351365315E+01 -0.50824004905E+02  0.76074912325E+02  0.00000000000E+00 0.  1.
</event>
<event>
12    1  0.8258923E-002  0.2527617E+03  0.7818608E-02  0.1111999E+00
         21   -1    0    0  501  502  0.00000000000E+00  0.00000000000E+00  0.65214094095E+03  0.65214094095E+03  0.00000000000E+00 0. -1.
         21   -1    0    0  502  503 -0.00000000000E+00 -0.00000000000E+00 -0.44188674703E+03  0.44188674703E+03  0.00000000000E+00 0.  1.
         -6    2    1    2    0  503  0.15809493501E+03  0.94671384409E+02 -0.37831704897E+03  0.45347745620E+03  0.16900098887E+03 0.  0.
        -24    2    3    3    0    0  0.38173934527E+02  0.33219149934E+02 -0.91548156261E+02  0.13659275902E+03  0.87839374445E+02 0.  0.
          6    2    1    2  501    0 -0.15809493501E+03 -0.94671384409E+02  0.58857124288E+03  0.64055023178E+03  0.17300812692E+03 0.  0.
         24    2    5    5    0    0 -0.16827465197E+03 -0.12069803788E+03  0.48871736373E+03  0.53675283051E+03  0.79840870502E+02 0.  0.
          5    1    5    5  501    0  0.10179716959E+02  0.26026653475E+02  0.99853879150E+02  0.10379740127E+03  0.47000000000E+01 0. -1.
        -13    1    6    6    0    0 -0.57176862503E+02 -0.65854103131E+02  0.12425333083E+03  0.15180529216E+03  0.00000000000E+00 0.  1.
         14    1    6    6    0    0 -0.11109778947E+03 -0.54843934752E+02  0.36446403290E+03  0.38494753835E+03  0.00000000000E+00 0. -1.
         -5    1    3    3    0  503  0.11992100049E+03  0.61452234475E+02 -0.28676889271E+03  0.31688469718E+03  0.47000000000E+01 0.  1.
         13    1    4    4    0    0  0.43855265987E+02  0.54854642203E+02 -0.41014648739E+02  0.81329684231E+02  0.00000000000E+00 0. -1.
        -14    1    4    4    0    0 -0.56813314600E+01 -0.21635492269E+02 -0.50533507522E+02  0.55263074791E+02  0.00000000000E+00 0.  1.
</event>
<event>
12    1  0.8258923E-002  0.1909040E+03  0.7818608E-02  0.1158110E+00
         21   -1    0    0  503  502  0.00000000000E+00  0.00000000000E+00  0.29755349110E+03  0.29755349110E+03  0.00000000000E+00 0.  1.
         21   -1    0    0  501  503 -0.00000000000E+00 -0.00000000000E+00 -0.24087003253E+03  0.24087003253E+03  0.00000000000E+00 0.  1.
          6    2    1    2  501    0 -0.19836203947E+02  0.74375583082E+02 -0.16151294986E+03  0.24850283570E+03  0.17245876038E+03 0.  0.
         24    2    3    3    0    0 -0.15277423927E+02  0.22219500932E+02 -0.17546452134E+03  0.19411739898E+03  0.78528086903E+02 0.  0.
         -6    2    1    2    0  502  0.19836203947E+02 -0.74375583082E+02  0.21819640842E+03  0.28992068793E+03  0.17469725326E+03 0.  0.
        -24    2    5    5    0    0  0.12566670112E+02  0.80971035169E+01  0.31109701789E+02  0.85279255282E+02  0.77982392583E+02 0.  0.
          5    1    3    3  501    0 -0.45587800202E+01  0.52156082150E+02  0.13951571482E+02  0.54385436720E+02  0.47000000000E+01 0. -1.
        -13    1    4    4    0    0  0.31641498844E+02  0.69884145903E+01 -0.53407635722E+02  0.62469175927E+02  0.00000000000E+00 0.  1.
         14    1    4    4    0    0 -0.46918922771E+02  0.15231086342E+02 -0.12205688562E+03  0.13164822305E+03  0.00000000000E+00 0. -1.
         -5    1    5    5    0  502  0.72695338344E+01 -0.82472686599E+02  0.18708670663E+03  0.20464143265E+03  0.47000000000E+01 0.  1.
         11    1    6    6    0    0  0.15495470270E-01 -0.28963551669E+02 -0.79058391095E+01  0.30023155354E+02  0.00000000000E+00 0. -1.
        -12    1    6    6    0    0  0.12551174642E+02  0.37060655186E+02  0.39015540899E+02  0.55256099928E+02  0.00000000000E+00 0.  1.
</event>
<event>
12    1  0.8258923E-002  0.2584902E+03  0.7818608E-02  0.1108119E+00
         21   -1    0    0  501  502  0.00000000000E+00  0.00000000000E+00  0.23880206810E+03  0.23880206810E+03  0.00000000000E+00 0. -1.
         21   -1    0    0  502  503 -0.00000000000E+00 -0.00000000000E+00 -0.29848242666E+03  0.29848242666E+03  0.00000000000E+00 0.  1.
         -6    2    1    2    0  503 -0.11181066835E+03 -0.15728829224E+03 -0.97901005029E+02  0.27640872216E+03  0.17197657534E+03 0.  0.
        -24    2    3    3    0    0  0.56686649178E+01 -0.77120762490E+02 -0.69549934768E+02  0.13130841287E+03  0.80155848786E+02 0.  0.
          6    2    1    2  501    0  0.11181066835E+03  0.15728829224E+03  0.38220646462E+02  0.26087577260E+03  0.17133043654E+03 0.  0.
         24    2    5    5    0    0  0.13487527676E+03  0.15839574233E+03  0.82097542184E+01  0.22271890874E+03  0.79093367470E+02 0.  0.
          5    1    5    5  501    0 -0.23064608408E+02 -0.11074500907E+01  0.30010892243E+02  0.38156863864E+02  0.47000000000E+01 0. -1.
        -13    1    6    6    0    0  0.53778550486E+02  0.21193163784E+02  0.23943492851E+02  0.62566552834E+02  0.00000000000E+00 0.  1.
         14    1    6    6    0    0  0.81096726273E+02  0.13720257854E+03 -0.15733738633E+02  0.16015235591E+03  0.00000000000E+00 0. -1.
         -5    1    3    3    0  503 -0.11747933327E+03 -0.80167529746E+02 -0.28351070261E+02  0.14510030929E+03  0.47000000000E+01 0.  1.
         11    1    4    4    0    0  0.16288614680E+02 -0.20858724469E+02  0.14063930311E+02  0.29969976484E+02  0.00000000000E+00 0. -1.
        -12    1    4    4    0    0 -0.10619949762E+02 -0.56262038021E+02 -0.83613865079E+02  0.10133843638E+03  0.00000000000E+00 0.  1.
</event>
<event>
12    1  0.8258923E-002  0.3171836E+03  0.7818608E-02  0.1077077E+00
         21   -1    0    0  501  502  0.00000000000E+00  0.00000000000E+00  0.15578303479E+03  0.15578303479E+03  0.00000000000E+00 0. -1.
         21   -1    0    0  502  503 -0.00000000000E+00 -0.00000000000E+00 -0.96830884216E+03  0.96830884216E+03  0.00000000000E+00 0. -1.
         -6    2    1    2    0  503 -0.26543284177E+03  0.19871020553E+02 -0.73216421602E+03  0.79791597549E+03  0.17249931532E+03 0.  0.
        -24    2    3    3    0    0 -0.27180760290E+03 -0.12219092108E+02 -0.64098558036E+03  0.70093120087E+03  0.80083424676E+02 0.  0.
          6    2    1    2  501    0  0.26543284177E+03 -0.19871020553E+02 -0.80361591359E+02  0.32617590146E+03  0.17053821384E+03 0.  0.
         24    2    5    5    0    0  0.21043604244E+03 -0.73762682912E+02 -0.45733178983E+02  0.24161718723E+03  0.81012839461E+02 0.  0.
          5    1    5    5  501    0  0.54996799328E+02  0.53891662359E+02 -0.34628412376E+02  0.84558714227E+02  0.47000000000E+01 0. -1.
        -13    1    6    6    0    0  0.29866450150E+01 -0.25663947375E+01 -0.20464323634E+02  0.20839745013E+02  0.00000000000E+00 0.  1.
         14    1    6    6    0    0  0.20744939743E+03 -0.71196288174E+02 -0.25268855349E+02  0.22077744222E+03  0.00000000000E+00 0. -1.
         -5    1    3    3    0  503  0.63747611293E+01  0.32090112661E+02 -0.91178635653E+02  0.96984774628E+02  0.47000000000E+01 0.  1.
         13    1    4    4    0    0 -0.18227426511E+03  0.87258962071E+01 -0.50333905763E+03  0.53539728793E+03  0.00000000000E+00 0. -1.
        -14    1    4    4    0    0 -0.89533337795E+02 -0.20944988315E+02 -0.13764652273E+03  0.16553391294E+03  0.00000000000E+00 0.  1.
</event>
<event>
12    1  0.8258923E-002  0.1794212E+03  0.7818608E-02  0.1169155E+00
         21   -1    0    0  503  502  0.00000000000E+00  0.00000000000E+00  0.17829044626E+02  0.17829044626E+02  0.00000000000E+00 0.  1.
         21   -1    0    0  501  503 -0.00000000000E+00 -0.00000000000E+00 -0.17804254196E+04  0.17804254196E+04  0.00000000000E+00 0.  1.
          6    2    1    2  501    0 -0.34512548539E+02 -0.11943851413E+02 -0.93026145248E+03  0.94680077165E+03  0.17237041404E+03 0.  0.
         24    2    3    3    0    0 -0.89072349452E+02 -0.30397115953E+01 -0.60362024789E+03  0.61548125500E+03  0.80725759854E+02 0.  0.
         -6    2    1    2    0  502  0.34512548539E+02  0.11943851413E+02 -0.83233492247E+03  0.85145369255E+03  0.17566501018E+03 0.  0.
        -24    2    5    5    0    0  0.23834792463E+01 -0.49370579471E+02 -0.29373286550E+03  0.30840120678E+03  0.79932302470E+02 0.  0.
          5    1    3    3  501    0  0.54559800913E+02 -0.89041398176E+01 -0.32664120459E+03  0.33131951666E+03  0.47000000000E+01 0. -1.
        -13    1    4    4    0    0 -0.49771701539E+02 -0.40281313510E+02 -0.38293878002E+03  0.38825496228E+03  0.00000000000E+00 0.  1.
         14    1    4    4    0    0 -0.39300647913E+02  0.37241601915E+02 -0.22068146787E+03  0.22722629272E+03  0.00000000000E+00 0. -1.
         -5    1    5    5    0  502  0.32129069292E+02  0.61314430883E+02 -0.53860205697E+03  0.54305248577E+03  0.47000000000E+01 0.  1.
         13    1    6    6    0    0 -0.15674431324E+02  0.86915767619E+01 -0.15794492739E+02  0.23889271752E+02  0.00000000000E+00 0. -1.
        -14    1    6    6    0    0  0.18057910571E+02 -0.58062156232E+02 -0.27793837276E+03  0.28451193503E+03  0.00000000000E+00 0.  1.
</event>
<event>
12    1  0.8258923E-002  0.1788624E+03  0.7818608E-02  0.1169580E+00
         21   -1    0    0  503  502  0.00000000000E+00  0.00000000000E+00  0.45873802422E+03  0.45873802422E+03  0.00000000000E+00 0. -1.
         21   -1    0    0  501  503 -0.00000000000E+00 -0.00000000000E+00 -0.25175491973E+03  0.25175491973E+03  0.00000000000E+00 0. -1.
          6    2    1    2  501    0  0.36084375102E+02  0.14275250076E+02 -0.19922897981E+03  0.26773859767E+03  0.17460213456E+03 0.  0.
         24    2    3    3    0    0  0.30376017332E+02  0.48676468453E+02 -0.42433366615E+02  0.10704328507E+03  0.79784542779E+02 0.  0.
         -6    2    1    2    0  502 -0.36084375102E+02 -0.14275250076E+02  0.40621208430E+03  0.44275434629E+03  0.17180596274E+03 0.  0.
        -24    2    5    5    0    0 -0.17826103142E+02 -0.46671366838E+02  0.39130008864E+03  0.40241416172E+03  0.79532457208E+02 0.  0.
          5    1    3    3  501    0  0.57083577698E+01 -0.34401218376E+02 -0.15679561319E+03  0.16069531260E+03  0.47000000000E+01 0. -1.
        -11    1    4    4    0    0 -0.86898185183E+01  0.31720944686E+02 -0.53717888858E+02  0.62986846731E+02  0.00000000000E+00 0.  1.
         12    1    4    4    0    0  0.39065835850E+02  0.16955523767E+02  0.11284522244E+02  0.44056438339E+02  0.00000000000E+00 0. -1.
         -5    1    5    5    0  502 -0.18258271960E+02  0.32396116762E+02  0.14911995663E+02  0.40340184566E+02  0.47000000000E+01 0.  1.
         13    1    6    6    0    0  0.11950291504E+02  0.18136413481E+02  0.11665258998E+03  0.11865734579E+03  0.00000000000E+00 0. -1.
        -14    1    6    6    0    0 -0.29776394646E+02 -0.64807780319E+02  0.27464749866E+03  0.28375681593E+03  0.00000000000E+00 0.  1.
</event>
<event>
12    1  0.8258923E-002  0.2256294E+03  0.7818608E-02  0.1129923E+00
         21   -1    0    0  503  502  0.00000000000E+00  0.00000000000E+00  0.10454130873E+03  0.10454130873E+03  0.00000000000E+00 0. -1.
         21   -1    0    0  501  503 -0.00000000000E+00 -0.00000000000E+00 -0.49107608018E+03  0.49107608018E+03  0.00000000000E+00 0. -1.
          6    2    1    2  501    0 -0.14500381972E+03 -0.11040624633E+01 -0.22690530020E+03  0.31999159561E+03  0.17286202393E+03 0.  0.
         24    2    3    3    0    0 -0.84194460053E+02 -0.41907041564E+02 -0.21235776299E+03  0.24518262445E+03  0.78573485332E+02 0.  0.
         -6    2    1    2    0  502  0.14500381972E+03  0.11040624633E+01 -0.15962947125E+03  0.27562579329E+03  0.17164114642E+03 0.  0.
        -24    2    5    5    0    0  0.72931512173E+02 -0.63971342578E+02 -0.10774517593E+03  0.16542916921E+03  0.79664602868E+02 0.  0.
          5    1    3    3  501    0 -0.60809359670E+02  0.40802979101E+02 -0.14547537211E+02  0.74808971159E+02  0.47000000000E+01 0. -1.
        -13    1    4    4    0    0 -0.73851222957E+02 -0.37109314023E+02 -0.89607997632E+02  0.12190446078E+03  0.00000000000E+00 0.  1.
         14    1    4    4    0    0 -0.10343237096E+02 -0.47977275416E+01 -0.12274976535E+03  0.12327816367E+03  0.00000000000E+00 0. -1.
         -5    1    5    5    0  502  0.72072307550E+02  0.65075405041E+02 -0.51884295323E+02  0.11019662408E+03  0.47000000000E+01 0.  1.
         11    1    6    6    0    0  0.64876026142E+02 -0.80183751672E+02 -0.10488239566E+03  0.14710081482E+03  0.00000000000E+00 0. -1.
        -12    1    6    6    0    0  0.80554860318E+01  0.16212409094E+02 -0.28627802662E+01  0.18328354391E+02  0.00000000000E+00 0.  1.
</event>
<event>
12    1  0.8258923E-002  0.3947474E+03  0.7818608E-02  0.1045722E+00
         21   -1    0    0  503  502  0.00000000000E+00  0.00000000000E+00  0.33563753127E+03  0.33563753127E+03  0.00000000000E+00 0. -1.
         21   -1    0    0  501  503 -0.00000000000E+00 -0.00000000000E+00 -0.46503405512E+03  0.46503405512E+03  0.00000000000E+00 0. -1.
          6    2    1    2  501    0 -0.33019445349E+03 -0.12653485714E+03 -0.92188736870E+02  0.40417452204E+03  0.17268130726E+03 0.  0.
         24    2    3    3    0    0 -0.32115976386E+03 -0.80593173606E+02 -0.79526312660E+02  0.35544372183E+03  0.10186732268E+03 0.  0.
         -6    2    1    2    0  502  0.33019445349E+03  0.12653485714E+03 -0.37207786977E+02  0.39649706435E+03  0.17545955501E+03 0.  0.
        -24    2    5    5    0    0  0.13714194038E+03  0.10194343239E+03  0.19642504367E+02  0.19369653029E+03  0.89062577168E+02 0.  0.
          5    1    3    3  501    0 -0.90346896264E+01 -0.45941683530E+02 -0.12662424210E+02  0.48730800210E+02  0.47000000000E+01 0. -1.
        -13    1    4    4    0    0 -0.17305991602E+03 -0.55441467060E+01 -0.76734885719E+02  0.18939037669E+03  0.00000000000E+00 0.  1.
         14    1    4    4    0    0 -0.14809984784E+03 -0.75049026900E+02 -0.27914269411E+01  0.16605334514E+03  0.00000000000E+00 0. -1.
         -5    1    5    5    0  502  0.19305251311E+03  0.24591424748E+02 -0.56850291344E+02  0.20280053406E+03  0.47000000000E+01 0.  1.
         13    1    6    6    0    0  0.13222620754E+03  0.11245105140E+03  0.32267803352E+02  0.17655089933E+03  0.00000000000E+00 0. -1.
        -14    1    6    6    0    0  0.49157328365E+01 -0.10507619011E+02 -0.12625298984E+02  0.17145630961E+02  0.00000000000E+00 0.  1.
</event>
<event>
12    1  0.8258923E-002  0.1737686E+03  0.7818608E-02  0.1174273E+00
         21   -1    0    0  501  502  0.00000000000E+00  0.00000000000E+00  0.96560635628E+03  0.96560635628E+03  0.00000000000E+00 0. -1.
         21   -1    0    0  502  503 -0.00000000000E+00 -0.00000000000E+00 -0.89978240458E+02  0.89978240458E+02  0.00000000000E+00 0. -1.
         -6    2    1    2    0  503  0.10125131424E+02  0.14775204301E+02  0.11237172873E+02  0.17413157296E+03  0.17284300882E+03 0.  0.
        -24    2    3    3    0    0  0.65376606817E+02 -0.16382852627E+02 -0.14406914618E+02  0.10555126042E+03  0.79943797816E+02 0.  0.
          6    2    1    2  501    0 -0.10125131424E+02 -0.14775204301E+02  0.86439094295E+03  0.88145302377E+03  0.17165927276E+03 0.  0.
         24    2    5    5    0    0 -0.53149362999E+02 -0.57388091429E+02  0.55048953092E+03  0.56172950396E+03  0.79894080746E+02 0.  0.
          5    1    5    5  501    0  0.43024231574E+02  0.42612887128E+02  0.31390141202E+03  0.31972351982E+03  0.47000000000E+01 0. -1.
        -13    1    6    6    0    0 -0.53782661686E+02 -0.22268089329E+02  0.17137570673E+03  0.18099192070E+03  0.00000000000E+00 0.  1.
         14    1    6    6    0    0  0.63329868795E+00 -0.35120002099E+02  0.37911382419E+03  0.38073758326E+03  0.00000000000E+00 0. -1.
         -5    1    3    3    0  503 -0.55251475393E+02  0.31158056928E+02  0.25644087491E+02  0.68580312538E+02  0.47000000000E+01 0.  1.
         11    1    4    4    0    0  0.40631061520E+02 -0.19975275325E+01 -0.47009229542E+02  0.62167040614E+02  0.00000000000E+00 0. -1.
        -12    1    4    4    0    0  0.24745545297E+02 -0.14385325095E+02  0.32602314925E+02  0.43384219810E+02  0.00000000000E+00 0.  1.
</event>
<event>
12    1  0.8258923E-002  0.1802072E+03  0.7818608E-02  0.1168043E+00
         21   -1    0    0  503  502  0.00000000000E+00  0.00000000000E+00  0.51102970499E+03  0.51102970499E+03  0.00000000000E+00 0.  1.
         21   -1    0    0  501  503 -0.00000000000E+00 -0.00000000000E+00 -0.65163184407E+02  0.65163184407E+02  0.00000000000E+00 0.  1.
          6    2    1    2  501    0  0.49990467000E+01  0.52423502863E+02  0.16826852050E+03  0.24523174755E+03  0.17044383502E+03 0.  0.
         24    2    3    3    0    0  0.25451149177E+02  0.63135058881E+02  0.18814811052E+03  0.21440458376E+03  0.77044256041E+02 0.  0.
         -6    2    1    2    0  502 -0.49990467000E+01 -0.52423502863E+02  0.27759800008E+03  0.33096114185E+03  0.17234098074E+03 0.  0.
        -24    2    5    5    0    0 -0.64211195340E+02 -0.58080127825E+02  0.14836830149E+03  0.18862182559E+03  0.77901613257E+02 0.  0.
          5    1    3    3  501    0 -0.20452102477E+02 -0.10711556018E+02 -0.19879590023E+02  0.30827163793E+02  0.47000000000E+01 0. -1.
        -11    1    4    4    0    0  0.35917001176E+02  0.30390132216E+02  0.38309153504E+02  0.60672748016E+02  0.00000000000E+00 0.  1.
         12    1    4    4    0    0 -0.10465851999E+02  0.32744926665E+02  0.14983895702E+03  0.15373183574E+03  0.00000000000E+00 0. -1.
         -5    1    5    5    0  502  0.59212148640E+02  0.56566249617E+01  0.12922969860E+03  0.14233931626E+03  0.47000000000E+01 0.  1.
         13    1    6    6    0    0  0.35932004278E+01  0.13458780487E+02  0.38892494565E+02  0.41311935261E+02  0.00000000000E+00 0. -1.
        -14    1    6    6    0    0 -0.67804395768E+02 -0.71538908312E+02  0.10947580692E+03  0.14730989033E+03  0.00000000000E+00 0.  1.
</event>
<event>
12    1  0.8258923E-002  0.2403221E+03  0.7818608E-02  0.1119737E+00
         21   -1    0    0  501  502  0.00000000000E+00  0.00000000000E+00  0.70298578736E+03  0.70298578736E+03  0.00000000000E+00 0. -1.
         21   -1    0    0  502  503 -0.00000000000E+00 -0.00000000000E+00 -0.81946928882E+02  0.81946928882E+02  0.00000000000E+00 0. -1.
         -6    2    1    2    0  503 -0.82510586375E+02  0.14617977567E+03  0.29635409093E+03  0.38155006224E+03  0.17198307797E+03 0.  0.
        -24    2    3    3    0    0 -0.17934403028E+02  0.14782654661E+03  0.16717649214E+03  0.23704491584E+03  0.77897252227E+02 0.  0.
          6    2    1    2  501    0  0.82510586375E+02 -0.14617977567E+03  0.32468476755E+03  0.40338265400E+03  0.17064830381E+03 0.  0.
         24    2    5    5    0    0  0.78442991992E+02 -0.14694668171E+03  0.17640425914E+03  0.25496994349E+03  0.78387366198E+02 0.  0.
          5    1    5    5  501    0  0.40675943836E+01  0.76690604311E+00  0.14828050841E+03  0.14841271051E+03  0.47000000000E+01 0. -1.
        -13    1    6    6    0    0  0.15994891875E+02 -0.90578133495E+02  0.54684794367E+02  0.10700776406E+03  0.00000000000E+00 0.  1.
         14    1    6    6    0    0  0.62448100117E+02 -0.56368548216E+02  0.12171946478E+03  0.14796217943E+03  0.00000000000E+00 0. -1.
         -5    1    3    3    0  503 -0.64576183348E+02 -0.16467709383E+01  0.12917759879E+03  0.14450514641E+03  0.47000000000E+01 0.  1.
         13    1    4    4    0    0  0.12339993820E+02  0.56002996058E+02  0.11173403683E+03  0.12559102676E+03  0.00000000000E+00 0. -1.
        -14    1    4    4    0    0 -0.30274396848E+02  0.91823550548E+02  0.55442455310E+02  0.11145388908E+03  0.00000000000E+00 0.  1.
</event>
<event>
12    1  0.8258923E-002  0.1764618E+03  0.7818608E-02  0.1171275E+00
         21   -1    0    0  503  502  0.00000000000E+00  0.00000000000E+00  0.18016824908E+03  0.18016824908E+03  0.00000000000E+00 0.  1.
         21   -1    0    0  501  503 -0.00000000000E+00 -0.00000000000E+00 -0.19121114229E+03  0.19121114229E+03  0.00000000000E+00 0.  1.
          6    2    1    2  501    0 -0.38213164269E+02 -0.89185512745E+01  0.52070984130E+02  0.18397041120E+03  0.17202888806E+03 0.  0.
         24    2    3    3    0    0 -0.15978162972E+02  0.33094928708E+02  0.87842525979E+02  0.12429444460E+03  0.79888820185E+02 0.  0.
         -6    2    1    2    0  502  0.38213164269E+02  0.89185512745E+01 -0.63113877338E+02  0.18740898017E+03  0.17204353477E+03 0.  0.
        -24    2    5    5    0    0 -0.25243806179E+02 -0.42400171174E+02 -0.40099010700E+02  0.10248446982E+03  0.80374819621E+02 0.  0.
          5    1    3    3  501    0 -0.22235001296E+02 -0.42013479983E+02 -0.35771541850E+02  0.59675966596E+02  0.47000000000E+01 0. -1.
        -11    1    4    4    0    0  0.31513308825E+02  0.22865717143E+02  0.33090892274E+02  0.51097326789E+02  0.00000000000E+00 0.  1.
         12    1    4    4    0    0 -0.47491471798E+02  0.10229211566E+02  0.54751633706E+02  0.73197117813E+02  0.00000000000E+00 0. -1.
         -5    1    5    5    0  502  0.63456970448E+02  0.51318722449E+02 -0.23014866638E+02  0.84924510352E+02  0.47000000000E+01 0.  1.
         11    1    6    6    0    0 -0.28207334125E+02 -0.33430314804E+01  0.17103421630E+02  0.33156546705E+02  0.00000000000E+00 0. -1.
        -12    1    6    6    0    0  0.29635279460E+01 -0.39057139694E+02 -0.57202432330E+02  0.69327923115E+02  0.00000000000E+00 0.  1.
</event>
<event>
12    1  0.8258923E-002  0.1929140E+03  0.7818608E-02  0.1156286E+00
         21   -1    0    0  503  502  0.00000000000E+00  0.00000000000E+00  0.94557122000E+02  0.94557122000E+02  0.00000000000E+00 0.  1.
         21   -1    0    0  501  503 -0.00000000000E+00 -0.00000000000E+00 -0.17215771918E+04  0.17215771918E+04  0.00000000000E+00 0. -1.
          6    2    1    2  501    0 -0.58315400018E+02  0.58269228257E+02 -0.16113007052E+04  0.16225809480E+04  0.17228749667E+03 0.  0.
         24    2    3    3    0    0 -0.49935736940E+02 -0.31422660901E+02 -0.72343315017E+03  0.73014286110E+03  0.79196675516E+02 0.  0.
         -6    2    1    2    0  502  0.58315400018E+02 -0.58269228257E+02 -0.15719364574E+02  0.19355336574E+03  0.17441278085E+03 0.  0.
        -24    2    5    5    0    0  0.54390085647E+02 -0.58305068613E+02 -0.73998540678E+02  0.13495335085E+03  0.79867768471E+02 0.  0.
          5    1    3    3  501    0 -0.83796630788E+01  0.89691889157E+02 -0.88786755501E+03  0.89243808692E+03  0.47000000000E+01 0. -1.
        -13    1    4    4    0    0  0.58452666606E+01 -0.15759247270E+02 -0.30776689682E+02  0.35067444228E+02  0.00000000000E+00 0.  1.
         14    1    4    4    0    0 -0.55781003600E+02 -0.15663413631E+02 -0.69265646049E+03  0.69507541687E+03  0.00000000000E+00 0. -1.
         -5    1    5    5    0  502  0.39253143715E+01  0.35840356516E-01  0.58279176104E+02  0.58600014888E+02  0.47000000000E+01 0.  1.
         13    1    6    6    0    0 -0.36887897913E+01  0.16643006269E+02 -0.52572533800E+01  0.17839157517E+02  0.00000000000E+00 0. -1.
        -14    1    6    6    0    0  0.58078875438E+02 -0.74948074883E+02 -0.68741287298E+02  0.11711419333E+03  0.00000000000E+00 0.  1.
</event>
<event>
12    1  0.8258923E-002  0.1846671E+03  0.7818608E-02  0.1163955E+00
         21   -1    0    0  501  502  0.00000000000E+00  0.00000000000E+00  0.12519488653E+03  0.12519488653E+03  0.00000000000E+00 0.  1.
         21   -1    0    0  502  503 -0.00000000000E+00 -0.00000000000E+00 -0.27116130059E+03  0.27116130059E+03  0.00000000000E+00 0.  1.
         -6    2    1    2    0  503 -0.90714618644E+01  0.62423043544E+02 -0.92419562296E+02  0.20650255063E+03  0.17355978836E+03 0.  0.
        -24    2    3    3    0    0 -0.28565640609E+02  0.37065628780E+02 -0.13008644571E+03  0.15686480698E+03  0.74123057471E+02 0.  0.
          6    2    1    2  501    0  0.90714618644E+01 -0.62423043544E+02 -0.53546851757E+02  0.18985363649E+03  0.17087483773E+03 0.  0.
         24    2    5    5    0    0  0.50884048942E+02 -0.77890005468E+02 -0.70625046703E+02  0.14188203977E+03  0.80539286062E+02 0.  0.
          5    1    5    5  501    0 -0.41812587078E+02  0.15466961924E+02  0.17078194946E+02  0.47971596721E+02  0.47000000000E+01 0. -1.
        -11    1    6    6    0    0 -0.84791644732E+01 -0.60422240022E+02 -0.31434427822E+02  0.68635752869E+02  0.00000000000E+00 0.  1.
         12    1    6    6    0    0  0.59363213415E+02 -0.17467765446E+02 -0.39190618881E+02  0.73246286902E+02  0.00000000000E+00 0. -1.
         -5    1    3    3    0  503  0.19494178744E+02  0.25357414764E+02  0.37666883418E+02  0.49637743652E+02  0.47000000000E+01 0.  1.
         11    1    4    4    0    0 -0.60702260151E+01 -0.21969647480E+02 -0.49260322126E+02  0.54277918072E+02  0.00000000000E+00 0. -1.
        -12    1    4    4    0    0 -0.22495414594E+02  0.59035276259E+02 -0.80826123588E+02  0.10258688890E+03  0.00000000000E+00 0.  1.
</event>
<event>
12    1  0.8258923E-002  0.1933260E+03  0.7818608E-02  0.1155758E+00
         21   -1    0    0  503  502  0.00000000000E+00  0.00000000000E+00  0.44911402297E+03  0.44911402297E+03  0.00000000000E+00 0.  1.
         21   -1    0    0  501  503 -0.00000000000E+00 -0.00000000000E+00 -0.45945187386E+03  0.45945187386E+03  0.00000000000E+00 0.  1.
          6    2    1    2  501    0 -0.53721020112E+02 -0.66952818213E+02 -0.41653820833E+03  0.45921563814E+03  0.17322325318E+03 0.  0.
         24    2    3    3    0    0  0.14831780766E+02  0.18204408491E+02 -0.15915398021E+03  0.17953730388E+03  0.79701140886E+02 0.  0.
         -6    2    1    2    0  502  0.53721020112E+02  0.66952818213E+02  0.40620035745E+03  0.44935025869E+03  0.17189618007E+03 0.  0.
        -24    2    5    5    0    0  0.43246802947E+02  0.67614650673E+02  0.41834494446E+03  0.43262518048E+03  0.75564722420E+02 0.  0.
          5    1    3    3  501    0 -0.68552800878E+02 -0.85157226705E+02 -0.25738422813E+03  0.27967833426E+03  0.47000000000E+01 0. -1.
        -11    1    4    4    0    0 -0.34213154620E+00  0.18973135683E+02 -0.16280844561E+03  0.16391060641E+03  0.00000000000E+00 0.  1.
         12    1    4    4    0    0  0.15173912312E+02 -0.76872719178E+00  0.36544654030E+01  0.15626697467E+02  0.00000000000E+00 0. -1.
         -5    1    5    5    0  502  0.10474217165E+02 -0.66183245967E+00 -0.12144587014E+02  0.16725078211E+02  0.47000000000E+01 0.  1.
         13    1    6    6    0    0  0.29627964387E+01 -0.16172300639E+02  0.46018941018E+02  0.48867825848E+02  0.00000000000E+00 0. -1.
        -14    1    6    6    0    0  0.40284006509E+02  0.83786951312E+02  0.37232600344E+03  0.38375735463E+03  0.00000000000E+00 0.  1.
</event>
<event>
12    1  0.8258923E-002  0.1797247E+03  0.7818608E-02  0.1168609E+00
         21   -1    0    0  501  502  0.00000000000E+00  0.00000000000E+00  0.89364448369E+02  0.89364448369E+02  0.00000000000E+00 0. -1.
         21   -1    0    0  502  503 -0.00000000000E+00 -0.00000000000E+00 -0.42812521842E+03  0.42812521842E+03  0.00000000000E+00 0.  1.
         -6    2    1    2    0  503 -0.48973704681E+02  0.46619284530E+01 -0.27569957539E+03  0.32910672847E+03  0.17286071134E+03 0.  0.
        -24    2    3    3    0    0 -0.95966073532E+02 -0.13403480824E+02 -0.22573343334E+03  0.25801983028E+03  0.78927240695E+02 0.  0.
          6    2    1    2  501    0  0.48973704681E+02 -0.46619284530E+01 -0.63061194661E+02  0.18838293832E+03  0.17056160134E+03 0.  0.
         24    2    5    5    0    0  0.34811648211E+02 -0.24078266644E+02 -0.10838906477E+03  0.13686339017E+03  0.72054038279E+02 0.  0.
          5    1    5    5  501    0  0.14162056469E+02  0.19416338191E+02  0.45327870111E+02  0.51519548144E+02  0.47000000000E+01 0. -1.
        -13    1    6    6    0    0  0.38932222796E+02 -0.75987023128E+01 -0.15749174741E+02  0.42678973203E+02  0.00000000000E+00 0.  1.
         14    1    6    6    0    0 -0.41205745840E+01 -0.16479564331E+02 -0.92639890031E+02  0.94184416972E+02  0.00000000000E+00 0. -1.
         -5    1    3    3    0  503  0.46992368852E+02  0.18065409277E+02 -0.49966142052E+02  0.71086898190E+02  0.47000000000E+01 0.  1.
         11    1    4    4    0    0  0.61881774970E+01 -0.19072507769E+02 -0.59881171717E+02  0.63149099911E+02  0.00000000000E+00 0. -1.
        -12    1    4    4    0    0 -0.10215425103E+03  0.56690269454E+01 -0.16585226162E+03  0.19487073037E+03  0.00000000000E+00 0.  1.
</event>
<event>
12    1  0.8258923E-002  0.2884310E+03  0.7818608E-02  0.1091220E+00
         21   -1    0    0  503  502  0.00000000000E+00  0.00000000000E+00  0.15516806429E+04  0.15516806429E+04  0.00000000000E+00 0.  1.
         21   -1    0    0  501  503 -0.00000000000E+00 -0.00000000000E+00 -0.55447016536E+02  0.55447016536E+02  0.00000000000E+00 0. -1.
          6    2    1    2  501    0 -0.21533243423E+03 -0.84126719981E+02  0.59976034991E+03  0.66551102666E+03  0.17247343866E+03 0.  0.
         24    2    3    3    0    0 -0.81783944253E+02  0.22648243992E+02  0.27373364731E+03  0.29733770754E+03  0.79234122461E+02 0.  0.
         -6    2    1    2    0  502  0.21533243423E+03  0.84126719981E+02  0.89647327642E+03  0.94161663274E+03  0.17184931033E+03 0.  0.
        -24    2    5    5    0    0  0.98600830967E+02  0.44724644520E+02  0.25281589035E+03  0.28625740956E+03  0.79404108349E+02 0.  0.
          5    1    3    3  501    0 -0.13354848998E+03 -0.10677496397E+03  0.32602670259E+03  0.36817331912E+03  0.47000000000E+01 0. -1.
        -11    1    4    4    0    0 -0.85799272408E+02  0.65639785160E+01  0.15356298283E+03  0.17602894835E+03  0.00000000000E+00 0.  1.
         12    1    4    4    0    0  0.40153281545E+01  0.16084265476E+02  0.12017066448E+03  0.12130875920E+03  0.00000000000E+00 0. -1.
         -5    1    5    5    0  502  0.11673160327E+03  0.39402075461E+02  0.64365738607E+03  0.65535922317E+03  0.47000000000E+01 0.  1.
         11    1    6    6    0    0  0.10561940358E+03  0.21657812572E+02  0.18304835724E+03  0.21244109853E+03  0.00000000000E+00 0. -1.
        -12    1    6    6    0    0 -0.70185726177E+01  0.23066831948E+02  0.69767533109E+02  0.73816311029E+02  0.00000000000E+00 0.  1.
</event>
<event>
12    1  0.8258923E-002  0.1824446E+03  0.7818608E-02  0.1166697E+00
         21   -1    0    0  501  502  0.00000000000E+00  0.00000000000E+00  0.12509162344E+03  0.12509162344E+03  0.00000000000E+00 0.  1.
         21   -1    0    0  502  503 -0.00000000000E+00 -0.00000000000E+00 -0.27613729987E+03  0.27613729987E+03  0.00000000000E+00 0.  1.
         -6    2    1    2    0  503  0.19953151899E+02 -0.55384308852E+02 -0.12700096229E+03  0.22229549710E+03  0.17268611313E+03 0.  0.
        -24    2    3    3    0    0 -0.97840966633E+01 -0.46451615348E+02 -0.78955212887E+00  0.92235868382E+02  0.79078131666E+02 0.  0.
          6    2    1    2  501    0 -0.19953151899E+02  0.55384308852E+02 -0.24044714137E+02  0.17893342621E+03  0.16725272135E+03 0.  0.
         24    2    5    5    0    0  0.26819923466E+02  0.20960497005E+01  0.27072626493E+02  0.91398109589E+02  0.83048092164E+02 0.  0.
          5    1    5    5  501    0 -0.46773075365E+02  0.53288259152E+02 -0.51117340630E+02  0.87535316619E+02  0.47000000000E+01 0. -1.
        -11    1    6    6    0    0 -0.56936099523E+01  0.33464785854E+02 -0.71873828375E+01  0.34698235669E+02  0.00000000000E+00 0.  1.
         12    1    6    6    0    0  0.32513533418E+02 -0.31368736153E+02  0.34260009331E+02  0.56699873920E+02  0.00000000000E+00 0. -1.
         -5    1    3    3    0  503  0.29737248562E+02 -0.89326935045E+01 -0.12621141017E+03  0.13005962871E+03  0.47000000000E+01 0.  1.
         11    1    4    4    0    0 -0.43388256193E+02 -0.15890065810E+02  0.48668785867E+01  0.46462043370E+02  0.00000000000E+00 0. -1.
        -12    1    4    4    0    0  0.33604159530E+02 -0.30561549537E+02 -0.56564307156E+01  0.45773825012E+02  0.00000000000E+00 0.  1.
</event>
<event>
12    1  0.8258923E-002  0.2858531E+03  0.7818608E-02  0.1092603E+00
         21   -1    0    0  501  502  0.00000000000E+00  0.00000000000E+00  0.58493846195E+02  0.58493846195E+02  0.00000000000E+00 0.  1.
         21   -1    0    0  502  503 -0.00000000000E+00 -0.00000000000E+00 -0.13944340213E+04  0.13944340213E+04  0.00000000000E+00 0.  1.
         -6    2    1    2    0  503  0.72785467647E+02  0.21546572419E+03 -0.67178188108E+03  0.73007048655E+03  0.17317279518E+03 0.  0.
        -24    2    3    3    0    0 -0.63816047911E+01  0.17228383187E+03 -0.38164548823E+03  0.42620650771E+03  0.79222881317E+02 0.  0.
          6    2    1    2  501    0 -0.72785467647E+02 -0.21546572419E+03 -0.66415829407E+03  0.72285738099E+03  0.17231758779E+03 0.  0.
         24    2    5    5    0    0 -0.91740893556E+02 -0.23098585300E+03 -0.61264031155E+03  0.66561775230E+03  0.77123180672E+02 0.  0.
          5    1    5    5  501    0  0.18955425909E+02  0.15520128813E+02 -0.51517982522E+02  0.57239628693E+02  0.47000000000E+01 0. -1.
        -11    1    6    6    0    0 -0.52379601007E+02 -0.15137553225E+03 -0.29367176818E+03  0.33451648956E+03  0.00000000000E+00 0.  1.
         12    1    6    6    0    0 -0.39361292548E+02 -0.79610320754E+02 -0.31896854337E+03  0.33110126273E+03  0.00000000000E+00 0. -1.
         -5    1    3    3    0  503  0.79167072438E+02  0.43181892317E+02 -0.29013639285E+03  0.30386397884E+03  0.47000000000E+01 0.  1.
         13    1    4    4    0    0 -0.96348945085E+01  0.99777691895E+01 -0.29479020087E+01  0.14180169126E+02  0.00000000000E+00 0. -1.
        -14    1    4    4    0    0  0.32532897174E+01  0.16230606268E+03 -0.37869758622E+03  0.41202633858E+03  0.00000000000E+00 0.  1.
</event>
<event>
12    1  0.8258923E-002  0.2151906E+03  0.7818608E-02  0.1137578E+00
         21   -1    0    0  501  502  0.00000000000E+00  0.00000000000E+00  0.91218234996E+02  0.91218234996E+02  0.00000000000E+00 0. -1.
         21   -1    0    0  502  503 -0.00000000000E+00 -0.00000000000E+00 -0.50752154319E+03  0.50752154319E+03  0.00000000000E+00 0.  1.
         -6    2    1    2    0  503  0.36294354651E+02 -0.12269409070E+03 -0.21841532111E+03  0.30661413644E+03  0.17301981417E+03 0.  0.
        -24    2    3    3    0    0 -0.40290042961E+01 -0.78419006421E+02 -0.41888045825E+02  0.12014637707E+03  0.80714125750E+02 0.  0.
          6    2    1    2  501    0 -0.36294354651E+02  0.12269409070E+03 -0.19788798709E+03  0.29212564175E+03  0.17264592397E+03 0.  0.
         24    2    5    5    0    0  0.50703387765E+01  0.88094397419E+02 -0.40588972954E+02  0.12577286454E+03  0.79906304745E+02 0.  0.
          5    1    5    5  501    0 -0.41364693427E+02  0.34599693283E+02 -0.15729901413E+03  0.16635277721E+03  0.47000000000E+01 0. -1.
        -11    1    6    6    0    0 -0.68654219597E+01  0.40314295025E+02 -0.60189152700E+02  0.72767509953E+02  0.00000000000E+00 0.  1.
         12    1    6    6    0    0  0.11935760736E+02  0.47780102394E+02  0.19600179746E+02  0.53005354590E+02  0.00000000000E+00 0. -1.
         -5    1    3    3    0  503  0.40323358947E+02 -0.44275084282E+02 -0.17652727528E+03  0.18646775937E+03  0.47000000000E+01 0.  1.
         11    1    4    4    0    0  0.27498908391E+02  0.25359786542E+00 -0.62360137318E+01  0.28198264873E+02  0.00000000000E+00 0. -1.
        -12    1    4    4    0    0 -0.31527912688E+02 -0.78672604286E+02 -0.35652032093E+02  0.91948112194E+02  0.00000000000E+00 0.  1.
</event>
<event>
12    1  0.8258923E-002  0.2233478E+03  0.7818608E-02  0.1131469E+00
         21   -1    0    0  503  502  0.00000000000E+00  0.00000000000E+00  0.95958444676E+02  0.95958444676E+02  0.00000000000E+00 0.  1.
         21   -1    0    0  501  503 -0.00000000000E+00 -0.00000000000E+00 -0.52377241354E+03  0.52377241354E+03  0.00000000000E+00 0.  1.
          6    2    1    2  501    0  0.14050038864E+03 -0.19007473941E+02 -0.24326010864E+03  0.33024189956E+03  0.17257632658E+03 0.  0.
         24    2    3    3    0    0  0.16785864933E+03  0.50018470390E+01 -0.21210994926E+03  0.28210309659E+03  0.79937362348E+02 0.  0.
         -6    2    1    2    0  502 -0.14050038864E+03  0.19007473941E+02 -0.18455386022E+03  0.28948895866E+03  0.17216877356E+03 0.  0.
        -24    2    5    5    0    0 -0.13733216076E+02  0.97745756482E+01 -0.22209914812E+02  0.83254119067E+02  0.78446315865E+02 0.  0.
          5    1    3    3  501    0 -0.27358260694E+02 -0.24009320980E+02 -0.31150159382E+02  0.48138802972E+02  0.47000000000E+01 0. -1.
        -13    1    4    4    0    0  0.13067691829E+03 -0.72825077895E+01 -0.20358802228E+03  0.24202804529E+03  0.00000000000E+00 0.  1.
         14    1    4    4    0    0  0.37181731038E+02  0.12284354828E+02 -0.85219269833E+01  0.40075051292E+02  0.00000000000E+00 0. -1.
         -5    1    5    5    0  502 -0.12676717256E+03  0.92328982926E+01 -0.16234394541E+03  0.20623483959E+03  0.47000000000E+01 0.  1.
         13    1    6    6    0    0 -0.14600361454E+02  0.40001932574E+02  0.46131697466E+01  0.42832306724E+02  0.00000000000E+00 0. -1.
        -14    1    6    6    0    0  0.86714537819E+00 -0.30227356925E+02 -0.26823084559E+02  0.40421812342E+02  0.00000000000E+00 0.  1.
</event>
<event>
12    1  0.8258923E-002  0.1982289E+03  0.7818608E-02  0.1151242E+00
         21   -1    0    0  503  502  0.00000000000E+00  0.00000000000E+00  0.10934113802E+04  0.10934113802E+04  0.00000000000E+00 0.  1.
         21   -1    0    0  501  503 -0.00000000000E+00 -0.00000000000E+00 -0.79123497848E+02  0.79123497848E+02  0.00000000000E+00 0.  1.
          6    2    1    2  501    0  0.49261673904E+02 -0.85076835496E+02  0.74016488900E+02  0.21159524272E+03  0.17213171021E+03 0.  0.
         24    2    3    3    0    0  0.10770672049E+02 -0.88861629075E+02 -0.91984154261E+01  0.11971111902E+03  0.78954066857E+02 0.  0.
         -6    2    1    2    0  502 -0.49261673904E+02  0.85076835496E+02  0.94027139348E+03  0.96093963535E+03  0.17213340448E+03 0.  0.
        -24    2    5    5    0    0 -0.45144815636E+02 -0.17235371605E+02  0.52480583553E+03  0.53301621219E+03  0.79686918886E+02 0.  0.
          5    1    3    3  501    0  0.38491001855E+02  0.37847935793E+01  0.83214904326E+02  0.91884123700E+02  0.47000000000E+01 0. -1.
        -11    1    4    4    0    0 -0.29561892327E+02 -0.12175973337E+02 -0.84238092114E+01  0.33062370851E+02  0.00000000000E+00 0.  1.
         12    1    4    4    0    0  0.40332564376E+02 -0.76685655738E+02 -0.77460621476E+00  0.86648748173E+02  0.00000000000E+00 0. -1.
         -5    1    5    5    0  502 -0.41168582671E+01  0.10231220710E+03  0.41546555795E+03  0.42792342315E+03  0.47000000000E+01 0.  1.
         13    1    6    6    0    0 -0.21752755855E+02 -0.24965225548E+01  0.28494550245E+02  0.35935419934E+02  0.00000000000E+00 0. -1.
        -14    1    6    6    0    0 -0.23392059781E+02 -0.14738849050E+02  0.49631128529E+03  0.49708079226E+03  0.00000000000E+00 0.  1.
</event>
<event>
12    1  0.8258923E-002  0.1915961E+03  0.7818608E-02  0.1157498E+00
         21   -1    0    0  503  502  0.00000000000E+00  0.00000000000E+00  0.10728733631E+03  0.10728733631E+03  0.00000000000E+00 0. -1.
         21   -1    0    0  501  503 -0.00000000000E+00 -0.00000000000E+00 -0.49095668040E+03  0.49095668040E+03  0.00000000000E+00 0. -1.
          6    2    1    2  501    0 -0.85545162523E+02  0.44686193294E+01 -0.35928017300E+03  0.40717478142E+03  0.17138003537E+03 0.  0.
         24    2    3    3    0    0  0.50965444217E+00  0.12535056335E+02 -0.78819808247E+02  0.11366054816E+03  0.80924474982E+02 0.  0.
         -6    2    1    2    0  502  0.85545162523E+02 -0.44686193294E+01 -0.24389171084E+02  0.19106923528E+03  0.16904046148E+03 0.  0.
        -24    2    5    5    0    0  0.12489036575E+03 -0.32831747960E+01 -0.30214901738E+02  0.15100080091E+03  0.79245939302E+02 0.  0.
          5    1    3    3  501    0 -0.86054816965E+02 -0.80664370055E+01 -0.28046036476E+03  0.29351423326E+03  0.47000000000E+01 0. -1.
        -13    1    4    4    0    0  0.26834861822E+02  0.18136796149E+02 -0.80421083997E+02  0.86698350243E+02  0.00000000000E+00 0.  1.
         14    1    4    4    0    0 -0.26325207380E+02 -0.56017398143E+01  0.16012757501E+01  0.26962197918E+02  0.00000000000E+00 0. -1.
         -5    1    5    5    0  502 -0.39345203223E+02 -0.11854445334E+01  0.58257306538E+01  0.40068434372E+02  0.47000000000E+01 0.  1.
         13    1    6    6    0    0  0.61477143208E+02 -0.38185114355E+02  0.49372584794E+00  0.72372549082E+02  0.00000000000E+00 0. -1.
        -14    1    6    6    0    0  0.63413222537E+02  0.34901939559E+02 -0.30708627586E+02  0.78628251829E+02  0.00000000000E+00 0.  1.
</event>
<event>
12    1  0.8258923E-002  0.2470445E+03  0.7818608E-02  0.1115556E+00
         21   -1    0    0  503  502  0.00000000000E+00  0.00000000000E+00  0.32567089261E+03  0.32567089261E+03  0.00000000000E+00 0. -1.
         21   -1    0    0  501  503 -0.00000000000E+00 -0.00000000000E+00 -0.20854010165E+03  0.20854010165E+03  0.00000000000E+00 0.  1.
          6    2    1    2  501    0  0.42447561526E+02 -0.16938120145E+03  0.14726444312E+03  0.28760700133E+03  0.17475463978E+03 0.  0.
         24    2    3    3    0    0  0.41394718385E+01 -0.14834794305E+03  0.38774115364E+02  0.17055082289E+03  0.74564761989E+02 0.  0.
         -6    2    1    2    0  502 -0.42447561526E+02  0.16938120145E+03 -0.30133652171E+02  0.24660399293E+03  0.17150424325E+03 0.  0.
        -24    2    5    5    0    0  0.22294682234E+02  0.24914894312E+02 -0.15343342715E+02  0.87535091889E+02  0.79430279692E+02 0.  0.
          5    1    3    3  501    0  0.38308089687E+02 -0.21033258393E+02  0.10849032776E+03  0.11705617844E+03  0.47000000000E+01 0. -1.
        -11    1    4    4    0    0 -0.33610560338E+02 -0.78817663456E+02  0.95779826447E+01  0.86218510719E+02  0.00000000000E+00 0.  1.
         12    1    4    4    0    0  0.37750032177E+02 -0.69530279597E+02  0.29196132719E+02  0.84332312170E+02  0.00000000000E+00 0. -1.
         -5    1    5    5    0  502 -0.64742243760E+02  0.14446630713E+03 -0.14790309456E+02  0.15906890104E+03  0.47000000000E+01 0.  1.
         11    1    6    6    0    0  0.83900043482E+01 -0.95384721900E+01  0.27820414856E+02  0.30583494036E+02  0.00000000000E+00 0. -1.
        -12    1    6    6    0    0  0.13904677886E+02  0.34453366502E+02 -0.43163757571E+02  0.56951597853E+02  0.00000000000E+00 0.  1.
</event>
<event>
12    1  0.8258923E-002  0.2003569E+03  0.7818608E-02  0.1149570E+00
         21   -1    0    0  503  502  0.00000000000E+00  0.00000000000E+00  0.10337258794E+03  0.10337258794E+03  0.00000000000E+00 0.  1.
         21   -1    0    0  501  503 -0.00000000000E+00 -0.00000000000E+00 -0.53130577164E+03  0.53130577164E+03  0.00000000000E+00 0.  1.
          6    2    1    2  501    0 -0.10082206789E+03  0.10706558162E+02 -0.37952265986E+03  0.42916238456E+03  0.17280967337E+03 0.  0.
         24    2    3    3    0    0 -0.12430941327E+03 -0.31894954979E+02 -0.29544023220E+03  0.33190762140E+03  0.80047610603E+02 0.  0.
         -6    2    1    2    0  502  0.10082206789E+03 -0.10706558162E+02 -0.48410523842E+02  0.20551597502E+03  0.17208578503E+03 0.  0.
        -24    2    5    5    0    0  0.12039281100E+03 -0.46866551565E+02 -0.11920756854E+02  0.15034213880E+03  0.75958881370E+02 0.  0.
          5    1    3    3  501    0  0.23487345376E+02  0.42601513141E+02 -0.84082427663E+02  0.97254763155E+02  0.47000000000E+01 0. -1.
        -13    1    4    4    0    0 -0.10694398101E+03  0.70424416377E+01 -0.18946213733E+03  0.21767524559E+03  0.00000000000E+00 0.  1.
         14    1    4    4    0    0 -0.17365432254E+02 -0.38937396617E+02 -0.10597809487E+03  0.11423237582E+03  0.00000000000E+00 0. -1.
         -5    1    5    5    0  502 -0.19570743110E+02  0.36159993402E+02 -0.36489766988E+02  0.55173836223E+02  0.47000000000E+01 0.  1.
         11    1    6    6    0    0  0.36185559683E+02 -0.47050736526E+02 -0.26289330221E+02  0.64917604860E+02  0.00000000000E+00 0. -1.
        -12    1    6    6    0    0  0.84207251317E+02  0.18418496138E+00  0.14368573367E+02  0.85424533941E+02  0.00000000000E+00 0.  1.
</event>
<event>
12    1  0.8258923E-002  0.1713854E+03  0.7818608E-02  0.1176433E+00
         21   -1    0    0  501  502  0.00000000000E+00  0.00000000000E+00  0.92581210408E+03  0.92581210408E+03  0.00000000000E+00 0. -1.
         21   -1    0    0  502  503 -0.00000000000E+00 -0.00000000000E+00 -0.32254283221E+02  0.32254283221E+02  0.00000000000E+00 0. -1.
         -6    2    1    2    0  503  0.14394357530E+02  0.15036225309E+02  0.50908910935E+03  0.53716355049E+03  0.17011664563E+03 0.  0.
        -24    2    3    3    0    0 -0.46816282941E+02  0.43411866101E+02  0.30943614284E+03  0.32636668967E+03  0.81781019585E+02 0.  0.
          6    2    1    2  501    0 -0.14394357530E+02 -0.15036225309E+02  0.38446871152E+03  0.42090283681E+03  0.17002859260E+03 0.  0.
         24    2    5    5    0    0  0.47247968352E+02 -0.28414973866E+02  0.30032409762E+03  0.31563568476E+03  0.79947111457E+02 0.  0.
          5    1    5    5  501    0 -0.61642325882E+02  0.13378748557E+02  0.84144613895E+02  0.10526715205E+03  0.47000000000E+01 0. -1.
        -11    1    6    6    0    0  0.51695345142E+02  0.14716896533E+02  0.16462252258E+03  0.17317497133E+03  0.00000000000E+00 0.  1.
         12    1    6    6    0    0 -0.44473767895E+01 -0.43131870399E+02  0.13570157504E+03  0.14246071344E+03  0.00000000000E+00 0. -1.
         -5    1    3    3    0  503  0.61210640471E+02 -0.28375640792E+02  0.19965296651E+03  0.21079686083E+03  0.47000000000E+01 0.  1.
         13    1    4    4    0    0 -0.36094855398E+02  0.39092790015E+02  0.31024986390E+03  0.31477938762E+03  0.00000000000E+00 0. -1.
        -14    1    4    4    0    0 -0.10721427543E+02  0.43190760859E+01 -0.81372106762E+00  0.11587302049E+02  0.00000000000E+00 0.  1.
</event>
<event>
12    1  0.8258923E-002  0.1929971E+03  0.7818608E-02  0.1157021E+00
         21   -1    0    0  501  502  0.00000000000E+00  0.00000000000E+00  0.25627689715E+03  0.25627689715E+03  0.00000000000E+00 0. -1.
         21   -1    0    0  502  503 -0.00000000000E+00 -0.00000000000E+00 -0.14540224151E+03  0.14540224151E+03  0.00000000000E+00 0.  1.
         -6    2    1    2    0  503  0.28671053965E+02  0.83749327701E+02  0.20617827828E+02  0.18862003120E+03  0.16527686505E+03 0.  0.
        -24    2    3    3    0    0  0.66467968235E+02  0.27179528700E+02  0.46841419922E+02  0.11555488445E+03  0.77473189677E+02 0.  0.
          6    2    1    2  501    0 -0.28671053965E+02 -0.83749327701E+02  0.90256827812E+02  0.21305910745E+03  0.17149900605E+03 0.  0.
         24    2    5    5    0    0 -0.64688655079E+02 -0.87235072225E+02  0.20694658700E+02  0.13450719229E+03  0.76611591525E+02 0.  0.
          5    1    5    5  501    0  0.36017601114E+02  0.34857445242E+01  0.69562169112E+02  0.78551915168E+02  0.47000000000E+01 0. -1.
        -13    1    6    6    0    0 -0.54490832004E+02 -0.96811304896E+02  0.32984330272E+02  0.11588634765E+03  0.00000000000E+00 0.  1.
         14    1    6    6    0    0 -0.10197823075E+02  0.95762326706E+01 -0.12289671572E+02  0.18620844637E+02  0.00000000000E+00 0. -1.
         -5    1    3    3    0  503 -0.37796914270E+02  0.56569799001E+02 -0.26223592094E+02  0.73065146750E+02  0.47000000000E+01 0.  1.
         11    1    4    4    0    0 -0.50639826489E+00  0.56501585305E+01  0.44818526792E+02  0.45176111768E+02  0.00000000000E+00 0. -1.
        -12    1    4    4    0    0  0.66974366500E+02  0.21529370170E+02  0.20228931296E+01  0.70378772684E+02  0.00000000000E+00 0.  1.
</event>
<event>
12    1  0.8258923E-002  0.1844840E+03  0.7818608E-02  0.1165239E+00
         21   -1    0    0  501  502  0.00000000000E+00  0.00000000000E+00  0.58681200717E+03  0.58681200717E+03  0.00000000000E+00 0.  1.
         21   -1    0    0  502  503 -0.00000000000E+00 -0.00000000000E+00 -0.22216906453E+03  0.22216906453E+03  0.00000000000E+00 0.  1.
         -6    2    1    2    0  503 -0.15043299798E+02 -0.38769831011E+02 -0.16680979278E+03  0.24871642136E+03  0.17973578003E+03 0.  0.
        -24    2    3    3    0    0 -0.59675296675E+02 -0.75506834946E+02 -0.10747584374E+03  0.16574516060E+03  0.81596434469E+02 0.  0.
          6    2    1    2  501    0  0.15043299798E+02  0.38769831011E+02  0.53145273542E+03  0.56026465034E+03  0.17240959303E+03 0.  0.
         24    2    5    5    0    0  0.73995840112E+02  0.13517601427E+02  0.38704040939E+03  0.40218211805E+03  0.79322554609E+02 0.  0.
          5    1    5    5  501    0 -0.58952540314E+02  0.25252229584E+02  0.14441232603E+03  0.15808253230E+03  0.47000000000E+01 0. -1.
        -13    1    6    6    0    0  0.44243821747E+01 -0.23133359771E+01  0.22586347362E+03  0.22591864774E+03  0.00000000000E+00 0.  1.
         14    1    6    6    0    0  0.69571457938E+02  0.15830937405E+02  0.16117693577E+03  0.17626347030E+03  0.00000000000E+00 0. -1.
         -5    1    3    3    0  503  0.44631996877E+02  0.36737003935E+02 -0.59333949042E+02  0.82971260761E+02  0.47000000000E+01 0.  1.
         13    1    4    4    0    0  0.15878463862E+02 -0.26099583817E+02 -0.83455512646E+01  0.31669577135E+02  0.00000000000E+00 0. -1.
        -14    1    4    4    0    0 -0.75553760537E+02 -0.49407251129E+02 -0.99130292471E+02  0.13407558346E+03  0.00000000000E+00 0.  1.
</event>
<event>
12    1  0.8258923E-002  0.1925666E+03  0.7818608E-02  0.1157248E+00
         21   -1    0    0  501  502  0.00000000000E+00  0.00000000000E+00  0.55268437208E+03  0.55268437208E+03  0.00000000000E+00 0. -1.
         21   -1    0    0  502  503 -0.00000000000E+00 -0.00000000000E+00 -0.56967407046E+03  0.56967407046E+03  0.00000000000E+00 0.  1.
         -6    2    1    2    0  503 -0.77369592996E+02 -0.40847720410E+02 -0.53644888736E+03  0.56835508015E+03  0.16611892788E+03 0.  0.
        -24    2    3    3    0    0 -0.10781610191E+03 -0.19139926160E+01 -0.44074467372E+03  0.46053944318E+03  0.78820911691E+02 0.  0.
          6    2    1    2  501    0  0.77369592996E+02  0.40847720410E+02  0.51945918898E+03  0.55400336239E+03  0.17154383214E+03 0.  0.
         24    2    5    5    0    0 -0.33447635843E+01 -0.31927350297E+02  0.19670023031E+03  0.21340616089E+03  0.76293287771E+02 0.  0.
          5    1    5    5  501    0  0.80714356580E+02  0.72775070708E+02  0.32275895866E+03  0.34059720150E+03  0.47000000000E+01 0. -1.
        -13    1    6    6    0    0 -0.28884932225E+02 -0.24967412996E+01  0.28150903748E+02  0.40410968915E+02  0.00000000000E+00 0.  1.
         14    1    6    6    0    0  0.25540168641E+02 -0.29430608998E+02  0.16854932656E+03  0.17299519197E+03  0.00000000000E+00 0. -1.
         -5    1    3    3    0  503  0.30446508918E+02 -0.38933727794E+02 -0.95704213647E+02  0.10781563697E+03  0.47000000000E+01 0.  1.
         13    1    4    4    0    0 -0.57100227342E+02  0.37484877311E+02 -0.19834988425E+03  0.20978138281E+03  0.00000000000E+00 0. -1.
        -14    1    4    4    0    0 -0.50715874572E+02 -0.39398869927E+02 -0.24239478946E+03  0.25075806038E+03  0.00000000000E+00 0.  1.
</event>
<event>
12    1  0.8258923E-002  0.1847975E+03  0.7818608E-02  0.1163772E+00
         21   -1    0    0  503  502  0.00000000000E+00  0.00000000000E+00  0.17365940370E+03  0.17365940370E+03  0.00000000000E+00 0. -1.
         21   -1    0    0  501  503 -0.00000000000E+00 -0.00000000000E+00 -0.20223844242E+03  0.20223844242E+03  0.00000000000E+00 0. -1.
          6    2    1    2  501    0 -0.46170097963E+02 -0.34518687606E+02 -0.51728759903E+02  0.19190094330E+03  0.17557588017E+03 0.  0.
         24    2    3    3    0    0 -0.31039348750E+02 -0.78537512473E+02 -0.76073212856E+02  0.13916254264E+03  0.80296310777E+02 0.  0.
         -6    2    1    2    0  502  0.46170097963E+02  0.34518687606E+02  0.23149721187E+02  0.18399690282E+03  0.17319276231E+03 0.  0.
        -24    2    5    5    0    0  0.30456282620E+02  0.71017572796E+02  0.62462292187E+02  0.12790179741E+03  0.80537264906E+02 0.  0.
          5    1    3    3  501    0 -0.15130749213E+02  0.44018824867E+02  0.24344452953E+02  0.52738400658E+02  0.47000000000E+01 0. -1.
        -11    1    4    4    0    0  0.19877587411E+02 -0.45312051958E+02 -0.56916402046E+02  0.75417354473E+02  0.00000000000E+00 0.  1.
         12    1    4    4    0    0 -0.50916936161E+02 -0.33225460515E+02 -0.19156810810E+02  0.63745188170E+02  0.00000000000E+00 0. -1.
         -5    1    5    5    0  502  0.15713815343E+02 -0.36498885190E+02 -0.39312571000E+02  0.56095105414E+02  0.47000000000E+01 0.  1.
         11    1    6    6    0    0  0.24138377161E+02  0.59152696301E+02 -0.12391564584E+00  0.63888325121E+02  0.00000000000E+00 0. -1.
        -12    1    6    6    0    0  0.63179054588E+01  0.11864876495E+02  0.62586207833E+02  0.64013472289E+02  0.00000000000E+00 0.  1.
</event>
<event>
12    1  0.8258923E-002  0.2312181E+03  0.7818608E-02  0.1125959E+00
         21   -1    0    0  501  502  0.00000000000E+00  0.00000000000E+00  0.18745663121E+03  0.18745663121E+03  0.00000000000E+00 0. -1.
         21   -1    0    0  502  503 -0.00000000000E+00 -0.00000000000E+00 -0.28830294137E+03  0.28830294137E+03  0.00000000000E+00 0. -1.
         -6    2    1    2    0  503 -0.56281753555E+02 -0.14248507782E+03 -0.21390715735E+02  0.23220549696E+03  0.17318255373E+03 0.  0.
        -24    2    3    3    0    0 -0.43089915519E+02 -0.11456034042E+03  0.49838747281E+02  0.15442669554E+03  0.79892998113E+02 0.  0.
          6    2    1    2  501    0  0.56281753555E+02  0.14248507782E+03 -0.79455594427E+02  0.24355407561E+03  0.17185971919E+03 0.  0.
         24    2    5    5    0    0  0.91562499856E+02  0.48850157157E+02 -0.36232148808E+02  0.13445510368E+03  0.77429820247E+02 0.  0.
          5    1    5    5  501    0 -0.35280746301E+02  0.93634920660E+02 -0.43223445619E+02  0.10909897194E+03  0.47000000000E+01 0. -1.
        -11    1    6    6    0    0  0.41216627902E+02 -0.15998422090E+02  0.11943340488E+01  0.44228795584E+02  0.00000000000E+00 0.  1.
         12    1    6    6    0    0  0.50345871954E+02  0.64848579247E+02 -0.37426482857E+02  0.90226308094E+02  0.00000000000E+00 0. -1.
         -5    1    3    3    0  503 -0.13191838036E+02 -0.27924737399E+02 -0.71229463016E+02  0.77778801425E+02  0.47000000000E+01 0.  1.
         11    1    4    4    0    0  0.12576637347E+02 -0.72921960792E+02  0.11044556629E+02  0.74818222405E+02  0.00000000000E+00 0. -1.
        -12    1    4    4    0    0 -0.55666552866E+02 -0.41638379625E+02  0.38794190652E+02  0.79608473131E+02  0.00000000000E+00 0.  1.
</event>
<event>
12    1  0.8258923E-002  0.2434842E+03  0.7818608E-02  0.1118295E+00
         21   -1    0    0  501  502  0.00000000000E+00  0.00000000000E+00  0.42694111858E+03  0.42694111858E+03  0.00000000000E+00 0. -1.
         21   -1    0    0  502  503 -0.00000000000E+00 -0.00000000000E+00 -0.13911205481E+03  0.13911205481E+03  0.00000000000E+00 0.  1.
         -6    2    1    2    0  503 -0.14176523795E+03 -0.85410623319E+02  0.10090383620E+03  0.25909132844E+03  0.17191385938E+03 0.  0.
        -24    2    3    3    0    0 -0.11423937850E+03 -0.11812210433E+03  0.11026499169E+03  0.21507502282E+03  0.84234374909E+02 0.  0.
          6    2    1    2  501    0  0.14176523795E+03  0.85410623319E+02  0.18692522757E+03  0.30696184495E+03  0.17858380746E+03 0.  0.
         24    2    5    5    0    0  0.21878337830E+02  0.78595011223E+02  0.42102682073E+02  0.11877316019E+03  0.75356421673E+02 0.  0.
          5    1    5    5  501    0  0.11988690012E+03  0.68156120958E+01  0.14482254550E+03  0.18818868476E+03  0.47000000000E+01 0. -1.
        -13    1    6    6    0    0  0.44219264973E+02  0.23820008981E+02  0.91342384408E+01  0.51050666347E+02  0.00000000000E+00 0.  1.
         14    1    6    6    0    0 -0.22340927142E+02  0.54775002242E+02  0.32968443633E+02  0.67722493839E+02  0.00000000000E+00 0. -1.
         -5    1    3    3    0  503 -0.27525859453E+02  0.32711481013E+02 -0.93611554874E+01  0.44016305624E+02  0.47000000000E+01 0.  1.
         13    1    4    4    0    0 -0.28650250523E+02  0.90651273255E+01  0.28095798590E+02  0.41138634966E+02  0.00000000000E+00 0. -1.
        -14    1    4    4    0    0 -0.85589127974E+02 -0.12718723166E+03  0.82169193100E+02  0.17393638785E+03  0.00000000000E+00 0.  1.
</event>
<event>
12    1  0.8258923E-002  0.1900830E+03  0.7818608E-02  0.1160562E+00
         21   -1    0    0  501  502  0.00000000000E+00  0.00000000000E+00  0.48512354390E+03  0.48512354390E+03  0.00000000000E+00 0.  1.
         21   -1    0    0  502  503 -0.00000000000E+00 -0.00000000000E+00 -0.24780668656E+03  0.24780668656E+03  0.00000000000E+00 0.  1.
         -6    2    1    2    0  503  0.73646012541E+02 -0.35763526866E+02 -0.19185601201E+03  0.26354671201E+03  0.16107568112E+03 0.  0.
        -24    2    3    3    0    0 -0.10946048200E+02 -0.46856771664E+02 -0.76743900398E+02  0.12018784392E+03  0.78994421038E+02 0.  0.
          6    2    1    2  501    0 -0.73646012541E+02  0.35763526866E+02  0.42917286936E+03  0.46938351845E+03  0.17154815819E+03 0.  0.
         24    2    5    5    0    0 -0.10970954230E+03  0.94849541222E+01  0.37885032929E+03  0.40196253059E+03  0.76942549818E+02 0.  0.
          5    1    5    5  501    0  0.36063529759E+02  0.26278572744E+02  0.50322540072E+02  0.67420987856E+02  0.47000000000E+01 0. -1.
        -13    1    6    6    0    0 -0.81504508993E+02 -0.17051188960E+02  0.32585275521E+03  0.33632387086E+03  0.00000000000E+00 0.  1.
         14    1    6    6    0    0 -0.28205033307E+02  0.26536143083E+02  0.52997574076E+02  0.65638659733E+02  0.00000000000E+00 0. -1.
         -5    1    3    3    0  503  0.84592060741E+02  0.11093244798E+02 -0.11511211162E+03  0.14335886809E+03  0.47000000000E+01 0.  1.
         13    1    4    4    0    0 -0.21145553735E+02 -0.41582103920E+02 -0.90773072816E+02  0.10205859375E+03  0.00000000000E+00 0. -1.
        -14    1    4    4    0    0  0.10199505535E+02 -0.52746677435E+01  0.14029172418E+02  0.18129250169E+02  0.00000000000E+00 0.  1.
</event>
<event>
12    1  0.8258923E-002  0.1786229E+03  0.7818608E-02  0.1169276E+00
         21   -1    0    0  503  502  0.00000000000E+00  0.00000000000E+00  0.10741879595E+03  0.10741879595E+03  0.00000000000E+00 0.  1.
         21   -1    0    0  501  503 -0.00000000000E+00 -0.00000000000E+00 -0.40113476585E+03  0.40113476585E+03  0.00000000000E+00 0.  1.
          6    2    1    2  501    0 -0.20492766659E+02 -0.43834263987E+02 -0.27679600708E+03  0.32913104844E+03  0.17137625660E+03 0.  0.
         24    2    3    3    0    0 -0.76477775652E+02 -0.31129027678E+02 -0.22199056215E+03  0.24962336921E+03  0.78829881664E+02 0.  0.
         -6    2    1    2    0  502  0.20492766659E+02  0.43834263987E+02 -0.16919962826E+02  0.17942251336E+03  0.17194405187E+03 0.  0.
        -24    2    5    5    0    0 -0.90199025254E+00  0.67158016394E+02 -0.64487736110E+02  0.12209436926E+03  0.78976921599E+02 0.  0.
          5    1    3    3  501    0  0.55985008993E+02 -0.12705236309E+02 -0.54805444934E+02  0.79507679227E+02  0.47000000000E+01 0. -1.
        -13    1    4    4    0    0 -0.70779029473E+02 -0.75908444514E+01 -0.21163138347E+03  0.22328263345E+03  0.00000000000E+00 0.  1.
         14    1    4    4    0    0 -0.56987461785E+01 -0.23538183226E+02 -0.10359178678E+02  0.26340735762E+02  0.00000000000E+00 0. -1.
         -5    1    5    5    0  502  0.21394756912E+02 -0.23323752407E+02  0.47567773285E+02  0.57328144091E+02  0.47000000000E+01 0.  1.
         13    1    6    6    0    0 -0.33854308500E+02  0.62545751331E+01 -0.21226341414E+02  0.40444919136E+02  0.00000000000E+00 0. -1.
        -14    1    6    6    0    0  0.32952318248E+02  0.60903441260E+02 -0.43261394697E+02  0.81649450129E+02  0.00000000000E+00 0.  1.
</event>
<event>
12    1  0.8258923E-002  0.2479699E+03  0.7818608E-02  0.1114675E+00
         21   -1    0    0  503  502  0.00000000000E+00  0.00000000000E+00  0.52735557654E+03  0.52735557654E+03  0.00000000000E+00 0.  1.
         21   -1    0    0  501  503 -0.00000000000E+00 -0.00000000000E+00 -0.13647660638E+03  0.13647660638E+03  0.00000000000E+00 0. -1.
          6    2    1    2  501    0 -0.15340780736E+03  0.91799514522E+02  0.67842251750E+02  0.25659538894E+03  0.17110673942E+03 0.  0.
         24    2    3    3    0    0 -0.12058162548E+03  0.27862731548E+01  0.11143527066E+02  0.14597102121E+03  0.81459616460E+02 0.  0.
         -6    2    1    2    0  502  0.15340780736E+03 -0.91799514522E+02  0.32303671841E+03  0.40723679399E+03  0.17183707026E+03 0.  0.
        -24    2    5    5    0    0  0.16327837176E+02 -0.70940798465E+02  0.11749565013E+03  0.15925448614E+03  0.79104793792E+02 0.  0.
          5    1    3    3  501    0 -0.32826181874E+02  0.89013241367E+02  0.56698724684E+02  0.11062436773E+03  0.47000000000E+01 0. -1.
        -11    1    4    4    0    0  0.12437859831E+02  0.12008583155E+00 -0.22032935649E+00  0.12440390782E+02  0.00000000000E+00 0.  1.
         12    1    4    4    0    0 -0.13301948532E+03  0.26661873232E+01  0.11363856423E+02  0.13353063042E+03  0.00000000000E+00 0. -1.
         -5    1    5    5    0  502  0.13707997018E+03 -0.20858716056E+02  0.20554106827E+03  0.24798230785E+03  0.47000000000E+01 0.  1.
         13    1    6    6    0    0  0.43632476402E+02 -0.17334809423E+02  0.44802858773E+02  0.64896723869E+02  0.00000000000E+00 0. -1.
        -14    1    6    6    0    0 -0.27304639226E+02 -0.53605989043E+02  0.72692791362E+02  0.94357762269E+02  0.00000000000E+00 0.  1.
</event>
<event>
12    1  0.8258923E-002  0.2960238E+03  0.7818608E-02  0.1087622E+00
         21   -1    0    0  501  502  0.00000000000E+00  0.00000000000E+00  0.60972262046E+03  0.60972262046E+03  0.00000000000E+00 0.  1.
         21   -1    0    0  502  503 -0.00000000000E+00 -0.00000000000E+00 -0.21949344691E+03  0.21949344691E+03  0.00000000000E+00 0. -1.
         -6    2    1    2    0  503 -0.58220522806E+02  0.23325791354E+03 -0.51399389670E+02  0.29755277237E+03  0.16762121460E+03 0.  0.
        -24    2    3    3    0    0 -0.71180213461E+02  0.24034712685E+03 -0.71042557829E+02  0.27252969137E+03  0.79950131247E+02 0.  0.
          6    2    1    2  501    0  0.58220522806E+02 -0.23325791354E+03  0.44162856322E+03  0.53166329500E+03  0.17271707473E+03 0.  0.
         24    2    5    5    0    0  0.56514367145E+02 -0.71339604313E+02  0.21468976660E+03  0.25283761965E+03  0.97734094297E+02 0.  0.
          5    1    5    5  501    0  0.17061556602E+01 -0.16191830923E+03  0.22693879661E+03  0.27882567536E+03  0.47000000000E+01 0. -1.
        -11    1    6    6    0    0  0.29810203198E+02 -0.65998511062E+02  0.21364436599E+03  0.22558450035E+03  0.00000000000E+00 0.  1.
         12    1    6    6    0    0  0.26704163947E+02 -0.53410932510E+01  0.10454006124E+01  0.27253119301E+02  0.00000000000E+00 0. -1.
         -5    1    3    3    0  503  0.12959690655E+02 -0.70892133067E+01  0.19643168159E+02  0.25023080996E+02  0.47000000000E+01 0.  1.
         13    1    4    4    0    0 -0.30172919479E+02  0.17953816975E+03 -0.19953458840E+02  0.18314611650E+03  0.00000000000E+00 0. -1.
        -14    1    4    4    0    0 -0.41007293982E+02  0.60808957092E+02 -0.51089098989E+02  0.89383574878E+02  0.00000000000E+00 0.  1.
</event>
<event>
12    1  0.8258923E-002  0.1921313E+03  0.7818608E-02  0.1156901E+00
         21   -1    0    0  501  502  0.00000000000E+00  0.00000000000E+00  0.12013794697E+03  0.12013794697E+03  0.00000000000E+00 0. -1.
         21   -1    0    0  502  503 -0.00000000000E+00 -0.00000000000E+00 -0.33005188075E+03  0.33005188075E+03  0.00000000000E+00 0. -1.
         -6    2    1    2    0  503  0.72816851049E+00 -0.85819902556E+02 -0.16685134539E+03  0.25329178697E+03  0.17015220240E+03 0.  0.
        -24    2    3    3    0    0 -0.31437564562E+00 -0.12591075389E+03 -0.10845559036E+03  0.18229518519E+03  0.74935323349E+02 0.  0.
          6    2    1    2  501    0 -0.72816851049E+00  0.85819902556E+02 -0.43062588394E+02  0.19689804076E+03  0.17189783603E+03 0.  0.
         24    2    5    5    0    0  0.57148953172E+02  0.19603266282E+02 -0.42919351613E+02  0.10882696350E+03  0.79692824918E+02 0.  0.
          5    1    5    5  501    0 -0.57877121682E+02  0.66216636275E+02 -0.14323678151E+00  0.88071077265E+02  0.47000000000E+01 0. -1.
        -13    1    6    6    0    0 -0.15455639972E+02 -0.13025183565E+02 -0.60101351713E+01  0.21086819073E+02  0.00000000000E+00 0.  1.
         14    1    6    6    0    0  0.72604593144E+02  0.32628449847E+02 -0.36909216442E+02  0.87740144423E+02  0.00000000000E+00 0. -1.
         -5    1    3    3    0  503  0.10425441561E+01  0.40090851331E+02 -0.58395755029E+02  0.70996601779E+02  0.47000000000E+01 0.  1.
         11    1    4    4    0    0 -0.13865766767E+02 -0.55628450878E+02 -0.92714230037E+02  0.10900785516E+03  0.00000000000E+00 0. -1.
        -12    1    4    4    0    0  0.13551391122E+02 -0.70282303010E+02 -0.15741360322E+02  0.73287330027E+02  0.00000000000E+00 0.  1.
</event>
<event>
12    1  0.8258923E-002  0.1998597E+03  0.7818608E-02  0.1154011E+00
         21   -1    0    0  503  502  0.00000000000E+00  0.00000000000E+00  0.39327717511E+03  0.39327717511E+03  0.00000000000E+00 0.  1.
         21   -1    0    0  501  503 -0.00000000000E+00 -0.00000000000E+00 -0.10075420225E+03  0.10075420225E+03  0.00000000000E+00 0. -1.
          6    2    1    2  501    0  0.98993420804E+02 -0.13609709712E+02  0.81350116889E+02  0.21578171764E+03  0.17308664474E+03 0.  0.
         24    2    3    3    0    0  0.63878645131E+02  0.53400580926E+02  0.78506016841E+02  0.13992919344E+03  0.80528759767E+02 0.  0.
         -6    2    1    2    0  502 -0.98993420804E+02  0.13609709712E+02  0.21117285597E+03  0.27824965972E+03  0.15114223922E+03 0.  0.
        -24    2    5    5    0    0 -0.11225113439E+03  0.43313282970E+02  0.14640537276E+03  0.20562056008E+03  0.79805538021E+02 0.  0.
          5    1    3    3  501    0  0.35114775673E+02 -0.67010290639E+02  0.28441000487E+01  0.75852524197E+02  0.47000000000E+01 0. -1.
        -13    1    4    4    0    0 -0.68624964608E+01  0.36614297802E+00  0.44775588701E+02  0.45299903553E+02  0.00000000000E+00 0.  1.
         14    1    4    4    0    0  0.70741141592E+02  0.53034437948E+02  0.33730428140E+02  0.94629289888E+02  0.00000000000E+00 0. -1.
         -5    1    5    5    0  502  0.13257713590E+02 -0.29703573257E+02  0.64767483204E+02  0.72629099640E+02  0.47000000000E+01 0.  1.
         13    1    6    6    0    0 -0.46326693551E+02  0.60432840034E+02  0.73064343578E+02  0.10553051214E+03  0.00000000000E+00 0. -1.
        -14    1    6    6    0    0 -0.65924440843E+02 -0.17119557064E+02  0.73341029185E+02  0.10009004794E+03  0.00000000000E+00 0.  1.
</event>
<event>
12    1  0.8258923E-002  0.1913177E+03  0.7818608E-02  0.1157816E+00
         21   -1    0    0  503  502  0.00000000000E+00  0.00000000000E+00  0.22096383745E+03  0.22096383745E+03  0.00000000000E+00 0. -1.
         21   -1    0    0  501  503 -0.00000000000E+00 -0.00000000000E+00 -0.16370111591E+03  0.16370111591E+03  0.00000000000E+00 0. -1.
          6    2    1    2  501    0 -0.71366120453E+02 -0.32177314458E+02  0.23719378574E+02  0.19278240530E+03  0.17456787837E+03 0.  0.
         24    2    3    3    0    0 -0.66556634870E+02 -0.67405153950E+02 -0.31105266497E+02  0.12726932620E+03  0.79099325929E+02 0.  0.
         -6    2    1    2    0  502  0.71366120453E+02  0.32177314458E+02  0.33543342964E+02  0.19188254805E+03  0.17194549624E+03 0.  0.
        -24    2    5    5    0    0 -0.24761375158E+02  0.34335003718E+02  0.87153764630E+01  0.92465904799E+02  0.81743302988E+02 0.  0.
          5    1    3    3  501    0 -0.48094855831E+01  0.35227839491E+02  0.54824645071E+02  0.65513079106E+02  0.47000000000E+01 0. -1.
        -13    1    4    4    0    0 -0.10469259964E+02 -0.14994565221E+02 -0.45616784414E+02  0.49146041658E+02  0.00000000000E+00 0.  1.
         14    1    4    4    0    0 -0.56087374906E+02 -0.52410588729E+02  0.14511517917E+02  0.78123284538E+02  0.00000000000E+00 0. -1.
         -5    1    5    5    0  502  0.96127495612E+02 -0.21576892596E+01  0.24827966501E+02  0.99416643255E+02  0.47000000000E+01 0.  1.
         11    1    6    6    0    0 -0.20694816284E+02 -0.20422611776E+02 -0.14928068966E+02  0.32683416833E+02  0.00000000000E+00 0. -1.
        -12    1    6    6    0    0 -0.40665588742E+01  0.54757615494E+02  0.23643445429E+02  0.59782487966E+02  0.00000000000E+00 0.  1.
</event>
<event>
12    1  0.8258923E-002  0.1992679E+03  0.7818608E-02  0.1150652E+00
         21   -1    0    0  503  502  0.00000000000E+00  0.00000000000E+00  0.25415648235E+03  0.25415648235E+03  0.00000000000E+00 0. -1.
         21   -1    0    0  501  503 -0.00000000000E+00 -0.00000000000E+00 -0.15614471884E+03  0.15614471884E+03  0.00000000000E+00 0. -1.
          6    2    1    2  501    0  0.98069579114E+02 -0.94849087408E+01  0.65204651997E+02  0.20835069207E+03  0.17161223267E+03 0.  0.
         24    2    3    3    0    0  0.84336889346E+02 -0.68948730477E+02  0.56574745634E+02  0.14653566034E+03  0.80033490299E+02 0.  0.
         -6    2    1    2    0  502 -0.98069579114E+02  0.94849087408E+01  0.32807111516E+02  0.20195050912E+03  0.17320535709E+03 0.  0.
        -24    2    5    5    0    0 -0.10990564691E+03 -0.28287613855E+02  0.15777632189E+02  0.15860366229E+03  0.10966652950E+03 0.  0.
          5    1    3    3  501    0  0.13732689768E+02  0.59463821736E+02  0.86299063637E+01  0.61815031728E+02  0.47000000000E+01 0. -1.
        -11    1    4    4    0    0  0.46223825425E+02 -0.41142804384E+02 -0.12260379728E+02  0.63084778676E+02  0.00000000000E+00 0.  1.
         12    1    4    4    0    0  0.38113063921E+02 -0.27805926093E+02  0.68835125362E+02  0.83450881667E+02  0.00000000000E+00 0. -1.
         -5    1    5    5    0  502  0.11836067794E+02  0.37772522595E+02  0.17029479328E+02  0.43346846831E+02  0.47000000000E+01 0.  1.
         11    1    6    6    0    0 -0.39843444864E+02 -0.41560868529E+02 -0.38264816844E+02  0.69130326917E+02  0.00000000000E+00 0. -1.
        -12    1    6    6    0    0 -0.70062202044E+02  0.13273254674E+02  0.54042449032E+02  0.89473335370E+02  0.00000000000E+00 0.  1.
</event>
<event>
12    1  0.8258923E-002  0.1913606E+03  0.7818608E-02  0.1158332E+00
         21   -1    0    0  501  502  0.00000000000E+00  0.00000000000E+00  0.10020259512E+03  0.10020259512E+03  0.00000000000E+00 0.  1.
         21   -1    0    0  502  503 -0.00000000000E+00 -0.00000000000E+00 -0.41226515095E+03  0.41226515095E+03  0.00000000000E+00 0. -1.
         -6    2    1    2    0  503 -0.20638250909E+02  0.80461876606E+02 -0.63349833525E+02  0.20157401101E+03  0.17239150071E+03 0.  0.
        -24    2    3    3    0    0 -0.32800747842E+02  0.10661850463E+03 -0.65178091287E+01  0.13766732499E+03  0.80414028284E+02 0.  0.
          6    2    1    2  501    0  0.20638250909E+02 -0.80461876606E+02 -0.24871272230E+03  0.31089373506E+03  0.16702348720E+03 0.  0.
         24    2    5    5    0    0  0.32818422325E+02 -0.64794872859E+02 -0.64499572575E+02  0.12555516348E+03  0.79551743050E+02 0.  0.
          5    1    5    5  501    0 -0.12180171416E+02 -0.15667003747E+02 -0.18421314973E+03  0.18533857158E+03  0.47000000000E+01 0. -1.
        -11    1    6    6    0    0  0.14769153885E+02 -0.91231071377E+00 -0.56836221905E+02  0.58730880615E+02  0.00000000000E+00 0.  1.
         12    1    6    6    0    0  0.18049268440E+02 -0.63882562145E+02 -0.76633506699E+01  0.66824282869E+02  0.00000000000E+00 0. -1.
         -5    1    3    3    0  503  0.12162496933E+02 -0.26156628023E+02 -0.56832024397E+02  0.63906686021E+02  0.47000000000E+01 0.  1.
         11    1    4    4    0    0 -0.21666321229E+02  0.18908870081E+01  0.19470020257E+02  0.29190522744E+02  0.00000000000E+00 0. -1.
        -12    1    4    4    0    0 -0.11134426613E+02  0.10472761762E+03 -0.25987829386E+02  0.10847680224E+03  0.00000000000E+00 0.  1.
</event>
<event>
12    1  0.8258923E-002  0.2161112E+03  0.7818608E-02  0.1137083E+00
         21   -1    0    0  503  502  0.00000000000E+00  0.00000000000E+00  0.44975495362E+03  0.44975495362E+03  0.00000000000E+00 0. -1.
         21   -1    0    0  501  503 -0.00000000000E+00 -0.00000000000E+00 -0.14846008306E+03  0.14846008306E+03  0.00000000000E+00 0.  1.
          6    2    1    2  501    0  0.95021142148E+02  0.90084077227E+02 -0.14888548902E+02  0.21523200977E+03  0.17017341366E+03 0.  0.
         24    2    3    3    0    0  0.44654997709E+02  0.92395089487E+02 -0.56823972525E+02  0.14948431751E+03  0.92658922652E+02 0.  0.
         -6    2    1    2    0  502 -0.95021142148E+02 -0.90084077227E+02  0.31618341946E+03  0.38298302690E+03  0.17192988608E+03 0.  0.
        -24    2    5    5    0    0 -0.13060457346E+03 -0.66529981640E+02  0.21220469136E+03  0.27049017424E+03  0.81549434444E+02 0.  0.
          5    1    3    3  501    0  0.50366144439E+02 -0.23110122594E+01  0.41935423623E+02  0.65747692262E+02  0.47000000000E+01 0. -1.
        -11    1    4    4    0    0  0.36415134101E+02  0.76628083182E+02  0.51604656034E+01  0.84997385424E+02  0.00000000000E+00 0.  1.
         12    1    4    4    0    0  0.82398636088E+01  0.15767006305E+02 -0.61984438128E+02  0.64486932089E+02  0.00000000000E+00 0. -1.
         -5    1    5    5    0  502  0.35583431315E+02 -0.23554095587E+02  0.10397872810E+03  0.11249285266E+03  0.47000000000E+01 0.  1.
         11    1    6    6    0    0 -0.46595548260E+02 -0.69265996008E+02  0.11231929054E+03  0.13994479750E+03  0.00000000000E+00 0. -1.
        -12    1    6    6    0    0 -0.84009025203E+02  0.27360143683E+01  0.99885400820E+02  0.13054537674E+03  0.00000000000E+00 0.  1.
</event>
<event>
12    1  0.8258923E-002  0.1961710E+03  0.7818608E-02  0.1153300E+00
         21   -1    0    0  501  502  0.00000000000E+00  0.00000000000E+00  0.54364481791E+02  0.54364481791E+02  0.00000000000E+00 0.  1.
         21   -1    0    0  502  503 -0.00000000000E+00 -0.00000000000E+00 -0.10621989151E+04  0.10621989151E+04  0.00000000000E+00 0. -1.
         -6    2    1    2    0  503  0.90219547715E+02 -0.19612273789E+02 -0.82967570031E+03  0.85255196114E+03  0.17308630995E+03 0.  0.
        -24    2    3    3    0    0  0.33898629809E+02  0.52160727077E+02 -0.35888119981E+03  0.37297614738E+03  0.80284695834E+02 0.  0.
          6    2    1    2  501    0 -0.90219547715E+02  0.19612273789E+02 -0.17815873296E+03  0.26401143571E+03  0.17157300482E+03 0.  0.
         24    2    5    5    0    0 -0.12820554477E+03  0.10761653182E+01 -0.12435523150E+03  0.19542987799E+03  0.79314524334E+02 0.  0.
          5    1    5    5  501    0  0.37985997050E+02  0.18536108471E+02 -0.53803501469E+02  0.68581557721E+02  0.47000000000E+01 0. -1.
        -13    1    6    6    0    0 -0.12271943019E+03 -0.22228798037E+02 -0.91067201463E+02  0.15442607678E+03  0.00000000000E+00 0.  1.
         14    1    6    6    0    0 -0.54861145787E+01  0.23304963355E+02 -0.33288030033E+02  0.41003801209E+02  0.00000000000E+00 0. -1.
         -5    1    3    3    0  503  0.56320917906E+02 -0.71773000866E+02 -0.47079450050E+03  0.47957581376E+03  0.47000000000E+01 0.  1.
         11    1    4    4    0    0 -0.61194422154E+01  0.14000010279E+02 -0.25357273168E+03  0.25403263198E+03  0.00000000000E+00 0. -1.
        -12    1    4    4    0    0  0.40018072024E+02  0.38160716798E+02 -0.10530846813E+03  0.11894351540E+03  0.00000000000E+00 0.  1.
</event>
<event>
12    1  0.8258923E-002  0.2126330E+03  0.7818608E-02  0.1139587E+00
         21   -1    0    0  501  502  0.00000000000E+00  0.00000000000E+00  0.36911319438E+03  0.36911319438E+03  0.00000000000E+00 0.  1.
         21   -1    0    0  502  503 -0.00000000000E+00 -0.00000000000E+00 -0.24061242177E+03  0.24061242177E+03  0.00000000000E+00 0.  1.
         -6    2    1    2    0  503  0.33971918702E+02 -0.11981012676E+03 -0.14962753102E+03  0.25962828754E+03  0.17178443444E+03 0.  0.
        -24    2    3    3    0    0  0.80219720083E+02 -0.11815686189E+03 -0.99585202672E+02  0.19130613122E+03  0.79275316134E+02 0.  0.
          6    2    1    2  501    0 -0.33971918702E+02  0.11981012676E+03  0.27812830363E+03  0.35009732861E+03  0.17234914704E+03 0.  0.
         24    2    5    5    0    0 -0.38755217986E+02  0.78725382380E+02  0.70492241811E+02  0.13832938878E+03  0.80412753293E+02 0.  0.
          5    1    5    5  501    0  0.47832992843E+01  0.41084744379E+02  0.20763606182E+03  0.21176793983E+03  0.47000000000E+01 0. -1.
        -11    1    6    6    0    0 -0.53234648570E+01  0.76208305810E+02  0.71714428586E+02  0.10478074451E+03  0.00000000000E+00 0.  1.
         12    1    6    6    0    0 -0.33431753129E+02  0.25170765704E+01 -0.12221867749E+01  0.33548644269E+02  0.00000000000E+00 0. -1.
         -5    1    3    3    0  503 -0.46247801381E+02 -0.16532648702E+01 -0.50042328353E+02  0.68322156320E+02  0.47000000000E+01 0.  1.
         11    1    4    4    0    0 -0.23560625199E+01  0.67415893132E+01 -0.21056816062E+02  0.22234872604E+02  0.00000000000E+00 0. -1.
        -12    1    4    4    0    0  0.82575782603E+02 -0.12489845120E+03 -0.78528386610E+02  0.16907125861E+03  0.00000000000E+00 0.  1.
</event>
<event>
12    1  0.8258923E-002  0.2811986E+03  0.7818608E-02  0.1096025E+00
         21   -1    0    0  501  502  0.00000000000E+00  0.00000000000E+00  0.12175188610E+03  0.12175188610E+03  0.00000000000E+00 0. -1.
         21   -1    0    0  502  503 -0.00000000000E+00 -0.00000000000E+00 -0.10340262121E+04  0.10340262121E+04  0.00000000000E+00 0.  1.
         -6    2    1    2    0  503  0.18402262334E+03 -0.10922027566E+03 -0.81962992861E+03  0.86652516155E+03  0.18242598829E+03 0.  0.
        -24    2    3    3    0    0  0.21319541436E+03 -0.10527860910E+03 -0.74492531775E+03  0.78609222454E+03  0.80569139411E+02 0.  0.
          6    2    1    2  501    0 -0.18402262334E+03  0.10922027566E+03 -0.92644397346E+02  0.28925293662E+03  0.17114579301E+03 0.  0.
         24    2    5    5    0    0 -0.91212586573E+02  0.62230923401E+02 -0.11944823838E+03  0.18172508885E+03  0.81016680322E+02 0.  0.
          5    1    5    5  501    0 -0.92810036767E+02  0.46989352259E+02  0.26803841031E+02  0.10752784776E+03  0.47000000000E+01 0. -1.
        -13    1    6    6    0    0 -0.10987651290E+02  0.55132141748E+02 -0.44323504370E+02  0.71588089612E+02  0.00000000000E+00 0.  1.
         14    1    6    6    0    0 -0.80224935283E+02  0.70987816531E+01 -0.75124734007E+02  0.11013699924E+03  0.00000000000E+00 0. -1.
         -5    1    3    3    0  503 -0.29172791019E+02 -0.39416665564E+01 -0.74704610867E+02  0.80432937009E+02  0.47000000000E+01 0.  1.
         11    1    4    4    0    0  0.54899584453E+02 -0.68688675676E+02 -0.28916153516E+03  0.30223582176E+03  0.00000000000E+00 0. -1.
        -12    1    4    4    0    0  0.15829582991E+03 -0.36589933428E+02 -0.45576378258E+03  0.48385640278E+03  0.00000000000E+00 0.  1.
</event>
<event>
12    1  0.8258923E-002  0.1908411E+03  0.7818608E-02  0.1157708E+00
         21   -1    0    0  501  502  0.00000000000E+00  0.00000000000E+00  0.41193159774E+03  0.41193159774E+03  0.00000000000E+00 0.  1.
         21   -1    0    0  502  503 -0.00000000000E+00 -0.00000000000E+00 -0.27015070066E+03  0.27015070066E+03  0.00000000000E+00 0.  1.
         -6    2    1    2    0  503 -0.76639160547E+02  0.30613981038E+02 -0.20883548403E+03  0.28290030182E+03  0.17207424158E+03 0.  0.
        -24    2    3    3    0    0 -0.55397419445E+02  0.48350842383E+02 -0.45962490800E+02  0.11762625746E+03  0.79477719161E+02 0.  0.
          6    2    1    2  501    0  0.76639160547E+02 -0.30613981038E+02  0.35061638110E+03  0.39918199658E+03  0.17205709207E+03 0.  0.
         24    2    5    5    0    0  0.24594505223E+02  0.44430153511E+02  0.13500177798E+03  0.16497692541E+03  0.80081069134E+02 0.  0.
          5    1    5    5  501    0  0.52044655324E+02 -0.75044134549E+02  0.21561460313E+03  0.23420507117E+03  0.47000000000E+01 0. -1.
        -13    1    6    6    0    0  0.50840107613E+02  0.10544652971E+02  0.71486580900E+02  0.88352914481E+02  0.00000000000E+00 0.  1.
         14    1    6    6    0    0 -0.26245602390E+02  0.33885500540E+02  0.63515197076E+02  0.76624010932E+02  0.00000000000E+00 0. -1.
         -5    1    3    3    0  503 -0.21241741103E+02 -0.17736861345E+02 -0.16287299323E+03  0.16527404436E+03  0.47000000000E+01 0.  1.
         13    1    4    4    0    0 -0.59325511538E+02  0.31931103037E+02 -0.63996401258E+02  0.92922823000E+02  0.00000000000E+00 0. -1.
        -14    1    4    4    0    0  0.39280920935E+01  0.16419739346E+02  0.18033910457E+02  0.24703434459E+02  0.00000000000E+00 0.  1.
</event>
<event>
12    1  0.8258923E-002  0.2052613E+03  0.7818608E-02  0.1145421E+00
         21   -1    0    0  503  502  0.00000000000E+00  0.00000000000E+00  0.43260060395E+03  0.43260060395E+03  0.00000000000E+00 0.  1.
         21   -1    0    0  501  503 -0.00000000000E+00 -0.00000000000E+00 -0.13584431925E+03  0.13584431925E+03  0.00000000000E+00 0.  1.
          6    2    1    2  501    0  0.90203485485E+02  0.67078217634E+02 -0.29906307850E+01  0.20528305096E+03  0.17174408596E+03 0.  0.
         24    2    3    3    0    0 -0.18783163717E+02  0.21234235857E+02 -0.17617722844E+02  0.86053011992E+02  0.79316055771E+02 0.  0.
         -6    2    1    2    0  502 -0.90203485485E+02 -0.67078217634E+02  0.29974691549E+03  0.36316187224E+03  0.17147062732E+03 0.  0.
        -24    2    5    5    0    0 -0.70637459318E+02 -0.15161913966E+02  0.71643030503E+02  0.12836067056E+03  0.78257291248E+02 0.  0.
          5    1    3    3  501    0  0.10898664920E+03  0.45843981778E+02  0.14627092059E+02  0.11923003897E+03  0.47000000000E+01 0. -1.
        -13    1    4    4    0    0 -0.76004702880E+01 -0.30398170396E+02 -0.82191351635E+01  0.32393982387E+02  0.00000000000E+00 0.  1.
         14    1    4    4    0    0 -0.11182693429E+02  0.51632406253E+02 -0.93985876806E+01  0.53659029605E+02  0.00000000000E+00 0. -1.
         -5    1    5    5    0  502 -0.19566026167E+02 -0.51916303669E+02  0.22810388498E+03  0.23480120168E+03  0.47000000000E+01 0.  1.
         13    1    6    6    0    0 -0.65189530076E+02 -0.34920307523E+02  0.77421162422E+02  0.10706605017E+03  0.00000000000E+00 0. -1.
        -14    1    6    6    0    0 -0.54479292421E+01  0.19758393557E+02 -0.57781319190E+01  0.21294620388E+02  0.00000000000E+00 0.  1.
</event>
<event>
12    1  0.8258923E-002  0.1787753E+03  0.7818608E-02  0.1169629E+00
         21   -1    0    0  501  502  0.00000000000E+00  0.00000000000E+00  0.86628300481E+03  0.86628300481E+03  0.00000000000E+00 0.  1.
         21   -1    0    0  502  503 -0.00000000000E+00 -0.00000000000E+00 -0.41437738890E+02  0.41437738890E+02  0.00000000000E+00 0.  1.
         -6    2    1    2    0  503  0.73654041465E+01 -0.44684364973E+02  0.25095902405E+03  0.30663338687E+03  0.17027231289E+03 0.  0.
        -24    2    3    3    0    0  0.66665812024E+02 -0.13443811375E+02  0.18706114780E+03  0.21391047086E+03  0.78362937474E+02 0.  0.
          6    2    1    2  501    0 -0.73654041465E+01  0.44684364973E+02  0.57388624187E+03  0.60108735683E+03  0.17294406693E+03 0.  0.
         24    2    5    5    0    0 -0.11893999104E+02 -0.39619243456E+02  0.35210230062E+03  0.36373147812E+03  0.81322852893E+02 0.  0.
          5    1    5    5  501    0  0.45285949579E+01  0.84303608428E+02  0.22178394124E+03  0.23735587871E+03  0.47000000000E+01 0. -1.
        -13    1    6    6    0    0 -0.69060643389E+01  0.24668034253E+02  0.12795156954E+03  0.13049065018E+03  0.00000000000E+00 0.  1.
         14    1    6    6    0    0 -0.49879347655E+01 -0.64287277709E+02  0.22415073109E+03  0.23324082793E+03  0.00000000000E+00 0. -1.
         -5    1    3    3    0  503 -0.59300407878E+02 -0.31240553597E+02  0.63897876250E+02  0.92722916007E+02  0.47000000000E+01 0.  1.
         11    1    4    4    0    0  0.57920877257E+02  0.25881670845E+02  0.11180911113E+03  0.12855335951E+03  0.00000000000E+00 0. -1.
        -12    1    4    4    0    0  0.87449347672E+01 -0.39325482220E+02  0.75252036671E+02  0.85357111356E+02  0.00000000000E+00 0.  1.
</event>
<event>
12    1  0.8258923E-002  0.2287443E+03  0.7818608E-02  0.1128797E+00
         21   -1    0    0  503  502  0.00000000000E+00  0.00000000000E+00  0.46117414809E+02  0.46117414809E+02  0.00000000000E+00 0.  1.
         21   -1    0    0  501  503 -0.00000000000E+00 -0.00000000000E+00 -0.20170275735E+04  0.20170275735E+04  0.00000000000E+00 0. -1.
          6    2    1    2  501    0 -0.14084726763E+03  0.54994239962E+02 -0.16726035680E+04  0.16872317504E+04  0.16212946878E+03 0.  0.
         24    2    3    3    0    0 -0.90733927717E+02  0.89277514572E+02 -0.13698278592E+04  0.13783921324E+04  0.85635196096E+02 0.  0.
         -6    2    1    2    0  502  0.14084726763E+03 -0.54994239962E+02 -0.29830659061E+03  0.37591323783E+03  0.17164387885E+03 0.  0.
        -24    2    5    5    0    0  0.75209397599E+02 -0.75301624324E+02 -0.27199072611E+03  0.30218851629E+03  0.77538094981E+02 0.  0.
          5    1    3    3  501    0 -0.50113339913E+02 -0.34283274610E+02 -0.30277570888E+03  0.30883961800E+03  0.47000000000E+01 0. -1.
        -11    1    4    4    0    0 -0.12783167810E+02 -0.16234187940E+02 -0.12834641841E+03  0.12999908213E+03  0.00000000000E+00 0.  1.
         12    1    4    4    0    0 -0.77950759908E+02  0.10551170251E+03 -0.12414814407E+04  0.12483930503E+04  0.00000000000E+00 0. -1.
         -5    1    5    5    0  502  0.65637870032E+02  0.20307384362E+02 -0.26315864500E+02  0.73724721541E+02  0.47000000000E+01 0.  1.
         11    1    6    6    0    0  0.68002559587E+02 -0.41013536069E+02 -0.10548399805E+03  0.13203534411E+03  0.00000000000E+00 0. -1.
        -12    1    6    6    0    0  0.72068380112E+01 -0.34288088255E+02 -0.16650672807E+03  0.17015317218E+03  0.00000000000E+00 0.  1.
</event>
<event>
12    1  0.8258923E-002  0.1990071E+03  0.7818608E-02  0.1150680E+00
         21   -1    0    0  501  502  0.00000000000E+00  0.00000000000E+00  0.53194187254E+03  0.53194187254E+03  0.00000000000E+00 0. -1.
         21   -1    0    0  502  503 -0.00000000000E+00 -0.00000000000E+00 -0.14278186604E+03  0.14278186604E+03  0.00000000000E+00 0. -1.
         -6    2    1    2    0  503  0.83512251037E+02  0.53719069985E+02 -0.39223722816E+02  0.20237170839E+03  0.17191792627E+03 0.  0.
        -24    2    3    3    0    0  0.12028765026E+03  0.26165764349E+02 -0.50450564524E+02  0.15483491617E+03  0.79213797888E+02 0.  0.
          6    2    1    2  501    0 -0.83512251037E+02 -0.53719069985E+02  0.42838372931E+03  0.47235203019E+03  0.17246386964E+03 0.  0.
         24    2    5    5    0    0 -0.25759426086E+02 -0.95799074005E+02  0.26902468216E+03  0.29764223814E+03  0.79847427649E+02 0.  0.
          5    1    5    5  501    0 -0.57752824951E+02  0.42080004020E+02  0.15935904715E+03  0.17470979205E+03  0.47000000000E+01 0. -1.
        -11    1    6    6    0    0  0.31061706362E+01  0.29825414754E+01  0.97625856337E+02  0.97720784254E+02  0.00000000000E+00 0.  1.
         12    1    6    6    0    0 -0.28865596722E+02 -0.98781615480E+02  0.17139882582E+03  0.19992145389E+03  0.00000000000E+00 0. -1.
         -5    1    3    3    0  503 -0.36775399224E+02  0.27553305635E+02  0.11226841708E+02  0.47536792217E+02  0.47000000000E+01 0.  1.
         11    1    4    4    0    0  0.57053898164E+01 -0.10694176065E+02 -0.30509692249E+02  0.32829227767E+02  0.00000000000E+00 0. -1.
        -12    1    4    4    0    0  0.11458226044E+03  0.36859940414E+02 -0.19940872275E+02  0.12200568840E+03  0.00000000000E+00 0.  1.
</event>
<event>
12    1  0.8258923E-002  0.1284155E+04  0.7818608E-02  0.9042243E-01
         21   -1    0    0  501  502  0.00000000000E+00  0.00000000000E+00  0.27657428978E+04  0.27657428978E+04  0.00000000000E+00 0.  1.
         21   -1    0    0  502  503 -0.00000000000E+00 -0.00000000000E+00 -0.81111914494E+03  0.81111914494E+03  0.00000000000E+00 0. -1.
         -6    2    1    2    0  503 -0.12110969862E+04 -0.39100013082E+03  0.56748556779E+02  0.12854082488E+04  0.17151371704E+03 0.  0.
        -24    2    3    3    0    0 -0.95397447976E+03 -0.35849660154E+03  0.66075576936E+02  0.10260290938E+04  0.98907017787E+02 0.  0.
          6    2    1    2  501    0  0.12110969862E+04  0.39100013082E+03  0.18978751961E+04  0.22914537939E+04  0.17086022738E+03 0.  0.
         24    2    5    5    0    0  0.10393488105E+04  0.32821554920E+03  0.17083823009E+04  0.20280738651E+04  0.80883371416E+02 0.  0.
          5    1    5    5  501    0  0.17174817571E+03  0.62784581622E+02  0.18949289521E+03  0.26337992878E+03  0.47000000000E+01 0. -1.
        -11    1    6    6    0    0  0.75862159811E+03  0.26115584161E+03  0.12008442717E+04  0.14442077647E+04  0.00000000000E+00 0.  1.
         12    1    6    6    0    0  0.28072721241E+03  0.67059707588E+02  0.50753802914E+03  0.58386610040E+03  0.00000000000E+00 0. -1.
         -5    1    3    3    0  503 -0.25712250648E+03 -0.32503529281E+02 -0.93270201573E+01  0.25937915502E+03  0.47000000000E+01 0.  1.
         11    1    4    4    0    0 -0.43907306100E+03 -0.13806965132E+03 -0.12531049522E+02  0.46044045078E+03  0.00000000000E+00 0. -1.
        -12    1    4    4    0    0 -0.51490141876E+03 -0.22042695022E+03  0.78606626458E+02  0.56558864305E+03  0.00000000000E+00 0.  1.
</event>
<event>
12    1  0.8258923E-002  0.2946683E+03  0.7818608E-02  0.1088393E+00
         21   -1    0    0  503  502  0.00000000000E+00  0.00000000000E+00  0.50344860144E+03  0.50344860144E+03  0.00000000000E+00 0.  1.
         21   -1    0    0  501  503 -0.00000000000E+00 -0.00000000000E+00 -0.21781008537E+03  0.21781008537E+03  0.00000000000E+00 0.  1.
          6    2    1    2  501    0  0.14726387242E+03  0.18910007087E+03 -0.26104662466E+02  0.29229106407E+03  0.16524868474E+03 0.  0.
         24    2    3    3    0    0  0.13698359624E+03  0.18817751944E+03  0.18362592436E+02  0.24640030315E+03  0.78744143441E+02 0.  0.
         -6    2    1    2    0  502 -0.14726387242E+03 -0.18910007087E+03  0.31174317854E+03  0.42896762274E+03  0.17141740597E+03 0.  0.
        -24    2    5    5    0    0 -0.13853288149E+02 -0.12077689356E+03  0.16221074435E+03  0.21719302694E+03  0.77984060911E+02 0.  0.
          5    1    3    3  501    0  0.10280276178E+02  0.92255142893E+00 -0.44467254902E+02  0.45890760922E+02  0.47000000000E+01 0. -1.
        -11    1    4    4    0    0  0.62761565968E+02  0.14907674381E+03  0.92184925814E+01  0.16201194497E+03  0.00000000000E+00 0.  1.
         12    1    4    4    0    0  0.74222030274E+02  0.39100775630E+02  0.91440998547E+01  0.84388358172E+02  0.00000000000E+00 0. -1.
         -5    1    5    5    0  502 -0.13341058427E+03 -0.68323177311E+02  0.14953243419E+03  0.21177459581E+03  0.47000000000E+01 0.  1.
         13    1    6    6    0    0 -0.15928613952E+02 -0.21893938126E+02  0.91999794691E+02  0.95901133947E+02  0.00000000000E+00 0. -1.
        -14    1    6    6    0    0  0.20753258030E+01 -0.98882955436E+02  0.70210949658E+02  0.12129189299E+03  0.00000000000E+00 0.  1.
</event>
<event>
12    1  0.8258923E-002  0.3245592E+03  0.7818608E-02  0.1073674E+00
         21   -1    0    0  501  502  0.00000000000E+00  0.00000000000E+00  0.66886060188E+03  0.66886060188E+03  0.00000000000E+00 0. -1.
         21   -1    0    0  502  503 -0.00000000000E+00 -0.00000000000E+00 -0.17476432300E+03  0.17476432300E+03  0.00000000000E+00 0. -1.
         -6    2    1    2    0  503 -0.10139830431E+03 -0.25436008882E+03  0.11242278525E+03  0.34261260741E+03  0.17252201370E+03 0.  0.
        -24    2    3    3    0    0 -0.86215535539E+02 -0.27148016022E+03  0.11691133831E+03  0.31882499675E+03  0.82743710124E+02 0.  0.
          6    2    1    2  501    0  0.10139830431E+03  0.25436008882E+03  0.38167349363E+03  0.50101231747E+03  0.17423551766E+03 0.  0.
         24    2    5    5    0    0  0.57860502740E+02  0.59282169629E+02  0.19610872372E+03  0.22823528663E+03  0.82283054947E+02 0.  0.
          5    1    5    5  501    0  0.43537801567E+02  0.19507791919E+03  0.18556476991E+03  0.27277703084E+03  0.47000000000E+01 0. -1.
        -13    1    6    6    0    0  0.35438349452E+02 -0.20558790642E+01  0.20767320123E+02  0.41126449344E+02  0.00000000000E+00 0.  1.
         14    1    6    6    0    0  0.22422153288E+02  0.61338048693E+02  0.17534140360E+03  0.18710883729E+03  0.00000000000E+00 0. -1.
         -5    1    3    3    0  503 -0.15182768768E+02  0.17120071404E+02 -0.44885530565E+01  0.23787610659E+02  0.47000000000E+01 0.  1.
         11    1    4    4    0    0 -0.94731693979E+01 -0.67038188703E+01 -0.10020444585E+02  0.15332691726E+02  0.00000000000E+00 0. -1.
        -12    1    4    4    0    0 -0.76742366141E+02 -0.26477634135E+03  0.12693178289E+03  0.30349230502E+03  0.00000000000E+00 0.  1.
</event>
<event>
12    1  0.8258923E-002  0.2474570E+03  0.7818608E-02  0.1114978E+00
         21   -1    0    0  503  502  0.00000000000E+00  0.00000000000E+00  0.51487169966E+02  0.51487169966E+02  0.00000000000E+00 0. -1.
         21   -1    0    0  501  503 -0.00000000000E+00 -0.00000000000E+00 -0.18657656726E+04  0.18657656726E+04  0.00000000000E+00 0.  1.
          6    2    1    2  501    0  0.15583018708E+03 -0.84186596549E+02 -0.14846575336E+04  0.15050818356E+04  0.17231630688E+03 0.  0.
         24    2    3    3    0    0  0.63923164831E+02  0.15023252442E+02 -0.44253989903E+03  0.45421516989E+03  0.78472856510E+02 0.  0.
         -6    2    1    2    0  502 -0.15583018708E+03  0.84186596549E+02 -0.32962096900E+03  0.41217100690E+03  0.17281355700E+03 0.  0.
        -24    2    5    5    0    0 -0.75543926538E+02 -0.23037360988E+02 -0.17486088746E+03  0.20743792814E+03  0.78845159834E+02 0.  0.
          5    1    3    3  501    0  0.91907022253E+02 -0.99209848990E+02 -0.10421176346E+04  0.10508666658E+04  0.47000000000E+01 0. -1.
        -13    1    4    4    0    0  0.67189666423E+02  0.65373316991E+01 -0.43946010309E+03  0.44461485601E+03  0.00000000000E+00 0.  1.
         14    1    4    4    0    0 -0.32665015928E+01  0.84859207427E+01 -0.30797959404E+01  0.96003138773E+01  0.00000000000E+00 0. -1.
         -5    1    5    5    0  502 -0.80286260546E+02  0.10722395754E+03 -0.15476008154E+03  0.20473307876E+03  0.47000000000E+01 0.  1.
         11    1    6    6    0    0 -0.65670778549E+01  0.21358927019E+02 -0.12680918031E+02  0.25693111082E+02  0.00000000000E+00 0. -1.
        -12    1    6    6    0    0 -0.68976848683E+02 -0.44396288008E+02 -0.16217996943E+03  0.18174481706E+03  0.00000000000E+00 0.  1.
</event>
<event>
12    1  0.8258923E-002  0.1745706E+03  0.7818608E-02  0.1173509E+00
         21   -1    0    0  501  502  0.00000000000E+00  0.00000000000E+00  0.67171957719E+03  0.67171957719E+03  0.00000000000E+00 0.  1.
         21   -1    0    0  502  503 -0.00000000000E+00 -0.00000000000E+00 -0.52372906853E+02  0.52372906853E+02  0.00000000000E+00 0.  1.
         -6    2    1    2    0  503  0.15912162110E+02 -0.27247501815E+01  0.17501254194E+03  0.24719279294E+03  0.17382251257E+03 0.  0.
        -24    2    3    3    0    0 -0.20881228690E+02 -0.22347448439E+02  0.18535204705E+03  0.20397474972E+03  0.79466238218E+02 0.  0.
          6    2    1    2  501    0 -0.15912162110E+02  0.27247501815E+01  0.44433412840E+03  0.47689969111E+03  0.17245253421E+03 0.  0.
         24    2    5    5    0    0 -0.54095147676E+02 -0.42571618111E+02  0.34530270883E+03  0.36140504435E+03  0.81492439463E+02 0.  0.
          5    1    5    5  501    0  0.38182985566E+02  0.45296368293E+02  0.99031419571E+02  0.11549464676E+03  0.47000000000E+01 0. -1.
        -13    1    6    6    0    0 -0.41286109590E+02  0.10337927210E+02  0.22990701823E+03  0.23381328580E+03  0.00000000000E+00 0.  1.
         14    1    6    6    0    0 -0.12809038086E+02 -0.52909545321E+02  0.11539569060E+03  0.12759175855E+03  0.00000000000E+00 0. -1.
         -5    1    3    3    0  503  0.36793390800E+02  0.19622698258E+02 -0.10339505104E+02  0.43218043214E+02  0.47000000000E+01 0.  1.
         13    1    4    4    0    0 -0.24565115767E+02  0.24989395598E+02  0.10442486625E+03  0.11014748067E+03  0.00000000000E+00 0. -1.
        -14    1    4    4    0    0  0.36838870766E+01 -0.47336844038E+02  0.80927180794E+02  0.93827269057E+02  0.00000000000E+00 0.  1.
</event>
<event>
12    1  0.8258923E-002  0.2010434E+03  0.7818608E-02  0.1148910E+00
         21   -1    0    0  501  502  0.00000000000E+00  0.00000000000E+00  0.10667709183E+03  0.10667709183E+03  0.00000000000E+00 0.  1.
         21   -1    0    0  502  503 -0.00000000000E+00 -0.00000000000E+00 -0.41586403752E+03  0.41586403752E+03  0.00000000000E+00 0.  1.
         -6    2    1    2    0  503  0.66268323719E+01  0.10256461595E+03 -0.23303468499E+03  0.30777202715E+03  0.17278611325E+03 0.  0.
        -24    2    3    3    0    0 -0.22134312640E+02  0.39698243385E+02 -0.21764326581E+03  0.23679055037E+03  0.81457321742E+02 0.  0.
          6    2    1    2  501    0 -0.66268323719E+01 -0.10256461595E+03 -0.76152260691E+02  0.21476910220E+03  0.17252010057E+03 0.  0.
         24    2    5    5    0    0 -0.92516812145E+01 -0.49286227596E+02  0.26323210907E+02  0.99145623721E+02  0.81377008023E+02 0.  0.
          5    1    5    5  501    0  0.26248488427E+01 -0.53278388355E+02 -0.10247547160E+03  0.11562347848E+03  0.47000000000E+01 0. -1.
        -13    1    6    6    0    0 -0.29284560112E+02 -0.63110467710E+02  0.11144349854E+02  0.70460720470E+02  0.00000000000E+00 0.  1.
         14    1    6    6    0    0  0.20032878898E+02  0.13824240114E+02  0.15178861053E+02  0.28684903251E+02  0.00000000000E+00 0. -1.
         -5    1    3    3    0  503  0.28761145012E+02  0.62866372566E+02 -0.15391419183E+02  0.70981476784E+02  0.47000000000E+01 0.  1.
         13    1    4    4    0    0  0.19495302859E+02 -0.10828144540E+02 -0.25893655131E+02  0.34173043818E+02  0.00000000000E+00 0. -1.
        -14    1    4    4    0    0 -0.41629615499E+02  0.50526387925E+02 -0.19174961068E+03  0.20261750655E+03  0.00000000000E+00 0.  1.
</event>
<event>
12    1  0.8258923E-002  0.1896657E+03  0.7818608E-02  0.1159831E+00
         21   -1    0    0  501  502  0.00000000000E+00  0.00000000000E+00  0.51316461505E+03  0.51316461505E+03  0.00000000000E+00 0. -1.
         21   -1    0    0  502  503 -0.00000000000E+00 -0.00000000000E+00 -0.68434465551E+02  0.68434465551E+02  0.00000000000E+00 0. -1.
         -6    2    1    2    0  503  0.44345296704E+02  0.66203026791E+02  0.23272984351E+03  0.30022702818E+03  0.17211549114E+03 0.  0.
        -24    2    3    3    0    0  0.74974024349E+02  0.72394605027E+02  0.23389899417E+03  0.26860565073E+03  0.81105936699E+02 0.  0.
          6    2    1    2  501    0 -0.44345296704E+02 -0.66203026791E+02  0.21200030598E+03  0.28137205242E+03  0.16696333745E+03 0.  0.
         24    2    5    5    0    0 -0.21542641578E+02  0.18205774858E+02  0.15545606140E+03  0.17714082643E+03  0.80104617331E+02 0.  0.
          5    1    5    5  501    0 -0.22802655125E+02 -0.84408801649E+02  0.56544244585E+02  0.10423122599E+03  0.47000000000E+01 0. -1.
        -11    1    6    6    0    0  0.13702205785E+02  0.12913701117E+02  0.13446873961E+03  0.13578054372E+03  0.00000000000E+00 0.  1.
         12    1    6    6    0    0 -0.35244847363E+02  0.52920737408E+01  0.20987321791E+02  0.41360282713E+02  0.00000000000E+00 0. -1.
         -5    1    3    3    0  503 -0.30628727645E+02 -0.61915782359E+01 -0.11691506560E+01  0.31621377445E+02  0.47000000000E+01 0.  1.
         11    1    4    4    0    0  0.35028084893E+02  0.62160466009E+02  0.20803258461E+03  0.21992827586E+03  0.00000000000E+00 0. -1.
        -12    1    4    4    0    0  0.39945939456E+02  0.10234139018E+02  0.25866409561E+02  0.48677374868E+02  0.00000000000E+00 0.  1.
</event>
<event>
12    1  0.8258923E-002  0.1951727E+03  0.7818608E-02  0.1154969E+00
         21   -1    0    0  501  502  0.00000000000E+00  0.00000000000E+00  0.41999769170E+02  0.41999769170E+02  0.00000000000E+00 0. -1.
         21   -1    0    0  502  503 -0.00000000000E+00 -0.00000000000E+00 -0.93379072592E+03  0.93379072592E+03  0.00000000000E+00 0. -1.
         -6    2    1    2    0  503  0.53438466536E+02  0.74052141636E+02 -0.55299672647E+03  0.58479953831E+03  0.16687040219E+03 0.  0.
        -24    2    3    3    0    0  0.98039675945E+02  0.55904360720E+02 -0.35863270295E+03  0.38450457214E+03  0.80556034915E+02 0.  0.
          6    2    1    2  501    0 -0.53438466536E+02 -0.74052141636E+02 -0.33879423028E+03  0.39099095679E+03  0.17249060390E+03 0.  0.
         24    2    5    5    0    0  0.35425865118E+02 -0.53831175197E+02 -0.16204454232E+03  0.19207313678E+03  0.80503843592E+02 0.  0.
          5    1    5    5  501    0 -0.88864331655E+02 -0.20220966439E+02 -0.17674968796E+03  0.19891782001E+03  0.47000000000E+01 0. -1.
        -13    1    6    6    0    0  0.39251535119E+02 -0.44271285476E+00 -0.29421181258E+02  0.49055936547E+02  0.00000000000E+00 0.  1.
         14    1    6    6    0    0 -0.38256700007E+01 -0.53388462342E+02 -0.13262336106E+03  0.14301720023E+03  0.00000000000E+00 0. -1.
         -5    1    3    3    0  503 -0.44601209409E+02  0.18147780916E+02 -0.19436402352E+03  0.20029496617E+03  0.47000000000E+01 0.  1.
         13    1    4    4    0    0  0.33114858090E+02  0.89251115764E+01 -0.23284704686E+03  0.23535929698E+03  0.00000000000E+00 0. -1.
        -14    1    4    4    0    0  0.64924817855E+02  0.46979249143E+02 -0.12578565609E+03  0.14914527516E+03  0.00000000000E+00 0.  1.
</event>
<event>
12    1  0.8258923E-002  0.1760131E+03  0.7818608E-02  0.1172033E+00
         21   -1    0    0  501  502  0.00000000000E+00  0.00000000000E+00  0.12433059864E+04  0.12433059864E+04  0.00000000000E+00 0.  1.
         21   -1    0    0  502  503 -0.00000000000E+00 -0.00000000000E+00 -0.11726575419E+03  0.11726575419E+03  0.00000000000E+00 0.  1.
         -6    2    1    2    0  503 -0.28667680690E+02 -0.10017937122E+02 -0.40831221697E+02  0.18068706442E+03  0.17337367621E+03 0.  0.
        -24    2    3    3    0    0 -0.69058156596E+02 -0.52038094547E+02 -0.26974351826E+02  0.12059391159E+03  0.79613337954E+02 0.  0.
          6    2    1    2  501    0  0.28667680690E+02  0.10017937122E+02  0.11668714539E+04  0.11798846762E+04  0.17209492775E+03 0.  0.
         24    2    5    5    0    0 -0.13063762863E+02 -0.59670403656E+01  0.10705444823E+04  0.10735925864E+04  0.79556807199E+02 0.  0.
          5    1    5    5  501    0  0.41731443553E+02  0.15984977487E+02  0.96326971670E+02  0.10629208982E+03  0.47000000000E+01 0. -1.
        -13    1    6    6    0    0 -0.40051287073E+02 -0.13378995576E+02  0.87906486877E+03  0.88007848890E+03  0.00000000000E+00 0.  1.
         14    1    6    6    0    0  0.26987524210E+02  0.74119552107E+01  0.19147961350E+03  0.19351409749E+03  0.00000000000E+00 0. -1.
         -5    1    3    3    0  503  0.40390475906E+02  0.42020157425E+02 -0.13856869870E+02  0.60093152826E+02  0.47000000000E+01 0.  1.
         13    1    4    4    0    0 -0.53343355008E+02 -0.18371201331E+02  0.20749328746E+02  0.60112804004E+02  0.00000000000E+00 0. -1.
        -14    1    4    4    0    0 -0.15714801589E+02 -0.33666893215E+02 -0.47723680572E+02  0.60481107588E+02  0.00000000000E+00 0.  1.
</event>
<event>
12    1  0.8258923E-002  0.1980516E+03  0.7818608E-02  0.1151530E+00
         21   -1    0    0  503  502  0.00000000000E+00  0.00000000000E+00  0.31428129507E+03  0.31428129507E+03  0.00000000000E+00 0. -1.
         21   -1    0    0  501  503 -0.00000000000E+00 -0.00000000000E+00 -0.12503549700E+03  0.12503549700E+03  0.00000000000E+00 0. -1.
          6    2    1    2  501    0  0.54024865427E+02 -0.78808810503E+02  0.78867785435E+02  0.21258399628E+03  0.17274927842E+03 0.  0.
         24    2    3    3    0    0  0.48429747590E+02 -0.15108316398E+02 -0.17679182000E+02  0.96685483714E+02  0.80385493771E+02 0.  0.
         -6    2    1    2    0  502 -0.54024865427E+02  0.78808810503E+02  0.11037801263E+03  0.22673279579E+03  0.17347893335E+03 0.  0.
        -24    2    5    5    0    0 -0.63972433995E+01 -0.17795410669E+01 -0.11417828035E+01  0.81056347578E+02  0.80775839984E+02 0.  0.
          5    1    3    3  501    0  0.55951178372E+01 -0.63700494106E+02  0.96546967435E+02  0.11589851256E+03  0.47000000000E+01 0. -1.
        -11    1    4    4    0    0  0.35697281508E+02  0.13662272537E+02 -0.42096451149E+02  0.56860045702E+02  0.00000000000E+00 0.  1.
         12    1    4    4    0    0  0.12732466082E+02 -0.28770588934E+02  0.24417269149E+02  0.39825438012E+02  0.00000000000E+00 0. -1.
         -5    1    5    5    0  502 -0.47627622028E+02  0.80588351570E+02  0.11151979544E+03  0.14567644821E+03  0.47000000000E+01 0.  1.
         13    1    6    6    0    0  0.17380239270E+02  0.26381733382E+02 -0.22195862738E+02  0.38609906708E+02  0.00000000000E+00 0. -1.
        -14    1    6    6    0    0 -0.23777482669E+02 -0.28161274449E+02  0.21054079934E+02  0.42446440870E+02  0.00000000000E+00 0.  1.
</event>
<event>
12    1  0.8258923E-002  0.1925441E+03  0.7818608E-02  0.1156272E+00
         21   -1    0    0  503  502  0.00000000000E+00  0.00000000000E+00  0.10167950171E+04  0.10167950171E+04  0.00000000000E+00 0.  1.
         21   -1    0    0  501  503 -0.00000000000E+00 -0.00000000000E+00 -0.41663213309E+02  0.41663213309E+02  0.00000000000E+00 0.  1.
          6    2    1    2  501    0 -0.68279922623E+02  0.52323847114E+02  0.67546127695E+03  0.70226214258E+03  0.17182621287E+03 0.  0.
         24    2    3    3    0    0 -0.10022926457E+03  0.25075046806E+02  0.61619085318E+03  0.62947250937E+03  0.76614679121E+02 0.  0.
         -6    2    1    2    0  502  0.68279922623E+02 -0.52323847114E+02  0.29967052680E+03  0.35619608779E+03  0.17225938440E+03 0.  0.
        -24    2    5    5    0    0  0.83157892539E+02  0.17688514783E+02  0.22191752139E+03  0.25040996083E+03  0.78928090915E+02 0.  0.
          5    1    3    3  501    0  0.31949341948E+02  0.27248800308E+02  0.59270423770E+02  0.72789633211E+02  0.47000000000E+01 0. -1.
        -13    1    4    4    0    0 -0.53772274018E+02 -0.13401924218E+01  0.13497091789E+03  0.14529419206E+03  0.00000000000E+00 0.  1.
         14    1    4    4    0    0 -0.46456990554E+02  0.26415239228E+02  0.48121993528E+03  0.48417831731E+03  0.00000000000E+00 0. -1.
         -5    1    5    5    0  502 -0.14877969915E+02 -0.70012361897E+02  0.77753005408E+02  0.10578612696E+03  0.47000000000E+01 0.  1.
         11    1    6    6    0    0  0.19305531454E+02  0.35695657809E+02  0.13560155256E+03  0.14154386100E+03  0.00000000000E+00 0. -1.
        -12    1    6    6    0    0  0.63852361085E+02 -0.18007143026E+02  0.86315968832E+02  0.10886609983E+03  0.00000000000E+00 0.  1.
</event>
<event>
12    1  0.8258923E-002  0.2254627E+03  0.7818608E-02  0.1130226E+00
         21   -1    0    0  503  502  0.00000000000E+00  0.00000000000E+00  0.29187860057E+03  0.29187860057E+03  0.00000000000E+00 0. -1.
         21   -1    0    0  501  503 -0.00000000000E+00 -0.00000000000E+00 -0.18738511877E+03  0.18738511877E+03  0.00000000000E+00 0. -1.
          6    2    1    2  501    0 -0.32874862203E+02  0.14072792292E+03 -0.14703169857E+02  0.22594166150E+03  0.17305590526E+03 0.  0.
         24    2    3    3    0    0 -0.68196526233E+02  0.38111562648E+02  0.13894755913E+02  0.11361326481E+03  0.81312067375E+02 0.  0.
         -6    2    1    2    0  502  0.32874862203E+02 -0.14072792292E+03  0.11919665166E+03  0.25332205783E+03  0.17052600495E+03 0.  0.
        -24    2    5    5    0    0 -0.44480452875E+02 -0.57487878920E+02  0.37877751008E+02  0.11350931414E+03  0.78525622986E+02 0.  0.
          5    1    3    3  501    0  0.35321664030E+02  0.10261636027E+03 -0.28597925771E+02  0.11232839669E+03  0.47000000000E+01 0. -1.
        -11    1    4    4    0    0  0.35460295794E+01  0.30928619507E+02  0.25928501238E+02  0.40514701120E+02  0.00000000000E+00 0.  1.
         12    1    4    4    0    0 -0.71742555813E+02  0.71829431403E+01 -0.12033745325E+02  0.73098563688E+02  0.00000000000E+00 0. -1.
         -5    1    5    5    0  502  0.77355315078E+02 -0.83240043997E+02  0.81318900650E+02  0.13981274369E+03  0.47000000000E+01 0.  1.
         11    1    6    6    0    0  0.18604642518E+02 -0.22044234167E+02  0.28489101144E+02  0.40542691909E+02  0.00000000000E+00 0. -1.
        -12    1    6    6    0    0 -0.63085095393E+02 -0.35443644753E+02  0.93886498641E+01  0.72966622235E+02  0.00000000000E+00 0.  1.
</event>
<event>
12    1  0.8258923E-002  0.2360333E+03  0.7818608E-02  0.1122465E+00
         21   -1    0    0  503  502  0.00000000000E+00  0.00000000000E+00  0.12687582771E+03  0.12687582771E+03  0.00000000000E+00 0.  1.
         21   -1    0    0  501  503 -0.00000000000E+00 -0.00000000000E+00 -0.44371473721E+03  0.44371473721E+03  0.00000000000E+00 0. -1.
          6    2    1    2  501    0 -0.58892365048E+02  0.15126790575E+03 -0.12931412987E+03  0.26913197802E+03  0.17134639605E+03 0.  0.
         24    2    3    3    0    0 -0.83013328373E+02  0.74448213019E+02 -0.28597481237E+02  0.14010089892E+03  0.79854222400E+02 0.  0.
         -6    2    1    2    0  502  0.58892365048E+02 -0.15126790575E+03 -0.18752477964E+03  0.30145858691E+03  0.17135182133E+03 0.  0.
        -24    2    5    5    0    0  0.59285502228E+01 -0.10900315949E+02 -0.37207592945E+02  0.89030781379E+02  0.79925655860E+02 0.  0.
          5    1    3    3  501    0  0.24120963325E+02  0.76819692728E+02 -0.10071664863E+03  0.12903107910E+03  0.47000000000E+01 0. -1.
        -13    1    4    4    0    0 -0.86596875272E+02  0.82027703146E+02 -0.99961606701E+01  0.11969747749E+03  0.00000000000E+00 0.  1.
         14    1    4    4    0    0  0.35835468991E+01 -0.75794901270E+01 -0.18601320566E+02  0.20403421423E+02  0.00000000000E+00 0. -1.
         -5    1    5    5    0  502  0.52963814825E+02 -0.14036758980E+03 -0.15031718669E+03  0.21242780553E+03  0.47000000000E+01 0.  1.
         13    1    6    6    0    0 -0.33657484884E+02  0.10731645610E+02 -0.11735856550E+02  0.37225325186E+02  0.00000000000E+00 0. -1.
        -14    1    6    6    0    0  0.39586035107E+02 -0.21631961559E+02 -0.25471736395E+02  0.51805456193E+02  0.00000000000E+00 0.  1.
</event>
<event>
12    1  0.8258923E-002  0.1903200E+03  0.7818608E-02  0.1158292E+00
         21   -1    0    0  501  502  0.00000000000E+00  0.00000000000E+00  0.27295909674E+03  0.27295909674E+03  0.00000000000E+00 0. -1.
         21   -1    0    0  502  503 -0.00000000000E+00 -0.00000000000E+00 -0.15310815806E+03  0.15310815806E+03  0.00000000000E+00 0. -1.
         -6    2    1    2    0  503 -0.20358037034E+02 -0.77116663142E+02 -0.18621888903E+02  0.19070280256E+03  0.17221891519E+03 0.  0.
        -24    2    3    3    0    0  0.35530742651E+02 -0.94540509551E+02 -0.14507342536E+01  0.12951387651E+03  0.81064159530E+02 0.  0.
          6    2    1    2  501    0  0.20358037034E+02  0.77116663142E+02  0.13847282758E+03  0.23536445224E+03  0.17280124998E+03 0.  0.
         24    2    5    5    0    0 -0.96346674551E+01  0.44641834562E+02  0.16107406737E+03  0.18549379098E+03  0.79858444156E+02 0.  0.
          5    1    5    5  501    0  0.29992704489E+02  0.32474828581E+02 -0.22601239794E+02  0.49870661256E+02  0.47000000000E+01 0. -1.
        -13    1    6    6    0    0 -0.28004514192E+02  0.88780565000E+00  0.11841357353E+03  0.12168325854E+03  0.00000000000E+00 0.  1.
         14    1    6    6    0    0  0.18369846737E+02  0.43754028912E+02  0.42660493846E+02  0.63810532440E+02  0.00000000000E+00 0. -1.
         -5    1    3    3    0  503 -0.55888779685E+02  0.17423846408E+02 -0.17171154650E+02  0.61188926043E+02  0.47000000000E+01 0.  1.
         11    1    4    4    0    0  0.32956888347E+02 -0.77582047084E+02 -0.35442030397E+02  0.91439969586E+02  0.00000000000E+00 0. -1.
        -12    1    4    4    0    0  0.25738543038E+01 -0.16958462467E+02  0.33991296144E+02  0.38073906928E+02  0.00000000000E+00 0.  1.
</event>
<event>
12    1  0.8258923E-002  0.4307762E+03  0.7818608E-02  0.1033639E+00
         21   -1    0    0  503  502  0.00000000000E+00  0.00000000000E+00  0.91519380100E+03  0.91519380100E+03  0.00000000000E+00 0. -1.
         21   -1    0    0  501  503 -0.00000000000E+00 -0.00000000000E+00 -0.29795767727E+03  0.29795767727E+03  0.00000000000E+00 0.  1.
          6    2    1    2  501    0  0.39443000640E+03  0.16560117958E+02 -0.34421368659E+02  0.43214920483E+03  0.17239152288E+03 0.  0.
         24    2    3    3    0    0  0.18112842827E+03 -0.25639021854E+02 -0.71388230619E+02  0.21154329032E+03  0.78672849452E+02 0.  0.
         -6    2    1    2    0  502 -0.39443000640E+03 -0.16560117958E+02  0.65165749239E+03  0.78100227344E+03  0.17163273662E+03 0.  0.
        -24    2    5    5    0    0 -0.22474014775E+03 -0.61355041139E+02  0.30135018589E+03  0.38916234151E+03  0.79767276672E+02 0.  0.
          5    1    3    3  501    0  0.21330157813E+03  0.42199139812E+02  0.36966861960E+02  0.22060591451E+03  0.47000000000E+01 0. -1.
        -11    1    4    4    0    0  0.90110895490E+02  0.20949784341E+02 -0.11973196402E+02  0.93285713708E+02  0.00000000000E+00 0.  1.
         12    1    4    4    0    0  0.91017532779E+02 -0.46588806194E+02 -0.59415034217E+02  0.11825757661E+03  0.00000000000E+00 0. -1.
         -5    1    5    5    0  502 -0.16968985864E+03  0.44794923180E+02  0.35030730650E+03  0.39183993194E+03  0.47000000000E+01 0.  1.
         13    1    6    6    0    0 -0.14768841662E+03 -0.25393061013E-01  0.17609616706E+03  0.22982978289E+03  0.00000000000E+00 0. -1.
        -14    1    6    6    0    0 -0.77051731130E+02 -0.61329648078E+02  0.12525401883E+03  0.15933255862E+03  0.00000000000E+00 0.  1.
</event>
<event>
12    1  0.8258923E-002  0.1881863E+03  0.7818608E-02  0.1160616E+00
         21   -1    0    0  501  502  0.00000000000E+00  0.00000000000E+00  0.28387098854E+03  0.28387098854E+03  0.00000000000E+00 0. -1.
         21   -1    0    0  502  503 -0.00000000000E+00 -0.00000000000E+00 -0.14643749243E+03  0.14643749243E+03  0.00000000000E+00 0. -1.
         -6    2    1    2    0  503 -0.40538837624E+02 -0.60306013056E+02 -0.16478931760E+02  0.18890646923E+03  0.17359114712E+03 0.  0.
        -24    2    3    3    0    0 -0.41274813761E+01 -0.77238206407E+02 -0.61079542704E+02  0.12870854126E+03  0.82779233053E+02 0.  0.
          6    2    1    2  501    0  0.40538837624E+02  0.60306013056E+02  0.15391242786E+03  0.24140201173E+03  0.17118902784E+03 0.  0.
         24    2    5    5    0    0  0.46262403993E+02 -0.65176159735E+01  0.28997985855E+02  0.99543404554E+02  0.82977809476E+02 0.  0.
          5    1    5    5  501    0 -0.57235663692E+01  0.66823629029E+02  0.12491444201E+03  0.14185860718E+03  0.47000000000E+01 0. -1.
        -11    1    6    6    0    0  0.60445837240E+02  0.12309436340E+02 -0.62097167599E+00  0.61689602596E+02  0.00000000000E+00 0.  1.
         12    1    6    6    0    0 -0.14183433247E+02 -0.18827052313E+02  0.29618957531E+02  0.37853801958E+02  0.00000000000E+00 0. -1.
         -5    1    3    3    0  503 -0.36411356248E+02  0.16932193351E+02  0.44600610943E+02  0.60197927971E+02  0.47000000000E+01 0.  1.
         13    1    4    4    0    0 -0.24564221269E+02 -0.84358221866E+02 -0.61184832780E+02  0.10706677508E+03  0.00000000000E+00 0. -1.
        -14    1    4    4    0    0  0.20436739893E+02  0.71200154583E+01  0.10529007624E+00  0.21641766184E+02  0.00000000000E+00 0.  1.
</event>
<event>
12    1  0.8258923E-002  0.1967775E+03  0.7818608E-02  0.1152699E+00
         21   -1    0    0  501  502  0.00000000000E+00  0.00000000000E+00  0.12529302697E+03  0.12529302697E+03  0.00000000000E+00 0.  1.
         21   -1    0    0  502  503 -0.00000000000E+00 -0.00000000000E+00 -0.33984527712E+03  0.33984527712E+03  0.00000000000E+00 0.  1.
         -6    2    1    2    0  503  0.93088540075E+02 -0.15382665593E+02 -0.17877537635E+03  0.26513486425E+03  0.17156269512E+03 0.  0.
        -24    2    3    3    0    0  0.62200474970E+01 -0.49174699040E+02 -0.12738266599E+03  0.15859220985E+03  0.80425775818E+02 0.  0.
          6    2    1    2  501    0 -0.93088540075E+02  0.15382665593E+02 -0.35776873806E+02  0.20000343984E+03  0.17268262378E+03 0.  0.
         24    2    5    5    0    0  0.11947666832E+02 -0.26586793874E+02 -0.16131174407E+02  0.85103118717E+02  0.78311695656E+02 0.  0.
          5    1    5    5  501    0 -0.10503620691E+03  0.41969459467E+02 -0.19645699399E+02  0.11490032112E+03  0.47000000000E+01 0. -1.
        -13    1    6    6    0    0 -0.24458289616E+02 -0.12524245118E+02  0.18336105151E+02  0.33034488021E+02  0.00000000000E+00 0.  1.
         14    1    6    6    0    0  0.36405956449E+02 -0.14062548756E+02 -0.34467279558E+02  0.52068630696E+02  0.00000000000E+00 0. -1.
         -5    1    3    3    0  503  0.86868492577E+02  0.33792033448E+02 -0.51392710362E+02  0.10654265440E+03  0.47000000000E+01 0.  1.
         11    1    4    4    0    0 -0.35557568560E+02 -0.10078463233E+02 -0.43941087124E+02  0.57417203351E+02  0.00000000000E+00 0. -1.
        -12    1    4    4    0    0  0.41777616057E+02 -0.39096235808E+02 -0.83441578863E+02  0.10117500650E+03  0.00000000000E+00 0.  1.
</event>
<event>
12    1  0.8258923E-002  0.4232623E+03  0.7818608E-02  0.1036019E+00
         21   -1    0    0  503  502  0.00000000000E+00  0.00000000000E+00  0.35625506506E+03  0.35625506506E+03  0.00000000000E+00 0.  1.
         21   -1    0    0  501  503 -0.00000000000E+00 -0.00000000000E+00 -0.52458358868E+03  0.52458358868E+03  0.00000000000E+00 0. -1.
          6    2    1    2  501    0  0.36040595451E+03 -0.14018235626E+03  0.57147779482E+01  0.42319027751E+03  0.17179583008E+03 0.  0.
         24    2    3    3    0    0  0.75413022895E+02 -0.66065222710E+02  0.32348069657E+01  0.12866937704E+03  0.80582919634E+02 0.  0.
         -6    2    1    2    0  502 -0.36040595451E+03  0.14018235626E+03 -0.17404330157E+03  0.45764837623E+03  0.17206806906E+03 0.  0.
        -24    2    5    5    0    0 -0.36636566556E+03  0.11687302168E+03 -0.14259715868E+03  0.41777616614E+03  0.79497617799E+02 0.  0.
          5    1    3    3  501    0  0.28499293162E+03 -0.74117133554E+02  0.24799709825E+01  0.29452090047E+03  0.47000000000E+01 0. -1.
        -13    1    4    4    0    0  0.57095140799E+02 -0.83537941242E+02  0.11967934074E+02  0.10189050091E+03  0.00000000000E+00 0.  1.
         14    1    4    4    0    0  0.18317882096E+02  0.17472718532E+02 -0.87331271083E+01  0.26778876125E+02  0.00000000000E+00 0. -1.
         -5    1    5    5    0  502  0.59597110445E+01  0.23309334587E+02 -0.31446142896E+02  0.39872210092E+02  0.47000000000E+01 0.  1.
         13    1    6    6    0    0 -0.11601168174E+03  0.74570950627E+02 -0.36986753192E+02  0.14278500232E+03  0.00000000000E+00 0. -1.
        -14    1    6    6    0    0 -0.25035398382E+03  0.42302071050E+02 -0.10561040548E+03  0.27499116382E+03  0.00000000000E+00 0.  1.
</event>
<event>
12    1  0.8258923E-002  0.1841425E+03  0.7818608E-02  0.1163935E+00
         21   -1    0    0  501  502  0.00000000000E+00  0.00000000000E+00  0.45803621843E+03  0.45803621843E+03  0.00000000000E+00 0. -1.
         21   -1    0    0  502  503 -0.00000000000E+00 -0.00000000000E+00 -0.33179282860E+03  0.33179282860E+03  0.00000000000E+00 0. -1.
         -6    2    1    2    0  503  0.50233450295E+02  0.45350343532E+02 -0.28503952701E+03  0.33934641658E+03  0.17125538035E+03 0.  0.
        -24    2    3    3    0    0 -0.10769106512E+02  0.79248795892E+02 -0.18205502235E+03  0.21485418706E+03  0.81375335512E+02 0.  0.
          6    2    1    2  501    0 -0.50233450295E+02 -0.45350343532E+02  0.41128291684E+03  0.45048263045E+03  0.17088273602E+03 0.  0.
         24    2    5    5    0    0  0.14184976473E+01 -0.26681998896E+02  0.81170717483E+02  0.11579981795E+03  0.78147112940E+02 0.  0.
          5    1    5    5  501    0 -0.51651947942E+02 -0.18668344636E+02  0.33011219936E+03  0.33468281250E+03  0.47000000000E+01 0. -1.
        -13    1    6    6    0    0 -0.28460562723E+02  0.86674852034E+01  0.10960803475E+02  0.31705963841E+02  0.00000000000E+00 0.  1.
         14    1    6    6    0    0  0.29879060370E+02 -0.35349484099E+02  0.70209914008E+02  0.84093854114E+02  0.00000000000E+00 0. -1.
         -5    1    3    3    0  503  0.61002556807E+02 -0.33898452360E+02 -0.10298450466E+03  0.12449222951E+03  0.47000000000E+01 0.  1.
         13    1    4    4    0    0  0.97990380559E+00 -0.14316916161E+02 -0.68903151292E+01  0.15918880062E+02  0.00000000000E+00 0. -1.
        -14    1    4    4    0    0 -0.11749010318E+02  0.93565712053E+02 -0.17516470722E+03  0.19893530700E+03  0.00000000000E+00 0.  1.
</event>
<event>
12    1  0.8258923E-002  0.2354767E+03  0.7818608E-02  0.1122854E+00
         21   -1    0    0  501  502  0.00000000000E+00  0.00000000000E+00  0.91072491459E+02  0.91072491459E+02  0.00000000000E+00 0. -1.
         21   -1    0    0  502  503 -0.00000000000E+00 -0.00000000000E+00 -0.60973572408E+03  0.60973572408E+03  0.00000000000E+00 0.  1.
         -6    2    1    2    0  503 -0.35150922717E+02  0.15857793252E+03 -0.27390517196E+03  0.36121093845E+03  0.17048973806E+03 0.  0.
        -24    2    3    3    0    0  0.19462336681E+02  0.13670597316E+03 -0.12647741592E+03  0.20240909980E+03  0.76847910161E+02 0.  0.
          6    2    1    2  501    0  0.35150922717E+02 -0.15857793252E+03 -0.24475806066E+03  0.33959727709E+03  0.17040321094E+03 0.  0.
         24    2    5    5    0    0  0.71251532900E+02 -0.13528932007E+03 -0.24296873120E+03  0.29634331513E+03  0.73522615656E+02 0.  0.
          5    1    5    5  501    0 -0.36100610183E+02 -0.23288612452E+02 -0.17893294597E+01  0.43253961963E+02  0.47000000000E+01 0. -1.
        -11    1    6    6    0    0 -0.17406861552E+01 -0.46208466905E+02 -0.11625337796E+03  0.12511235067E+03  0.00000000000E+00 0.  1.
         12    1    6    6    0    0  0.72992219056E+02 -0.89080853160E+02 -0.12671535324E+03  0.17123096446E+03  0.00000000000E+00 0. -1.
         -5    1    3    3    0  503 -0.54613259398E+02  0.21871959353E+02 -0.14742775604E+03  0.15880183865E+03  0.47000000000E+01 0.  1.
         13    1    4    4    0    0  0.25445136121E+02  0.11525004788E+03 -0.13430844891E+03  0.17879817655E+03  0.00000000000E+00 0. -1.
        -14    1    4    4    0    0 -0.59827994393E+01  0.21455925283E+02  0.78310329937E+01  0.23610923248E+02  0.00000000000E+00 0.  1.
</event>
<event>
12    1  0.8258923E-002  0.2422964E+03  0.7818608E-02  0.1118492E+00
         21   -1    0    0  503  502  0.00000000000E+00  0.00000000000E+00  0.20193453348E+03  0.20193453348E+03  0.00000000000E+00 0. -1.
         21   -1    0    0  501  503 -0.00000000000E+00 -0.00000000000E+00 -0.10235490906E+04  0.10235490906E+04  0.00000000000E+00 0.  1.
          6    2    1    2  501    0 -0.15917358603E+03 -0.60403835057E+02 -0.92952000753E+03  0.96024577942E+03  0.17052758932E+03 0.  0.
         24    2    3    3    0    0 -0.17354165731E+03 -0.87553191315E+02 -0.81457893901E+03  0.84117828491E+03  0.79118840932E+02 0.  0.
         -6    2    1    2    0  502  0.15917358603E+03  0.60403835057E+02  0.10790545044E+03  0.26523784463E+03  0.17240265140E+03 0.  0.
        -24    2    5    5    0    0  0.23040158676E+02  0.33653727517E+02  0.94323995795E+02  0.12575872717E+03  0.72490130286E+02 0.  0.
          5    1    3    3  501    0  0.14368071278E+02  0.27149356259E+02 -0.11494106852E+03  0.11906749451E+03  0.47000000000E+01 0. -1.
        -11    1    4    4    0    0 -0.99124791860E+02 -0.85709025478E+01 -0.33426510467E+03  0.34875829013E+03  0.00000000000E+00 0.  1.
         12    1    4    4    0    0 -0.74416865451E+02 -0.78982288767E+02 -0.48031383434E+03  0.49241999478E+03  0.00000000000E+00 0. -1.
         -5    1    5    5    0  502  0.13613342736E+03  0.26750107540E+02  0.13581454650E+02  0.13947911746E+03  0.47000000000E+01 0.  1.
         11    1    6    6    0    0  0.43432478047E+02  0.57156449348E+01  0.72968629754E+02  0.85108575799E+02  0.00000000000E+00 0. -1.
        -12    1    6    6    0    0 -0.20392319371E+02  0.27938082582E+02  0.21355366040E+02  0.40650151370E+02  0.00000000000E+00 0.  1.
</event>
<event>
12    1  0.8258923E-002  0.2235027E+03  0.7818608E-02  0.1131322E+00
         21   -1    0    0  503  502  0.00000000000E+00  0.00000000000E+00  0.12703185535E+03  0.12703185535E+03  0.00000000000E+00 0. -1.
         21   -1    0    0  501  503 -0.00000000000E+00 -0.00000000000E+00 -0.42452522018E+03  0.42452522018E+03  0.00000000000E+00 0.  1.
          6    2    1    2  501    0 -0.12119006653E+03 -0.74497148595E+02 -0.73647558632E+02  0.23532410208E+03  0.17238507114E+03 0.  0.
         24    2    3    3    0    0 -0.85621065952E+02 -0.84413381365E+02 -0.11027269916E+03  0.18310364256E+03  0.83128153168E+02 0.  0.
         -6    2    1    2    0  502  0.12119006653E+03  0.74497148595E+02 -0.22384580620E+03  0.31623297345E+03  0.17221931126E+03 0.  0.
        -24    2    5    5    0    0  0.45277559504E+02  0.48467635481E+02 -0.21068970047E+03  0.23477490206E+03  0.79560892844E+02 0.  0.
          5    1    3    3  501    0 -0.35569000579E+02  0.99162327700E+01  0.36625140526E+02  0.52220459525E+02  0.47000000000E+01 0. -1.
        -11    1    4    4    0    0 -0.14147275854E+02 -0.61692541158E+02 -0.80521503353E+02  0.10241985916E+03  0.00000000000E+00 0.  1.
         12    1    4    4    0    0 -0.71473790098E+02 -0.22720840207E+02 -0.29751195805E+02  0.80683783393E+02  0.00000000000E+00 0. -1.
         -5    1    5    5    0  502  0.75912507027E+02  0.26029513114E+02 -0.13156105727E+02  0.81458071387E+02  0.47000000000E+01 0.  1.
         11    1    6    6    0    0 -0.17187829579E+02  0.35684002739E+02 -0.88159577551E+02  0.96648231495E+02  0.00000000000E+00 0. -1.
        -12    1    6    6    0    0  0.62465389083E+02  0.12783632742E+02 -0.12253012292E+03  0.13812667057E+03  0.00000000000E+00 0.  1.
</event>
<event>
12    1  0.8258923E-002  0.2079634E+03  0.7818608E-02  0.1143429E+00
         21   -1    0    0  501  502  0.00000000000E+00  0.00000000000E+00  0.25509474931E+03  0.25509474931E+03  0.00000000000E+00 0. -1.
         21   -1    0    0  502  503 -0.00000000000E+00 -0.00000000000E+00 -0.24133735300E+03  0.24133735300E+03  0.00000000000E+00 0. -1.
         -6    2    1    2    0  503  0.11238403973E+03 -0.34270946056E+02  0.14319071378E+03  0.25249231347E+03  0.17159288365E+03 0.  0.
        -24    2    3    3    0    0  0.12699568384E+03 -0.25049164160E+02  0.16597230498E+03  0.22351590406E+03  0.75214287269E+02 0.  0.
          6    2    1    2  501    0 -0.11238403973E+03  0.34270946056E+02 -0.12943331747E+03  0.24393978883E+03  0.17014395898E+03 0.  0.
         24    2    5    5    0    0 -0.45295283751E+02 -0.41412229299E+02 -0.91141726735E+02  0.13569386451E+03  0.79620192471E+02 0.  0.
          5    1    5    5  501    0 -0.67088755982E+02  0.75683175356E+02 -0.38291590732E+02  0.10824592432E+03  0.47000000000E+01 0. -1.
        -11    1    6    6    0    0 -0.30529243150E+02 -0.26065510646E+02  0.19568165951E+01  0.40190479765E+02  0.00000000000E+00 0.  1.
         12    1    6    6    0    0 -0.14766040601E+02 -0.15346718653E+02 -0.93098543330E+02  0.95503384749E+02  0.00000000000E+00 0. -1.
         -5    1    3    3    0  503 -0.14611644105E+02 -0.92217818962E+01 -0.22781591202E+02  0.28976409413E+02  0.47000000000E+01 0.  1.
         11    1    4    4    0    0  0.98073480590E+02 -0.51081968795E+02  0.12792657769E+03  0.16909460195E+03  0.00000000000E+00 0. -1.
        -12    1    4    4    0    0  0.28922203249E+02  0.26032804635E+02  0.38045727292E+02  0.54421302107E+02  0.00000000000E+00 0.  1.
</event>
<event>
12    1  0.8258923E-002  0.2013091E+03  0.7818608E-02  0.1148672E+00
         21   -1    0    0  501  502  0.00000000000E+00  0.00000000000E+00  0.46981555804E+03  0.46981555804E+03  0.00000000000E+00 0.  1.
         21   -1    0    0  502  503 -0.00000000000E+00 -0.00000000000E+00 -0.11982370867E+03  0.11982370867E+03  0.00000000000E+00 0. -1.
         -6    2    1    2    0  503 -0.10037585082E+03 -0.24237189876E+02  0.18750597478E+02  0.20202331787E+03  0.17262410972E+03 0.  0.
        -24    2    3    3    0    0 -0.10561180709E+03 -0.37676058703E+02 -0.38389924177E+02  0.14290354412E+03  0.79839197447E+02 0.  0.
          6    2    1    2  501    0  0.10037585082E+03  0.24237189876E+02  0.33124125190E+03  0.38761594883E+03  0.17280799758E+03 0.  0.
         24    2    5    5    0    0  0.59371200202E+02  0.14666564421E+02  0.33012016195E+03  0.34523287336E+03  0.80413730149E+02 0.  0.
          5    1    5    5  501    0  0.41004650619E+02  0.95706254542E+01  0.11210899487E+01  0.42383075474E+02  0.47000000000E+01 0. -1.
        -13    1    6    6    0    0  0.37253942721E+02  0.47184456088E+02  0.22827219856E+03  0.23605598018E+03  0.00000000000E+00 0.  1.
         14    1    6    6    0    0  0.22117257481E+02 -0.32517891667E+02  0.10184796339E+03  0.10917689318E+03  0.00000000000E+00 0. -1.
         -5    1    3    3    0  503  0.52359562678E+01  0.13438868827E+02  0.57140521654E+02  0.59119773751E+02  0.47000000000E+01 0.  1.
         11    1    4    4    0    0 -0.47878028470E+02 -0.13628206877E+02 -0.58868455857E+02  0.77094284664E+02  0.00000000000E+00 0. -1.
        -12    1    4    4    0    0 -0.57733778618E+02 -0.24047851826E+02  0.20478531680E+02  0.65809259460E+02  0.00000000000E+00 0.  1.
</event>
<event>
12    1  0.8258923E-002  0.1776406E+03  0.7818608E-02  0.1170404E+00
         21   -1    0    0  501  502  0.00000000000E+00  0.00000000000E+00  0.42769013896E+03  0.42769013896E+03  0.00000000000E+00 0. -1.
         21   -1    0    0  502  503 -0.00000000000E+00 -0.00000000000E+00 -0.15193527301E+03  0.15193527301E+03  0.00000000000E+00 0. -1.
         -6    2    1    2    0  503  0.79682017064E+01  0.39811188963E+02 -0.70866136269E+02  0.19013561656E+03  0.17170067097E+03 0.  0.
        -24    2    3    3    0    0 -0.35048149839E+02  0.70236988422E+02 -0.13435427430E+02  0.11205545205E+03  0.78830871325E+02 0.  0.
          6    2    1    2  501    0 -0.79682017064E+01 -0.39811188963E+02  0.34662100222E+03  0.38948979540E+03  0.17293859759E+03 0.  0.
         24    2    5    5    0    0 -0.55920445012E+02 -0.25574992317E+02  0.22779384603E+03  0.26047789680E+03  0.11035181026E+03 0.  0.
          5    1    5    5  501    0  0.47952243305E+02 -0.14236196645E+02  0.11882715619E+03  0.12901189860E+03  0.47000000000E+01 0. -1.
        -11    1    6    6    0    0 -0.72067959055E+02 -0.66464580123E+01  0.69839230695E+02  0.10057576383E+03  0.00000000000E+00 0.  1.
         12    1    6    6    0    0  0.16147514043E+02 -0.18928534305E+02  0.15795461534E+03  0.15990213297E+03  0.00000000000E+00 0. -1.
         -5    1    3    3    0  503  0.43016351546E+02 -0.30425799459E+02 -0.57430708838E+02  0.78080164515E+02  0.47000000000E+01 0.  1.
         13    1    4    4    0    0  0.10331278175E+02  0.64516212801E+01 -0.29702083236E+02  0.32102530655E+02  0.00000000000E+00 0. -1.
        -14    1    4    4    0    0 -0.45379428014E+02  0.63785367142E+02  0.16266655806E+02  0.79952921394E+02  0.00000000000E+00 0.  1.
</event>
<event>
12    1  0.8258923E-002  0.1933658E+03  0.7818608E-02  0.1158493E+00
         21   -1    0    0  503  502  0.00000000000E+00  0.00000000000E+00  0.21586185473E+03  0.21586185473E+03  0.00000000000E+00 0. -1.
         21   -1    0    0  501  503 -0.00000000000E+00 -0.00000000000E+00 -0.75367769713E+03  0.75367769713E+03  0.00000000000E+00 0. -1.
          6    2    1    2  501    0 -0.65826151440E+02  0.23660251744E+02 -0.69649071343E+03  0.71940352507E+03  0.16597960193E+03 0.  0.
         24    2    3    3    0    0  0.83314987182E+01 -0.32885122411E+02 -0.31095609986E+03  0.32272258946E+03  0.79406099004E+02 0.  0.
         -6    2    1    2    0  502  0.65826151440E+02 -0.23660251744E+02  0.15867487102E+03  0.25013602679E+03  0.18027042874E+03 0.  0.
        -24    2    5    5    0    0 -0.14921428675E-01  0.14335066400E+02  0.15333827783E+03  0.17378643410E+03  0.80520822631E+02 0.  0.
          5    1    3    3  501    0 -0.74157650159E+02  0.56545374155E+02 -0.38553461357E+03  0.39668093561E+03  0.47000000000E+01 0. -1.
        -11    1    4    4    0    0 -0.99213597673E+01  0.24316600023E+02 -0.99373543218E+02  0.10278536621E+03  0.00000000000E+00 0.  1.
         12    1    4    4    0    0  0.18252858485E+02 -0.57201722434E+02 -0.21158255664E+03  0.21993722324E+03  0.00000000000E+00 0. -1.
         -5    1    5    5    0  502  0.65841072869E+02 -0.37995318144E+02  0.53365931943E+01  0.76349592693E+02  0.47000000000E+01 0.  1.
         11    1    6    6    0    0  0.26745140758E+02  0.36506423673E+02  0.68419094758E+02  0.82031664929E+02  0.00000000000E+00 0. -1.
        -12    1    6    6    0    0 -0.26760062186E+02 -0.22171357273E+02  0.84919183073E+02  0.91754769169E+02  0.00000000000E+00 0.  1.
</event>
<event>
12    1  0.8258923E-002  0.2284013E+03  0.7818608E-02  0.1128169E+00
         21   -1    0    0  503  502  0.00000000000E+00  0.00000000000E+00  0.98458853554E+03  0.98458853554E+03  0.00000000000E+00 0. -1.
         21   -1    0    0  501  503 -0.00000000000E+00 -0.00000000000E+00 -0.78127301721E+02  0.78127301721E+02  0.00000000000E+00 0. -1.
          6    2    1    2  501    0 -0.15297692462E+03 -0.19038451231E+02  0.15020649255E+03  0.27336633910E+03  0.16853119253E+03 0.  0.
         24    2    3    3    0    0 -0.27052995871E+02  0.23159156353E+02  0.97995681788E+02  0.13058842526E+03  0.78625517835E+02 0.  0.
         -6    2    1    2    0  502  0.15297692462E+03  0.19038451231E+02  0.75625474127E+03  0.78934949817E+03  0.16549016426E+03 0.  0.
        -24    2    5    5    0    0  0.10170880336E+03 -0.20238083402E+02  0.66320880587E+03  0.67598855901E+03  0.79751808975E+02 0.  0.
          5    1    3    3  501    0 -0.12592392875E+03 -0.42197607584E+02  0.52210810763E+02  0.14277791383E+03  0.47000000000E+01 0. -1.
        -11    1    4    4    0    0 -0.43635593928E+02  0.41778597371E+02  0.77809776065E+02  0.98508261111E+02  0.00000000000E+00 0.  1.
         12    1    4    4    0    0  0.16582598057E+02 -0.18619441018E+02  0.20185905722E+02  0.32080164151E+02  0.00000000000E+00 0. -1.
         -5    1    5    5    0  502  0.51268121266E+02  0.39276534633E+02  0.93045935404E+02  0.11336093916E+03  0.47000000000E+01 0.  1.
         11    1    6    6    0    0  0.48706884632E+02  0.23346481871E+02  0.41386263144E+03  0.41737237154E+03  0.00000000000E+00 0. -1.
        -12    1    6    6    0    0  0.53001918725E+02 -0.43584565273E+02  0.24934617443E+03  0.25861618747E+03  0.00000000000E+00 0.  1.
</event>
<event>
12    1  0.8258923E-002  0.1923961E+03  0.7818608E-02  0.1156467E+00
         21   -1    0    0  503  502  0.00000000000E+00  0.00000000000E+00  0.11796283046E+03  0.11796283046E+03  0.00000000000E+00 0.  1.
         21   -1    0    0  501  503 -0.00000000000E+00 -0.00000000000E+00 -0.10131819795E+04  0.10131819795E+04  0.00000000000E+00 0.  1.
          6    2    1    2  501    0  0.17139418372E+02  0.90029187512E+02 -0.91811594224E+03  0.93805818621E+03  0.16916637687E+03 0.  0.
         24    2    3    3    0    0 -0.12866939134E+02  0.80321592785E+01 -0.66751938681E+03  0.67264413662E+03  0.81473486822E+02 0.  0.
         -6    2    1    2    0  502 -0.17139418372E+02 -0.90029187512E+02  0.22896793161E+02  0.19308662379E+03  0.16840180190E+03 0.  0.
        -24    2    5    5    0    0 -0.28958762545E+02 -0.79935402111E+02 -0.45203198151E+02  0.12307747998E+03  0.76658062299E+02 0.  0.
          5    1    3    3  501    0  0.30006357506E+02  0.81997028234E+02 -0.25059655543E+03  0.26541404960E+03  0.47000000000E+01 0. -1.
        -11    1    4    4    0    0 -0.46801004431E+02  0.62475384938E+01 -0.45242279203E+03  0.45487992756E+03  0.00000000000E+00 0.  1.
         12    1    4    4    0    0  0.33934065298E+02  0.17846207847E+01 -0.21509659478E+03  0.21776420906E+03  0.00000000000E+00 0. -1.
         -5    1    5    5    0  502  0.11819344173E+02 -0.10093785401E+02  0.68099991312E+02  0.70009143811E+02  0.47000000000E+01 0.  1.
         13    1    6    6    0    0 -0.71065511381E+01  0.13915634365E+02  0.20404005296E+01  0.15757892727E+02  0.00000000000E+00 0. -1.
        -14    1    6    6    0    0 -0.21852211407E+02 -0.93851036477E+02 -0.47243598681E+02  0.10731958725E+03  0.00000000000E+00 0.  1.
</event>
<event>
12    1  0.8258923E-002  0.2143531E+03  0.7818608E-02  0.1138334E+00
         21   -1    0    0  501  502  0.00000000000E+00  0.00000000000E+00  0.36649253632E+03  0.36649253632E+03  0.00000000000E+00 0. -1.
         21   -1    0    0  502  503 -0.00000000000E+00 -0.00000000000E+00 -0.30674424343E+03  0.30674424343E+03  0.00000000000E+00 0.  1.
         -6    2    1    2    0  503  0.11944843787E+03 -0.48227875799E+02 -0.22936050174E+03  0.31333240089E+03  0.17022660303E+03 0.  0.
        -24    2    3    3    0    0  0.31054100903E+02  0.23752071297E+02 -0.53751342548E+02  0.10391573875E+03  0.79879633576E+02 0.  0.
          6    2    1    2  501    0 -0.11944843787E+03  0.48227875799E+02  0.28910879463E+03  0.35990437886E+03  0.17132836740E+03 0.  0.
         24    2    5    5    0    0 -0.12807138570E+02  0.56944231971E+02  0.88170152028E+02  0.13220552143E+03  0.79357771111E+02 0.  0.
          5    1    5    5  501    0 -0.10664129930E+03 -0.87163561723E+01  0.20093864261E+03  0.22769885743E+03  0.47000000000E+01 0. -1.
        -13    1    6    6    0    0  0.40864591448E+01  0.74056185505E+02  0.70853928270E+02  0.10257337330E+03  0.00000000000E+00 0.  1.
         14    1    6    6    0    0 -0.16893597715E+02 -0.17111953533E+02  0.17316223758E+02  0.29632148128E+02  0.00000000000E+00 0. -1.
         -5    1    3    3    0  503  0.88394336966E+02 -0.71979947096E+02 -0.17560915919E+03  0.20941666214E+03  0.47000000000E+01 0.  1.
         11    1    4    4    0    0  0.88583306410E+01 -0.24339170304E+02  0.32505047177E+01  0.26104233636E+02  0.00000000000E+00 0. -1.
        -12    1    4    4    0    0  0.22195770262E+02  0.48091241601E+02 -0.57001847266E+02  0.77811505113E+02  0.00000000000E+00 0.  1.
</event>
<event>
12    1  0.8258923E-002  0.1972506E+03  0.7818608E-02  0.1152685E+00
         21   -1    0    0  503  502  0.00000000000E+00  0.00000000000E+00  0.55586344531E+03  0.55586344531E+03  0.00000000000E+00 0. -1.
         21   -1    0    0  501  503 -0.00000000000E+00 -0.00000000000E+00 -0.11855310761E+03  0.11855310761E+03  0.00000000000E+00 0.  1.
          6    2    1    2  501    0 -0.88990200552E+02  0.33658712808E+02 -0.24867558041E+00  0.19445229940E+03  0.16958617325E+03 0.  0.
         24    2    3    3    0    0 -0.74342592113E+02  0.64190025815E+02 -0.48184800561E+02  0.13557381789E+03  0.80070623045E+02 0.  0.
         -6    2    1    2    0  502  0.88990200552E+02 -0.33658712808E+02  0.43755901329E+03  0.47996425353E+03  0.17278781732E+03 0.  0.
        -24    2    5    5    0    0  0.40116128042E+02  0.11326215618E+02  0.38442450097E+03  0.39477220491E+03  0.79531817098E+02 0.  0.
          5    1    3    3  501    0 -0.14647608439E+02 -0.30531313006E+02  0.47936124980E+02  0.58878481510E+02  0.47000000000E+01 0. -1.
        -11    1    4    4    0    0 -0.50284577466E+02  0.41321056296E+02 -0.70211479854E+02  0.95737246292E+02  0.00000000000E+00 0.  1.
         12    1    4    4    0    0 -0.24058014647E+02  0.22868969519E+02  0.22026679293E+02  0.39836571593E+02  0.00000000000E+00 0. -1.
         -5    1    5    5    0  502  0.48874072510E+02 -0.44984928426E+02  0.53134512314E+02  0.85192048620E+02  0.47000000000E+01 0.  1.
         11    1    6    6    0    0  0.13131457152E+02 -0.17988323339E+02  0.30597507164E+03  0.30678454885E+03  0.00000000000E+00 0. -1.
        -12    1    6    6    0    0  0.26984670890E+02  0.29314538956E+02  0.78449429329E+02  0.87987656062E+02  0.00000000000E+00 0.  1.
</event>
<event>
12    1  0.8258923E-002  0.1884109E+03  0.7818608E-02  0.1160098E+00
         21   -1    0    0  503  502  0.00000000000E+00  0.00000000000E+00  0.49418160482E+02  0.49418160482E+02  0.00000000000E+00 0.  1.
         21   -1    0    0  501  503 -0.00000000000E+00 -0.00000000000E+00 -0.73596254573E+03  0.73596254573E+03  0.00000000000E+00 0.  1.
          6    2    1    2  501    0 -0.53944672977E-01  0.80046317742E+02 -0.41020293530E+03  0.45140348323E+03  0.17056154503E+03 0.  0.
         24    2    3    3    0    0 -0.17413311273E+02 -0.46219924053E+01 -0.10361511373E+03  0.13283127369E+03  0.81138580552E+02 0.  0.
         -6    2    1    2    0  502  0.53944672977E-01 -0.80046317742E+02 -0.27634144994E+03  0.33397722298E+03  0.16961359798E+03 0.  0.
        -24    2    5    5    0    0 -0.28805004147E+02 -0.10390102327E+03 -0.14554423698E+03  0.19784535007E+03  0.79589614445E+02 0.  0.
          5    1    3    3  501    0  0.17359366600E+02  0.84668310148E+02 -0.30658782157E+03  0.31857220953E+03  0.47000000000E+01 0. -1.
        -13    1    4    4    0    0  0.15061930763E+02 -0.24636360937E+02 -0.81155145771E+01  0.29994559764E+02  0.00000000000E+00 0.  1.
         14    1    4    4    0    0 -0.32475242036E+02  0.20014368532E+02 -0.95499599156E+02  0.10283671393E+03  0.00000000000E+00 0. -1.
         -5    1    5    5    0  502  0.28858948820E+02  0.23854705526E+02 -0.13079721297E+03  0.13613187291E+03  0.47000000000E+01 0.  1.
         11    1    6    6    0    0 -0.25591609416E+02  0.38606289501E+01 -0.22959267582E+02  0.34597151564E+02  0.00000000000E+00 0. -1.
        -12    1    6    6    0    0 -0.32133947306E+01 -0.10776165222E+03 -0.12258496939E+03  0.16324819851E+03  0.00000000000E+00 0.  1.
</event>
<event>
12    1  0.8258923E-002  0.2751478E+03  0.7818608E-02  0.1098453E+00
         21   -1    0    0  501  502  0.00000000000E+00  0.00000000000E+00  0.84429070605E+02  0.84429070605E+02  0.00000000000E+00 0. -1.
         21   -1    0    0  502  503 -0.00000000000E+00 -0.00000000000E+00 -0.97770989411E+03  0.97770989411E+03  0.00000000000E+00 0. -1.
         -6    2    1    2    0  503  0.12373251828E+03  0.17481050447E+03 -0.60090599503E+03  0.66065503784E+03  0.17178071955E+03 0.  0.
        -24    2    3    3    0    0  0.38051065891E+02  0.89551309363E+02 -0.45012579446E+03  0.46734906143E+03  0.79590161160E+02 0.  0.
          6    2    1    2  501    0 -0.12373251828E+03 -0.17481050447E+03 -0.29237482848E+03  0.40148392688E+03  0.17273637329E+03 0.  0.
         24    2    5    5    0    0 -0.63119354401E+02 -0.18577755658E+03 -0.20767682845E+03  0.29665037749E+03  0.79840014809E+02 0.  0.
          5    1    5    5  501    0 -0.60613163877E+02  0.10967052103E+02 -0.84698000031E+02  0.10483354938E+03  0.47000000000E+01 0. -1.
        -11    1    6    6    0    0  0.53145607949E+01 -0.50953004374E+01  0.53171303377E+01  0.90817684411E+01  0.00000000000E+00 0.  1.
         12    1    6    6    0    0 -0.68433915196E+02 -0.18068225614E+03 -0.21299395879E+03  0.28756860905E+03  0.00000000000E+00 0. -1.
         -5    1    3    3    0  503  0.85681452387E+02  0.85259195112E+02 -0.15078020057E+03  0.19330597641E+03  0.47000000000E+01 0.  1.
         11    1    4    4    0    0  0.20092239155E+02  0.10009167271E+03 -0.32994841118E+03  0.34538094195E+03  0.00000000000E+00 0. -1.
        -12    1    4    4    0    0  0.17958826736E+02 -0.10540363346E+02 -0.12017738328E+03  0.12196811948E+03  0.00000000000E+00 0.  1.
</event>
<event>
12    1  0.8258923E-002  0.2661347E+03  0.7818608E-02  0.1103673E+00
         21   -1    0    0  501  502  0.00000000000E+00  0.00000000000E+00  0.12264449007E+03  0.12264449007E+03  0.00000000000E+00 0. -1.
         21   -1    0    0  502  503 -0.00000000000E+00 -0.00000000000E+00 -0.64339785648E+03  0.64339785648E+03  0.00000000000E+00 0.  1.
         -6    2    1    2    0  503  0.14048073406E+03 -0.14697252102E+03 -0.13512733236E+03  0.29749659298E+03  0.17002666940E+03 0.  0.
        -24    2    3    3    0    0  0.14916908520E+03 -0.11271662471E+03 -0.15564496919E+03  0.25636245511E+03  0.80869638856E+02 0.  0.
          6    2    1    2  501    0 -0.14048073406E+03  0.14697252102E+03 -0.38562603405E+03  0.46854575357E+03  0.17173213581E+03 0.  0.
         24    2    5    5    0    0 -0.15794543108E+03  0.78271193003E+02 -0.26000167235E+03  0.32422507464E+03  0.80298758072E+02 0.  0.
          5    1    5    5  501    0  0.17464697020E+02  0.68701328014E+02 -0.12562436170E+03  0.14432067893E+03  0.47000000000E+01 0. -1.
        -11    1    6    6    0    0  0.34550870471E+01  0.20149585785E+02 -0.42947855112E+02  0.47565341295E+02  0.00000000000E+00 0.  1.
         12    1    6    6    0    0 -0.16140051813E+03  0.58121607218E+02 -0.21705381724E+03  0.27665973335E+03  0.00000000000E+00 0. -1.
         -5    1    3    3    0  503 -0.86883511439E+01 -0.34255896302E+02  0.20517636831E+02  0.41134137869E+02  0.47000000000E+01 0.  1.
         11    1    4    4    0    0  0.10527425903E+03 -0.66779272226E+02 -0.52614815201E+02  0.13531614682E+03  0.00000000000E+00 0. -1.
        -12    1    4    4    0    0  0.43894826177E+02 -0.45937352489E+02 -0.10303015399E+03  0.12104630829E+03  0.00000000000E+00 0.  1.
</event>
<event>
12    1  0.8258923E-002  0.1900365E+03  0.7818608E-02  0.1158608E+00
         21   -1    0    0  503  502  0.00000000000E+00  0.00000000000E+00  0.10954958313E+03  0.10954958313E+03  0.00000000000E+00 0. -1.
         21   -1    0    0  501  503 -0.00000000000E+00 -0.00000000000E+00 -0.39289754101E+03  0.39289754101E+03  0.00000000000E+00 0. -1.
          6    2    1    2  501    0 -0.78604029373E+02  0.46233765346E+01 -0.24330671675E+03  0.30823798268E+03  0.17208290592E+03 0.  0.
         24    2    3    3    0    0 -0.12074262437E+03  0.96128202696E+01 -0.20368257646E+03  0.24999093786E+03  0.79609606231E+02 0.  0.
         -6    2    1    2    0  502  0.78604029373E+02 -0.46233765346E+01 -0.40041241138E+02  0.19420914146E+03  0.17295641240E+03 0.  0.
        -24    2    5    5    0    0  0.11518496245E+03  0.88565089481E+00  0.36175620495E+00  0.13922726952E+03  0.78203208101E+02 0.  0.
          5    1    3    3  501    0  0.42138594997E+02 -0.49894437350E+01 -0.39624140288E+02  0.58247044824E+02  0.47000000000E+01 0. -1.
        -13    1    4    4    0    0 -0.40999713600E+02  0.35971541883E+02 -0.46061121623E+02  0.71390162249E+02  0.00000000000E+00 0.  1.
         14    1    4    4    0    0 -0.79742910770E+02 -0.26358721614E+02 -0.15762145484E+03  0.17860077561E+03  0.00000000000E+00 0. -1.
         -5    1    5    5    0  502 -0.36580933077E+02 -0.55090274294E+01 -0.40402997343E+02  0.54981871943E+02  0.47000000000E+01 0.  1.
         11    1    6    6    0    0  0.33119966789E+02  0.36884379665E+02 -0.14944846350E+01  0.49594587888E+02  0.00000000000E+00 0. -1.
        -12    1    6    6    0    0  0.82064995661E+02 -0.35998728771E+02  0.18562408400E+01  0.89632681629E+02  0.00000000000E+00 0.  1.
</event>
<event>
12    1  0.8258923E-002  0.2574696E+03  0.7818608E-02  0.1108689E+00
         21   -1    0    0  501  502  0.00000000000E+00  0.00000000000E+00  0.98427223605E+02  0.98427223605E+02  0.00000000000E+00 0.  1.
         21   -1    0    0  502  503 -0.00000000000E+00 -0.00000000000E+00 -0.68016971068E+03  0.68016971068E+03  0.00000000000E+00 0. -1.
         -6    2    1    2    0  503  0.71986072112E+02  0.17764984564E+03 -0.25158048330E+03  0.35997686539E+03  0.17189863816E+03 0.  0.
        -24    2    3    3    0    0  0.70233392629E+02  0.93870219855E+02 -0.23431072710E+03  0.27428887287E+03  0.81169706979E+02 0.  0.
          6    2    1    2  501    0 -0.71986072112E+02 -0.17764984564E+03 -0.33016200377E+03  0.41862006890E+03  0.17173919505E+03 0.  0.
         24    2    5    5    0    0 -0.29973677191E+01 -0.13732879052E+03 -0.14936555762E+03  0.22089633800E+03  0.87275090488E+02 0.  0.
          5    1    5    5  501    0 -0.68988704393E+02 -0.40321055117E+02 -0.18079644615E+03  0.19772373090E+03  0.47000000000E+01 0. -1.
        -13    1    6    6    0    0  0.14889475242E+00 -0.42148944197E+00  0.10435297617E+02  0.10444867608E+02  0.00000000000E+00 0.  1.
         14    1    6    6    0    0 -0.31462624715E+01 -0.13690730108E+03 -0.15980085523E+03  0.21045147039E+03  0.00000000000E+00 0. -1.
         -5    1    3    3    0  503  0.17526794823E+01  0.83779625781E+02 -0.17269756198E+02  0.85687992511E+02  0.47000000000E+01 0.  1.
         13    1    4    4    0    0 -0.44342736945E+01 -0.66153233233E+00 -0.72102715941E+02  0.72241968787E+02  0.00000000000E+00 0. -1.
        -14    1    4    4    0    0  0.74667666324E+02  0.94531752187E+02 -0.16220801116E+03  0.20204690409E+03  0.00000000000E+00 0.  1.
</event>
<event>
12    1  0.8258923E-002  0.1884334E+03  0.7818608E-02  0.1160486E+00
         21   -1    0    0  503  502  0.00000000000E+00  0.00000000000E+00  0.26642048125E+03  0.26642048125E+03  0.00000000000E+00 0.  1.
         21   -1    0    0  501  503 -0.00000000000E+00 -0.00000000000E+00 -0.13214389151E+03  0.13214389151E+03  0.00000000000E+00 0.  1.
          6    2    1    2  501    0  0.46967666048E+02 -0.50582574620E+02  0.52874684872E+02  0.19571118880E+03  0.17533561706E+03 0.  0.
         24    2    3    3    0    0  0.12528489212E+02 -0.62992918535E+02  0.95381624838E+02  0.13941728609E+03  0.78831811318E+02 0.  0.
         -6    2    1    2    0  502 -0.46967666048E+02  0.50582574620E+02  0.81401904869E+02  0.20285318396E+03  0.17250676978E+03 0.  0.
        -24    2    5    5    0    0  0.10819562062E+02  0.82167857569E+02  0.28468353329E+02  0.11823022780E+03  0.79368254881E+02 0.  0.
          5    1    3    3  501    0  0.34439176836E+02  0.12410343915E+02 -0.42506939966E+02  0.56293902712E+02  0.47000000000E+01 0. -1.
        -11    1    4    4    0    0  0.16474885002E+01 -0.76663462522E+02  0.52001613110E+02  0.92650787748E+02  0.00000000000E+00 0.  1.
         12    1    4    4    0    0  0.10881000712E+02  0.13670543987E+02  0.43380011728E+02  0.46766498339E+02  0.00000000000E+00 0. -1.
         -5    1    5    5    0  502 -0.57787228110E+02 -0.31585282949E+02  0.52933551541E+02  0.84622956166E+02  0.47000000000E+01 0.  1.
         11    1    6    6    0    0  0.14130284386E+02 -0.54236176810E+01  0.26543009691E+02  0.30555063885E+02  0.00000000000E+00 0. -1.
        -12    1    6    6    0    0 -0.33107223246E+01  0.87591475250E+02  0.19253436379E+01  0.87675163911E+02  0.00000000000E+00 0.  1.
</event>
<event>
12    1  0.8258923E-002  0.2450777E+03  0.7818608E-02  0.1116511E+00
         21   -1    0    0  501  502  0.00000000000E+00  0.00000000000E+00  0.53151385362E+03  0.53151385362E+03  0.00000000000E+00 0. -1.
         21   -1    0    0  502  503 -0.00000000000E+00 -0.00000000000E+00 -0.11858359521E+03  0.11858359521E+03  0.00000000000E+00 0.  1.
         -6    2    1    2    0  503 -0.16106170283E+03 -0.65356468473E+02  0.13484161286E+03  0.27942730641E+03  0.17229340939E+03 0.  0.
        -24    2    3    3    0    0 -0.17253520066E+03 -0.20400338104E+02  0.13215669711E+03  0.23271549224E+03  0.80663117193E+02 0.  0.
          6    2    1    2  501    0  0.16106170283E+03  0.65356468473E+02  0.27808864555E+03  0.37067014242E+03  0.17277360797E+03 0.  0.
         24    2    5    5    0    0  0.10369275114E+03  0.26743206683E+02  0.68787157714E+02  0.15019024898E+03  0.79737394483E+02 0.  0.
          5    1    5    5  501    0  0.57368951690E+02  0.38613261790E+02  0.20930148783E+03  0.22047989345E+03  0.47000000000E+01 0. -1.
        -11    1    6    6    0    0  0.47961929026E+02 -0.26344442486E+02  0.16549313366E+02  0.57168663258E+02  0.00000000000E+00 0.  1.
         12    1    6    6    0    0  0.55730822111E+02  0.53087649169E+02  0.52237844348E+02  0.93021585718E+02  0.00000000000E+00 0. -1.
         -5    1    3    3    0  503  0.11473497837E+02 -0.44956130369E+02  0.26849157473E+01  0.46711814168E+02  0.47000000000E+01 0.  1.
         13    1    4    4    0    0 -0.62756868033E+02 -0.43099632841E+02  0.75062317852E+02  0.10691283551E+03  0.00000000000E+00 0. -1.
        -14    1    4    4    0    0 -0.10977833263E+03  0.22699294737E+02  0.57094379257E+02  0.12580265673E+03  0.00000000000E+00 0.  1.
</event>
<event>
12    1  0.8258923E-002  0.1792393E+03  0.7818608E-02  0.1168977E+00
         21   -1    0    0  501  502  0.00000000000E+00  0.00000000000E+00  0.55480355209E+03  0.55480355209E+03  0.00000000000E+00 0.  1.
         21   -1    0    0  502  503 -0.00000000000E+00 -0.00000000000E+00 -0.60358942139E+02  0.60358942139E+02  0.00000000000E+00 0.  1.
         -6    2    1    2    0  503 -0.66314368223E+00  0.31789867454E+02  0.17717459220E+03  0.25076300356E+03  0.17458583104E+03 0.  0.
        -24    2    3    3    0    0 -0.60344548699E+02 -0.17249974339E+02  0.11325855194E+03  0.15039305591E+03  0.76495395328E+02 0.  0.
          6    2    1    2  501    0  0.66314368223E+00 -0.31789867454E+02  0.31727001775E+03  0.36439949067E+03  0.17639639794E+03 0.  0.
         24    2    5    5    0    0  0.27909891912E+02 -0.32714143306E+02  0.66379886830E+02  0.11198873938E+03  0.79284368784E+02 0.  0.
          5    1    5    5  501    0 -0.27246748230E+02  0.92427585288E+00  0.25089013092E+03  0.25241075129E+03  0.47000000000E+01 0. -1.
        -11    1    6    6    0    0 -0.38483383834E+00 -0.47895174037E+02  0.63796075866E+02  0.79774902626E+02  0.00000000000E+00 0.  1.
         12    1    6    6    0    0  0.28294725750E+02  0.15181030730E+02  0.25838109639E+01  0.32213836754E+02  0.00000000000E+00 0. -1.
         -5    1    3    3    0  503  0.59681405017E+02  0.49039841793E+02  0.63916040265E+02  0.10036994765E+03  0.47000000000E+01 0.  1.
         13    1    4    4    0    0  0.39265934867E+00 -0.28070429174E+02  0.68923453627E+02  0.74421405760E+02  0.00000000000E+00 0. -1.
        -14    1    4    4    0    0 -0.60737208048E+02  0.10820454835E+02  0.44335098312E+02  0.75971650151E+02  0.00000000000E+00 0.  1.
</event>
<event>
12    1  0.8258923E-002  0.2269985E+03  0.7818608E-02  0.1129215E+00
         21   -1    0    0  503  502  0.00000000000E+00  0.00000000000E+00  0.93455762078E+02  0.93455762078E+02  0.00000000000E+00 0. -1.
         21   -1    0    0  501  503 -0.00000000000E+00 -0.00000000000E+00 -0.56471571566E+03  0.56471571566E+03  0.00000000000E+00 0. -1.
          6    2    1    2  501    0  0.14206823594E+03  0.35828032955E+02 -0.29527049797E+03  0.37094226772E+03  0.17013661394E+03 0.  0.
         24    2    3    3    0    0  0.22164854826E+02 -0.20487257273E+01 -0.56820092255E+02  0.10132743943E+03  0.80890351902E+02 0.  0.
         -6    2    1    2    0  502 -0.14206823594E+03 -0.35828032955E+02 -0.17598945561E+03  0.28722921001E+03  0.17338194540E+03 0.  0.
        -24    2    5    5    0    0 -0.11348746006E+03 -0.81645407688E+02 -0.16825683025E+03  0.23247543323E+03  0.78670769300E+02 0.  0.
          5    1    3    3  501    0  0.11990338111E+03  0.37876758682E+02 -0.23845040571E+03  0.26961482829E+03  0.47000000000E+01 0. -1.
        -11    1    4    4    0    0  0.25904136773E+02  0.25648271241E+02 -0.62923786499E+02  0.72720430603E+02  0.00000000000E+00 0.  1.
         12    1    4    4    0    0 -0.37392819464E+01 -0.27696996969E+02  0.61036942448E+01  0.28607008826E+02  0.00000000000E+00 0. -1.
         -5    1    5    5    0  502 -0.28580775879E+02  0.45817374734E+02 -0.77326253626E+01  0.54753776786E+02  0.47000000000E+01 0.  1.
         11    1    6    6    0    0 -0.54256102114E+02 -0.37663075016E+01 -0.97793328951E+02  0.11189926218E+03  0.00000000000E+00 0. -1.
        -12    1    6    6    0    0 -0.59231357944E+02 -0.77879100187E+02 -0.70463501297E+02  0.12057617105E+03  0.00000000000E+00 0.  1.
</event>
<event>
12    1  0.8258923E-002  0.1825481E+03  0.7818608E-02  0.1166457E+00
         21   -1    0    0  503  502  0.00000000000E+00  0.00000000000E+00  0.20332264231E+03  0.20332264231E+03  0.00000000000E+00 0. -1.
         21   -1    0    0  501  503 -0.00000000000E+00 -0.00000000000E+00 -0.17536853634E+03  0.17536853634E+03  0.00000000000E+00 0.  1.
          6    2    1    2  501    0  0.32701200190E+01  0.57495516234E+02 -0.42218578679E+02  0.18736654298E+03  0.17322639802E+03 0.  0.
         24    2    3    3    0    0  0.53536626191E+02  0.87266176424E+02 -0.48834905229E+02  0.12838451497E+03  0.60134680717E+02 0.  0.
         -6    2    1    2    0  502 -0.32701200190E+01 -0.57495516234E+02  0.70172684651E+02  0.19132463566E+03  0.16841758361E+03 0.  0.
        -24    2    5    5    0    0 -0.44923806218E+02 -0.11869554758E+01  0.81707714473E+02  0.12018512131E+03  0.75820548354E+02 0.  0.
          5    1    3    3  501    0 -0.50266506172E+02 -0.29770660190E+02  0.66163265501E+01  0.58982028008E+02  0.47000000000E+01 0. -1.
        -13    1    4    4    0    0  0.92625757365E+01  0.34781670793E+02 -0.47641157745E+02  0.59709629405E+02  0.00000000000E+00 0.  1.
         14    1    4    4    0    0  0.44274050455E+02  0.52484505631E+02 -0.11937474848E+01  0.68674885570E+02  0.00000000000E+00 0. -1.
         -5    1    5    5    0  502  0.41653686199E+02 -0.56308560759E+02 -0.11535029821E+02  0.71139514348E+02  0.47000000000E+01 0.  1.
         11    1    6    6    0    0 -0.48775455862E+01  0.20156129132E+02  0.70438817950E+02  0.73428108151E+02  0.00000000000E+00 0. -1.
        -12    1    6    6    0    0 -0.40046260632E+02 -0.21343084607E+02  0.11268896523E+02  0.46757013164E+02  0.00000000000E+00 0.  1.
</event>
<event>
12    1  0.8258923E-002  0.2012015E+03  0.7818608E-02  0.1148789E+00
         21   -1    0    0  501  502  0.00000000000E+00  0.00000000000E+00  0.64357010141E+02  0.64357010141E+02  0.00000000000E+00 0.  1.
         21   -1    0    0  502  503 -0.00000000000E+00 -0.00000000000E+00 -0.22267862542E+04  0.22267862542E+04  0.00000000000E+00 0.  1.
         -6    2    1    2    0  503 -0.31522776650E+02  0.99110478485E+02 -0.20516433083E+04  0.20614574946E+04  0.17190161494E+03 0.  0.
        -24    2    3    3    0    0 -0.68409983371E+02  0.30505354531E+02 -0.15360330993E+04  0.15399756573E+04  0.80726949446E+02 0.  0.
          6    2    1    2  501    0  0.31522776650E+02 -0.99110478485E+02 -0.11078593577E+03  0.22968576974E+03  0.17223663043E+03 0.  0.
         24    2    5    5    0    0 -0.39198038424E+02 -0.29320456836E+02 -0.87513276800E+02  0.12753006769E+03  0.78798281342E+02 0.  0.
          5    1    5    5  501    0  0.70720815073E+02 -0.69790021649E+02 -0.23272658972E+02  0.10215570205E+03  0.47000000000E+01 0. -1.
        -13    1    6    6    0    0 -0.22874728727E+02 -0.53763705566E+02 -0.37213710503E+02  0.69272285223E+02  0.00000000000E+00 0.  1.
         14    1    6    6    0    0 -0.16323309697E+02  0.24443248730E+02 -0.50299566297E+02  0.58257782464E+02  0.00000000000E+00 0. -1.
         -5    1    3    3    0  503  0.36887206721E+02  0.68605123954E+02 -0.51561020897E+03  0.52148183732E+03  0.47000000000E+01 0.  1.
         11    1    4    4    0    0 -0.90501338391E+01 -0.26195764141E+02 -0.44092997130E+03  0.44180013872E+03  0.00000000000E+00 0. -1.
        -12    1    4    4    0    0 -0.59359849532E+02  0.56701118672E+02 -0.10951031280E+04  0.10981755186E+04  0.00000000000E+00 0.  1.
</event>
<event>
12    1  0.8258923E-002  0.1850642E+03  0.7818608E-02  0.1163107E+00
         21   -1    0    0  501  502  0.00000000000E+00  0.00000000000E+00  0.11663825565E+03  0.11663825565E+03  0.00000000000E+00 0.  1.
         21   -1    0    0  502  503 -0.00000000000E+00 -0.00000000000E+00 -0.29287690547E+03  0.29287690547E+03  0.00000000000E+00 0.  1.
         -6    2    1    2    0  503 -0.37916603900E+02  0.57060917820E+02 -0.85950893589E+02  0.20404975616E+03  0.17191605418E+03 0.  0.
        -24    2    3    3    0    0  0.96136774445E+01 -0.31846276267E+02 -0.32160949759E+02  0.89686016876E+02  0.76828684927E+02 0.  0.
          6    2    1    2  501    0  0.37916603900E+02 -0.57060917820E+02 -0.90287756230E+02  0.20546540497E+03  0.17137834321E+03 0.  0.
         24    2    5    5    0    0 -0.20939465071E+02  0.21043579142E+02 -0.56793963784E+02  0.10198461722E+03  0.79334824681E+02 0.  0.
          5    1    5    5  501    0  0.58856068971E+02 -0.78104496962E+02 -0.33493792445E+02  0.10348078775E+03  0.47000000000E+01 0. -1.
        -13    1    6    6    0    0  0.28799084552E+02  0.19541632983E+02 -0.26303765326E+02  0.43625116172E+02  0.00000000000E+00 0.  1.
         14    1    6    6    0    0 -0.49738549623E+02  0.15019461593E+01 -0.30490198458E+02  0.58359501051E+02  0.00000000000E+00 0. -1.
         -5    1    3    3    0  503 -0.47530281345E+02  0.88907194087E+02 -0.53789943830E+02  0.11436373928E+03  0.47000000000E+01 0.  1.
         11    1    4    4    0    0 -0.24923100510E+02 -0.34841521947E+02 -0.34410017592E+02  0.54946718750E+02  0.00000000000E+00 0. -1.
        -12    1    4    4    0    0  0.34536777955E+02  0.29952456796E+01  0.22490678332E+01  0.34739298126E+02  0.00000000000E+00 0.  1.
</event>
<event>
12    1  0.8258923E-002  0.2013411E+03  0.7818608E-02  0.1149248E+00
         21   -1    0    0  503  502  0.00000000000E+00  0.00000000000E+00  0.38356721914E+03  0.38356721914E+03  0.00000000000E+00 0. -1.
         21   -1    0    0  501  503 -0.00000000000E+00 -0.00000000000E+00 -0.19278284092E+03  0.19278284092E+03  0.00000000000E+00 0. -1.
          6    2    1    2  501    0 -0.22612480768E+02 -0.97212991753E+02 -0.10043442424E+03  0.22230680107E+03  0.17138130055E+03 0.  0.
         24    2    3    3    0    0  0.11711655137E+02 -0.75184823024E+01 -0.96757174738E+02  0.12608381268E+03  0.79633450972E+02 0.  0.
         -6    2    1    2    0  502  0.22612480768E+02  0.97212991753E+02  0.29121880246E+03  0.35404325900E+03  0.17486151173E+03 0.  0.
        -24    2    5    5    0    0 -0.77697186689E+01  0.79273229020E+02  0.29703931589E+03  0.31797552402E+03  0.80817481574E+02 0.  0.
          5    1    3    3  501    0 -0.34324135904E+02 -0.89694509451E+02 -0.36772494982E+01  0.96222988392E+02  0.47000000000E+01 0. -1.
        -11    1    4    4    0    0  0.38159113546E+02 -0.26478927974E+02 -0.43290525235E+02  0.63492685786E+02  0.00000000000E+00 0.  1.
         12    1    4    4    0    0 -0.26447458409E+02  0.18960445672E+02 -0.53466649503E+02  0.62591126891E+02  0.00000000000E+00 0. -1.
         -5    1    5    5    0  502  0.30382199437E+02  0.17939762733E+02 -0.58205134291E+01  0.36067734973E+02  0.47000000000E+01 0.  1.
         13    1    6    6    0    0  0.14358953291E+02  0.24801273532E+02  0.21578823982E+03  0.21768290506E+03  0.00000000000E+00 0. -1.
        -14    1    6    6    0    0 -0.22128671960E+02  0.54471955489E+02  0.81251076063E+02  0.10029261897E+03  0.00000000000E+00 0.  1.
</event>
<event>
12    1  0.8258923E-002  0.2028605E+03  0.7818608E-02  0.1147414E+00
         21   -1    0    0  503  502  0.00000000000E+00  0.00000000000E+00  0.24991032203E+03  0.24991032203E+03  0.00000000000E+00 0. -1.
         21   -1    0    0  501  503 -0.00000000000E+00 -0.00000000000E+00 -0.39479991260E+03  0.39479991260E+03  0.00000000000E+00 0. -1.
          6    2    1    2  501    0 -0.37165341417E+02  0.10013921291E+03 -0.31872032367E+03  0.37780291962E+03  0.17246239240E+03 0.  0.
         24    2    3    3    0    0  0.33393319656E+02  0.98378875753E+02 -0.18473789487E+03  0.22629382858E+03  0.79292433839E+02 0.  0.
         -6    2    1    2    0  502  0.37165341417E+02 -0.10013921291E+03  0.17383073310E+03  0.26690731501E+03  0.17208505593E+03 0.  0.
        -24    2    5    5    0    0  0.91264546090E+02 -0.75109200754E+02  0.12383362844E+03  0.18896486234E+03  0.80014637758E+02 0.  0.
          5    1    3    3  501    0 -0.70558661072E+02  0.17603371534E+01 -0.13398242880E+03  0.15150909104E+03  0.47000000000E+01 0. -1.
        -13    1    4    4    0    0 -0.23749608172E+02  0.26150845015E+02 -0.30596505304E+02  0.46733892627E+02  0.00000000000E+00 0.  1.
         14    1    4    4    0    0  0.57142927827E+02  0.72228030738E+02 -0.15414138956E+03  0.17955993596E+03  0.00000000000E+00 0. -1.
         -5    1    5    5    0  502 -0.54099204673E+02 -0.25030012153E+02  0.49997104663E+02  0.77942452677E+02  0.47000000000E+01 0.  1.
         11    1    6    6    0    0  0.38654241052E+02  0.12214422977E+02  0.30295154963E+02  0.50607695998E+02  0.00000000000E+00 0. -1.
        -12    1    6    6    0    0  0.52610305038E+02 -0.87323623731E+02  0.93538473473E+02  0.13835716634E+03  0.00000000000E+00 0.  1.
</event>
<event>
12    1  0.8258923E-002  0.3337881E+03  0.7818608E-02  0.1069597E+00
         21   -1    0    0  503  502  0.00000000000E+00  0.00000000000E+00  0.43338399406E+03  0.43338399406E+03  0.00000000000E+00 0.  1.
         21   -1    0    0  501  503 -0.00000000000E+00 -0.00000000000E+00 -0.41283057170E+03  0.41283057170E+03  0.00000000000E+00 0. -1.
          6    2    1    2  501    0  0.18431678435E+03  0.21669020510E+03 -0.25034625481E+03  0.41632957569E+03  0.17242316064E+03 0.  0.
         24    2    3    3    0    0  0.10991574602E+03  0.21438672459E+03 -0.16499962376E+03  0.30298515387E+03  0.80820719632E+02 0.  0.
         -6    2    1    2    0  502 -0.18431678435E+03 -0.21669020510E+03  0.27089967717E+03  0.42988499006E+03  0.17460569180E+03 0.  0.
        -24    2    5    5    0    0 -0.48144669526E+02 -0.17572802146E+02  0.73730664983E+02  0.11829504417E+03  0.77011648062E+02 0.  0.
          5    1    3    3  501    0  0.74401038334E+02  0.23034805058E+01 -0.85346631045E+02  0.11334442182E+03  0.47000000000E+01 0. -1.
        -13    1    4    4    0    0  0.51465454385E+02  0.75941465048E+02 -0.19450557974E+02  0.93776987125E+02  0.00000000000E+00 0.  1.
         14    1    4    4    0    0  0.58450291632E+02  0.13844525954E+03 -0.14554906579E+03  0.20920816675E+03  0.00000000000E+00 0. -1.
         -5    1    5    5    0  502 -0.13617211482E+03 -0.19911740295E+03  0.19716901219E+03  0.31158994589E+03  0.47000000000E+01 0.  1.
         11    1    6    6    0    0 -0.17544280172E+02 -0.29094676299E+02 -0.37656986383E+01  0.34183072447E+02  0.00000000000E+00 0. -1.
        -12    1    6    6    0    0 -0.30600389355E+02  0.11521874152E+02  0.77496363621E+02  0.84111971723E+02  0.00000000000E+00 0.  1.
</event>
<event>
12    1  0.8258923E-002  0.2754815E+03  0.7818608E-02  0.1098314E+00
         21   -1    0    0  501  502  0.00000000000E+00  0.00000000000E+00  0.55505444208E+03  0.55505444208E+03  0.00000000000E+00 0.  1.
         21   -1    0    0  502  503 -0.00000000000E+00 -0.00000000000E+00 -0.23085461923E+03  0.23085461923E+03  0.00000000000E+00 0. -1.
         -6    2    1    2    0  503 -0.13771732790E+03 -0.16423083137E+03 -0.89276605694E+02  0.28958651020E+03  0.17306705691E+03 0.  0.
        -24    2    3    3    0    0 -0.63385759073E+02 -0.16577500546E+03 -0.92269216761E+02  0.21503040837E+03  0.78900958642E+02 0.  0.
          6    2    1    2  501    0  0.13771732790E+03  0.16423083137E+03  0.41347642854E+03  0.49632255111E+03  0.17156773999E+03 0.  0.
         24    2    5    5    0    0  0.52618626768E+02  0.16029806607E+03  0.25222245952E+03  0.31388848603E+03  0.80284635559E+02 0.  0.
          5    1    5    5  501    0  0.85098701134E+02  0.39327653048E+01  0.16125396902E+03  0.18243406508E+03  0.47000000000E+01 0. -1.
        -11    1    6    6    0    0 -0.55353815163E+01 -0.47499404843E+01  0.30864386903E+02  0.31714551266E+02  0.00000000000E+00 0.  1.
         12    1    6    6    0    0  0.58154008284E+02  0.16504800655E+03  0.22135807262E+03  0.28217393476E+03  0.00000000000E+00 0. -1.
         -5    1    3    3    0  503 -0.74331568828E+02  0.15441740890E+01  0.29926110670E+01  0.74556101823E+02  0.47000000000E+01 0.  1.
         13    1    4    4    0    0 -0.69214029457E+02 -0.14451129198E+03 -0.50846673901E+02  0.16810556097E+03  0.00000000000E+00 0. -1.
        -14    1    4    4    0    0  0.58282703833E+01 -0.21263713484E+02 -0.41422542859E+02  0.46924847402E+02  0.00000000000E+00 0.  1.
</event>
<event>
12    1  0.8258923E-002  0.2008499E+03  0.7818608E-02  0.1149101E+00
         21   -1    0    0  501  502  0.00000000000E+00  0.00000000000E+00  0.43376350494E+02  0.43376350494E+02  0.00000000000E+00 0. -1.
         21   -1    0    0  502  503 -0.00000000000E+00 -0.00000000000E+00 -0.98046154524E+03  0.98046154524E+03  0.00000000000E+00 0. -1.
         -6    2    1    2    0  503  0.48260957104E+02 -0.90060015815E+02 -0.35006853701E+03  0.40341122651E+03  0.17248974067E+03 0.  0.
        -24    2    3    3    0    0  0.81307577111E+01 -0.12394459185E+03 -0.25894155551E+03  0.29812678248E+03  0.80002988655E+02 0.  0.
          6    2    1    2  501    0 -0.48260957104E+02  0.90060015815E+02 -0.58701665773E+03  0.62042666922E+03  0.17291838826E+03 0.  0.
         24    2    5    5    0    0  0.12902264652E+02 -0.99033856982E+01 -0.27258813227E+03  0.28483613158E+03  0.81011027105E+02 0.  0.
          5    1    5    5  501    0 -0.61163221756E+02  0.99963401514E+02 -0.31442852546E+03  0.33559053765E+03  0.47000000000E+01 0. -1.
        -13    1    6    6    0    0  0.32824975549E+01 -0.23294016796E+02 -0.26606798864E+03  0.26710589770E+03  0.00000000000E+00 0.  1.
         14    1    6    6    0    0  0.96197670968E+01  0.13390631097E+02 -0.65201436352E+01  0.17730233874E+02  0.00000000000E+00 0. -1.
         -5    1    3    3    0  503  0.40130199393E+02  0.33884576032E+02 -0.91126981504E+02  0.10528444403E+03  0.47000000000E+01 0.  1.
         11    1    4    4    0    0  0.23182112015E+01 -0.11068008114E+03 -0.26099212987E+03  0.28350016987E+03  0.00000000000E+00 0. -1.
        -12    1    4    4    0    0  0.58125465096E+01 -0.13264510709E+02  0.20505743572E+01  0.14626612611E+02  0.00000000000E+00 0.  1.
</event>
<event>
12    1  0.8258923E-002  0.2666620E+03  0.7818608E-02  0.1103471E+00
         21   -1    0    0  501  502  0.00000000000E+00  0.00000000000E+00  0.17760495124E+03  0.17760495124E+03  0.00000000000E+00 0. -1.
         21   -1    0    0  502  503 -0.00000000000E+00 -0.00000000000E+00 -0.50442886255E+03  0.50442886255E+03  0.00000000000E+00 0.  1.
         -6    2    1    2    0  503  0.20256081236E+03 -0.21036791201E+02 -0.69521426936E+01  0.26675256948E+03  0.17214869081E+03 0.  0.
        -24    2    3    3    0    0  0.15535064573E+03  0.46156714792E+02  0.13384489876E+02  0.18202101866E+03  0.81781667964E+02 0.  0.
          6    2    1    2  501    0 -0.20256081236E+03  0.21036791201E+02 -0.31987176862E+03  0.41528124430E+03  0.16931371539E+03 0.  0.
         24    2    5    5    0    0 -0.33169791531E+02  0.14297444725E+02 -0.15445523529E+03  0.17837734770E+03  0.81592931470E+02 0.  0.
          5    1    5    5  501    0 -0.16939102083E+03  0.67393464760E+01 -0.16541653333E+03  0.23690389661E+03  0.47000000000E+01 0. -1.
        -13    1    6    6    0    0 -0.51826132757E+02  0.24077667092E+02 -0.14386764445E+03  0.15480174808E+03  0.00000000000E+00 0.  1.
         14    1    6    6    0    0  0.18656341226E+02 -0.97802223668E+01 -0.10587590845E+02  0.23575599619E+02  0.00000000000E+00 0. -1.
         -5    1    3    3    0  503  0.47210166634E+02 -0.67193505993E+02 -0.20336632570E+02  0.84731550826E+02  0.47000000000E+01 0.  1.
         13    1    4    4    0    0  0.13840486655E+03  0.15155962454E+02 -0.10099613868E+02  0.13959803896E+03  0.00000000000E+00 0. -1.
        -14    1    4    4    0    0  0.16945779182E+02  0.31000752337E+02  0.23484103744E+02  0.42422979696E+02  0.00000000000E+00 0.  1.
</event>
<event>
12    1  0.8258923E-002  0.1986254E+03  0.7818608E-02  0.1151130E+00
         21   -1    0    0  503  502  0.00000000000E+00  0.00000000000E+00  0.19821748275E+03  0.19821748275E+03  0.00000000000E+00 0.  1.
         21   -1    0    0  501  503 -0.00000000000E+00 -0.00000000000E+00 -0.37938925930E+03  0.37938925930E+03  0.00000000000E+00 0.  1.
          6    2    1    2  501    0 -0.93536062899E+02 -0.34982068765E+02 -0.29041882605E+03  0.35184532401E+03  0.17169536193E+03 0.  0.
         24    2    3    3    0    0  0.31382713328E+01 -0.21356834953E+02 -0.20395665995E+03  0.22134869546E+03  0.83252403568E+02 0.  0.
         -6    2    1    2    0  502  0.93536062899E+02  0.34982068765E+02  0.10924704949E+03  0.22576141804E+03  0.17047158079E+03 0.  0.
        -24    2    5    5    0    0  0.11079698630E+03 -0.20036166829E+02  0.64924017673E+02  0.15288092083E+03  0.80498619416E+02 0.  0.
          5    1    3    3  501    0 -0.96674334232E+02 -0.13625233812E+02 -0.86462166100E+02  0.13049662855E+03  0.47000000000E+01 0. -1.
        -13    1    4    4    0    0  0.38933986044E+02 -0.18698060559E+02 -0.66596507529E+02  0.79376114499E+02  0.00000000000E+00 0.  1.
         14    1    4    4    0    0 -0.35795714711E+02 -0.26587743938E+01 -0.13736015242E+03  0.14197258096E+03  0.00000000000E+00 0. -1.
         -5    1    5    5    0  502 -0.17260923402E+02  0.55018235594E+02  0.44323031822E+02  0.72880497215E+02  0.47000000000E+01 0.  1.
         11    1    6    6    0    0  0.24473020542E+02 -0.17090457328E+02  0.59221205443E+02  0.66318652281E+02  0.00000000000E+00 0. -1.
        -12    1    6    6    0    0  0.86323965758E+02 -0.29457095006E+01  0.57028122297E+01  0.86562268547E+02  0.00000000000E+00 0.  1.
</event>
<event>
12    1  0.8258923E-002  0.3066458E+03  0.7818608E-02  0.1082201E+00
         21   -1    0    0  503  502  0.00000000000E+00  0.00000000000E+00  0.48043266820E+03  0.48043266820E+03  0.00000000000E+00 0.  1.
         21   -1    0    0  501  503 -0.00000000000E+00 -0.00000000000E+00 -0.19453588040E+03  0.19453588040E+03  0.00000000000E+00 0. -1.
          6    2    1    2  501    0 -0.19877488497E+03  0.15751875522E+03  0.13817697510E+03  0.33633988320E+03  0.17236016780E+03 0.  0.
         24    2    3    3    0    0 -0.18946322035E+03  0.18148879603E+03  0.10385601106E+03  0.29319722997E+03  0.79649542887E+02 0.  0.
         -6    2    1    2    0  502  0.19877488497E+03 -0.15751875522E+03  0.14771981270E+03  0.33862866540E+03  0.16889232317E+03 0.  0.
        -24    2    5    5    0    0  0.96073419647E+02 -0.87812272935E+02  0.10924360202E+02  0.15385401758E+03  0.81305718373E+02 0.  0.
          5    1    3    3  501    0 -0.93116646282E+01 -0.23970040816E+02  0.34320964044E+02  0.43142653231E+02  0.47000000000E+01 0. -1.
        -11    1    4    4    0    0 -0.15118230471E+03  0.11746162001E+03  0.10547278342E+03  0.21858140240E+03  0.00000000000E+00 0.  1.
         12    1    4    4    0    0 -0.38280915638E+02  0.64027176022E+02 -0.16167723661E+01  0.74615827573E+02  0.00000000000E+00 0. -1.
         -5    1    5    5    0  502  0.10270146533E+03 -0.69706482281E+02  0.13679545249E+03  0.18477464782E+03  0.47000000000E+01 0.  1.
         13    1    6    6    0    0  0.44677268290E+02 -0.84508896839E+02  0.27977475357E+02  0.99601963204E+02  0.00000000000E+00 0. -1.
        -14    1    6    6    0    0  0.51396151357E+02 -0.33033760958E+01 -0.17053115155E+02  0.54252054379E+02  0.00000000000E+00 0.  1.
</event>
<event>
12    1  0.8258923E-002  0.2187543E+03  0.7818608E-02  0.1134870E+00
         21   -1    0    0  503  502  0.00000000000E+00  0.00000000000E+00  0.84863660404E+02  0.84863660404E+02  0.00000000000E+00 0. -1.
         21   -1    0    0  501  503 -0.00000000000E+00 -0.00000000000E+00 -0.79028941369E+03  0.79028941369E+03  0.00000000000E+00 0. -1.
          6    2    1    2  501    0 -0.82563476504E+02  0.10520850403E+03 -0.58747829297E+03  0.62688451441E+03  0.17311237021E+03 0.  0.
         24    2    3    3    0    0 -0.40384025439E+02  0.99091369710E+02 -0.22410544217E+03  0.26099048040E+03  0.80267132668E+02 0.  0.
         -6    2    1    2    0  502  0.82563476504E+02 -0.10520850403E+03 -0.11794746032E+03  0.24826855969E+03  0.17274292276E+03 0.  0.
        -24    2    5    5    0    0  0.90796919221E+02 -0.10030911085E+02 -0.81616272263E+02  0.14595233907E+03  0.79348406812E+02 0.  0.
          5    1    3    3  501    0 -0.42179451064E+02  0.61171343156E+01 -0.36337285080E+03  0.36589403401E+03  0.47000000000E+01 0. -1.
        -11    1    4    4    0    0 -0.78546925150E+01  0.59596824472E+01  0.53571413182E+01  0.11221094977E+02  0.00000000000E+00 0.  1.
         12    1    4    4    0    0 -0.32529332924E+02  0.93131687263E+02 -0.22946258348E+03  0.24976938542E+03  0.00000000000E+00 0. -1.
         -5    1    5    5    0  502 -0.82334427169E+01 -0.95177592941E+02 -0.36331188055E+02  0.10231622062E+03  0.47000000000E+01 0.  1.
         13    1    6    6    0    0  0.57647876676E+02 -0.34025616380E+02 -0.80926788852E+02  0.10502459431E+03  0.00000000000E+00 0. -1.
        -14    1    6    6    0    0  0.33149042544E+02  0.23994705295E+02 -0.68948341168E+00  0.40927744760E+02  0.00000000000E+00 0.  1.
</event>
<event>
12    1  0.8258923E-002  0.2560687E+03  0.7818608E-02  0.1109915E+00
         21   -1    0    0  501  502  0.00000000000E+00  0.00000000000E+00  0.34569299120E+02  0.34569299120E+02  0.00000000000E+00 0. -1.
         21   -1    0    0  502  503 -0.00000000000E+00 -0.00000000000E+00 -0.23924109097E+04  0.23924109097E+04  0.00000000000E+00 0. -1.
         -6    2    1    2    0  503  0.58258002788E+02 -0.17901482115E+03 -0.17369080031E+04  0.17553183033E+04  0.16986063028E+03 0.  0.
        -24    2    3    3    0    0  0.17287441484E+02 -0.16906685683E+03 -0.16201374911E+04  0.16310806626E+04  0.81830192084E+02 0.  0.
          6    2    1    2  501    0 -0.58258002788E+02  0.17901482115E+03 -0.62093360750E+03  0.67166190551E+03  0.17358245678E+03 0.  0.
         24    2    5    5    0    0 -0.75826478804E+02  0.66470702261E+02 -0.23560935887E+03  0.26982649563E+03  0.84418946988E+02 0.  0.
          5    1    5    5  501    0  0.17568476016E+02  0.11254411888E+03 -0.38532424863E+03  0.40183540988E+03  0.47000000000E+01 0. -1.
        -13    1    6    6    0    0 -0.33041433522E+02  0.54093193561E+02 -0.55366358467E+02  0.84162007870E+02  0.00000000000E+00 0.  1.
         14    1    6    6    0    0 -0.42785045282E+02  0.12377508700E+02 -0.18024300040E+03  0.18566448776E+03  0.00000000000E+00 0. -1.
         -5    1    3    3    0  503  0.40970561304E+02 -0.99479643106E+01 -0.11677051201E+03  0.12423764069E+03  0.47000000000E+01 0.  1.
         11    1    4    4    0    0  0.10954539481E+02 -0.12401043320E+03 -0.79488889840E+03  0.80457874088E+03  0.00000000000E+00 0. -1.
        -12    1    4    4    0    0  0.63329020030E+01 -0.45056423633E+02 -0.82524859267E+03  0.82650192175E+03  0.00000000000E+00 0.  1.
</event>
<event>
12    1  0.8258923E-002  0.1870626E+03  0.7818608E-02  0.1161466E+00
         21   -1    0    0  501  502  0.00000000000E+00  0.00000000000E+00  0.36649130152E+03  0.36649130152E+03  0.00000000000E+00 0.  1.
         21   -1    0    0  502  503 -0.00000000000E+00 -0.00000000000E+00 -0.11447103321E+03  0.11447103321E+03  0.00000000000E+00 0. -1.
         -6    2    1    2    0  503 -0.63174966185E+02 -0.23615488572E+02  0.22620845864E+03  0.29353482283E+03  0.17448111015E+03 0.  0.
        -24    2    3    3    0    0 -0.10741013703E+03 -0.38262796369E+02  0.17556489543E+03  0.22455544576E+03  0.81247378984E+02 0.  0.
          6    2    1    2  501    0  0.63174966185E+02  0.23615488572E+02  0.25811809662E+02  0.18742751189E+03  0.17295680109E+03 0.  0.
         24    2    5    5    0    0  0.23014480056E+02 -0.38432997074E+02 -0.28982201843E+02  0.95300681308E+02  0.78965120640E+02 0.  0.
          5    1    5    5  501    0  0.40160486129E+02  0.62048485646E+02  0.54794011506E+02  0.92126830587E+02  0.47000000000E+01 0. -1.
        -11    1    6    6    0    0 -0.25507662326E+02 -0.22197614685E+02  0.45602520997E+01  0.34119947746E+02  0.00000000000E+00 0.  1.
         12    1    6    6    0    0  0.48522142381E+02 -0.16235382389E+02 -0.33542453943E+02  0.61180733561E+02  0.00000000000E+00 0. -1.
         -5    1    3    3    0  503  0.44235170849E+02  0.14647307797E+02  0.50643563219E+02  0.68979377072E+02  0.47000000000E+01 0.  1.
         11    1    4    4    0    0  0.87461078000E+01  0.93350313404E+01  0.28247204057E+02  0.31008736653E+02  0.00000000000E+00 0. -1.
        -12    1    4    4    0    0 -0.11615624483E+03 -0.47597827710E+02  0.14731769137E+03  0.19354670911E+03  0.00000000000E+00 0.  1.
</event>
<event>
12    1  0.8258923E-002  0.1850358E+03  0.7818608E-02  0.1163194E+00
         21   -1    0    0  501  502  0.00000000000E+00  0.00000000000E+00  0.42443816324E+02  0.42443816324E+02  0.00000000000E+00 0. -1.
         21   -1    0    0  502  503 -0.00000000000E+00 -0.00000000000E+00 -0.80428586063E+03  0.80428586063E+03  0.00000000000E+00 0. -1.
         -6    2    1    2    0  503  0.38764689088E+02 -0.53880178719E+02 -0.36582386285E+03  0.40961568412E+03  0.17190734499E+03 0.  0.
        -24    2    3    3    0    0 -0.38271086372E+02 -0.30883700331E+02 -0.14480630684E+03  0.17438346101E+03  0.83798842337E+02 0.  0.
          6    2    1    2  501    0 -0.38764689088E+02  0.53880178719E+02 -0.39601818145E+03  0.43711399284E+03  0.17272078020E+03 0.  0.
         24    2    5    5    0    0 -0.69631517830E+02 -0.18095907498E+02 -0.20798493208E+03  0.23336927273E+03  0.77636816889E+02 0.  0.
          5    1    5    5  501    0  0.30866828742E+02  0.71976086218E+02 -0.18803324937E+03  0.20374472011E+03  0.47000000000E+01 0. -1.
        -11    1    6    6    0    0 -0.70443635290E+01 -0.36203251670E+01 -0.13854892386E+03  0.13877512066E+03  0.00000000000E+00 0.  1.
         12    1    6    6    0    0 -0.62587154301E+02 -0.14475582331E+02 -0.69436008224E+02  0.94594152068E+02  0.00000000000E+00 0. -1.
         -5    1    3    3    0  503  0.77035775460E+02 -0.22996478388E+02 -0.22101755602E+03  0.23523222310E+03  0.47000000000E+01 0.  1.
         13    1    4    4    0    0 -0.87246055213E+00 -0.46088145480E+02 -0.11590038577E+03  0.12473082122E+03  0.00000000000E+00 0. -1.
        -14    1    4    4    0    0 -0.37398625820E+02  0.15204445149E+02 -0.28905921068E+02  0.49652639792E+02  0.00000000000E+00 0.  1.
</event>
<event>
12    1  0.8258923E-002  0.2166876E+03  0.7818608E-02  0.1136678E+00
         21   -1    0    0  501  502  0.00000000000E+00  0.00000000000E+00  0.89489693431E+02  0.89489693431E+02  0.00000000000E+00 0. -1.
         21   -1    0    0  502  503 -0.00000000000E+00 -0.00000000000E+00 -0.11669670256E+04  0.11669670256E+04  0.00000000000E+00 0.  1.
         -6    2    1    2    0  503 -0.11933680271E+03 -0.49391287504E+02 -0.10053116991E+04  0.10280679813E+04  0.17202148154E+03 0.  0.
        -24    2    3    3    0    0 -0.12300265090E+03  0.13437675031E+01 -0.88863489757E+03  0.90069824291E+03  0.80336080005E+02 0.  0.
          6    2    1    2  501    0  0.11933680271E+03  0.49391287504E+02 -0.72165633149E+02  0.22838873778E+03  0.17399070428E+03 0.  0.
         24    2    5    5    0    0  0.63266330295E+02  0.13957276502E+02 -0.11090321165E+03  0.15143318567E+03  0.80218783671E+02 0.  0.
          5    1    5    5  501    0  0.56070472420E+02  0.35434011001E+02  0.38737578497E+02  0.76955552112E+02  0.47000000000E+01 0. -1.
        -11    1    6    6    0    0  0.10140292036E+02 -0.31394836225E+02 -0.40804457118E+02  0.52473469343E+02  0.00000000000E+00 0.  1.
         12    1    6    6    0    0  0.53126038258E+02  0.45352112728E+02 -0.70098754527E+02  0.98959716330E+02  0.00000000000E+00 0. -1.
         -5    1    3    3    0  503  0.36658481852E+01 -0.50735055007E+02 -0.11667680149E+03  0.12736973838E+03  0.47000000000E+01 0.  1.
         11    1    4    4    0    0 -0.18832466206E+02 -0.48550171125E+01 -0.30046732949E+02  0.35791607053E+02  0.00000000000E+00 0. -1.
        -12    1    4    4    0    0 -0.10417018469E+03  0.61987846157E+01 -0.85858816462E+03  0.86490663585E+03  0.00000000000E+00 0.  1.
</event>
<event>
12    1  0.8258923E-002  0.2727784E+03  0.7818608E-02  0.1099906E+00
         21   -1    0    0  503  502  0.00000000000E+00  0.00000000000E+00  0.67655606624E+03  0.67655606624E+03  0.00000000000E+00 0. -1.
         21   -1    0    0  501  503 -0.00000000000E+00 -0.00000000000E+00 -0.60679696826E+03  0.60679696826E+03  0.00000000000E+00 0.  1.
          6    2    1    2  501    0 -0.10504579331E+03  0.18391599802E+03 -0.54609971201E+03  0.60978781392E+03  0.16957762096E+03 0.  0.
         24    2    3    3    0    0 -0.99216733152E+02  0.68416098156E+02 -0.21487027908E+03  0.25891856185E+03  0.79654643390E+02 0.  0.
         -6    2    1    2    0  502  0.10504579331E+03 -0.18391599802E+03  0.61585880999E+03  0.67356522057E+03  0.17189624631E+03 0.  0.
        -24    2    5    5    0    0  0.56625370922E+02 -0.16288431347E+02  0.20313403103E+03  0.22544986535E+03  0.78054222154E+02 0.  0.
          5    1    3    3  501    0 -0.58290601596E+01  0.11549989986E+03 -0.33122943293E+03  0.35086925207E+03  0.47000000000E+01 0. -1.
        -11    1    4    4    0    0 -0.11178882949E+03  0.54171192365E+02 -0.19661827262E+03  0.23257258138E+03  0.00000000000E+00 0.  1.
         12    1    4    4    0    0  0.12572096333E+02  0.14244905792E+02 -0.18252006458E+02  0.26345980471E+02  0.00000000000E+00 0. -1.
         -5    1    5    5    0  502  0.48420422390E+02 -0.16762756667E+03  0.41272477897E+03  0.44811535522E+03  0.47000000000E+01 0.  1.
         13    1    6    6    0    0  0.10471630210E+02 -0.38711874364E+02  0.13047235906E+03  0.13649652279E+03  0.00000000000E+00 0. -1.
        -14    1    6    6    0    0  0.46153740712E+02  0.22423443018E+02  0.72661671968E+02  0.88953342554E+02  0.00000000000E+00 0.  1.
</event>
<event>
12    1  0.8258923E-002  0.4486923E+03  0.7818608E-02  0.1028123E+00
         21   -1    0    0  501  502  0.00000000000E+00  0.00000000000E+00  0.12653109516E+04  0.12653109516E+04  0.00000000000E+00 0. -1.
         21   -1    0    0  502  503 -0.00000000000E+00 -0.00000000000E+00 -0.33841388245E+03  0.33841388245E+03  0.00000000000E+00 0.  1.
         -6    2    1    2    0  503  0.24687268074E+03  0.33281428923E+03 -0.12026815872E+03  0.46453116933E+03  0.17208516979E+03 0.  0.
        -24    2    3    3    0    0  0.20772051148E+03  0.19288814011E+03 -0.12210692560E+03  0.31914310025E+03  0.81170017093E+02 0.  0.
          6    2    1    2  501    0 -0.24687268074E+03 -0.33281428923E+03  0.10471652279E+04  0.11391936647E+04  0.17174317938E+03 0.  0.
         24    2    5    5    0    0 -0.11424629412E+03 -0.16665573874E+03  0.37016656048E+03  0.42958270935E+03  0.81802632602E+02 0.  0.
          5    1    5    5  501    0 -0.13262638662E+03 -0.16615855049E+03  0.67699866741E+03  0.70961095539E+03  0.47000000000E+01 0. -1.
        -11    1    6    6    0    0 -0.39470020360E+02 -0.58743204183E+01  0.82749090753E+02  0.91868395916E+02  0.00000000000E+00 0.  1.
         12    1    6    6    0    0 -0.74776273761E+02 -0.16078141832E+03  0.28741746972E+03  0.33771431343E+03  0.00000000000E+00 0. -1.
         -5    1    3    3    0  503  0.39152169262E+02  0.13992614912E+03  0.18387668861E+01  0.14538806907E+03  0.47000000000E+01 0.  1.
         13    1    4    4    0    0  0.24532438695E+01 -0.71193197233E+01 -0.70441269586E+01  0.10311296883E+02  0.00000000000E+00 0. -1.
        -14    1    4    4    0    0  0.20526726761E+03  0.20000745983E+03 -0.11506279864E+03  0.30883180337E+03  0.00000000000E+00 0.  1.
</event>
<event>
12    1  0.8258923E-002  0.2018450E+03  0.7818608E-02  0.1148219E+00
         21   -1    0    0  501  502  0.00000000000E+00  0.00000000000E+00  0.37729492552E+03  0.37729492552E+03  0.00000000000E+00 0. -1.
         21   -1    0    0  502  503 -0.00000000000E+00 -0.00000000000E+00 -0.42667659408E+03  0.42667659408E+03  0.00000000000E+00 0. -1.
         -6    2    1    2    0  503 -0.32462743314E+02 -0.99419831576E+02 -0.37214182526E+03  0.42329382430E+03  0.17248185692E+03 0.  0.
        -24    2    3    3    0    0  0.10904550481E+02 -0.79560633583E+02 -0.35459379475E+03  0.37225331793E+03  0.79918519727E+02 0.  0.
          6    2    1    2  501    0  0.32462743314E+02  0.99419831576E+02  0.32276015670E+03  0.38067769530E+03  0.17263619648E+03 0.  0.
         24    2    5    5    0    0  0.69081145009E+02  0.10321404741E+03  0.20506519588E+03  0.25726984620E+03  0.93331104278E+02 0.  0.
          5    1    5    5  501    0 -0.36618401695E+02 -0.37942158350E+01  0.11769496082E+03  0.12340784910E+03  0.47000000000E+01 0. -1.
        -13    1    6    6    0    0  0.10240653200E+02  0.10297899145E+02 -0.86589264717E+01  0.16908421346E+02  0.00000000000E+00 0.  1.
         14    1    6    6    0    0  0.58840491810E+02  0.92916148265E+02  0.21372412235E+03  0.24036142486E+03  0.00000000000E+00 0. -1.
         -5    1    3    3    0  503 -0.43367293795E+02 -0.19859197993E+02 -0.17548030512E+02  0.51040506373E+02  0.47000000000E+01 0.  1.
         11    1    4    4    0    0  0.26416484737E+02 -0.17092145801E+02 -0.38737965205E+02  0.49905932134E+02  0.00000000000E+00 0. -1.
        -12    1    4    4    0    0 -0.15511934257E+02 -0.62468487782E+02 -0.31585582955E+03  0.32234738579E+03  0.00000000000E+00 0.  1.
</event>
<event>
12    1  0.8258923E-002  0.1778678E+03  0.7818608E-02  0.1170102E+00
         21   -1    0    0  501  502  0.00000000000E+00  0.00000000000E+00  0.25177851818E+03  0.25177851818E+03  0.00000000000E+00 0. -1.
         21   -1    0    0  502  503 -0.00000000000E+00 -0.00000000000E+00 -0.20802059332E+03  0.20802059332E+03  0.00000000000E+00 0. -1.
         -6    2    1    2    0  503  0.65482297430E+01  0.41636951537E+02 -0.12330156556E+03  0.21642606460E+03  0.17280176597E+03 0.  0.
        -24    2    3    3    0    0  0.35051733762E+02  0.83124304976E+02 -0.11272632934E+03  0.16477748419E+03  0.79411081432E+02 0.  0.
          6    2    1    2  501    0 -0.65482297430E+01 -0.41636951537E+02  0.16705949042E+03  0.24337304689E+03  0.17188674053E+03 0.  0.
         24    2    5    5    0    0 -0.68561662974E+02 -0.42307224074E+02  0.10974997261E+03  0.15880008432E+03  0.81742323522E+02 0.  0.
          5    1    5    5  501    0  0.62013433231E+02  0.67027253688E+00  0.57309517812E+02  0.84572962572E+02  0.47000000000E+01 0. -1.
        -13    1    6    6    0    0 -0.10238062905E+02 -0.39020117972E+02  0.74889684446E+01  0.41030137545E+02  0.00000000000E+00 0.  1.
         14    1    6    6    0    0 -0.58323600068E+02 -0.32871061027E+01  0.10226100416E+03  0.11776994678E+03  0.00000000000E+00 0. -1.
         -5    1    3    3    0  503 -0.28503504019E+02 -0.41487353439E+02 -0.10575236223E+02  0.51648580405E+02  0.47000000000E+01 0.  1.
         11    1    4    4    0    0 -0.16680132200E+02 -0.17841259890E+01 -0.34157883794E+02  0.38054841230E+02  0.00000000000E+00 0. -1.
        -12    1    4    4    0    0  0.51731865962E+02  0.84908430965E+02 -0.78568445544E+02  0.12672264297E+03  0.00000000000E+00 0.  1.
</event>
<event>
12    1  0.8258923E-002  0.2826161E+03  0.7818608E-02  0.1094368E+00
         21   -1    0    0  501  502  0.00000000000E+00  0.00000000000E+00  0.47300304252E+03  0.47300304252E+03  0.00000000000E+00 0. -1.
         21   -1    0    0  502  503 -0.00000000000E+00 -0.00000000000E+00 -0.25986687858E+03  0.25986687858E+03  0.00000000000E+00 0.  1.
         -6    2    1    2    0  503 -0.55907498569E+02  0.21666418134E+03 -0.11071227257E+03  0.30352774335E+03  0.17263507120E+03 0.  0.
        -24    2    3    3    0    0  0.16929102631E+02  0.18477168940E+03 -0.55688457003E+02  0.20671859194E+03  0.72140143393E+02 0.  0.
          6    2    1    2  501    0  0.55907498569E+02 -0.21666418134E+03  0.32384843650E+03  0.42934217775E+03  0.17142893542E+03 0.  0.
         24    2    5    5    0    0  0.29940655842E+02 -0.12253982054E+03  0.28992003819E+03  0.32586803398E+03  0.78891675938E+02 0.  0.
          5    1    5    5  501    0  0.25966842727E+02 -0.94124360806E+02  0.33928398311E+02  0.10347414378E+03  0.47000000000E+01 0. -1.
        -11    1    6    6    0    0  0.28358188510E+02 -0.40078362198E+01  0.39319381685E+02  0.48644253338E+02  0.00000000000E+00 0.  1.
         12    1    6    6    0    0  0.15824673315E+01 -0.11853198432E+03  0.25060065651E+03  0.27722378064E+03  0.00000000000E+00 0. -1.
         -5    1    3    3    0  503 -0.72836601200E+02  0.31892491940E+02 -0.55023815568E+02  0.96809151407E+02  0.47000000000E+01 0.  1.
         13    1    4    4    0    0 -0.95483566952E+01  0.51397784714E+02  0.13725764664E+02  0.54049051839E+02  0.00000000000E+00 0. -1.
        -14    1    4    4    0    0  0.26477459327E+02  0.13337390469E+03 -0.69414221668E+02  0.15266954010E+03  0.00000000000E+00 0.  1.
</event>
<event>
12    1  0.8258923E-002  0.1846488E+03  0.7818608E-02  0.1163643E+00
         21   -1    0    0  503  502  0.00000000000E+00  0.00000000000E+00  0.23845547103E+03  0.23845547103E+03  0.00000000000E+00 0. -1.
         21   -1    0    0  501  503 -0.00000000000E+00 -0.00000000000E+00 -0.14858735496E+03  0.14858735496E+03  0.00000000000E+00 0. -1.
          6    2    1    2  501    0  0.50338609994E+02  0.43711585615E+02  0.85205786227E+02  0.20233512887E+03  0.17098187037E+03 0.  0.
         24    2    3    3    0    0  0.47944440325E+02 -0.12644466151E+02 -0.84279457624E+01  0.92922595835E+02  0.78134670056E+02 0.  0.
         -6    2    1    2    0  502 -0.50338609994E+02 -0.43711585615E+02  0.46623298448E+01  0.18470769712E+03  0.17219325679E+03 0.  0.
        -24    2    5    5    0    0  0.31038054439E+02  0.97369056184E+01 -0.10110198472E+01  0.87069694142E+02  0.80758537150E+02 0.  0.
          5    1    3    3  501    0  0.23941696693E+01  0.56356051766E+02  0.93633731990E+02  0.10941253304E+03  0.47000000000E+01 0. -1.
        -13    1    4    4    0    0 -0.19201559337E+02 -0.21701917143E+01  0.11008726976E+02  0.22239642143E+02  0.00000000000E+00 0.  1.
         14    1    4    4    0    0  0.67145999661E+02 -0.10474274437E+02 -0.19436672738E+02  0.70682953692E+02  0.00000000000E+00 0. -1.
         -5    1    5    5    0  502 -0.81376664433E+02 -0.53448491233E+02  0.56733496920E+01  0.97638002980E+02  0.47000000000E+01 0.  1.
         13    1    6    6    0    0 -0.38076960819E+01 -0.31558303951E+02 -0.74680129176E+01  0.32652661678E+02  0.00000000000E+00 0. -1.
        -14    1    6    6    0    0  0.34845750520E+02  0.41295209569E+02  0.64569930704E+01  0.54417032464E+02  0.00000000000E+00 0.  1.
</event>
<event>
12    1  0.8258923E-002  0.2403159E+03  0.7818608E-02  0.1119887E+00
         21   -1    0    0  501  502  0.00000000000E+00  0.00000000000E+00  0.14295141534E+03  0.14295141534E+03  0.00000000000E+00 0.  1.
         21   -1    0    0  502  503 -0.00000000000E+00 -0.00000000000E+00 -0.45246656935E+03  0.45246656935E+03  0.00000000000E+00 0. -1.
         -6    2    1    2    0  503  0.14474401498E+02 -0.16427967924E+03 -0.25470080936E+03  0.34892996917E+03  0.17228551822E+03 0.  0.
        -24    2    3    3    0    0  0.64644726301E+02 -0.53391539625E+02 -0.12600473760E+03  0.17173513323E+03  0.81155190501E+02 0.  0.
          6    2    1    2  501    0 -0.14474401498E+02  0.16427967924E+03 -0.54814344641E+02  0.24648801552E+03  0.17479819251E+03 0.  0.
         24    2    5    5    0    0  0.12584797251E+02  0.10448255189E+03  0.33315817290E+02  0.13650205224E+03  0.80298728584E+02 0.  0.
          5    1    5    5  501    0 -0.27059198749E+02  0.59797127354E+02 -0.88130161930E+02  0.10998596328E+03  0.47000000000E+01 0. -1.
        -11    1    6    6    0    0 -0.34260700569E+02  0.41748904711E+02  0.11383372817E+02  0.55193729940E+02  0.00000000000E+00 0.  1.
         12    1    6    6    0    0  0.46845497820E+02  0.62733647177E+02  0.21932444472E+02  0.81308322296E+02  0.00000000000E+00 0. -1.
         -5    1    3    3    0  503 -0.50170324803E+02 -0.11088813962E+03 -0.12869607177E+03  0.17719483595E+03  0.47000000000E+01 0.  1.
         11    1    4    4    0    0 -0.19130934635E+02 -0.59161829911E+01 -0.27118632760E+02  0.33710741966E+02  0.00000000000E+00 0. -1.
        -12    1    4    4    0    0  0.83775660936E+02 -0.47475356634E+02 -0.98886104837E+02  0.13802439126E+03  0.00000000000E+00 0.  1.
</event>
<event>
12    1  0.8258923E-002  0.2773527E+03  0.7818608E-02  0.1097393E+00
         21   -1    0    0  503  502  0.00000000000E+00  0.00000000000E+00  0.89177840841E+03  0.89177840841E+03  0.00000000000E+00 0.  1.
         21   -1    0    0  501  503 -0.00000000000E+00 -0.00000000000E+00 -0.85722210060E+02  0.85722210060E+02  0.00000000000E+00 0. -1.
          6    2    1    2  501    0 -0.89441166210E+02  0.19441997961E+03  0.39404595841E+03  0.48083477448E+03  0.17358286873E+03 0.  0.
         24    2    3    3    0    0 -0.12531224671E+03  0.12491639342E+03  0.24501393302E+03  0.31245984314E+03  0.79322516844E+02 0.  0.
         -6    2    1    2    0  502  0.89441166210E+02 -0.19441997961E+03  0.41201023994E+03  0.49666584400E+03  0.17642469241E+03 0.  0.
        -24    2    5    5    0    0  0.43554503132E+02 -0.13994838030E+03  0.38601624830E+03  0.42070191452E+03  0.80616456369E+02 0.  0.
          5    1    3    3  501    0  0.35871080504E+02  0.69503586187E+02  0.14903202539E+03  0.16837493133E+03  0.47000000000E+01 0. -1.
        -11    1    4    4    0    0 -0.16192440886E+02  0.67624766146E+02  0.72633912757E+02  0.10055341576E+03  0.00000000000E+00 0.  1.
         12    1    4    4    0    0 -0.10911980583E+03  0.57291627279E+02  0.17238002027E+03  0.21190642738E+03  0.00000000000E+00 0. -1.
         -5    1    5    5    0  502  0.45886663078E+02 -0.54471599314E+02  0.25993991638E+02  0.75963929476E+02  0.47000000000E+01 0.  1.
         13    1    6    6    0    0  0.14265160587E+02  0.77092547088E+01  0.48462620988E+02  0.51103356521E+02  0.00000000000E+00 0. -1.
        -14    1    6    6    0    0  0.29289342545E+02 -0.14765763501E+03  0.33755362732E+03  0.36959855800E+03  0.00000000000E+00 0.  1.
</event>
<event>
12    1  0.8258923E-002  0.2228262E+03  0.7818608E-02  0.1132002E+00
         21   -1    0    0  503  502  0.00000000000E+00  0.00000000000E+00  0.58179403197E+02  0.58179403197E+02  0.00000000000E+00 0.  1.
         21   -1    0    0  501  503 -0.00000000000E+00 -0.00000000000E+00 -0.12639124432E+04  0.12639124432E+04  0.00000000000E+00 0. -1.
          6    2    1    2  501    0 -0.40085815937E+02 -0.13541699208E+03 -0.98054541057E+03  0.10052938339E+04  0.17088521280E+03 0.  0.
         24    2    3    3    0    0  0.16719141924E+02 -0.14255952228E+03 -0.69587467078E+03  0.71488491693E+03  0.78842500758E+02 0.  0.
         -6    2    1    2    0  502  0.40085815937E+02  0.13541699208E+03 -0.22518762940E+03  0.31679801244E+03  0.17235683296E+03 0.  0.
        -24    2    5    5    0    0  0.46711842931E+02  0.16182347618E+03 -0.22172703170E+03  0.28895429909E+03  0.77219665010E+02 0.  0.
          5    1    3    3  501    0 -0.56804957861E+02  0.71425302024E+01 -0.28467073979E+03  0.29040891699E+03  0.47000000000E+01 0. -1.
        -13    1    4    4    0    0  0.25117107396E+02 -0.31871237326E+02 -0.87313424455E+02  0.96282287793E+02  0.00000000000E+00 0.  1.
         14    1    4    4    0    0 -0.83979654719E+01 -0.11068828495E+03 -0.60856124632E+03  0.61860262914E+03  0.00000000000E+00 0. -1.
         -5    1    5    5    0  502 -0.66260269945E+01 -0.26406484106E+02 -0.34605977036E+01  0.27843713349E+02  0.47000000000E+01 0.  1.
         13    1    6    6    0    0  0.66922109688E+02  0.10217535811E+03 -0.15206568189E+03  0.19504446718E+03  0.00000000000E+00 0. -1.
        -14    1    6    6    0    0 -0.20210266757E+02  0.59648118075E+02 -0.69661349804E+02  0.93909831907E+02  0.00000000000E+00 0.  1.
</event>
<event>
12    1  0.8258923E-002  0.2139907E+03  0.7818608E-02  0.1138519E+00
         21   -1    0    0  503  502  0.00000000000E+00  0.00000000000E+00  0.43357626092E+03  0.43357626092E+03  0.00000000000E+00 0.  1.
         21   -1    0    0  501  503 -0.00000000000E+00 -0.00000000000E+00 -0.10735912468E+03  0.10735912468E+03  0.00000000000E+00 0.  1.
          6    2    1    2  501    0 -0.12240199083E+03 -0.30316444892E+02  0.19956895938E+03  0.29260859961E+03  0.17288923860E+03 0.  0.
         24    2    3    3    0    0 -0.13970768184E+03  0.14779572285E+02  0.17616819340E+03  0.23873074186E+03  0.78869909471E+02 0.  0.
         -6    2    1    2    0  502  0.12240199083E+03  0.30316444892E+02  0.12664817686E+03  0.24832678599E+03  0.17240967997E+03 0.  0.
        -24    2    5    5    0    0  0.13818805853E+03 -0.12658181783E+02  0.84643587328E+02  0.18601712371E+03  0.90452553044E+02 0.  0.
          5    1    3    3  501    0  0.17305691015E+02 -0.45096017177E+02  0.23400765980E+02  0.53877857745E+02  0.47000000000E+01 0. -1.
        -13    1    4    4    0    0 -0.25312999926E+02 -0.41499664603E+01 -0.24609124753E+01  0.25768707323E+02  0.00000000000E+00 0.  1.
         14    1    4    4    0    0 -0.11439468192E+03  0.18929538745E+02  0.17862910588E+03  0.21296203454E+03  0.00000000000E+00 0. -1.
         -5    1    5    5    0  502 -0.15786067702E+02  0.42974626675E+02  0.42004589530E+02  0.62309662276E+02  0.47000000000E+01 0.  1.
         11    1    6    6    0    0  0.17356990676E+01 -0.27742656004E+02  0.86926681146E+01  0.29124389991E+02  0.00000000000E+00 0. -1.
        -12    1    6    6    0    0  0.13645235946E+03  0.15084474221E+02  0.75950919214E+02  0.15689273372E+03  0.00000000000E+00 0.  1.
</event>
<event>
12    1  0.8258923E-002  0.1767207E+03  0.7818608E-02  0.1171306E+00
         21   -1    0    0  503  502  0.00000000000E+00  0.00000000000E+00  0.46740817588E+03  0.46740817588E+03  0.00000000000E+00 0. -1.
         21   -1    0    0  501  503 -0.00000000000E+00 -0.00000000000E+00 -0.24954660746E+03  0.24954660746E+03  0.00000000000E+00 0. -1.
          6    2    1    2  501    0  0.31544869663E+02  0.23036122621E+02 -0.19809783753E+03  0.26546746808E+03  0.17234988143E+03 0.  0.
         24    2    3    3    0    0  0.24779423716E+02  0.32032383086E+01 -0.21837415001E+02  0.87903560970E+02  0.81399525564E+02 0.  0.
         -6    2    1    2    0  502 -0.31544869663E+02 -0.23036122621E+02  0.41595940595E+03  0.45148731526E+03  0.17115147296E+03 0.  0.
        -24    2    5    5    0    0 -0.28730319242E+01  0.33120308428E+02  0.10040123142E+03  0.12965712628E+03  0.75002359844E+02 0.  0.
          5    1    3    3  501    0  0.67654459469E+01  0.19832884312E+02 -0.17626042253E+03  0.17756390711E+03  0.47000000000E+01 0. -1.
        -11    1    4    4    0    0  0.32366272247E+02  0.30441425823E+02 -0.35146549164E+02  0.56652766071E+02  0.00000000000E+00 0.  1.
         12    1    4    4    0    0 -0.75868485318E+01 -0.27238187514E+02  0.13309134163E+02  0.31250794900E+02  0.00000000000E+00 0. -1.
         -5    1    5    5    0  502 -0.28671837738E+02 -0.56156431049E+02  0.31555817453E+03  0.32183018898E+03  0.47000000000E+01 0.  1.
         11    1    6    6    0    0  0.83325879433E+01  0.36649062835E+02  0.10886991350E+03  0.11517484054E+03  0.00000000000E+00 0. -1.
        -12    1    6    6    0    0 -0.11205619867E+02 -0.35287544074E+01 -0.84686820746E+01  0.14482285744E+02  0.00000000000E+00 0.  1.
</event>
<event>
12    1  0.8258923E-002  0.1923388E+03  0.7818608E-02  0.1156701E+00
         21   -1    0    0  503  502  0.00000000000E+00  0.00000000000E+00  0.34147041705E+03  0.34147041705E+03  0.00000000000E+00 0.  1.
         21   -1    0    0  501  503 -0.00000000000E+00 -0.00000000000E+00 -0.40759430351E+03  0.40759430351E+03  0.00000000000E+00 0.  1.
          6    2    1    2  501    0  0.77608655374E+02  0.21631704722E+02 -0.35439624214E+03  0.40251724283E+03  0.17300982717E+03 0.  0.
         24    2    3    3    0    0  0.58998284184E+02 -0.52013790012E+02 -0.14701833963E+03  0.18161525267E+03  0.71996360508E+02 0.  0.
         -6    2    1    2    0  502 -0.77608655374E+02 -0.21631704722E+02  0.28827235568E+03  0.34654747773E+03  0.17465156521E+03 0.  0.
        -24    2    5    5    0    0  0.25743108021E+02 -0.13145151509E+02  0.86143879589E+02  0.11932155616E+03  0.77339273052E+02 0.  0.
          5    1    3    3  501    0  0.18610371190E+02  0.73645494733E+02 -0.20737790250E+03  0.22090199016E+03  0.47000000000E+01 0. -1.
        -13    1    4    4    0    0  0.65304485980E+02 -0.42528840280E+02 -0.15068904371E+03  0.16964835997E+03  0.00000000000E+00 0.  1.
         14    1    4    4    0    0 -0.63062017961E+01 -0.94849497316E+01  0.36707040809E+01  0.11966892703E+02  0.00000000000E+00 0. -1.
         -5    1    5    5    0  502 -0.10335176339E+03 -0.84865532128E+01  0.20212847609E+03  0.22722592156E+03  0.47000000000E+01 0.  1.
         11    1    6    6    0    0  0.13441134714E+02  0.32522026682E+02  0.39344697875E+02  0.52785903163E+02  0.00000000000E+00 0. -1.
        -12    1    6    6    0    0  0.12301973306E+02 -0.45667178191E+02  0.46799181714E+02  0.66535653001E+02  0.00000000000E+00 0.  1.
</event>
<event>
12    1  0.8258923E-002  0.1721644E+03  0.7818608E-02  0.1175646E+00
         21   -1    0    0  503  502  0.00000000000E+00  0.00000000000E+00  0.19651050568E+03  0.19651050568E+03  0.00000000000E+00 0.  1.
         21   -1    0    0  501  503 -0.00000000000E+00 -0.00000000000E+00 -0.16392779585E+03  0.16392779585E+03  0.00000000000E+00 0.  1.
          6    2    1    2  501    0 -0.62575721556E+01  0.67939705913E+01 -0.34892021673E+02  0.17552362717E+03  0.17177245202E+03 0.  0.
         24    2    3    3    0    0 -0.49742441692E+02  0.95282080424E+01 -0.71796732159E+02  0.11823089125E+03  0.79111792063E+02 0.  0.
         -6    2    1    2    0  502  0.62575721556E+01 -0.67939705913E+01  0.67474731496E+02  0.18491467436E+03  0.17191649763E+03 0.  0.
        -24    2    5    5    0    0 -0.21071660625E+02 -0.86465266821E+01  0.10369873589E+03  0.13925739210E+03  0.90113351532E+02 0.  0.
          5    1    3    3  501    0  0.43484869536E+02 -0.27342374511E+01  0.36904710485E+02  0.57292735919E+02  0.47000000000E+01 0. -1.
        -11    1    4    4    0    0  0.14538328614E+02 -0.37692924413E+01  0.62345969769E+01  0.16261634723E+02  0.00000000000E+00 0.  1.
         12    1    4    4    0    0 -0.64280770306E+02  0.13297500484E+02 -0.78031329136E+02  0.10196925653E+03  0.00000000000E+00 0. -1.
         -5    1    5    5    0  502  0.27329232780E+02  0.18525560908E+01 -0.36224004398E+02  0.45657282257E+02  0.47000000000E+01 0.  1.
         11    1    6    6    0    0 -0.34051644182E-01 -0.23767751183E+02 -0.76232075976E+01  0.24960377599E+02  0.00000000000E+00 0. -1.
        -12    1    6    6    0    0 -0.21037608981E+02  0.15121224500E+02  0.11132194349E+03  0.11429701450E+03  0.00000000000E+00 0.  1.
</event>
<event>
12    1  0.8258923E-002  0.1918843E+03  0.7818608E-02  0.1157092E+00
         21   -1    0    0  501  502  0.00000000000E+00  0.00000000000E+00  0.30958125853E+02  0.30958125853E+02  0.00000000000E+00 0.  1.
         21   -1    0    0  502  503 -0.00000000000E+00 -0.00000000000E+00 -0.12570668704E+04  0.12570668704E+04  0.00000000000E+00 0. -1.
         -6    2    1    2    0  503 -0.22419377287E+01  0.84067391678E+02 -0.77413595242E+03  0.79756256763E+03  0.17247383519E+03 0.  0.
        -24    2    3    3    0    0  0.61191866679E+02  0.63949911456E+02 -0.41073470106E+03  0.42808845481E+03  0.81992040869E+02 0.  0.
          6    2    1    2  501    0  0.22419377287E+01 -0.84067391678E+02 -0.45197279217E+03  0.49046242867E+03  0.17088486312E+03 0.  0.
         24    2    5    5    0    0 -0.51059413483E+02 -0.63242597961E+01 -0.19230085536E+03  0.21417157945E+03  0.79011306176E+02 0.  0.
          5    1    5    5  501    0  0.53301351211E+02 -0.77743131882E+02 -0.25967193681E+03  0.27629084922E+03  0.47000000000E+01 0. -1.
        -13    1    6    6    0    0 -0.44110704678E+02 -0.40115562683E+02 -0.12780775374E+03  0.14103132472E+03  0.00000000000E+00 0.  1.
         14    1    6    6    0    0 -0.69487088042E+01  0.33791302887E+02 -0.64493101624E+02  0.73140254730E+02  0.00000000000E+00 0. -1.
         -5    1    3    3    0  503 -0.63433804408E+02  0.20117480222E+02 -0.36340125136E+03  0.36947411282E+03  0.47000000000E+01 0.  1.
         11    1    4    4    0    0  0.31258745702E+02 -0.14658923419E+02 -0.15784245018E+03  0.16157423154E+03  0.00000000000E+00 0. -1.
        -12    1    4    4    0    0  0.29933120977E+02  0.78608834875E+02 -0.25289225088E+03  0.26651422327E+03  0.00000000000E+00 0.  1.
</event>
<event>
12    1  0.8258923E-002  0.1835173E+03  0.7818608E-02  0.1164444E+00
         21   -1    0    0  503  502  0.00000000000E+00  0.00000000000E+00  0.61708826748E+03  0.61708826748E+03  0.00000000000E+00 0. -1.
         21   -1    0    0  501  503 -0.00000000000E+00 -0.00000000000E+00 -0.64099083828E+02  0.64099083828E+02  0.00000000000E+00 0. -1.
          6    2    1    2  501    0  0.59408811662E+01 -0.63386020123E+02  0.14518858069E+03  0.23399620965E+03  0.17210874630E+03 0.  0.
         24    2    3    3    0    0 -0.44476657600E+02  0.12234942126E+02  0.79867271887E+02  0.12197200900E+03  0.79815556013E+02 0.  0.
         -6    2    1    2    0  502 -0.59408811662E+01  0.63386020123E+02  0.40780060296E+03  0.44719114166E+03  0.17212060825E+03 0.  0.
        -24    2    5    5    0    0 -0.69821349141E+02  0.38251873254E+02  0.23251606420E+03  0.25888501043E+03  0.81360321489E+02 0.  0.
          5    1    3    3  501    0  0.50417538767E+02 -0.75620962249E+02  0.65321308802E+02  0.11202420065E+03  0.47000000000E+01 0. -1.
        -13    1    4    4    0    0 -0.51575794557E+02  0.20085369774E+02  0.16541340124E+02  0.57767643160E+02  0.00000000000E+00 0.  1.
         14    1    4    4    0    0  0.70991369563E+01 -0.78504276480E+01  0.63325931763E+02  0.64204365844E+02  0.00000000000E+00 0. -1.
         -5    1    5    5    0  502  0.63880467975E+02  0.25134146869E+02  0.17528453877E+03  0.18830613123E+03  0.47000000000E+01 0.  1.
         13    1    6    6    0    0 -0.13829878594E+02  0.48835594765E+02  0.68520020936E+02  0.85271179932E+02  0.00000000000E+00 0. -1.
        -14    1    6    6    0    0 -0.55991470546E+02 -0.10583721512E+02  0.16399604326E+03  0.17361383050E+03  0.00000000000E+00 0.  1.
</event>
<event>
12    1  0.8258923E-002  0.3761851E+03  0.7818608E-02  0.1052456E+00
         21   -1    0    0  503  502  0.00000000000E+00  0.00000000000E+00  0.84295960988E+03  0.84295960988E+03  0.00000000000E+00 0.  1.
         21   -1    0    0  501  503 -0.00000000000E+00 -0.00000000000E+00 -0.18645038098E+03  0.18645038098E+03  0.00000000000E+00 0.  1.
          6    2    1    2  501    0  0.18287438740E+03 -0.27970175265E+03  0.49326954136E+03  0.62034674615E+03  0.17274007357E+03 0.  0.
         24    2    3    3    0    0  0.10203247439E+03 -0.26385798861E+03  0.37771250082E+03  0.47835393162E+03  0.78256543741E+02 0.  0.
         -6    2    1    2    0  502 -0.18287438740E+03  0.27970175265E+03  0.16323968753E+03  0.40906324471E+03  0.17032155056E+03 0.  0.
        -24    2    5    5    0    0 -0.41999930360E+02  0.10416682456E+03  0.11892330513E+02  0.13779541377E+03  0.78939388407E+02 0.  0.
          5    1    3    3  501    0  0.80841913012E+02 -0.15843764039E+02  0.11555704054E+03  0.14199281452E+03  0.47000000000E+01 0. -1.
        -13    1    4    4    0    0  0.33059403292E+02 -0.16696256888E+03  0.26189047045E+03  0.31233962615E+03  0.00000000000E+00 0.  1.
         14    1    4    4    0    0  0.68973071098E+02 -0.96895419726E+02  0.11582203038E+03  0.16601430547E+03  0.00000000000E+00 0. -1.
         -5    1    5    5    0  502 -0.14087445704E+03  0.17553492808E+03  0.15134735702E+03  0.27126783094E+03  0.47000000000E+01 0.  1.
         13    1    6    6    0    0 -0.36459107772E+02  0.11735518711E+03  0.91365048106E+01  0.12322735979E+03  0.00000000000E+00 0. -1.
        -14    1    6    6    0    0 -0.55408225874E+01 -0.13188362545E+02  0.27558257020E+01  0.14568053983E+02  0.00000000000E+00 0.  1.
</event>
<event>
12    1  0.8258923E-002  0.2137777E+03  0.7818608E-02  0.1139663E+00
         21   -1    0    0  501  502  0.00000000000E+00  0.00000000000E+00  0.10420840219E+03  0.10420840219E+03  0.00000000000E+00 0.  1.
         21   -1    0    0  502  503 -0.00000000000E+00 -0.00000000000E+00 -0.43529286759E+03  0.43529286759E+03  0.00000000000E+00 0. -1.
         -6    2    1    2    0  503 -0.84287703860E+02  0.82680125073E+02 -0.13173975333E+03  0.25111003881E+03  0.17821467078E+03 0.  0.
        -24    2    3    3    0    0  0.61394649190E+01 -0.54051140952E+01 -0.82326966995E+02  0.11546419234E+03  0.80544037206E+02 0.  0.
          6    2    1    2  501    0  0.84287703860E+02 -0.82680125073E+02 -0.19934471207E+03  0.28839123096E+03  0.17172876219E+03 0.  0.
         24    2    5    5    0    0  0.10050172757E+03 -0.61223081254E+01 -0.13696898356E+03  0.18820732304E+03  0.80767654936E+02 0.  0.
          5    1    5    5  501    0 -0.16214023714E+02 -0.76557816947E+02 -0.62375728505E+02  0.10018390793E+03  0.47000000000E+01 0. -1.
        -13    1    6    6    0    0  0.10206941012E+03 -0.29028349819E+02 -0.11307956161E+03  0.15507352072E+03  0.00000000000E+00 0.  1.
         14    1    6    6    0    0 -0.15676825419E+01  0.22906041694E+02 -0.23889421953E+02  0.33133802316E+02  0.00000000000E+00 0. -1.
         -5    1    3    3    0  503 -0.90427168779E+02  0.88085239168E+02 -0.49412786339E+02  0.13564584648E+03  0.47000000000E+01 0.  1.
         13    1    4    4    0    0  0.28247552599E+02 -0.58185319056E+01 -0.88025511192E+02  0.92629747716E+02  0.00000000000E+00 0. -1.
        -14    1    4    4    0    0 -0.22108087680E+02  0.41341781032E+00  0.56985441974E+01  0.22834444620E+02  0.00000000000E+00 0.  1.
</event>
<event>
12    1  0.8258923E-002  0.2250218E+03  0.7818608E-02  0.1130532E+00
         21   -1    0    0  503  502  0.00000000000E+00  0.00000000000E+00  0.46218699575E+02  0.46218699575E+02  0.00000000000E+00 0.  1.
         21   -1    0    0  501  503 -0.00000000000E+00 -0.00000000000E+00 -0.10939719155E+04  0.10939719155E+04  0.00000000000E+00 0. -1.
          6    2    1    2  501    0 -0.67734900300E+02  0.12681581497E+03 -0.47458310394E+03  0.52443190507E+03  0.17067346856E+03 0.  0.
         24    2    3    3    0    0 -0.47368069032E+01  0.14084278709E+03 -0.36385560636E+03  0.39618142968E+03  0.68627217127E+02 0.  0.
         -6    2    1    2    0  502  0.67734900300E+02 -0.12681581497E+03 -0.57317011201E+03  0.61575871003E+03  0.17310269790E+03 0.  0.
        -24    2    5    5    0    0  0.24359703851E+02 -0.29640417434E+02 -0.11225243079E+03  0.14269247320E+03  0.79300593780E+02 0.  0.
          5    1    3    3  501    0 -0.62998093397E+02 -0.14026972117E+02 -0.11072749758E+03  0.12825047539E+03  0.47000000000E+01 0. -1.
        -13    1    4    4    0    0 -0.34879447493E+01  0.39886045727E+02 -0.38597210357E+02  0.55613011514E+02  0.00000000000E+00 0.  1.
         14    1    4    4    0    0 -0.12488621539E+01  0.10095674136E+03 -0.32525839600E+03  0.34056841817E+03  0.00000000000E+00 0. -1.
         -5    1    5    5    0  502  0.43375196449E+02 -0.97175397539E+02 -0.46091768123E+03  0.47306623682E+03  0.47000000000E+01 0.  1.
         11    1    6    6    0    0 -0.40079110158E+01 -0.23448997700E+02 -0.11111689012E+03  0.11363486311E+03  0.00000000000E+00 0. -1.
        -12    1    6    6    0    0  0.28367614867E+02 -0.61914197341E+01 -0.11355406625E+01  0.29057610090E+02  0.00000000000E+00 0.  1.
</event>
<event>
12    1  0.8258923E-002  0.2092793E+03  0.7818608E-02  0.1142177E+00
         21   -1    0    0  501  502  0.00000000000E+00  0.00000000000E+00  0.45460679189E+02  0.45460679189E+02  0.00000000000E+00 0.  1.
         21   -1    0    0  502  503 -0.00000000000E+00 -0.00000000000E+00 -0.13103087905E+04  0.13103087905E+04  0.00000000000E+00 0. -1.
         -6    2    1    2    0  503  0.11510447320E+03 -0.27876470211E+02 -0.98187567087E+03  0.10039310987E+04  0.17254472034E+03 0.  0.
        -24    2    3    3    0    0  0.38844140107E+02  0.25189530962E+02 -0.25453062364E+03  0.27066133481E+03  0.79550864859E+02 0.  0.
          6    2    1    2  501    0 -0.11510447320E+03  0.27876470211E+02 -0.28297244042E+03  0.35183837098E+03  0.17230989500E+03 0.  0.
         24    2    5    5    0    0  0.28450380628E+01  0.31394593876E+01 -0.15743620729E+03  0.17775378596E+03  0.82415402766E+02 0.  0.
          5    1    5    5  501    0 -0.11794951126E+03  0.24737010824E+02 -0.12553623313E+03  0.17408458501E+03  0.47000000000E+01 0. -1.
        -13    1    6    6    0    0  0.65522228735E-02  0.38247871949E+02 -0.12173303390E+03  0.12760027936E+03  0.00000000000E+00 0.  1.
         14    1    6    6    0    0  0.28384858399E+01 -0.35108412561E+02 -0.35703173390E+02  0.50153506603E+02  0.00000000000E+00 0. -1.
         -5    1    3    3    0  503  0.76260333091E+02 -0.53066001173E+02 -0.72734504723E+03  0.73326976387E+03  0.47000000000E+01 0.  1.
         11    1    4    4    0    0  0.11940805917E+02  0.47254584067E+02 -0.20093502141E+03  0.20676184704E+03  0.00000000000E+00 0. -1.
        -12    1    4    4    0    0  0.26903334190E+02 -0.22065053106E+02 -0.53595602228E+02  0.63899487770E+02  0.00000000000E+00 0.  1.
</event>
<event>
12    1  0.8258923E-002  0.2576721E+03  0.7818608E-02  0.1110914E+00
         21   -1    0    0  501  502  0.00000000000E+00  0.00000000000E+00  0.17891420588E+03  0.17891420588E+03  0.00000000000E+00 0. -1.
         21   -1    0    0  502  503 -0.00000000000E+00 -0.00000000000E+00 -0.34986639748E+03  0.34986639748E+03  0.00000000000E+00 0. -1.
         -6    2    1    2    0  503 -0.26512371504E+02 -0.16940753949E+03 -0.88359076435E+02  0.25819508600E+03  0.17162620944E+03 0.  0.
        -24    2    3    3    0    0  0.37425019424E+01 -0.11109229072E+03 -0.12296187936E+03  0.18379434960E+03  0.79405514855E+02 0.  0.
          6    2    1    2  501    0  0.26512371504E+02  0.16940753949E+03 -0.82593115167E+02  0.27058551737E+03  0.19233585017E+03 0.  0.
         24    2    5    5    0    0 -0.82075311500E+01  0.19700490892E+02 -0.82992906917E+02  0.11683272269E+03  0.79414038956E+02 0.  0.
          5    1    5    5  501    0  0.34719902654E+02  0.14970704860E+03  0.39979174963E+00  0.15375279468E+03  0.47000000000E+01 0. -1.
        -13    1    6    6    0    0  0.20902584250E+02 -0.11332629935E+02 -0.67475243815E+02  0.71541981084E+02  0.00000000000E+00 0.  1.
         14    1    6    6    0    0 -0.29110115400E+02  0.31033120828E+02 -0.15517663102E+02  0.45290741604E+02  0.00000000000E+00 0. -1.
         -5    1    3    3    0  503 -0.30254873447E+02 -0.58315248765E+02  0.34602802928E+02  0.74400736396E+02  0.47000000000E+01 0.  1.
         13    1    4    4    0    0  0.18440772342E+02 -0.18635388760E+02 -0.73241298672E+02  0.77792208029E+02  0.00000000000E+00 0. -1.
        -14    1    4    4    0    0 -0.14698270400E+02 -0.92456901963E+02 -0.49720580691E+02  0.10600214157E+03  0.00000000000E+00 0.  1.
</event>
<event>
12    1  0.8258923E-002  0.1737812E+03  0.7818608E-02  0.1173989E+00
         21   -1    0    0  503  502  0.00000000000E+00  0.00000000000E+00  0.12431678865E+03  0.12431678865E+03  0.00000000000E+00 0.  1.
         21   -1    0    0  501  503 -0.00000000000E+00 -0.00000000000E+00 -0.40219339291E+03  0.40219339291E+03  0.00000000000E+00 0.  1.
          6    2    1    2  501    0 -0.25965212254E+02  0.31353740636E+01 -0.30465382903E+03  0.35067805983E+03  0.17168903077E+03 0.  0.
         24    2    3    3    0    0  0.15514903708E+02  0.52020222543E+02 -0.24070392252E+03  0.26000276566E+03  0.81952693928E+02 0.  0.
         -6    2    1    2    0  502  0.25965212254E+02 -0.31353740636E+01  0.26777224765E+02  0.17583212173E+03  0.17180189885E+03 0.  0.
        -24    2    5    5    0    0  0.83038631396E+02 -0.14045784621E+02  0.86090882346E+01  0.11476999422E+03  0.77494108191E+02 0.  0.
          5    1    3    3  501    0 -0.41480115962E+02 -0.48884848479E+02 -0.63949906509E+02  0.90675294174E+02  0.47000000000E+01 0. -1.
        -13    1    4    4    0    0 -0.73235163807E+01 -0.13491399658E+02 -0.11840151890E+03  0.11939250996E+03  0.00000000000E+00 0.  1.
         14    1    4    4    0    0  0.22838420089E+02  0.65511622201E+02 -0.12230240362E+03  0.14061025570E+03  0.00000000000E+00 0. -1.
         -5    1    5    5    0  502 -0.57073419142E+02  0.10910410557E+02  0.18168136530E+02  0.61062127510E+02  0.47000000000E+01 0.  1.
         11    1    6    6    0    0  0.17044233775E+02 -0.35995095964E+02 -0.13077233989E+02  0.41918574489E+02  0.00000000000E+00 0. -1.
        -12    1    6    6    0    0  0.65994397621E+02  0.21949311343E+02  0.21686322224E+02  0.72851419735E+02  0.00000000000E+00 0.  1.
</event>
<event>
12    1  0.8258923E-002  0.1883513E+03  0.7818608E-02  0.1160088E+00
         21   -1    0    0  501  502  0.00000000000E+00  0.00000000000E+00  0.26389313166E+02  0.26389313166E+02  0.00000000000E+00 0.  1.
         21   -1    0    0  502  503 -0.00000000000E+00 -0.00000000000E+00 -0.14849016397E+04  0.14849016397E+04  0.00000000000E+00 0.  1.
         -6    2    1    2    0  503 -0.21477316023E+02 -0.71715547160E+02 -0.49440040347E+03  0.52906330886E+03  0.17283469277E+03 0.  0.
        -24    2    3    3    0    0 -0.29147711208E+02 -0.41888143025E+02 -0.48826953809E+03  0.49731135601E+03  0.79418117525E+02 0.  0.
          6    2    1    2  501    0  0.21477316023E+02  0.71715547160E+02 -0.96411192308E+03  0.98222764402E+03  0.17220612545E+03 0.  0.
         24    2    5    5    0    0 -0.42033989872E+02  0.30976512434E+02 -0.72789177689E+03  0.73420465639E+03  0.80645136079E+02 0.  0.
          5    1    5    5  501    0  0.63511305896E+02  0.40739034726E+02 -0.23622014619E+03  0.24802298763E+03  0.47000000000E+01 0. -1.
        -13    1    6    6    0    0 -0.16350543005E+02  0.56411536137E+02 -0.50450574689E+03  0.50791303421E+03  0.00000000000E+00 0.  1.
         14    1    6    6    0    0 -0.25683446868E+02 -0.25435023703E+02 -0.22338603000E+03  0.22629162219E+03  0.00000000000E+00 0. -1.
         -5    1    3    3    0  503  0.76703951844E+01 -0.29827404135E+02 -0.61308653772E+01  0.31751952853E+02  0.47000000000E+01 0.  1.
         13    1    4    4    0    0  0.22851415253E+02 -0.33539998135E+01 -0.22587733355E+03  0.22705507329E+03  0.00000000000E+00 0. -1.
        -14    1    4    4    0    0 -0.51999126460E+02 -0.38534143211E+02 -0.26239220454E+03  0.27025628272E+03  0.00000000000E+00 0.  1.
</event>
<event>
12    1  0.8258923E-002  0.1984733E+03  0.7818608E-02  0.1151778E+00
         21   -1    0    0  501  502  0.00000000000E+00  0.00000000000E+00  0.54305840256E+03  0.54305840256E+03  0.00000000000E+00 0. -1.
         21   -1    0    0  502  503 -0.00000000000E+00 -0.00000000000E+00 -0.72860212594E+02  0.72860212594E+02  0.00000000000E+00 0. -1.
         -6    2    1    2    0  503  0.62572913742E+01  0.95532408401E+02  0.19173282302E+03  0.27595856754E+03  0.17385643740E+03 0.  0.
        -24    2    3    3    0    0 -0.25681892771E+02  0.11909198825E+03  0.10159538940E+03  0.17735830270E+03  0.79321391249E+02 0.  0.
          6    2    1    2  501    0 -0.62572913742E+01 -0.95532408401E+02  0.27846536695E+03  0.33996004761E+03  0.16989490467E+03 0.  0.
         24    2    5    5    0    0 -0.45911383231E+02 -0.43379412642E+01  0.10523256324E+03  0.14015871599E+03  0.80273908947E+02 0.  0.
          5    1    5    5  501    0  0.39654091857E+02 -0.91194467137E+02  0.17323280370E+03  0.19980133162E+03  0.47000000000E+01 0. -1.
        -13    1    6    6    0    0 -0.30688280289E+02 -0.22367771799E+02  0.63530908262E+01  0.38502591152E+02  0.00000000000E+00 0.  1.
         14    1    6    6    0    0 -0.15223102942E+02  0.18029830535E+02  0.98879472418E+02  0.10165612484E+03  0.00000000000E+00 0. -1.
         -5    1    3    3    0  503  0.31939184145E+02 -0.23559579846E+02  0.90137433623E+02  0.98600264840E+02  0.47000000000E+01 0.  1.
         11    1    4    4    0    0  0.18821497922E+02  0.79778525426E+02  0.78947498128E+02  0.11380496195E+03  0.00000000000E+00 0. -1.
        -12    1    4    4    0    0 -0.44503390693E+02  0.39313462821E+02  0.22647891268E+02  0.63553340755E+02  0.00000000000E+00 0.  1.
</event>
<event>
12    1  0.8258923E-002  0.2351085E+03  0.7818608E-02  0.1123247E+00
         21   -1    0    0  503  502  0.00000000000E+00  0.00000000000E+00  0.88155215988E+03  0.88155215988E+03  0.00000000000E+00 0.  1.
         21   -1    0    0  501  503 -0.00000000000E+00 -0.00000000000E+00 -0.74322590775E+02  0.74322590775E+02  0.00000000000E+00 0.  1.
          6    2    1    2  501    0 -0.14001621644E+03  0.79479035726E+02  0.21337155845E+03  0.31749555258E+03  0.17133168407E+03 0.  0.
         24    2    3    3    0    0 -0.66144857705E+02  0.40934069885E+02  0.20549717096E+03  0.23366961381E+03  0.79508872871E+02 0.  0.
         -6    2    1    2    0  502  0.14001621644E+03 -0.79479035726E+02  0.59385801065E+03  0.63837919807E+03  0.17011527187E+03 0.  0.
        -24    2    5    5    0    0  0.56302047257E+02 -0.51358909592E+02  0.15047596366E+03  0.18626357877E+03  0.79015485939E+02 0.  0.
          5    1    3    3  501    0 -0.73871358739E+02  0.38544965841E+02  0.78743874920E+01  0.83825938778E+02  0.47000000000E+01 0. -1.
        -13    1    4    4    0    0 -0.21309949704E+02 -0.13064273365E+02  0.11785001859E+02  0.27634678645E+02  0.00000000000E+00 0.  1.
         14    1    4    4    0    0 -0.44834908001E+02  0.53998343250E+02  0.19371216910E+03  0.20603493516E+03  0.00000000000E+00 0. -1.
         -5    1    5    5    0  502  0.83714169187E+02 -0.28120126134E+02  0.44338204699E+03  0.45211561930E+03  0.47000000000E+01 0.  1.
         11    1    6    6    0    0 -0.75105384168E+01 -0.24735556717E+01 -0.62802520860E+01  0.10097932028E+02  0.00000000000E+00 0. -1.
        -12    1    6    6    0    0  0.63812585674E+02 -0.48885353920E+02  0.15675621575E+03  0.17616564675E+03  0.00000000000E+00 0.  1.
</event>
<event>
12    1  0.8258923E-002  0.3450333E+03  0.7818608E-02  0.1064698E+00
         21   -1    0    0  501  502  0.00000000000E+00  0.00000000000E+00  0.14786569894E+04  0.14786569894E+04  0.00000000000E+00 0.  1.
         21   -1    0    0  502  503 -0.00000000000E+00 -0.00000000000E+00 -0.10761705052E+03  0.10761705052E+03  0.00000000000E+00 0. -1.
         -6    2    1    2    0  503  0.29097216280E+03  0.67924247987E+02  0.28687059076E+03  0.44852576455E+03  0.17205267402E+03 0.  0.
        -24    2    3    3    0    0  0.29128585557E+03  0.36275936049E+02  0.21972037773E+03  0.37414192786E+03  0.74442894908E+02 0.  0.
          6    2    1    2  501    0 -0.29097216280E+03 -0.67924247987E+02  0.10841693481E+04  0.11377482753E+04  0.17253828479E+03 0.  0.
         24    2    5    5    0    0 -0.26331277550E+03 -0.91207566581E+02  0.79578054313E+03  0.84706400081E+03  0.81229986516E+02 0.  0.
          5    1    5    5  501    0 -0.27659387297E+02  0.23283318595E+02  0.28838880496E+03  0.29068427453E+03  0.47000000000E+01 0. -1.
        -11    1    6    6    0    0 -0.13151833223E+03 -0.86992705925E+02  0.46273669557E+03  0.48886608803E+03  0.00000000000E+00 0.  1.
         12    1    6    6    0    0 -0.13179444327E+03 -0.42148606566E+01  0.33304384756E+03  0.35819791279E+03  0.00000000000E+00 0. -1.
         -5    1    3    3    0  503 -0.31369276907E+00  0.31648311938E+02  0.67150213031E+02  0.74383836697E+02  0.47000000000E+01 0.  1.
         11    1    4    4    0    0  0.28098786081E+03  0.49367243463E+02  0.20045142217E+03  0.34867187340E+03  0.00000000000E+00 0. -1.
        -12    1    4    4    0    0  0.10297994758E+02 -0.13091307414E+02  0.19268955561E+02  0.25470054461E+02  0.00000000000E+00 0.  1.
</event>
<event>
12    1  0.8258923E-002  0.6363113E+03  0.7818608E-02  0.9833657E-01
         21   -1    0    0  503  502  0.00000000000E+00  0.00000000000E+00  0.14178305423E+04  0.14178305423E+04  0.00000000000E+00 0. -1.
         21   -1    0    0  501  503 -0.00000000000E+00 -0.00000000000E+00 -0.54583599808E+03  0.54583599808E+03  0.00000000000E+00 0.  1.
          6    2    1    2  501    0 -0.51136137332E+03  0.33336130860E+03 -0.24268869992E+03  0.68102120443E+03  0.17964370187E+03 0.  0.
         24    2    3    3    0    0 -0.28177118703E+03  0.26734657685E+03 -0.13509121283E+03  0.41897367501E+03  0.80125592482E+02 0.  0.
         -6    2    1    2    0  502  0.51136137332E+03 -0.33336130860E+03  0.11146832441E+04  0.12826453359E+04  0.17332082067E+03 0.  0.
        -24    2    5    5    0    0  0.36817592979E+03 -0.22722837406E+03  0.64484713475E+03  0.78011739571E+03  0.74626232978E+02 0.  0.
          5    1    3    3  501    0 -0.22959018630E+03  0.66014731744E+02 -0.10759748709E+03  0.26204752943E+03  0.47000000000E+01 0. -1.
        -13    1    4    4    0    0 -0.10808969153E+03  0.76548679291E+02 -0.81314046103E+02  0.15541896863E+03  0.00000000000E+00 0.  1.
         14    1    4    4    0    0 -0.17368149549E+03  0.19079789756E+03 -0.53777166730E+02  0.26355470638E+03  0.00000000000E+00 0. -1.
         -5    1    5    5    0  502  0.14318544353E+03 -0.10613293454E+03  0.46983610937E+03  0.50252794022E+03  0.47000000000E+01 0.  1.
         13    1    6    6    0    0  0.11997971809E+03 -0.38254048706E+02  0.21182757998E+03  0.24643341623E+03  0.00000000000E+00 0. -1.
        -14    1    6    6    0    0  0.24819621170E+03 -0.18897432535E+03  0.43301955477E+03  0.53368397948E+03  0.00000000000E+00 0.  1.
</event>
<event>
12    1  0.8258923E-002  0.1819571E+03  0.7818608E-02  0.1165989E+00
         21   -1    0    0  503  502  0.00000000000E+00  0.00000000000E+00  0.12889902818E+03  0.12889902818E+03  0.00000000000E+00 0. -1.
         21   -1    0    0  501  503 -0.00000000000E+00 -0.00000000000E+00 -0.54801424551E+03  0.54801424551E+03  0.00000000000E+00 0. -1.
          6    2    1    2  501    0  0.53336249269E+02  0.22355841000E+02 -0.45650043675E+03  0.49142755986E+03  0.17252205284E+03 0.  0.
         24    2    3    3    0    0  0.99014254577E+02  0.36697776692E+02 -0.29868300358E+03  0.32644088311E+03  0.78750010273E+02 0.  0.
         -6    2    1    2    0  502 -0.53336249269E+02 -0.22355841000E+02  0.37385219428E+02  0.18548571383E+03  0.17222879054E+03 0.  0.
        -24    2    5    5    0    0 -0.67360542516E+02 -0.15563308262E+01  0.82850707327E+02  0.13334646744E+03  0.79857221466E+02 0.  0.
          5    1    3    3  501    0 -0.45678005308E+02 -0.14341935691E+02 -0.15781743318E+03  0.16498667674E+03  0.47000000000E+01 0. -1.
        -13    1    4    4    0    0  0.27227507956E+02 -0.21444640141E+02 -0.12503344573E+03  0.12974811109E+03  0.00000000000E+00 0.  1.
         14    1    4    4    0    0  0.71786746620E+02  0.58142416833E+02 -0.17364955785E+03  0.19669277202E+03  0.00000000000E+00 0. -1.
         -5    1    5    5    0  502  0.14024293247E+02 -0.20799510174E+02 -0.45465487899E+02  0.52139246393E+02  0.47000000000E+01 0.  1.
         11    1    6    6    0    0  0.10727274370E+02 -0.11418275682E+02  0.41666482663E+02  0.44514573035E+02  0.00000000000E+00 0. -1.
        -12    1    6    6    0    0 -0.78087816885E+02  0.98619448560E+01  0.41184224664E+02  0.88831894404E+02  0.00000000000E+00 0.  1.
</event>
<event>
12    1  0.8258923E-002  0.1791613E+03  0.7818608E-02  0.1169193E+00
         21   -1    0    0  501  502  0.00000000000E+00  0.00000000000E+00  0.92424025599E+02  0.92424025599E+02  0.00000000000E+00 0.  1.
         21   -1    0    0  502  503 -0.00000000000E+00 -0.00000000000E+00 -0.57875648455E+03  0.57875648455E+03  0.00000000000E+00 0. -1.
         -6    2    1    2    0  503  0.27453690405E+02 -0.45409773214E+02 -0.45650796255E+03  0.48955376644E+03  0.16866421597E+03 0.  0.
        -24    2    3    3    0    0  0.46738912870E+02 -0.37113156982E+02 -0.45726940273E+03  0.46802649449E+03  0.79947360620E+02 0.  0.
          6    2    1    2  501    0 -0.27453690405E+02  0.45409773214E+02 -0.29824496405E+02  0.18162674371E+03  0.17112282380E+03 0.  0.
         24    2    5    5    0    0  0.11812061581E+02 -0.20113241149E+02  0.21556934293E+02  0.89446452373E+02  0.83617576847E+02 0.  0.
          5    1    5    5  501    0 -0.39265751986E+02  0.65523014362E+02 -0.51381430698E+02  0.92180291336E+02  0.47000000000E+01 0. -1.
        -13    1    6    6    0    0  0.11885277103E+02  0.22659411798E+02  0.36118086611E+02  0.44263132913E+02  0.00000000000E+00 0.  1.
         14    1    6    6    0    0 -0.73215521936E-01 -0.42772652947E+02 -0.14561152318E+02  0.45183319460E+02  0.00000000000E+00 0. -1.
         -5    1    3    3    0  503 -0.19285222466E+02 -0.82966162320E+01  0.76144018802E+00  0.21527271950E+02  0.47000000000E+01 0.  1.
         13    1    4    4    0    0  0.37503286034E+02 -0.45545361167E+02 -0.16061017281E+03  0.17110378137E+03  0.00000000000E+00 0. -1.
        -14    1    4    4    0    0  0.92356268365E+01  0.84322041857E+01 -0.29665922992E+03  0.29692271312E+03  0.00000000000E+00 0.  1.
</event>
<event>
12    1  0.8258923E-002  0.2013101E+03  0.7818608E-02  0.1148697E+00
         21   -1    0    0  501  502  0.00000000000E+00  0.00000000000E+00  0.60187503386E+03  0.60187503386E+03  0.00000000000E+00 0.  1.
         21   -1    0    0  502  503 -0.00000000000E+00 -0.00000000000E+00 -0.14791841554E+03  0.14791841554E+03  0.00000000000E+00 0.  1.
         -6    2    1    2    0  503 -0.90859140406E+02  0.52405109456E+02 -0.49823364613E+02  0.20738399798E+03  0.17182571421E+03 0.  0.
        -24    2    3    3    0    0  0.13032743146E+02  0.49700059833E+02 -0.30492255155E+02  0.10156990367E+03  0.82138415891E+02 0.  0.
          6    2    1    2  501    0  0.90859140406E+02 -0.52405109456E+02  0.50377998294E+03  0.54240945142E+03  0.17149945450E+03 0.  0.
         24    2    5    5    0    0  0.35849250845E+02 -0.96039809162E+01  0.10604774554E+03  0.13858888828E+03  0.81137848040E+02 0.  0.
          5    1    5    5  501    0  0.55009889561E+02 -0.42801128540E+02  0.39773223740E+03  0.40382056315E+03  0.47000000000E+01 0. -1.
        -13    1    6    6    0    0  0.11195727031E+02 -0.40969535494E+02  0.81065613698E+02  0.91517653306E+02  0.00000000000E+00 0.  1.
         14    1    6    6    0    0  0.24653523814E+02  0.31365554578E+02  0.24982131840E+02  0.47071234971E+02  0.00000000000E+00 0. -1.
         -5    1    3    3    0  503 -0.10389188355E+03  0.27050496224E+01 -0.19331109458E+02  0.10581409431E+03  0.47000000000E+01 0.  1.
         11    1    4    4    0    0  0.35997184161E+01  0.12122284076E+02  0.28393189263E+02  0.31081842616E+02  0.00000000000E+00 0. -1.
        -12    1    4    4    0    0  0.94330247298E+01  0.37577775757E+02 -0.58885444418E+02  0.70488061051E+02  0.00000000000E+00 0.  1.
</event>
<event>
12    1  0.8258923E-002  0.1840004E+03  0.7818608E-02  0.1164096E+00
         21   -1    0    0  503  502  0.00000000000E+00  0.00000000000E+00  0.16797083334E+02  0.16797083334E+02  0.00000000000E+00 0.  1.
         21   -1    0    0  501  503 -0.00000000000E+00 -0.00000000000E+00 -0.20240162150E+04  0.20240162150E+04  0.00000000000E+00 0. -1.
          6    2    1    2  501    0  0.36767611700E+02 -0.55285472556E+02 -0.10857257483E+04  0.11011292066E+04  0.17110461261E+03 0.  0.
         24    2    3    3    0    0  0.22609346452E+01  0.11690911718E+02 -0.86014032770E+03  0.86324810441E+03  0.72208844272E+02 0.  0.
         -6    2    1    2    0  502 -0.36767611700E+02  0.55285472556E+02 -0.92149338340E+03  0.93968409173E+03  0.17160360090E+03 0.  0.
        -24    2    5    5    0    0  0.39169447959E+02  0.20666844014E+02 -0.32834578558E+03  0.34067570340E+03  0.79294488396E+02 0.  0.
          5    1    3    3  501    0  0.34506677054E+02 -0.66976384274E+02 -0.22558542056E+03  0.23788110220E+03  0.47000000000E+01 0. -1.
        -13    1    4    4    0    0  0.36338631041E+02  0.70912074412E+01 -0.53957117848E+03  0.54083993748E+03  0.00000000000E+00 0.  1.
         14    1    4    4    0    0 -0.34077696396E+02  0.45997042768E+01 -0.32056914922E+03  0.32240816693E+03  0.00000000000E+00 0. -1.
         -5    1    5    5    0  502 -0.75937059659E+02  0.34618628542E+02 -0.59314759783E+03  0.59900838832E+03  0.47000000000E+01 0.  1.
         13    1    6    6    0    0  0.11840570233E+02  0.15653531681E+02 -0.30117455050E+03  0.30181342254E+03  0.00000000000E+00 0. -1.
        -14    1    6    6    0    0  0.27328877726E+02  0.50133123335E+01 -0.27171235076E+02  0.38862280863E+02  0.00000000000E+00 0.  1.
</event>
<event>
12    1  0.8258923E-002  0.2835382E+03  0.7818608E-02  0.1093807E+00
         21   -1    0    0  503  502  0.00000000000E+00  0.00000000000E+00  0.40633841676E+03  0.40633841676E+03  0.00000000000E+00 0.  1.
         21   -1    0    0  501  503 -0.00000000000E+00 -0.00000000000E+00 -0.37877187418E+03  0.37877187418E+03  0.00000000000E+00 0.  1.
          6    2    1    2  501    0 -0.11466196994E+03  0.19360357595E+03 -0.25766012851E+03  0.38293100474E+03  0.17209793895E+03 0.  0.
         24    2    3    3    0    0 -0.10568950595E+03  0.21924584563E+03 -0.22782847898E+03  0.34231021674E+03  0.77662450078E+02 0.  0.
         -6    2    1    2    0  502  0.11466196994E+03 -0.19360357595E+03  0.28522667109E+03  0.40217928621E+03  0.17252307781E+03 0.  0.
        -24    2    5    5    0    0  0.10720595887E+03 -0.55653201002E+02  0.14660264588E+03  0.20641256683E+03  0.80767664110E+02 0.  0.
          5    1    3    3  501    0 -0.89724639975E+01 -0.25642269678E+02 -0.29831649530E+02  0.40620788004E+02  0.47000000000E+01 0. -1.
        -11    1    4    4    0    0  0.15052004126E+01  0.44442125297E+02 -0.72566302111E+02  0.85107204932E+02  0.00000000000E+00 0.  1.
         12    1    4    4    0    0 -0.10719470636E+03  0.17480372033E+03 -0.15526217687E+03  0.25720301180E+03  0.00000000000E+00 0. -1.
         -5    1    5    5    0  502  0.74560110771E+01 -0.13795037495E+03  0.13862402521E+03  0.19576671938E+03  0.47000000000E+01 0.  1.
         11    1    6    6    0    0  0.46249531471E+02 -0.47019997122E+02  0.12470079328E+03  0.14106802308E+03  0.00000000000E+00 0. -1.
        -12    1    6    6    0    0  0.60956427396E+02 -0.86332038799E+01  0.21901852601E+02  0.65344543747E+02  0.00000000000E+00 0.  1.
</event>
<event>
12    1  0.8258923E-002  0.2365325E+03  0.7818608E-02  0.1122301E+00
         21   -1    0    0  503  502  0.00000000000E+00  0.00000000000E+00  0.11305887581E+03  0.11305887581E+03  0.00000000000E+00 0.  1.
         21   -1    0    0  501  503 -0.00000000000E+00 -0.00000000000E+00 -0.93076583058E+03  0.93076583058E+03  0.00000000000E+00 0.  1.
          6    2    1    2  501    0  0.30577436180E+02 -0.15650789077E+03 -0.76643691127E+03  0.80179945028E+03  0.17328335187E+03 0.  0.
         24    2    3    3    0    0  0.72003151797E+02 -0.67401430985E+02 -0.30331832647E+03  0.32834727247E+03  0.77990495542E+02 0.  0.
         -6    2    1    2    0  502 -0.30577436180E+02  0.15650789077E+03 -0.51270043496E+02  0.24202525611E+03  0.17469375421E+03 0.  0.
        -24    2    5    5    0    0 -0.57955753568E+02  0.80277725239E+02 -0.87787786820E+02  0.15305196811E+03  0.76907911734E+02 0.  0.
          5    1    3    3  501    0 -0.41425715617E+02 -0.89106459780E+02 -0.46311858480E+03  0.47345217782E+03  0.47000000000E+01 0. -1.
        -13    1    4    4    0    0  0.21433516652E+02  0.15648137847E+02 -0.91631011105E+02  0.95396551564E+02  0.00000000000E+00 0.  1.
         14    1    4    4    0    0  0.50569635146E+02 -0.83049568831E+02 -0.21168731537E+03  0.23295072090E+03  0.00000000000E+00 0. -1.
         -5    1    5    5    0  502  0.27378317388E+02  0.76230165526E+02  0.36517743324E+02  0.88973287995E+02  0.47000000000E+01 0.  1.
         13    1    6    6    0    0 -0.31743214485E+02  0.19911999655E+02 -0.77977393875E+02  0.86513544325E+02  0.00000000000E+00 0. -1.
        -14    1    6    6    0    0 -0.26212539082E+02  0.60365725584E+02 -0.98103929453E+01  0.66538423788E+02  0.00000000000E+00 0.  1.
</event>
<event>
12    1  0.8258923E-002  0.2236421E+03  0.7818608E-02  0.1131232E+00
         21   -1    0    0  503  502  0.00000000000E+00  0.00000000000E+00  0.10041493036E+03  0.10041493036E+03  0.00000000000E+00 0. -1.
         21   -1    0    0  501  503 -0.00000000000E+00 -0.00000000000E+00 -0.85091896508E+03  0.85091896508E+03  0.00000000000E+00 0. -1.
          6    2    1    2  501    0  0.53885650394E+02 -0.13150206658E+03 -0.68182973505E+03  0.71757061535E+03  0.17268278315E+03 0.  0.
         24    2    3    3    0    0 -0.27996063170E+02 -0.25263957028E+02 -0.28429106562E+03  0.29798720931E+03  0.80950107133E+02 0.  0.
         -6    2    1    2    0  502 -0.53885650394E+02  0.13150206658E+03 -0.68674299674E+02  0.23376328009E+03  0.17243159470E+03 0.  0.
        -24    2    5    5    0    0  0.34444173271E+02  0.88549515238E+02 -0.52381174584E+02  0.13409063921E+03  0.78797806765E+02 0.  0.
          5    1    3    3  501    0  0.81881713563E+02 -0.10623810955E+03 -0.39753866943E+03  0.41958340604E+03  0.47000000000E+01 0. -1.
        -11    1    4    4    0    0  0.84810851660E+01  0.23380208151E+02 -0.48783476809E+02  0.54757561563E+02  0.00000000000E+00 0.  1.
         12    1    4    4    0    0 -0.36477148336E+02 -0.48644165179E+02 -0.23550758881E+03  0.24322964775E+03  0.00000000000E+00 0. -1.
         -5    1    5    5    0  502 -0.88329823665E+02  0.42952551337E+02 -0.16293125089E+02  0.99672640881E+02  0.47000000000E+01 0.  1.
         11    1    6    6    0    0  0.42488840974E+02  0.92002578039E+02 -0.23660475968E+02  0.10406533571E+03  0.00000000000E+00 0. -1.
        -12    1    6    6    0    0 -0.80446677027E+01 -0.34530628011E+01 -0.28720698616E+02  0.30025303498E+02  0.00000000000E+00 0.  1.
</event>
<event>
12    1  0.8258923E-002  0.3330233E+03  0.7818608E-02  0.1069889E+00
         21   -1    0    0  501  502  0.00000000000E+00  0.00000000000E+00  0.57030913114E+03  0.57030913114E+03  0.00000000000E+00 0.  1.
         21   -1    0    0  502  503 -0.00000000000E+00 -0.00000000000E+00 -0.20132607241E+03  0.20132607241E+03  0.00000000000E+00 0.  1.
         -6    2    1    2    0  503  0.26767884147E+03 -0.97830762323E+02  0.11121791950E+03  0.35110387284E+03  0.17228373017E+03 0.  0.
        -24    2    3    3    0    0  0.16697652035E+03 -0.24072655986E+02  0.61699367697E+01  0.18789117602E+03  0.82488634317E+02 0.  0.
          6    2    1    2  501    0 -0.26767884147E+03  0.97830762323E+02  0.25776513923E+03  0.42053133071E+03  0.17082421633E+03 0.  0.
         24    2    5    5    0    0 -0.15348626245E+03  0.84396829016E+02  0.23403967284E+03  0.30303493323E+03  0.79841998872E+02 0.  0.
          5    1    5    5  501    0 -0.11419257902E+03  0.13433933307E+02  0.23725466387E+02  0.11749639748E+03  0.47000000000E+01 0. -1.
        -11    1    6    6    0    0 -0.10502163994E+03  0.87131269814E+02  0.13113494665E+03  0.18925585134E+03  0.00000000000E+00 0.  1.
         12    1    6    6    0    0 -0.48464622511E+02 -0.27344407986E+01  0.10290472620E+03  0.11377908189E+03  0.00000000000E+00 0. -1.
         -5    1    3    3    0  503  0.10070232111E+03 -0.73758106337E+02  0.10504798273E+03  0.16321269682E+03  0.47000000000E+01 0.  1.
         11    1    4    4    0    0  0.16162848621E+02 -0.23305155590E+02  0.22488441781E+02  0.36195275470E+02  0.00000000000E+00 0. -1.
        -12    1    4    4    0    0  0.15081367173E+03 -0.76750039596E+00 -0.16318505011E+02  0.15169590055E+03  0.00000000000E+00 0.  1.
</event>
<event>
12    1  0.8258923E-002  0.2377351E+03  0.7818608E-02  0.1121794E+00
         21   -1    0    0  503  502  0.00000000000E+00  0.00000000000E+00  0.57063007422E+03  0.57063007422E+03  0.00000000000E+00 0. -1.
         21   -1    0    0  501  503 -0.00000000000E+00 -0.00000000000E+00 -0.11793308599E+03  0.11793308599E+03  0.00000000000E+00 0.  1.
          6    2    1    2  501    0  0.16016235320E+03 -0.36775502090E+01  0.83184568532E+02  0.24918016061E+03  0.17177187268E+03 0.  0.
         24    2    3    3    0    0 -0.13810723958E+02 -0.17160296646E+02  0.30928754083E+02  0.66968261519E+02  0.55162925452E+02 0.  0.
         -6    2    1    2    0  502 -0.16016235320E+03  0.36775502090E+01  0.36951241970E+03  0.43938299959E+03  0.17564876389E+03 0.  0.
        -24    2    5    5    0    0 -0.18466449130E+03  0.58206938571E+01  0.26993987893E+03  0.33671007857E+03  0.79820322886E+02 0.  0.
          5    1    3    3  501    0  0.17397307716E+03  0.13482746437E+02  0.52255814448E+02  0.18221189910E+03  0.47000000000E+01 0. -1.
        -13    1    4    4    0    0  0.14420243209E+02  0.10920500300E+02  0.16887606317E+02  0.24746555076E+02  0.00000000000E+00 0.  1.
         14    1    4    4    0    0 -0.28230967167E+02 -0.28080796946E+02  0.14041147766E+02  0.42221706442E+02  0.00000000000E+00 0. -1.
         -5    1    5    5    0  502  0.24502138100E+02 -0.21431436481E+01  0.99572540767E+02  0.10267292102E+03  0.47000000000E+01 0.  1.
         13    1    6    6    0    0 -0.14703476618E+03  0.37865568239E+02  0.20276039025E+03  0.25330771717E+03  0.00000000000E+00 0. -1.
        -14    1    6    6    0    0 -0.37629725122E+02 -0.32044874381E+02  0.67179488683E+02  0.83402361397E+02  0.00000000000E+00 0.  1.
</event>
<event>
12    1  0.8258923E-002  0.1733727E+03  0.7818608E-02  0.1174699E+00
         21   -1    0    0  501  502  0.00000000000E+00  0.00000000000E+00  0.16350264234E+03  0.16350264234E+03  0.00000000000E+00 0. -1.
         21   -1    0    0  502  503 -0.00000000000E+00 -0.00000000000E+00 -0.19108861774E+03  0.19108861774E+03  0.00000000000E+00 0. -1.
         -6    2    1    2    0  503 -0.13705467121E+02  0.57475243568E+01  0.23754282066E+02  0.17499248620E+03  0.17273456645E+03 0.  0.
        -24    2    3    3    0    0  0.34436380184E+02 -0.14396138731E+02  0.64227347518E+02  0.10878399995E+03  0.79471336883E+02 0.  0.
          6    2    1    2  501    0  0.13705467121E+02 -0.57475243568E+01 -0.51340257473E+02  0.17959877387E+03  0.17146143495E+03 0.  0.
         24    2    5    5    0    0 -0.54890265182E+01  0.42561937620E+02  0.19821774487E+02  0.91347102528E+02  0.78164841523E+02 0.  0.
          5    1    5    5  501    0  0.19194493639E+02 -0.48309461977E+02 -0.71162031960E+02  0.88251671345E+02  0.47000000000E+01 0. -1.
        -13    1    6    6    0    0  0.14825610374E+01  0.28500119378E+02 -0.28625325946E+02  0.40421084564E+02  0.00000000000E+00 0.  1.
         14    1    6    6    0    0 -0.69715875556E+01  0.14061818242E+02  0.48447100433E+02  0.50926017964E+02  0.00000000000E+00 0. -1.
         -5    1    3    3    0  503 -0.48141847306E+02  0.20143663087E+02 -0.40473065453E+02  0.66208486252E+02  0.47000000000E+01 0.  1.
         11    1    4    4    0    0  0.45040019338E+02 -0.48476385508E+01  0.24350350571E+01  0.45365541297E+02  0.00000000000E+00 0. -1.
        -12    1    4    4    0    0 -0.10603639153E+02 -0.95485001798E+01  0.61792312461E+02  0.63418458656E+02  0.00000000000E+00 0.  1.
</event>
<event>
12    1  0.8258923E-002  0.1793924E+03  0.7818608E-02  0.1168567E+00
         21   -1    0    0  503  502  0.00000000000E+00  0.00000000000E+00  0.47327176512E+03  0.47327176512E+03  0.00000000000E+00 0.  1.
         21   -1    0    0  501  503 -0.00000000000E+00 -0.00000000000E+00 -0.69472926917E+02  0.69472926917E+02  0.00000000000E+00 0.  1.
          6    2    1    2  501    0 -0.35553629681E+02 -0.36967852693E+02  0.15848733249E+03  0.23883782717E+03  0.17115662538E+03 0.  0.
         24    2    3    3    0    0  0.30483904600E+02  0.17768667012E+02  0.52424604093E+02  0.10235180269E+03  0.80514336814E+02 0.  0.
         -6    2    1    2    0  502  0.35553629681E+02  0.36967852693E+02  0.24531150572E+03  0.30390686487E+03  0.17190394109E+03 0.  0.
        -24    2    5    5    0    0  0.18572510704E+02  0.13905857012E+02  0.25810806237E+03  0.27218848047E+03  0.83237527761E+02 0.  0.
          5    1    3    3  501    0 -0.66037534281E+02 -0.54736519705E+02  0.10606272839E+03  0.13648602448E+03  0.47000000000E+01 0. -1.
        -11    1    4    4    0    0 -0.58888305168E+01 -0.59538985826E+01  0.57972116989E+02  0.58573830175E+02  0.00000000000E+00 0.  1.
         12    1    4    4    0    0  0.36372735117E+02  0.23722565595E+02 -0.55475128955E+01  0.43777972516E+02  0.00000000000E+00 0. -1.
         -5    1    5    5    0  502  0.16981118977E+02  0.23061995680E+02 -0.12796556656E+02  0.31718384396E+02  0.47000000000E+01 0.  1.
         11    1    6    6    0    0 -0.32658347003E+02  0.81529456017E+01  0.80616134119E+02  0.87361314271E+02  0.00000000000E+00 0. -1.
        -12    1    6    6    0    0  0.51230857708E+02  0.57529114104E+01  0.17749192825E+03  0.18482716620E+03  0.00000000000E+00 0.  1.
</event>
<event>
12    1  0.8258923E-002  0.2196296E+03  0.7818608E-02  0.1134454E+00
         21   -1    0    0  503  502  0.00000000000E+00  0.00000000000E+00  0.35911304671E+03  0.35911304671E+03  0.00000000000E+00 0. -1.
         21   -1    0    0  501  503 -0.00000000000E+00 -0.00000000000E+00 -0.13797840480E+03  0.13797840480E+03  0.00000000000E+00 0. -1.
          6    2    1    2  501    0  0.84689821274E+02  0.10488614182E+03  0.65501562489E+02  0.22918905919E+03  0.17338887390E+03 0.  0.
         24    2    3    3    0    0  0.32594320165E+02  0.73572746885E+02  0.10621049199E+03  0.15588300979E+03  0.80891936198E+02 0.  0.
         -6    2    1    2    0  502 -0.84689821274E+02 -0.10488614182E+03  0.15563307941E+03  0.26790239232E+03  0.17139593878E+03 0.  0.
        -24    2    5    5    0    0 -0.76218681945E+02 -0.70257832256E+02  0.26544613986E+02  0.13389940007E+03  0.80492125937E+02 0.  0.
          5    1    3    3  501    0  0.52095501109E+02  0.31313394933E+02 -0.40708929496E+02  0.73306049401E+02  0.47000000000E+01 0. -1.
        -13    1    4    4    0    0 -0.60864490490E+01 -0.14706676955E+02  0.26027949474E+02  0.30508775178E+02  0.00000000000E+00 0.  1.
         14    1    4    4    0    0  0.38680769214E+02  0.88279423840E+02  0.80182542512E+02  0.12537423461E+03  0.00000000000E+00 0. -1.
         -5    1    5    5    0  502 -0.84711393290E+01 -0.34628309563E+02  0.12908846543E+03  0.13400299225E+03  0.47000000000E+01 0.  1.
         13    1    6    6    0    0 -0.41701702079E+02 -0.83601888942E+02  0.12237534443E+02  0.94223484547E+02  0.00000000000E+00 0. -1.
        -14    1    6    6    0    0 -0.34516979866E+02  0.13344056686E+02  0.14307079542E+02  0.39675915527E+02  0.00000000000E+00 0.  1.
</event>
<event>
12    1  0.8258923E-002  0.2816156E+03  0.7818608E-02  0.1094855E+00
         21   -1    0    0  501  502  0.00000000000E+00  0.00000000000E+00  0.18074045311E+03  0.18074045311E+03  0.00000000000E+00 0.  1.
         21   -1    0    0  502  503 -0.00000000000E+00 -0.00000000000E+00 -0.59711947328E+03  0.59711947328E+03  0.00000000000E+00 0.  1.
         -6    2    1    2    0  503  0.32708285532E+02 -0.22043526503E+03 -0.40888139319E+03  0.49647894573E+03  0.17217959186E+03 0.  0.
        -24    2    3    3    0    0  0.77452484484E+02 -0.17615801717E+03 -0.25160782695E+03  0.32701041575E+03  0.81232869338E+02 0.  0.
          6    2    1    2  501    0 -0.32708285532E+02  0.22043526503E+03 -0.74976269778E+01  0.28138098065E+03  0.17163188472E+03 0.  0.
         24    2    5    5    0    0 -0.20857349013E+02  0.17982231636E+03  0.55746019674E+02  0.20514644033E+03  0.78780383359E+02 0.  0.
          5    1    5    5  501    0 -0.11850936519E+02  0.40612948667E+02 -0.63243646652E+02  0.76234540319E+02  0.47000000000E+01 0. -1.
        -13    1    6    6    0    0 -0.96492613567E+01  0.13055803015E+03  0.13697184270E+01  0.13092128785E+03  0.00000000000E+00 0.  1.
         14    1    6    6    0    0 -0.11208087656E+02  0.49264286206E+02  0.54376301247E+02  0.74225152486E+02  0.00000000000E+00 0. -1.
         -5    1    3    3    0  503 -0.44744198952E+02 -0.44277247860E+02 -0.15727356624E+03  0.16946852999E+03  0.47000000000E+01 0.  1.
         11    1    4    4    0    0  0.84918905411E+00 -0.24409926315E+02 -0.87082769579E+02  0.90443210814E+02  0.00000000000E+00 0. -1.
        -12    1    4    4    0    0  0.76603295430E+02 -0.15174809085E+03 -0.16452505737E+03  0.23656720493E+03  0.00000000000E+00 0.  1.
</event>
<event>
12    1  0.8258923E-002  0.2218912E+03  0.7818608E-02  0.1132491E+00
         21   -1    0    0  501  502  0.00000000000E+00  0.00000000000E+00  0.45687621897E+03  0.45687621897E+03  0.00000000000E+00 0. -1.
         21   -1    0    0  502  503 -0.00000000000E+00 -0.00000000000E+00 -0.13487591157E+03  0.13487591157E+03  0.00000000000E+00 0. -1.
         -6    2    1    2    0  503 -0.13443445875E+03  0.39417227545E+02  0.28270939955E+02  0.22363168803E+03  0.17200448923E+03 0.  0.
        -24    2    3    3    0    0 -0.84363870030E+02  0.51181829941E+02  0.78292713413E+02  0.15173080107E+03  0.84591044077E+02 0.  0.
          6    2    1    2  501    0  0.13443445875E+03 -0.39417227545E+02  0.29372936744E+03  0.36812044251E+03  0.17207375561E+03 0.  0.
         24    2    5    5    0    0  0.59952569495E+02 -0.83851656760E+02  0.21373641146E+03  0.25004024377E+03  0.78812809818E+02 0.  0.
          5    1    5    5  501    0  0.74481889260E+02  0.44434429215E+02  0.79992955981E+02  0.11808019874E+03  0.47000000000E+01 0. -1.
        -11    1    6    6    0    0 -0.15052143755E+02 -0.10953294192E+02  0.10261124753E+02  0.21256348851E+02  0.00000000000E+00 0.  1.
         12    1    6    6    0    0  0.75004713250E+02 -0.72898362568E+02  0.20347528671E+03  0.22878389492E+03  0.00000000000E+00 0. -1.
         -5    1    3    3    0  503 -0.50070588725E+02 -0.11764602395E+02 -0.50021773458E+02  0.71900886953E+02  0.47000000000E+01 0.  1.
         13    1    4    4    0    0 -0.38505141708E+02  0.18809358964E+02 -0.12806051722E+02  0.44726199071E+02  0.00000000000E+00 0. -1.
        -14    1    4    4    0    0 -0.45858728322E+02  0.32372470977E+02  0.91098765135E+02  0.10700460200E+03  0.00000000000E+00 0.  1.
</event>
<event>
12    1  0.8258923E-002  0.2058605E+03  0.7818608E-02  0.1145626E+00
         21   -1    0    0  503  502  0.00000000000E+00  0.00000000000E+00  0.62753313733E+02  0.62753313733E+02  0.00000000000E+00 0.  1.
         21   -1    0    0  501  503 -0.00000000000E+00 -0.00000000000E+00 -0.69517903674E+03  0.69517903674E+03  0.00000000000E+00 0.  1.
          6    2    1    2  501    0  0.85563107837E+02 -0.68839770480E+02 -0.23269901818E+03  0.30831030639E+03  0.16984243446E+03 0.  0.
         24    2    3    3    0    0  0.95788794835E+02 -0.10232212441E+03 -0.15873428752E+03  0.22634382494E+03  0.79935240629E+02 0.  0.
         -6    2    1    2    0  502 -0.85563107837E+02  0.68839770480E+02 -0.39972670482E+03  0.44962204408E+03  0.17412232640E+03 0.  0.
        -24    2    5    5    0    0  0.23772238250E+01 -0.17694193275E+02 -0.18275458273E+03  0.19998106070E+03  0.79211435170E+02 0.  0.
          5    1    3    3  501    0 -0.10225686998E+02  0.33482353932E+02 -0.73964730667E+02  0.81966481455E+02  0.47000000000E+01 0. -1.
        -13    1    4    4    0    0  0.77033533607E+02 -0.57648811699E+02 -0.52557838386E+02  0.10963520040E+03  0.00000000000E+00 0.  1.
         14    1    4    4    0    0  0.18755261228E+02 -0.44673312713E+02 -0.10617644913E+03  0.11670862454E+03  0.00000000000E+00 0. -1.
         -5    1    5    5    0  502 -0.87940331662E+02  0.86533963755E+02 -0.21697212209E+03  0.24964098338E+03  0.47000000000E+01 0.  1.
         11    1    6    6    0    0  0.32505356703E+02 -0.21876639140E+02 -0.15103377037E+03  0.15603328282E+03  0.00000000000E+00 0. -1.
        -12    1    6    6    0    0 -0.30128132878E+02  0.41824458653E+01 -0.31720812357E+02  0.43947777881E+02  0.00000000000E+00 0.  1.
</event>
<event>
12    1  0.8258923E-002  0.2292019E+03  0.7818608E-02  0.1127348E+00
         21   -1    0    0  503  502  0.00000000000E+00  0.00000000000E+00  0.24033939943E+03  0.24033939943E+03  0.00000000000E+00 0. -1.
         21   -1    0    0  501  503 -0.00000000000E+00 -0.00000000000E+00 -0.57882869773E+03  0.57882869773E+03  0.00000000000E+00 0.  1.
          6    2    1    2  501    0  0.70959527270E+02 -0.13347754821E+03 -0.49283390478E+03  0.54352437515E+03  0.17228458519E+03 0.  0.
         24    2    3    3    0    0  0.75515287728E+02 -0.13241650248E+03 -0.50253305608E+03  0.53177514932E+03  0.83717669449E+02 0.  0.
         -6    2    1    2    0  502 -0.70959527270E+02  0.13347754821E+03  0.15434460647E+03  0.27564372202E+03  0.17118905792E+03 0.  0.
        -24    2    5    5    0    0 -0.94852098567E+01  0.11816622287E+02  0.10246999919E+03  0.12972066873E+03  0.78088087403E+02 0.  0.
          5    1    3    3  501    0 -0.45557604582E+01 -0.10610457340E+01  0.96991513024E+01  0.11749225821E+02  0.47000000000E+01 0. -1.
        -13    1    4    4    0    0  0.89356367678E+02 -0.80810600173E+02 -0.34642964915E+03  0.36678115458E+03  0.00000000000E+00 0.  1.
         14    1    4    4    0    0 -0.13841079950E+02 -0.51605902306E+02 -0.15610340693E+03  0.16499399475E+03  0.00000000000E+00 0. -1.
         -5    1    5    5    0  502 -0.61474317414E+02  0.12166092593E+03  0.51874607281E+02  0.14592305328E+03  0.47000000000E+01 0.  1.
         13    1    6    6    0    0  0.22307743526E+02  0.33972156320E+02  0.48446839729E+02  0.63236374865E+02  0.00000000000E+00 0. -1.
        -14    1    6    6    0    0 -0.31792953382E+02 -0.22155534033E+02  0.54023159461E+02  0.66484293869E+02  0.00000000000E+00 0.  1.
</event>
<event>
12    1  0.8258923E-002  0.2058867E+03  0.7818608E-02  0.1145094E+00
         21   -1    0    0  503  502  0.00000000000E+00  0.00000000000E+00  0.80051970245E+03  0.80051970245E+03  0.00000000000E+00 0.  1.
         21   -1    0    0  501  503 -0.00000000000E+00 -0.00000000000E+00 -0.26977628474E+03  0.26977628474E+03  0.00000000000E+00 0.  1.
          6    2    1    2  501    0  0.22246341518E+02  0.11160663370E+03 -0.21484932367E+03  0.29679882636E+03  0.17023034704E+03 0.  0.
         24    2    3    3    0    0 -0.21924693707E+02 -0.26214706485E+01 -0.92927453843E+02  0.12392264952E+03  0.78954082130E+02 0.  0.
         -6    2    1    2    0  502 -0.22246341518E+02 -0.11160663370E+03  0.74559274138E+03  0.77349716084E+03  0.17157616800E+03 0.  0.
        -24    2    5    5    0    0 -0.61353149481E+02 -0.89889501019E+02  0.34498773961E+03  0.37037505313E+03  0.79478350208E+02 0.  0.
          5    1    3    3  501    0  0.44171035225E+02  0.11422810435E+03 -0.12192186983E+03  0.17287617684E+03  0.47000000000E+01 0. -1.
        -11    1    4    4    0    0 -0.42786270729E+02 -0.11582993033E+02 -0.90894528803E+02  0.10112688098E+03  0.00000000000E+00 0.  1.
         12    1    4    4    0    0  0.20861577022E+02  0.89615223848E+01 -0.20329250398E+01  0.22795768544E+02  0.00000000000E+00 0. -1.
         -5    1    5    5    0  502  0.39106807964E+02 -0.21717132684E+02  0.40060500177E+03  0.40312210771E+03  0.47000000000E+01 0.  1.
         11    1    6    6    0    0  0.24885740286E+01  0.11802540578E+01 -0.35668815471E+01  0.45065113234E+01  0.00000000000E+00 0. -1.
        -12    1    6    6    0    0 -0.63841723510E+02 -0.91069755076E+02  0.34855462116E+03  0.36586854180E+03  0.00000000000E+00 0.  1.
</event>
<event>
12    1  0.8258923E-002  0.2095412E+03  0.7818608E-02  0.1142007E+00
         21   -1    0    0  501  502  0.00000000000E+00  0.00000000000E+00  0.59104809537E+03  0.59104809537E+03  0.00000000000E+00 0. -1.
         21   -1    0    0  502  503 -0.00000000000E+00 -0.00000000000E+00 -0.79737407651E+02  0.79737407651E+02  0.00000000000E+00 0.  1.
         -6    2    1    2    0  503 -0.99013324041E+02 -0.65890481774E+02  0.34422194078E+03  0.40278146064E+03  0.17204350205E+03 0.  0.
        -24    2    3    3    0    0 -0.11200212724E+03 -0.20363615395E+02  0.15546729732E+03  0.20812327305E+03  0.78651528340E+02 0.  0.
          6    2    1    2  501    0  0.99013324041E+02  0.65890481774E+02  0.16708874694E+03  0.26800404238E+03  0.17251760331E+03 0.  0.
         24    2    5    5    0    0  0.10702628889E+03  0.16728607985E+02  0.17067777688E+03  0.21784361399E+03  0.81181671571E+02 0.  0.
          5    1    5    5  501    0 -0.80129648489E+01  0.49161873790E+02 -0.35890299332E+01  0.50160428388E+02  0.47000000000E+01 0. -1.
        -11    1    6    6    0    0  0.56630828038E+02  0.43295217082E+02  0.59235546291E+02  0.92684283732E+02  0.00000000000E+00 0.  1.
         12    1    6    6    0    0  0.50395460852E+02 -0.26566609098E+02  0.11144223059E+03  0.12515933026E+03  0.00000000000E+00 0. -1.
         -5    1    3    3    0  503  0.12988803198E+02 -0.45526866379E+02  0.18875464346E+03  0.19465818760E+03  0.47000000000E+01 0.  1.
         11    1    4    4    0    0 -0.22292826555E+02 -0.35135493408E+02  0.79146977124E+02  0.89418773200E+02  0.00000000000E+00 0. -1.
        -12    1    4    4    0    0 -0.89709300684E+02  0.14771878012E+02  0.76320320195E+02  0.11870449985E+03  0.00000000000E+00 0.  1.
</event>
<event>
12    1  0.8258923E-002  0.3034466E+03  0.7818608E-02  0.1083645E+00
         21   -1    0    0  501  502  0.00000000000E+00  0.00000000000E+00  0.11621272477E+04  0.11621272477E+04  0.00000000000E+00 0.  1.
         21   -1    0    0  502  503 -0.00000000000E+00 -0.00000000000E+00 -0.80568974483E+02  0.80568974483E+02  0.00000000000E+00 0. -1.
         -6    2    1    2    0  503  0.21295167112E+02  0.24940046828E+03  0.62855801183E+03  0.69797208598E+03  0.17153944403E+03 0.  0.
        -24    2    3    3    0    0 -0.23333304576E+01  0.36566396310E+02  0.12587863509E+03  0.15156079960E+03  0.76044062447E+02 0.  0.
          6    2    1    2  501    0 -0.21295167112E+02 -0.24940046828E+03  0.45300026141E+03  0.54472413622E+03  0.16988546149E+03 0.  0.
         24    2    5    5    0    0 -0.55113859502E+02 -0.68839688443E+02  0.19425082338E+03  0.22736115658E+03  0.78633789945E+02 0.  0.
          5    1    5    5  501    0  0.33818692391E+02 -0.18056077983E+03  0.25874943803E+03  0.31736297964E+03  0.47000000000E+01 0. -1.
        -11    1    6    6    0    0 -0.60635940287E+02 -0.52916624881E+02  0.85910782499E+02  0.11771809119E+03  0.00000000000E+00 0.  1.
         12    1    6    6    0    0  0.55220807849E+01 -0.15923063562E+02  0.10834004088E+03  0.10964306539E+03  0.00000000000E+00 0. -1.
         -5    1    3    3    0  503  0.23628497569E+02  0.21283407197E+03  0.50267937673E+03  0.54641128638E+03  0.47000000000E+01 0.  1.
         13    1    4    4    0    0 -0.54193612337E+01  0.60151504802E+02  0.85125769091E+02  0.10437418057E+03  0.00000000000E+00 0. -1.
        -14    1    4    4    0    0  0.30860307760E+01 -0.23585108492E+02  0.40752866000E+02  0.47186619033E+02  0.00000000000E+00 0.  1.
</event>
<event>
12    1  0.8258923E-002  0.2224051E+03  0.7818608E-02  0.1132246E+00
         21   -1    0    0  501  502  0.00000000000E+00  0.00000000000E+00  0.26350747645E+03  0.26350747645E+03  0.00000000000E+00 0.  1.
         21   -1    0    0  502  503 -0.00000000000E+00 -0.00000000000E+00 -0.25338212157E+03  0.25338212157E+03  0.00000000000E+00 0.  1.
         -6    2    1    2    0  503 -0.48623595816E+02  0.13256494466E+03 -0.12716913810E+03  0.25552049796E+03  0.17082451982E+03 0.  0.
        -24    2    3    3    0    0 -0.27304558287E+02 -0.50196322730E+00 -0.65993212227E+02  0.10744657304E+03  0.80273726256E+02 0.  0.
          6    2    1    2  501    0  0.48623595816E+02 -0.13256494466E+03  0.13729449298E+03  0.26136910006E+03  0.17183221479E+03 0.  0.
         24    2    5    5    0    0 -0.28978134122E+02 -0.11463211513E+03  0.81986295061E+02  0.16428819761E+03  0.79300726474E+02 0.  0.
          5    1    5    5  501    0  0.77601729938E+02 -0.17932829535E+02  0.55308197915E+02  0.97080902453E+02  0.47000000000E+01 0. -1.
        -11    1    6    6    0    0 -0.97464373959E+01 -0.62820443674E+02  0.88147334123E+02  0.10868005198E+03  0.00000000000E+00 0.  1.
         12    1    6    6    0    0 -0.19231696726E+02 -0.51811671452E+02 -0.61610390622E+01  0.55608145626E+02  0.00000000000E+00 0. -1.
         -5    1    3    3    0  503 -0.21319037528E+02  0.13306690789E+03 -0.61175925874E+02  0.14807392492E+03  0.47000000000E+01 0.  1.
         11    1    4    4    0    0 -0.49624294753E+02 -0.10545029858E+02 -0.65651271946E+02  0.82969017064E+02  0.00000000000E+00 0. -1.
        -12    1    4    4    0    0  0.22319736465E+02  0.10043066631E+02 -0.34194028045E+00  0.24477555973E+02  0.00000000000E+00 0.  1.
</event>
<event>
12    1  0.8258923E-002  0.3062795E+03  0.7818608E-02  0.1082450E+00
         21   -1    0    0  503  502  0.00000000000E+00  0.00000000000E+00  0.10733318262E+04  0.10733318262E+04  0.00000000000E+00 0.  1.
         21   -1    0    0  501  503 -0.00000000000E+00 -0.00000000000E+00 -0.14501662533E+03  0.14501662533E+03  0.00000000000E+00 0. -1.
          6    2    1    2  501    0  0.13085477627E+02  0.25073371302E+03  0.78939877535E+02  0.31628882555E+03  0.17540949897E+03 0.  0.
         24    2    3    3    0    0 -0.65782063536E+01  0.21164459397E+03  0.12025211249E+03  0.25592815579E+03  0.78752418461E+02 0.  0.
         -6    2    1    2    0  502 -0.13085477627E+02 -0.25073371302E+03  0.84937532334E+03  0.90205962599E+03  0.17098100591E+03 0.  0.
        -24    2    5    5    0    0 -0.26226965289E+02 -0.11649335567E+03  0.61846215883E+03  0.63459719539E+03  0.77198464168E+02 0.  0.
          5    1    3    3  501    0  0.19663683981E+02  0.39089119055E+02 -0.41312234956E+02  0.60360669754E+02  0.47000000000E+01 0. -1.
        -11    1    4    4    0    0  0.30041352690E+02  0.67040340391E+02  0.19785610110E+02  0.76081275480E+02  0.00000000000E+00 0.  1.
         12    1    4    4    0    0 -0.36619559044E+02  0.14460425358E+03  0.10046650238E+03  0.17984688031E+03  0.00000000000E+00 0. -1.
         -5    1    5    5    0  502  0.13141487663E+02 -0.13424035736E+03  0.23091316450E+03  0.26746243060E+03  0.47000000000E+01 0.  1.
         13    1    6    6    0    0  0.27452388764E+02 -0.34536529605E+02  0.18112470068E+03  0.18642039245E+03  0.00000000000E+00 0. -1.
        -14    1    6    6    0    0 -0.53679354054E+02 -0.81956826061E+02  0.43733745816E+03  0.44817680294E+03  0.00000000000E+00 0.  1.
</event>
<event>
12    1  0.8258923E-002  0.1902152E+03  0.7818608E-02  0.1158456E+00
         21   -1    0    0  501  502  0.00000000000E+00  0.00000000000E+00  0.35777445089E+03  0.35777445089E+03  0.00000000000E+00 0.  1.
         21   -1    0    0  502  503 -0.00000000000E+00 -0.00000000000E+00 -0.60800328998E+03  0.60800328998E+03  0.00000000000E+00 0.  1.
         -6    2    1    2    0  503  0.30717287882E+02 -0.77950586859E+02 -0.56625674339E+03  0.59735126399E+03  0.17076881268E+03 0.  0.
        -24    2    3    3    0    0  0.46568462372E+02 -0.10326038096E+02 -0.15502588857E+03  0.18026944313E+03  0.78668909044E+02 0.  0.
          6    2    1    2  501    0 -0.30717287882E+02  0.77950586859E+02  0.31602790430E+03  0.36842647688E+03  0.16983694180E+03 0.  0.
         24    2    5    5    0    0 -0.29750900973E+02 -0.19330553155E+02  0.16293991610E+03  0.18698068266E+03  0.84578797794E+02 0.  0.
          5    1    5    5  501    0 -0.96638690885E+00  0.97281140014E+02  0.15308798821E+03  0.18144579422E+03  0.47000000000E+01 0. -1.
        -13    1    6    6    0    0 -0.49950341105E+02  0.14737151780E+02  0.95068835914E+02  0.10839881817E+03  0.00000000000E+00 0.  1.
         14    1    6    6    0    0  0.20199440131E+02 -0.34067704935E+02  0.67871080184E+02  0.78581864489E+02  0.00000000000E+00 0. -1.
         -5    1    3    3    0  503 -0.15851174490E+02 -0.67624548762E+02 -0.41123085483E+03  0.41708182086E+03  0.47000000000E+01 0.  1.
         13    1    4    4    0    0  0.29499651544E+02 -0.44492393070E+02 -0.98777486011E+02  0.11227998141E+03  0.00000000000E+00 0. -1.
        -14    1    4    4    0    0  0.17068810828E+02  0.34166354973E+02 -0.56248402555E+02  0.67989461722E+02  0.00000000000E+00 0.  1.
</event>
<event>
12    1  0.8258923E-002  0.1995571E+03  0.7818608E-02  0.1150497E+00
         21   -1    0    0  503  502  0.00000000000E+00  0.00000000000E+00  0.50705592817E+03  0.50705592817E+03  0.00000000000E+00 0.  1.
         21   -1    0    0  501  503 -0.00000000000E+00 -0.00000000000E+00 -0.81475039984E+02  0.81475039984E+02  0.00000000000E+00 0. -1.
          6    2    1    2  501    0 -0.46376744003E+02  0.89350665660E+02  0.15146390583E+03  0.25052813628E+03  0.17230405816E+03 0.  0.
         24    2    3    3    0    0 -0.54835938848E+01 -0.88002558014E+01  0.42793840418E+02  0.98419207458E+02  0.88019959753E+02 0.  0.
         -6    2    1    2    0  502  0.46376744003E+02 -0.89350665660E+02  0.27411698235E+03  0.33800283187E+03  0.17021001880E+03 0.  0.
        -24    2    5    5    0    0 -0.26496876372E+02 -0.79475258089E+02  0.11725295360E+03  0.16469241171E+03  0.79730384676E+02 0.  0.
          5    1    3    3  501    0 -0.40893150119E+02  0.98150921462E+02  0.10867006542E+03  0.15210892882E+03  0.47000000000E+01 0. -1.
        -11    1    4    4    0    0 -0.34354680720E+01 -0.21065416566E+02  0.67481618076E+02  0.70776570941E+02  0.00000000000E+00 0.  1.
         12    1    4    4    0    0 -0.20481258128E+01  0.12265160764E+02 -0.24687777658E+02  0.27642636517E+02  0.00000000000E+00 0. -1.
         -5    1    5    5    0  502  0.72873620376E+02 -0.98754075715E+01  0.15686402874E+03  0.17331042016E+03  0.47000000000E+01 0.  1.
         13    1    6    6    0    0  0.20005674203E+01  0.70630943529E+01  0.52269421596E+02  0.52782402425E+02  0.00000000000E+00 0. -1.
        -14    1    6    6    0    0 -0.28497443792E+02 -0.86538352442E+02  0.64983532008E+02  0.11191000929E+03  0.00000000000E+00 0.  1.
</event>
<event>
12    1  0.8258923E-002  0.2063038E+03  0.7818608E-02  0.1145132E+00
         21   -1    0    0  503  502  0.00000000000E+00  0.00000000000E+00  0.26556347409E+02  0.26556347409E+02  0.00000000000E+00 0.  1.
         21   -1    0    0  501  503 -0.00000000000E+00 -0.00000000000E+00 -0.20820327093E+04  0.20820327093E+04  0.00000000000E+00 0.  1.
          6    2    1    2  501    0 -0.96605546980E+02 -0.49637012878E+02 -0.15399324477E+04  0.15532992419E+04  0.17190150251E+03 0.  0.
         24    2    3    3    0    0 -0.84240183169E+02 -0.79881545166E+02 -0.77939940973E+03  0.79205011984E+03  0.80015515541E+02 0.  0.
         -6    2    1    2    0  502  0.96605546980E+02  0.49637012878E+02 -0.51554391423E+03  0.55528981488E+03  0.17539893458E+03 0.  0.
        -24    2    5    5    0    0  0.95072760099E+02 -0.24639240734E+02 -0.26263153221E+03  0.29164976809E+03  0.80239289774E+02 0.  0.
          5    1    3    3  501    0 -0.12365363812E+02  0.30244532288E+02 -0.76053303796E+03  0.76124912203E+03  0.47000000000E+01 0. -1.
        -13    1    4    4    0    0 -0.74938268815E+02 -0.25526550750E+02 -0.33421409746E+03  0.34346238785E+03  0.00000000000E+00 0.  1.
         14    1    4    4    0    0 -0.93019143540E+01 -0.54354994416E+02 -0.44518531227E+03  0.44858773199E+03  0.00000000000E+00 0. -1.
         -5    1    5    5    0  502  0.15327868808E+01  0.74276253612E+02 -0.25291238202E+03  0.26364004678E+03  0.47000000000E+01 0.  1.
         11    1    6    6    0    0  0.72646938599E+02 -0.52037833478E+02 -0.16261117114E+03  0.18554758630E+03  0.00000000000E+00 0. -1.
        -12    1    6    6    0    0  0.22425821500E+02  0.27398592744E+02 -0.10002036107E+03  0.10610218180E+03  0.00000000000E+00 0.  1.
</event>
<event>
12    1  0.8258923E-002  0.1752618E+03  0.7818608E-02  0.1172946E+00
         21   -1    0    0  501  502  0.00000000000E+00  0.00000000000E+00  0.59302092034E+02  0.59302092034E+02  0.00000000000E+00 0. -1.
         21   -1    0    0  502  503 -0.00000000000E+00 -0.00000000000E+00 -0.15392837948E+04  0.15392837948E+04  0.00000000000E+00 0. -1.
         -6    2    1    2    0  503 -0.75435540507E+01 -0.29396513931E+02 -0.13941688289E+04  0.14051417823E+04  0.17261414917E+03 0.  0.
        -24    2    3    3    0    0 -0.13365577066E+02  0.24723363780E+01 -0.13350107602E+04  0.13375304913E+04  0.80927956857E+02 0.  0.
          6    2    1    2  501    0  0.75435540507E+01  0.29396513931E+02 -0.85812873816E+02  0.19344410454E+03  0.17069186281E+03 0.  0.
         24    2    5    5    0    0  0.38976946937E+02  0.75637061631E+02 -0.63859931681E+02  0.13319239827E+03  0.80137111243E+02 0.  0.
          5    1    5    5  501    0 -0.31433392886E+02 -0.46240547700E+02 -0.21952942135E+02  0.60251706269E+02  0.47000000000E+01 0. -1.
        -11    1    6    6    0    0  0.40631163809E+02  0.25744205101E+01 -0.87023043800E+01  0.41632309748E+02  0.00000000000E+00 0.  1.
         12    1    6    6    0    0 -0.16542168723E+01  0.73062641120E+02 -0.55157627301E+02  0.91560088523E+02  0.00000000000E+00 0. -1.
         -5    1    3    3    0  503  0.58220230157E+01 -0.31868850309E+02 -0.59158068740E+02  0.67611290988E+02  0.47000000000E+01 0.  1.
         11    1    4    4    0    0 -0.19339777082E+02 -0.36935204884E+02 -0.60779940145E+03  0.60922766577E+03  0.00000000000E+00 0. -1.
        -12    1    4    4    0    0  0.59742000157E+01  0.39407541262E+02 -0.72721135872E+03  0.72830282549E+03  0.00000000000E+00 0.  1.
</event>
<event>
12    1  0.8258923E-002  0.1762837E+03  0.7818608E-02  0.1171666E+00
         21   -1    0    0  503  502  0.00000000000E+00  0.00000000000E+00  0.10367413898E+04  0.10367413898E+04  0.00000000000E+00 0. -1.
         21   -1    0    0  501  503 -0.00000000000E+00 -0.00000000000E+00 -0.92445216316E+02  0.92445216316E+02  0.00000000000E+00 0. -1.
          6    2    1    2  501    0  0.40323533575E+02  0.50956180196E+01  0.78559624331E+01  0.17645863020E+03  0.17153419293E+03 0.  0.
         24    2    3    3    0    0 -0.44066907814E+02 -0.86168148987E+01  0.49165740539E+01  0.90781868947E+02  0.78746639076E+02 0.  0.
         -6    2    1    2    0  502 -0.40323533575E+02 -0.50956180196E+01  0.93644021110E+03  0.95272797596E+03  0.17064106933E+03 0.  0.
        -24    2    5    5    0    0 -0.16565562217E+02  0.62728737733E+02  0.56734448864E+03  0.57667169457E+03  0.80381354457E+02 0.  0.
          5    1    3    3  501    0  0.84390441389E+02  0.13712432918E+02  0.29393883791E+01  0.85676761251E+02  0.47000000000E+01 0. -1.
        -13    1    4    4    0    0 -0.25887612540E+02 -0.14150617361E+02  0.40698460270E+02  0.50267018243E+02  0.00000000000E+00 0.  1.
         14    1    4    4    0    0 -0.18179295274E+02  0.55338024619E+01 -0.35781886216E+02  0.40514850703E+02  0.00000000000E+00 0. -1.
         -5    1    5    5    0  502 -0.23757971359E+02 -0.67824355753E+02  0.36909572246E+03  0.37605628139E+03  0.47000000000E+01 0.  1.
         11    1    6    6    0    0 -0.46805349221E+02  0.27566420631E+02  0.24082858818E+03  0.24687862837E+03  0.00000000000E+00 0. -1.
        -12    1    6    6    0    0  0.30239787005E+02  0.35162317102E+02  0.32651590046E+03  0.32979306620E+03  0.00000000000E+00 0.  1.
</event>
<event>
12    1  0.8258923E-002  0.2297095E+03  0.7818608E-02  0.1126954E+00
         21   -1    0    0  501  502  0.00000000000E+00  0.00000000000E+00  0.12413161541E+03  0.12413161541E+03  0.00000000000E+00 0. -1.
         21   -1    0    0  502  503 -0.00000000000E+00 -0.00000000000E+00 -0.42750196938E+03  0.42750196938E+03  0.00000000000E+00 0.  1.
         -6    2    1    2    0  503 -0.15054498813E+03 -0.24760171454E+02 -0.17708247157E+03  0.29004251898E+03  0.17172536661E+03 0.  0.
        -24    2    3    3    0    0 -0.15336439282E+03 -0.18113904423E+02 -0.78595064094E+02  0.19117907104E+03  0.80768202799E+02 0.  0.
          6    2    1    2  501    0  0.15054498813E+03  0.24760171454E+02 -0.12628788240E+03  0.26159106580E+03  0.17089293995E+03 0.  0.
         24    2    5    5    0    0  0.10283676059E+03  0.54548448253E+02 -0.14521197513E+03  0.20206268858E+03  0.78688498910E+02 0.  0.
          5    1    5    5  501    0  0.47708227535E+02 -0.29788276799E+02  0.18924092725E+02  0.59528377222E+02  0.47000000000E+01 0. -1.
        -11    1    6    6    0    0  0.52368304320E+02 -0.15049891679E+02 -0.58976845410E+02  0.80294500630E+02  0.00000000000E+00 0.  1.
         12    1    6    6    0    0  0.50468456274E+02  0.69598339932E+02 -0.86235129716E+02  0.12176818795E+03  0.00000000000E+00 0. -1.
         -5    1    3    3    0  503  0.28194046935E+01 -0.66462670313E+01 -0.98487407474E+02  0.98863447943E+02  0.47000000000E+01 0.  1.
         11    1    4    4    0    0 -0.36588643347E+02 -0.30098139224E+02 -0.52893168999E+02  0.71009253858E+02  0.00000000000E+00 0. -1.
        -12    1    4    4    0    0 -0.11677574948E+03  0.11984234801E+02 -0.25701895095E+02  0.12016981718E+03  0.00000000000E+00 0.  1.
</event>
<event>
12    1  0.8258923E-002  0.2067779E+03  0.7818608E-02  0.1144439E+00
         21   -1    0    0  501  502  0.00000000000E+00  0.00000000000E+00  0.38130933428E+03  0.38130933428E+03  0.00000000000E+00 0. -1.
         21   -1    0    0  502  503 -0.00000000000E+00 -0.00000000000E+00 -0.18269287021E+03  0.18269287021E+03  0.00000000000E+00 0.  1.
         -6    2    1    2    0  503  0.39773682313E+02 -0.10629963410E+03 -0.76709292767E+02  0.22054794807E+03  0.17284537537E+03 0.  0.
        -24    2    3    3    0    0 -0.28961781551E+02 -0.15555836611E+02 -0.75272462138E+01  0.87254113478E+02  0.80472678842E+02 0.  0.
          6    2    1    2  501    0 -0.39773682313E+02  0.10629963410E+03  0.27532575684E+03  0.34345425643E+03  0.17109937424E+03 0.  0.
         24    2    5    5    0    0  0.27921098156E+02  0.13751710565E+01  0.16104355747E+03  0.17411956612E+03  0.60009308335E+02 0.  0.
          5    1    5    5  501    0 -0.67694780469E+02  0.10492446304E+03  0.11428219937E+03  0.16933469030E+03  0.47000000000E+01 0. -1.
        -11    1    6    6    0    0  0.64488194425E+01 -0.13379110901E+02  0.46387350352E+01  0.15559747538E+02  0.00000000000E+00 0.  1.
         12    1    6    6    0    0  0.21472278713E+02  0.14754281958E+02  0.15640482243E+03  0.15855981859E+03  0.00000000000E+00 0. -1.
         -5    1    3    3    0  503  0.68735463864E+02 -0.90743797486E+02 -0.69182046553E+02  0.13329383459E+03  0.47000000000E+01 0.  1.
         13    1    4    4    0    0 -0.44312112837E+02 -0.37444810991E+02 -0.14141383105E+02  0.59713113554E+02  0.00000000000E+00 0. -1.
        -14    1    4    4    0    0  0.15350331286E+02  0.21888974380E+02  0.66141368909E+01  0.27540999924E+02  0.00000000000E+00 0.  1.
</event>
<event>
12    1  0.8258923E-002  0.2439852E+03  0.7818608E-02  0.1117217E+00
         21   -1    0    0  503  502  0.00000000000E+00  0.00000000000E+00  0.85470685396E+03  0.85470685396E+03  0.00000000000E+00 0.  1.
         21   -1    0    0  501  503 -0.00000000000E+00 -0.00000000000E+00 -0.87274842388E+03  0.87274842388E+03  0.00000000000E+00 0.  1.
          6    2    1    2  501    0 -0.10638697737E+03 -0.13526951366E+03 -0.83761424751E+03  0.87242557560E+03  0.17295296193E+03 0.  0.
         24    2    3    3    0    0 -0.27046872204E+02 -0.67863648384E+01 -0.47431808053E+03  0.47896786915E+03  0.60456514264E+02 0.  0.
         -6    2    1    2    0  502  0.10638697737E+03  0.13526951366E+03  0.81957267759E+03  0.85502970225E+03  0.17251199259E+03 0.  0.
        -24    2    5    5    0    0 -0.26560426183E+01  0.86066649088E+02  0.30659772333E+03  0.32826913444E+03  0.79648841983E+02 0.  0.
          5    1    3    3  501    0 -0.79340105166E+02 -0.12848314882E+03 -0.36329616698E+03  0.39345770645E+03  0.47000000000E+01 0. -1.
        -11    1    4    4    0    0 -0.44265144888E+02 -0.82789653340E+01 -0.25304369037E+03  0.25701955870E+03  0.00000000000E+00 0.  1.
         12    1    4    4    0    0  0.17218272684E+02  0.14926004957E+01 -0.22127439016E+03  0.22194831045E+03  0.00000000000E+00 0. -1.
         -5    1    5    5    0  502  0.10904301999E+03  0.49202864568E+02  0.51297495427E+03  0.52676056781E+03  0.47000000000E+01 0.  1.
         13    1    6    6    0    0 -0.20707354550E+02  0.79207151721E+02  0.29406328718E+03  0.30524708727E+03  0.00000000000E+00 0. -1.
        -14    1    6    6    0    0  0.18051311931E+02  0.68594973676E+01  0.12534436143E+02  0.23022047172E+02  0.00000000000E+00 0.  1.
</event>
<event>
12    1  0.8258923E-002  0.2326852E+03  0.7818608E-02  0.1124783E+00
         21   -1    0    0  501  502  0.00000000000E+00  0.00000000000E+00  0.41629050946E+03  0.41629050946E+03  0.00000000000E+00 0.  1.
         21   -1    0    0  502  503 -0.00000000000E+00 -0.00000000000E+00 -0.13375929233E+03  0.13375929233E+03  0.00000000000E+00 0. -1.
         -6    2    1    2    0  503  0.28644726335E+02  0.15418473417E+03  0.95121311787E+02  0.25127749143E+03  0.17175232501E+03 0.  0.
        -24    2    3    3    0    0  0.14426195725E+02  0.13249337728E+03  0.28802653890E+01  0.15534427395E+03  0.79755484910E+02 0.  0.
          6    2    1    2  501    0 -0.28644726335E+02 -0.15418473417E+03  0.18740990534E+03  0.29877231036E+03  0.17189813327E+03 0.  0.
         24    2    5    5    0    0 -0.10677328424E+02 -0.10994158832E+03  0.37160418616E+02  0.14104697440E+03  0.79449317754E+02 0.  0.
          5    1    5    5  501    0 -0.17967397911E+02 -0.44243145847E+02  0.15024948672E+03  0.15772533596E+03  0.47000000000E+01 0. -1.
        -11    1    6    6    0    0  0.13816964727E+02 -0.97757794551E+01  0.33885866627E+02  0.37877781552E+02  0.00000000000E+00 0.  1.
         12    1    6    6    0    0 -0.24494293151E+02 -0.10016580886E+03  0.32745519885E+01  0.10316919285E+03  0.00000000000E+00 0. -1.
         -5    1    3    3    0  503  0.14218530611E+02  0.21691356887E+02  0.92241046398E+02  0.95933217484E+02  0.47000000000E+01 0.  1.
         11    1    4    4    0    0  0.16414904215E+02  0.24341941967E+02 -0.30309067954E+02  0.42197379295E+02  0.00000000000E+00 0. -1.
        -12    1    4    4    0    0 -0.19887084907E+01  0.10815143531E+03  0.33189333343E+02  0.11314689465E+03  0.00000000000E+00 0.  1.
</event>
<event>
12    1  0.8258923E-002  0.2091016E+03  0.7818608E-02  0.1143137E+00
         21   -1    0    0  503  502  0.00000000000E+00  0.00000000000E+00  0.38330931933E+02  0.38330931933E+02  0.00000000000E+00 0. -1.
         21   -1    0    0  501  503 -0.00000000000E+00 -0.00000000000E+00 -0.14526150946E+04  0.14526150946E+04  0.00000000000E+00 0.  1.
          6    2    1    2  501    0  0.10290216382E+03  0.46098311257E+02 -0.10707445686E+04  0.10909708659E+04  0.17609539908E+03 0.  0.
         24    2    3    3    0    0  0.81480732366E+02  0.27343557778E+02 -0.33822619558E+03  0.35788432583E+03  0.79356483062E+02 0.  0.
         -6    2    1    2    0  502 -0.10290216382E+03 -0.46098311257E+02 -0.34353959407E+03  0.39997516057E+03  0.17101686104E+03 0.  0.
        -24    2    5    5    0    0 -0.10945265982E+02 -0.71549250866E+02 -0.20663812541E+03  0.23303827576E+03  0.79802437015E+02 0.  0.
          5    1    3    3  501    0  0.21421431452E+02  0.18754753479E+02 -0.73251837301E+03  0.73308654012E+03  0.47000000000E+01 0. -1.
        -11    1    4    4    0    0 -0.12522817466E+02  0.33822733791E+01 -0.97301400228E+02  0.98162229074E+02  0.00000000000E+00 0.  1.
         12    1    4    4    0    0  0.94003549832E+02  0.23961284399E+02 -0.24092479535E+03  0.25972209676E+03  0.00000000000E+00 0. -1.
         -5    1    5    5    0  502 -0.91956897836E+02  0.25450939609E+02 -0.13690146867E+03  0.16693688481E+03  0.47000000000E+01 0.  1.
         13    1    6    6    0    0  0.25085439551E+02 -0.63102999235E+01 -0.22111299264E+02  0.34029527146E+02  0.00000000000E+00 0. -1.
        -14    1    6    6    0    0 -0.36030705533E+02 -0.65238950942E+02 -0.18452682614E+03  0.19900874862E+03  0.00000000000E+00 0.  1.
</event>
<event>
12    1  0.8258923E-002  0.1772848E+03  0.7818608E-02  0.1171417E+00
         21   -1    0    0  501  502  0.00000000000E+00  0.00000000000E+00  0.12297521275E+03  0.12297521275E+03  0.00000000000E+00 0.  1.
         21   -1    0    0  502  503 -0.00000000000E+00 -0.00000000000E+00 -0.26271257096E+03  0.26271257096E+03  0.00000000000E+00 0.  1.
         -6    2    1    2    0  503 -0.17699051205E+02  0.33971551069E+02 -0.11144233046E+03  0.20615920575E+03  0.16915939938E+03 0.  0.
        -24    2    3    3    0    0  0.37244396370E+02  0.41229690984E+02 -0.11500386368E+03  0.15042557546E+03  0.79466550271E+02 0.  0.
          6    2    1    2  501    0  0.17699051205E+02 -0.33971551069E+02 -0.28295027749E+02  0.17952857796E+03  0.17309702196E+03 0.  0.
         24    2    5    5    0    0 -0.32882074095E+02  0.10758527871E+02 -0.59284736166E+02  0.10508610200E+03  0.79570297050E+02 0.  0.
          5    1    5    5  501    0  0.50581125300E+02 -0.44730078940E+02  0.30989708418E+02  0.74442475956E+02  0.47000000000E+01 0. -1.
        -11    1    6    6    0    0 -0.47705656424E+01  0.32919024791E+02  0.28427523716E+01  0.33384153887E+02  0.00000000000E+00 0.  1.
         12    1    6    6    0    0 -0.28111508453E+02 -0.22160496919E+02 -0.62127488538E+02  0.71701948113E+02  0.00000000000E+00 0. -1.
         -5    1    3    3    0  503 -0.54943447575E+02 -0.72581399155E+01  0.35615332132E+01  0.55733630290E+02  0.47000000000E+01 0.  1.
         13    1    4    4    0    0  0.26405966495E+02  0.49595054143E+02 -0.12253281522E+03  0.13480072428E+03  0.00000000000E+00 0. -1.
        -14    1    4    4    0    0  0.10838429875E+02 -0.83653631585E+01  0.75289515419E+01  0.15624851175E+02  0.00000000000E+00 0.  1.
</event>
<event>
12    1  0.8258923E-002  0.1751175E+03  0.7818608E-02  0.1172764E+00
         21   -1    0    0  503  502  0.00000000000E+00  0.00000000000E+00  0.31115123370E+04  0.31115123370E+04  0.00000000000E+00 0. -1.
         21   -1    0    0  501  503 -0.00000000000E+00 -0.00000000000E+00 -0.10775007856E+02  0.10775007856E+02  0.00000000000E+00 0. -1.
          6    2    1    2  501    0 -0.14879210962E+01 -0.29300619807E+02  0.10837259753E+04  0.10976883896E+04  0.17203799210E+03 0.  0.
         24    2    3    3    0    0 -0.37392555203E+02  0.53726869046E+01  0.31282082037E+03  0.32515474699E+03  0.80260045378E+02 0.  0.
         -6    2    1    2    0  502  0.14879210962E+01  0.29300619807E+02  0.20170113538E+04  0.20245989553E+04  0.17264237071E+03 0.  0.
        -24    2    5    5    0    0  0.52346286539E+02 -0.20438972914E+02  0.14172682519E+04  0.14206333282E+04  0.79949171589E+02 0.  0.
          5    1    3    3  501    0  0.35904634106E+02 -0.34673306712E+02  0.77090515496E+03  0.77253364257E+03  0.47000000000E+01 0. -1.
        -11    1    4    4    0    0  0.14585425287E+02 -0.16665487328E+02  0.33317953048E+02  0.40006988065E+02  0.00000000000E+00 0.  1.
         12    1    4    4    0    0 -0.51977980489E+02  0.22038174232E+02  0.27950286733E+03  0.28514775893E+03  0.00000000000E+00 0. -1.
         -5    1    5    5    0  502 -0.50858365442E+02  0.49739592721E+02  0.59974310188E+03  0.60396562706E+03  0.47000000000E+01 0.  1.
         11    1    6    6    0    0  0.56010631694E+02  0.26440651878E+00  0.50056096700E+03  0.50368496350E+03  0.00000000000E+00 0. -1.
        -12    1    6    6    0    0 -0.36643451552E+01 -0.20703379432E+02  0.91670728491E+03  0.91694836472E+03  0.00000000000E+00 0.  1.
</event>
<event>
12    1  0.8258923E-002  0.1922698E+03  0.7818608E-02  0.1156629E+00
         21   -1    0    0  501  502  0.00000000000E+00  0.00000000000E+00  0.52737017751E+02  0.52737017751E+02  0.00000000000E+00 0. -1.
         21   -1    0    0  502  503 -0.00000000000E+00 -0.00000000000E+00 -0.69809262639E+03  0.69809262639E+03  0.00000000000E+00 0.  1.
         -6    2    1    2    0  503 -0.83989956692E+02  0.50562892518E+01 -0.33059079100E+03  0.38198746468E+03  0.17188447630E+03 0.  0.
        -24    2    3    3    0    0 -0.52233014284E+02  0.49789413411E+02 -0.10694279355E+03  0.15166145106E+03  0.79731807806E+02 0.  0.
          6    2    1    2  501    0  0.83989956692E+02 -0.50562892518E+01 -0.31476481764E+03  0.36884217946E+03  0.17288083769E+03 0.  0.
         24    2    5    5    0    0 -0.18666824036E+02 -0.22074216510E+01 -0.18281074166E+03  0.20156845515E+03  0.82805505956E+02 0.  0.
          5    1    5    5  501    0  0.10265678073E+03 -0.28488676009E+01 -0.13195407598E+03  0.16727372431E+03  0.47000000000E+01 0. -1.
        -11    1    6    6    0    0 -0.37984457225E+02  0.11533394479E+02 -0.17009800152E+03  0.17466873876E+03  0.00000000000E+00 0.  1.
         12    1    6    6    0    0  0.19317633190E+02 -0.13740816130E+02 -0.12712740132E+02  0.26899716385E+02  0.00000000000E+00 0. -1.
         -5    1    3    3    0  503 -0.31756942408E+02 -0.44733124159E+02 -0.22364799745E+03  0.23032601362E+03  0.47000000000E+01 0.  1.
         11    1    4    4    0    0 -0.48487719845E+02  0.62414881757E+01 -0.17173062374E+02  0.51816302663E+02  0.00000000000E+00 0. -1.
        -12    1    4    4    0    0 -0.37452944397E+01  0.43547925235E+02 -0.89769731177E+02  0.99845148396E+02  0.00000000000E+00 0.  1.
</event>
<event>
12    1  0.8258923E-002  0.2046023E+03  0.7818608E-02  0.1146400E+00
         21   -1    0    0  503  502  0.00000000000E+00  0.00000000000E+00  0.64765605735E+03  0.64765605735E+03  0.00000000000E+00 0. -1.
         21   -1    0    0  501  503 -0.00000000000E+00 -0.00000000000E+00 -0.37801755091E+03  0.37801755091E+03  0.00000000000E+00 0. -1.
          6    2    1    2  501    0 -0.36687950998E+02 -0.11410036368E+03 -0.33254003662E+03  0.39044200272E+03  0.16582274511E+03 0.  0.
         24    2    3    3    0    0 -0.61251231057E+02 -0.14261702237E+02 -0.14563587188E+03  0.17707290974E+03  0.78675909445E+02 0.  0.
         -6    2    1    2    0  502  0.36687950998E+02  0.11410036368E+03  0.60217854305E+03  0.63523160554E+03  0.16289658137E+03 0.  0.
        -24    2    5    5    0    0 -0.12823818025E+02  0.12164376846E+03  0.37241136222E+03  0.40002241011E+03  0.79787525117E+02 0.  0.
          5    1    3    3  501    0  0.24563280059E+02 -0.99838661443E+02 -0.18690416474E+03  0.21336909299E+03  0.47000000000E+01 0. -1.
        -11    1    4    4    0    0  0.21190509237E+01 -0.18704839463E+02 -0.92078508681E+02  0.93983047179E+02  0.00000000000E+00 0.  1.
         12    1    4    4    0    0 -0.63370281981E+02  0.44431372255E+01 -0.53557363200E+02  0.83089862557E+02  0.00000000000E+00 0. -1.
         -5    1    5    5    0  502  0.49511769023E+02 -0.75434047834E+01  0.22976718083E+03  0.23520919543E+03  0.47000000000E+01 0.  1.
         11    1    6    6    0    0  0.11380297739E+02  0.12920332043E+02  0.15291870487E+03  0.15388494551E+03  0.00000000000E+00 0. -1.
        -12    1    6    6    0    0 -0.24204115764E+02  0.10872343642E+03  0.21949265736E+03  0.24613746460E+03  0.00000000000E+00 0.  1.
</event>
<event>
12    1  0.8258923E-002  0.2116303E+03  0.7818608E-02  0.1140410E+00
         21   -1    0    0  503  502  0.00000000000E+00  0.00000000000E+00  0.10498612432E+04  0.10498612432E+04  0.00000000000E+00 0. -1.
         21   -1    0    0  501  503 -0.00000000000E+00 -0.00000000000E+00 -0.68443611377E+02  0.68443611377E+02  0.00000000000E+00 0. -1.
          6    2    1    2  501    0 -0.85117838192E+02  0.90110384063E+02  0.14617043479E+03  0.25666383597E+03  0.17072082765E+03 0.  0.
         24    2    3    3    0    0 -0.29917308734E+02  0.10091817247E+03  0.15098489056E+03  0.20001424880E+03  0.78292653861E+02 0.  0.
         -6    2    1    2    0  502  0.85117838192E+02 -0.90110384063E+02  0.83524719701E+03  0.86164101858E+03  0.17152969742E+03 0.  0.
        -24    2    5    5    0    0  0.40869813442E+02 -0.11338712373E+03  0.46111933379E+03  0.48415798275E+03  0.85152397420E+02 0.  0.
          5    1    3    3  501    0 -0.55200529458E+02 -0.10807788403E+02 -0.48144557701E+01  0.56649587174E+02  0.47000000000E+01 0. -1.
        -11    1    4    4    0    0  0.96649334645E+01  0.89409927390E+02  0.10146498650E+03  0.13558277744E+03  0.00000000000E+00 0.  1.
         12    1    4    4    0    0 -0.39582242199E+02  0.11508245076E+02  0.49519904061E+02  0.64431471351E+02  0.00000000000E+00 0. -1.
         -5    1    5    5    0  502  0.44248024751E+02  0.23276739671E+02  0.37412786322E+03  0.37748303583E+03  0.47000000000E+01 0.  1.
         13    1    6    6    0    0  0.60276448093E+02 -0.10731641116E+03  0.42750970422E+03  0.44487594844E+03  0.00000000000E+00 0. -1.
        -14    1    6    6    0    0 -0.19406634651E+02 -0.60707125731E+01  0.33609629571E+02  0.39282034310E+02  0.00000000000E+00 0.  1.
</event>
<event>
12    1  0.8258923E-002  0.2143926E+03  0.7818608E-02  0.1138560E+00
         21   -1    0    0  503  502  0.00000000000E+00  0.00000000000E+00  0.42623576370E+03  0.42623576370E+03  0.00000000000E+00 0. -1.
         21   -1    0    0  501  503 -0.00000000000E+00 -0.00000000000E+00 -0.19405822109E+03  0.19405822109E+03  0.00000000000E+00 0. -1.
          6    2    1    2  501    0 -0.12241627259E+03 -0.31796972660E+02 -0.91630307214E+02  0.23315295517E+03  0.17311093564E+03 0.  0.
         24    2    3    3    0    0 -0.13607831074E+03  0.20641249955E+02 -0.57637190866E+02  0.16901216911E+03  0.79370647481E+02 0.  0.
         -6    2    1    2    0  502  0.12241627259E+03  0.31796972660E+02  0.32380784982E+03  0.38714102963E+03  0.17038151881E+03 0.  0.
        -24    2    5    5    0    0  0.98157754315E+02  0.36844880932E+02  0.33409309016E+03  0.35990441355E+03  0.83189566745E+02 0.  0.
          5    1    3    3  501    0  0.13662038151E+02 -0.52438222615E+02 -0.33993116348E+02  0.64140786060E+02  0.47000000000E+01 0. -1.
        -13    1    4    4    0    0 -0.11799229993E+03 -0.28888315909E+01 -0.17841116957E+02  0.11936847844E+03  0.00000000000E+00 0.  1.
         14    1    4    4    0    0 -0.18086010813E+02  0.23530081546E+02 -0.39796073909E+02  0.49643690669E+02  0.00000000000E+00 0. -1.
         -5    1    5    5    0  502  0.24258518274E+02 -0.50479082725E+01 -0.10285240339E+02  0.27236616082E+02  0.47000000000E+01 0.  1.
         13    1    6    6    0    0  0.10681344933E+03  0.31025873604E+02  0.23205734030E+03  0.25733699108E+03  0.00000000000E+00 0. -1.
        -14    1    6    6    0    0 -0.86556950123E+01  0.58190073284E+01  0.10203574986E+03  0.10256742247E+03  0.00000000000E+00 0.  1.
</event>
<event>
12    1  0.8258923E-002  0.2040794E+03  0.7818608E-02  0.1146599E+00
         21   -1    0    0  501  502  0.00000000000E+00  0.00000000000E+00  0.69155719093E+03  0.69155719093E+03  0.00000000000E+00 0. -1.
         21   -1    0    0  502  503 -0.00000000000E+00 -0.00000000000E+00 -0.19007809646E+03  0.19007809646E+03  0.00000000000E+00 0. -1.
         -6    2    1    2    0  503  0.10847151763E+03 -0.53124133358E+00 -0.11436747978E+03  0.23285535282E+03  0.17139236434E+03 0.  0.
        -24    2    3    3    0    0  0.78013887499E+02 -0.44315564515E+02 -0.12974295560E+03  0.17714871546E+03  0.80612635236E+02 0.  0.
          6    2    1    2  501    0 -0.10847151763E+03  0.53124133358E+00  0.61584657425E+03  0.64877993457E+03  0.17286424769E+03 0.  0.
         24    2    5    5    0    0 -0.14362857167E+02 -0.47077572963E+02  0.21595507783E+03  0.23518793986E+03  0.79083385583E+02 0.  0.
          5    1    5    5  501    0 -0.94108660465E+02  0.47608814297E+02  0.39989149642E+03  0.41359199471E+03  0.47000000000E+01 0. -1.
        -11    1    6    6    0    0 -0.39720052604E+02 -0.10143106655E+01  0.77659945551E+02  0.87234044661E+02  0.00000000000E+00 0.  1.
         12    1    6    6    0    0  0.25357195437E+02 -0.46063262298E+02  0.13829513228E+03  0.14795389520E+03  0.00000000000E+00 0. -1.
         -5    1    3    3    0  503  0.30457630133E+02  0.43784323181E+02  0.15375475825E+02  0.55706637366E+02  0.47000000000E+01 0.  1.
         11    1    4    4    0    0  0.37510164395E+02  0.41034326710E+01 -0.10093861943E+03  0.10776110377E+03  0.00000000000E+00 0. -1.
        -12    1    4    4    0    0  0.40503723104E+02 -0.48418997186E+02 -0.28804336167E+02  0.69387611688E+02  0.00000000000E+00 0.  1.
</event>
<event>
12    1  0.8258923E-002  0.2058521E+03  0.7818608E-02  0.1145149E+00
         21   -1    0    0  503  502  0.00000000000E+00  0.00000000000E+00  0.33863068712E+03  0.33863068712E+03  0.00000000000E+00 0. -1.
         21   -1    0    0  501  503 -0.00000000000E+00 -0.00000000000E+00 -0.57383397088E+03  0.57383397088E+03  0.00000000000E+00 0.  1.
          6    2    1    2  501    0 -0.68267847280E+02 -0.88350924344E+02 -0.52145251739E+03  0.56061377296E+03  0.17294128986E+03 0.  0.
         24    2    3    3    0    0 -0.81162396863E+02 -0.29472179873E+02 -0.18943664560E+03  0.22313843300E+03  0.80303010758E+02 0.  0.
         -6    2    1    2    0  502  0.68267847280E+02  0.88350924344E+02  0.28624923363E+03  0.35185088504E+03  0.17144689191E+03 0.  0.
        -24    2    5    5    0    0  0.10481258043E+03  0.65033688427E+02  0.26500869963E+03  0.30334870678E+03  0.81091117742E+02 0.  0.
          5    1    3    3  501    0  0.12894549584E+02 -0.58878744471E+02 -0.33201587179E+03  0.33747533996E+03  0.47000000000E+01 0. -1.
        -13    1    4    4    0    0 -0.50022658153E+02  0.94675108507E+01 -0.15337690171E+03  0.16160561274E+03  0.00000000000E+00 0.  1.
         14    1    4    4    0    0 -0.31139738711E+02 -0.38939690724E+02 -0.36059743891E+02  0.61532820268E+02  0.00000000000E+00 0. -1.
         -5    1    5    5    0  502 -0.36544733150E+02  0.23317235917E+02  0.21240534000E+02  0.48502178264E+02  0.47000000000E+01 0.  1.
         11    1    6    6    0    0  0.34813440602E+02  0.22439520715E+02  0.18221434718E+03  0.18686245224E+03  0.00000000000E+00 0. -1.
        -12    1    6    6    0    0  0.69999139828E+02  0.42594167712E+02  0.82794352448E+02  0.11648625454E+03  0.00000000000E+00 0.  1.
</event>
<event>
12    1  0.8258923E-002  0.2207160E+03  0.7818608E-02  0.1134605E+00
         21   -1    0    0  501  502  0.00000000000E+00  0.00000000000E+00  0.89288197336E+02  0.89288197336E+02  0.00000000000E+00 0. -1.
         21   -1    0    0  502  503 -0.00000000000E+00 -0.00000000000E+00 -0.56426082603E+03  0.56426082603E+03  0.00000000000E+00 0.  1.
         -6    2    1    2    0  503  0.11571840683E+02  0.12804060993E+03 -0.31542458826E+03  0.38120528239E+03  0.17116217792E+03 0.  0.
        -24    2    3    3    0    0  0.42140014370E+02  0.14268239061E+03 -0.29892922450E+03  0.34321867936E+03  0.79412437305E+02 0.  0.
          6    2    1    2  501    0 -0.11571840683E+02 -0.12804060993E+03 -0.15954804043E+03  0.27234374098E+03  0.17940800082E+03 0.  0.
         24    2    5    5    0    0  0.16674013989E+02 -0.13393917820E+03 -0.58874486407E+02  0.16751113206E+03  0.79850159759E+02 0.  0.
          5    1    5    5  501    0 -0.28245854672E+02  0.58985682694E+01 -0.10067355402E+03  0.10483260892E+03  0.47000000000E+01 0. -1.
        -11    1    6    6    0    0  0.23904298898E+02 -0.13298298407E+03 -0.71548034369E+02  0.15288888377E+03  0.00000000000E+00 0.  1.
         12    1    6    6    0    0 -0.72302849094E+01 -0.95619413360E+00  0.12673547963E+02  0.14622248290E+02  0.00000000000E+00 0. -1.
         -5    1    3    3    0  503 -0.30568173687E+02 -0.14641780675E+02 -0.16495363761E+02  0.37986603026E+02  0.47000000000E+01 0.  1.
         11    1    4    4    0    0  0.63007060534E+02  0.76129875463E+02 -0.17020457771E+03  0.19681271780E+03  0.00000000000E+00 0. -1.
        -12    1    4    4    0    0 -0.20867046164E+02  0.66552515144E+02 -0.12872464679E+03  0.14640596156E+03  0.00000000000E+00 0.  1.
</event>
<event>
12    1  0.8258923E-002  0.1937888E+03  0.7818608E-02  0.1155236E+00
         21   -1    0    0  503  502  0.00000000000E+00  0.00000000000E+00  0.33828495589E+03  0.33828495589E+03  0.00000000000E+00 0.  1.
         21   -1    0    0  501  503 -0.00000000000E+00 -0.00000000000E+00 -0.35166000170E+03  0.35166000170E+03  0.00000000000E+00 0.  1.
          6    2    1    2  501    0  0.27543867246E+02  0.84422841148E+02 -0.29229293710E+03  0.35069827405E+03  0.17224470271E+03 0.  0.
         24    2    3    3    0    0  0.75580088454E+02  0.27431790712E+02 -0.21672780439E+03  0.24445497940E+03  0.79513790259E+02 0.  0.
         -6    2    1    2    0  502 -0.27543867246E+02 -0.84422841148E+02  0.27891789129E+03  0.33924668354E+03  0.17148539728E+03 0.  0.
        -24    2    5    5    0    0 -0.46712827731E+02 -0.45032560389E+02  0.27825785209E+03  0.29518344585E+03  0.74133762081E+02 0.  0.
          5    1    3    3  501    0 -0.48036221208E+02  0.56991050436E+02 -0.75565132704E+02  0.10624329465E+03  0.47000000000E+01 0. -1.
        -13    1    4    4    0    0  0.31918218678E+02 -0.26122815165E+01 -0.17243479651E+03  0.17538345345E+03  0.00000000000E+00 0.  1.
         14    1    4    4    0    0  0.43661869776E+02  0.30044072228E+02 -0.44293007886E+02  0.69071525942E+02  0.00000000000E+00 0. -1.
         -5    1    5    5    0  502  0.19168960486E+02 -0.39390280759E+02  0.66003919633E+00  0.44063237695E+02  0.47000000000E+01 0.  1.
         11    1    6    6    0    0 -0.16367987196E+02  0.53130752327E+01  0.86855690212E+01  0.19276381468E+02  0.00000000000E+00 0. -1.
        -12    1    6    6    0    0 -0.30344840536E+02 -0.50345635621E+02  0.26957228307E+03  0.27590706438E+03  0.00000000000E+00 0.  1.
</event>
<event>
12    1  0.8258923E-002  0.1839335E+03  0.7818608E-02  0.1164419E+00
         21   -1    0    0  503  502  0.00000000000E+00  0.00000000000E+00  0.80875556284E+02  0.80875556284E+02  0.00000000000E+00 0.  1.
         21   -1    0    0  501  503 -0.00000000000E+00 -0.00000000000E+00 -0.41616552793E+03  0.41616552793E+03  0.00000000000E+00 0.  1.
          6    2    1    2  501    0  0.63083621874E+02 -0.11036662752E+02 -0.18276040978E+03  0.25929307045E+03  0.17242441163E+03 0.  0.
         24    2    3    3    0    0  0.10141371795E+03 -0.39919401791E+02 -0.12914119131E+03  0.18717844316E+03  0.80498580499E+02 0.  0.
         -6    2    1    2    0  502 -0.63083621874E+02  0.11036662752E+02 -0.15252956186E+03  0.23774801376E+03  0.17075567203E+03 0.  0.
        -24    2    5    5    0    0  0.21023064899E+02  0.23771923191E+02 -0.37615203902E+02  0.94697249052E+02  0.80904831892E+02 0.  0.
          5    1    3    3  501    0 -0.38330096078E+02  0.28882739040E+02 -0.53619218468E+02  0.72114627288E+02  0.47000000000E+01 0. -1.
        -13    1    4    4    0    0  0.33049212263E+02 -0.32999341088E+02 -0.10400765964E+03  0.11401228095E+03  0.00000000000E+00 0.  1.
         14    1    4    4    0    0  0.68364505689E+02 -0.69200607028E+01 -0.25133531670E+02  0.73166162210E+02  0.00000000000E+00 0. -1.
         -5    1    5    5    0  502 -0.84106686773E+02 -0.12735260440E+02 -0.11491435796E+03  0.14305076471E+03  0.47000000000E+01 0.  1.
         11    1    6    6    0    0  0.39284435403E+02  0.35233166005E+01  0.92177548939E+01  0.40504908716E+02  0.00000000000E+00 0. -1.
        -12    1    6    6    0    0 -0.18261370504E+02  0.20248606591E+02 -0.46832958796E+02  0.54192340337E+02  0.00000000000E+00 0.  1.
</event>
<event>
12    1  0.8258923E-002  0.2246230E+03  0.7818608E-02  0.1131168E+00
         21   -1    0    0  503  502  0.00000000000E+00  0.00000000000E+00  0.39389426046E+02  0.39389426046E+02  0.00000000000E+00 0. -1.
         21   -1    0    0  501  503 -0.00000000000E+00 -0.00000000000E+00 -0.13457336822E+04  0.13457336822E+04  0.00000000000E+00 0. -1.
          6    2    1    2  501    0 -0.27243453318E+02  0.13745574754E+03 -0.82316570653E+03  0.85228449893E+03  0.17073604903E+03 0.  0.
         24    2    3    3    0    0  0.25728855157E+02  0.75377893011E+02 -0.26195972923E+03  0.28515667873E+03  0.79672021103E+02 0.  0.
         -6    2    1    2    0  502  0.27243453318E+02 -0.13745574754E+03 -0.48317854966E+03  0.53283860934E+03  0.17555393609E+03 0.  0.
        -24    2    5    5    0    0  0.12382942850E+02 -0.12211797159E+03 -0.48875764581E+03  0.51027096754E+03  0.80164129887E+02 0.  0.
          5    1    3    3  501    0 -0.52972308475E+02  0.62077854531E+02 -0.56120597730E+03  0.56712782020E+03  0.47000000000E+01 0. -1.
        -11    1    4    4    0    0  0.26834641909E+02 -0.43105697092E+01 -0.33164496551E+02  0.42878466030E+02  0.00000000000E+00 0.  1.
         12    1    4    4    0    0 -0.11057867524E+01  0.79688462720E+02 -0.22879523268E+03  0.24227821270E+03  0.00000000000E+00 0. -1.
         -5    1    5    5    0  502  0.14860510468E+02 -0.15337775956E+02  0.55790961510E+01  0.22567641802E+02  0.47000000000E+01 0.  1.
         11    1    6    6    0    0  0.34124060401E+02 -0.19080641518E+02 -0.17496018807E+03  0.17927517895E+03  0.00000000000E+00 0. -1.
        -12    1    6    6    0    0 -0.21741117551E+02 -0.10303733007E+03 -0.31379745774E+03  0.33099578859E+03  0.00000000000E+00 0.  1.
</event>
<event>
12    1  0.8258923E-002  0.1970605E+03  0.7818608E-02  0.1152959E+00
         21   -1    0    0  503  502  0.00000000000E+00  0.00000000000E+00  0.80954778303E+02  0.80954778303E+02  0.00000000000E+00 0. -1.
         21   -1    0    0  501  503 -0.00000000000E+00 -0.00000000000E+00 -0.48845410356E+03  0.48845410356E+03  0.00000000000E+00 0. -1.
          6    2    1    2  501    0 -0.18536189209E+02 -0.93821530155E+02 -0.25815766446E+03  0.32477408271E+03  0.17229844819E+03 0.  0.
         24    2    3    3    0    0 -0.30845088313E+02 -0.39748143697E+02 -0.25150857212E+03  0.26872285124E+03  0.80150324570E+02 0.  0.
         -6    2    1    2    0  502  0.18536189209E+02  0.93821530155E+02 -0.14934166080E+03  0.24463479915E+03  0.16851463876E+03 0.  0.
        -24    2    5    5    0    0 -0.20823546468E+02  0.52471330934E+02 -0.14118780305E+02  0.97779955253E+02  0.78579380466E+02 0.  0.
          5    1    3    3  501    0  0.12308899104E+02 -0.54073386459E+02 -0.66490923406E+01  0.56051231469E+02  0.47000000000E+01 0. -1.
        -11    1    4    4    0    0 -0.43851301159E+02 -0.24858235667E+02 -0.70660457172E+02  0.86797285104E+02  0.00000000000E+00 0.  1.
         12    1    4    4    0    0  0.13006212846E+02 -0.14889908029E+02 -0.18084811495E+03  0.18192556613E+03  0.00000000000E+00 0. -1.
         -5    1    5    5    0  502  0.39359735678E+02  0.41350199221E+02 -0.13522288049E+03  0.14685484390E+03  0.47000000000E+01 0.  1.
         13    1    6    6    0    0 -0.26651261690E+02  0.62048575045E+01  0.24884467774E+02  0.36986845536E+02  0.00000000000E+00 0. -1.
        -14    1    6    6    0    0  0.58277152216E+01  0.46266473429E+02 -0.39003248080E+02  0.60793109717E+02  0.00000000000E+00 0.  1.
</event>
<event>
12    1  0.8258923E-002  0.1882009E+03  0.7818608E-02  0.1160197E+00
         21   -1    0    0  501  502  0.00000000000E+00  0.00000000000E+00  0.65911314054E+02  0.65911314054E+02  0.00000000000E+00 0. -1.
         21   -1    0    0  502  503 -0.00000000000E+00 -0.00000000000E+00 -0.56573263771E+03  0.56573263771E+03  0.00000000000E+00 0. -1.
         -6    2    1    2    0  503 -0.74912999077E+02 -0.10437139740E+02 -0.32247599175E+03  0.37337693527E+03  0.17233304739E+03 0.  0.
        -24    2    3    3    0    0 -0.32295275981E+02  0.38889082373E+02 -0.27358904135E+03  0.29175971632E+03  0.87848864208E+02 0.  0.
          6    2    1    2  501    0  0.74912999077E+02  0.10437139740E+02 -0.17734533191E+03  0.25826701650E+03  0.17184176949E+03 0.  0.
         24    2    5    5    0    0 -0.20935143774E+02 -0.15502929434E+02 -0.54248905674E+02  0.10004383921E+03  0.79919990816E+02 0.  0.
          5    1    5    5  501    0  0.95848142851E+02  0.25940069175E+02 -0.12309642624E+03  0.15822317728E+03  0.47000000000E+01 0. -1.
        -11    1    6    6    0    0 -0.85783873628E+01 -0.16534946825E+02 -0.74227974602E+02  0.76529637460E+02  0.00000000000E+00 0.  1.
         12    1    6    6    0    0 -0.12356756411E+02  0.10320173905E+01  0.19979068928E+02  0.23514201754E+02  0.00000000000E+00 0. -1.
         -5    1    3    3    0  503 -0.42617723096E+02 -0.49326222113E+02 -0.48886950397E+02  0.81617218949E+02  0.47000000000E+01 0.  1.
         11    1    4    4    0    0 -0.31283416810E+02 -0.95525297387E+01 -0.33462315656E+02  0.46793477759E+02  0.00000000000E+00 0. -1.
        -12    1    4    4    0    0 -0.10118591711E+01  0.48441612111E+02 -0.24012672569E+03  0.24496623856E+03  0.00000000000E+00 0.  1.
</event>
<event>
12    1  0.8258923E-002  0.2364669E+03  0.7818608E-02  0.1122335E+00
         21   -1    0    0  501  502  0.00000000000E+00  0.00000000000E+00  0.45327656722E+03  0.45327656722E+03  0.00000000000E+00 0.  1.
         21   -1    0    0  502  503 -0.00000000000E+00 -0.00000000000E+00 -0.49820980671E+03  0.49820980671E+03  0.00000000000E+00 0.  1.
         -6    2    1    2    0  503  0.26651666116E+02  0.15834501338E+03 -0.43539673869E+03  0.49500160819E+03  0.17225799685E+03 0.  0.
        -24    2    3    3    0    0  0.34721514951E+02  0.18420234268E+03 -0.33843280933E+03  0.39421560948E+03  0.75717195390E+02 0.  0.
          6    2    1    2  501    0 -0.26651666116E+02 -0.15834501338E+03  0.39046349921E+03  0.45648476574E+03  0.17358900474E+03 0.  0.
         24    2    5    5    0    0 -0.20280269503E+02 -0.17156112307E+03  0.39678159907E+03  0.43983338034E+03  0.78570075866E+02 0.  0.
          5    1    5    5  501    0 -0.63713966129E+01  0.13216109684E+02 -0.63180998574E+01  0.16651385402E+02  0.47000000000E+01 0. -1.
        -11    1    6    6    0    0  0.28462627614E+02 -0.85828289091E+02  0.20921910228E+03  0.22792377923E+03  0.00000000000E+00 0.  1.
         12    1    6    6    0    0 -0.48742897118E+02 -0.85732833977E+02  0.18756249678E+03  0.21190960111E+03  0.00000000000E+00 0. -1.
         -5    1    3    3    0  503 -0.80698488345E+01 -0.25857329298E+02 -0.96963929364E+02  0.10078599871E+03  0.47000000000E+01 0.  1.
         13    1    4    4    0    0 -0.12149427760E+02  0.22929246069E+02 -0.15511138033E+02  0.30231677481E+02  0.00000000000E+00 0. -1.
        -14    1    4    4    0    0  0.46870942711E+02  0.16127309661E+03 -0.32292167129E+03  0.36398393200E+03  0.00000000000E+00 0.  1.
</event>
<event>
12    1  0.8258923E-002  0.1990817E+03  0.7818608E-02  0.1151079E+00
         21   -1    0    0  503  502  0.00000000000E+00  0.00000000000E+00  0.20486069799E+04  0.20486069799E+04  0.00000000000E+00 0.  1.
         21   -1    0    0  501  503 -0.00000000000E+00 -0.00000000000E+00 -0.33293838436E+02  0.33293838436E+02  0.00000000000E+00 0.  1.
          6    2    1    2  501    0 -0.98233376441E+02 -0.65820966429E+01  0.16913672477E+04  0.17030433615E+04  0.17303295811E+03 0.  0.
         24    2    3    3    0    0 -0.13502629493E+03 -0.38512124898E+00  0.12197509404E+04  0.12299301060E+04  0.81874661796E+02 0.  0.
         -6    2    1    2    0  502  0.98233376441E+02  0.65820966429E+01  0.32394589383E+03  0.37885745682E+03  0.16999679472E+03 0.  0.
        -24    2    5    5    0    0 -0.84028289961E+01  0.10928463567E+02  0.19860608555E+03  0.21416887568E+03  0.78954995061E+02 0.  0.
          5    1    3    3  501    0  0.36792918491E+02 -0.61969753939E+01  0.47161630723E+03  0.47311325557E+03  0.47000000000E+01 0. -1.
        -11    1    4    4    0    0 -0.91354018184E+02 -0.11571707244E+01  0.10712458602E+04  0.10751346840E+04  0.00000000000E+00 0.  1.
         12    1    4    4    0    0 -0.43672276748E+02  0.77204947541E+00  0.14850508022E+03  0.15479542199E+03  0.00000000000E+00 0. -1.
         -5    1    5    5    0  502  0.10663620544E+03 -0.43463669244E+01  0.12533980828E+03  0.16468858113E+03  0.47000000000E+01 0.  1.
         13    1    6    6    0    0  0.59464713554E+01  0.42575801612E+02  0.13513970633E+03  0.14181255103E+03  0.00000000000E+00 0. -1.
        -14    1    6    6    0    0 -0.14349300352E+02 -0.31647338044E+02  0.63466379217E+02  0.72356324650E+02  0.00000000000E+00 0.  1.
</event>
<event>
12    1  0.8258923E-002  0.2360402E+03  0.7818608E-02  0.1123647E+00
         21   -1    0    0  501  502  0.00000000000E+00  0.00000000000E+00  0.95742178592E+02  0.95742178592E+02  0.00000000000E+00 0.  1.
         21   -1    0    0  502  503 -0.00000000000E+00 -0.00000000000E+00 -0.67485336410E+03  0.67485336410E+03  0.00000000000E+00 0.  1.
         -6    2    1    2    0  503  0.14613656660E+03 -0.34801860733E+02 -0.44133436471E+03  0.49728725870E+03  0.17306510505E+03 0.  0.
        -24    2    3    3    0    0  0.21835110384E+02 -0.40617217618E+02 -0.24697404383E+03  0.26645681287E+03  0.88749785255E+02 0.  0.
          6    2    1    2  501    0 -0.14613656660E+03  0.34801860733E+02 -0.13777682080E+03  0.27330828399E+03  0.18206564788E+03 0.  0.
         24    2    5    5    0    0 -0.12518047455E+03 -0.42133951013E+02 -0.12338236389E+03  0.19214445391E+03  0.65198638125E+02 0.  0.
          5    1    5    5  501    0 -0.20956092055E+02  0.76935811747E+02 -0.14394456907E+02  0.81163830079E+02  0.47000000000E+01 0. -1.
        -11    1    6    6    0    0 -0.60426105226E+02 -0.10024651882E+01 -0.20513722141E+02  0.63821093107E+02  0.00000000000E+00 0.  1.
         12    1    6    6    0    0 -0.64754369323E+02 -0.41131485825E+02 -0.10286864175E+03  0.12832336081E+03  0.00000000000E+00 0. -1.
         -5    1    3    3    0  503  0.12430145622E+03  0.58153568849E+01 -0.19436032088E+03  0.23083044584E+03  0.47000000000E+01 0.  1.
         11    1    4    4    0    0  0.97800415173E+01 -0.48135399960E+02 -0.54144799214E+02  0.73104891925E+02  0.00000000000E+00 0. -1.
        -12    1    4    4    0    0  0.12055068867E+02  0.75181823420E+01 -0.19282924462E+03  0.19335192094E+03  0.00000000000E+00 0.  1.
</event>
<event>
12    1  0.8258923E-002  0.1799539E+03  0.7818608E-02  0.1167910E+00
         21   -1    0    0  503  502  0.00000000000E+00  0.00000000000E+00  0.25524934361E+03  0.25524934361E+03  0.00000000000E+00 0. -1.
         21   -1    0    0  501  503 -0.00000000000E+00 -0.00000000000E+00 -0.14942565295E+03  0.14942565295E+03  0.00000000000E+00 0.  1.
          6    2    1    2  501    0  0.48486114136E+02 -0.21807165389E+02 -0.26048338986E+02  0.18157493092E+03  0.17165221772E+03 0.  0.
         24    2    3    3    0    0 -0.21711282776E+02  0.32799681381E+02  0.11672223954E+02  0.84856198935E+02  0.74277417747E+02 0.  0.
         -6    2    1    2    0  502 -0.48486114136E+02  0.21807165389E+02  0.13187202964E+03  0.22310006564E+03  0.17192135226E+03 0.  0.
        -24    2    5    5    0    0  0.51205650660E+02  0.73607298916E+01  0.56418600602E+02  0.97153817504E+02  0.59829814956E+02 0.  0.
          5    1    3    3  501    0  0.70197396912E+02 -0.54606846770E+02 -0.37720562940E+02  0.96718731980E+02  0.47000000000E+01 0. -1.
        -13    1    4    4    0    0 -0.41256649490E+02  0.42771603468E+02  0.17870343573E+02  0.62055381473E+02  0.00000000000E+00 0.  1.
         14    1    4    4    0    0  0.19545366715E+02 -0.99719220866E+01 -0.61981196192E+01  0.22800817462E+02  0.00000000000E+00 0. -1.
         -5    1    5    5    0  502 -0.99691764796E+02  0.14446435498E+02  0.75453429038E+02  0.12594624814E+03  0.47000000000E+01 0.  1.
         11    1    6    6    0    0  0.16135607988E+02  0.18174221602E+02  0.55336785928E+02  0.60438564285E+02  0.00000000000E+00 0. -1.
        -12    1    6    6    0    0  0.35070042671E+02 -0.10813491710E+02  0.10818146737E+01  0.36715253219E+02  0.00000000000E+00 0.  1.
</event>
<event>
12    1  0.8258923E-002  0.1970978E+03  0.7818608E-02  0.1154418E+00
         21   -1    0    0  503  502  0.00000000000E+00  0.00000000000E+00  0.10157998536E+03  0.10157998536E+03  0.00000000000E+00 0.  1.
         21   -1    0    0  501  503 -0.00000000000E+00 -0.00000000000E+00 -0.37842740971E+03  0.37842740971E+03  0.00000000000E+00 0.  1.
          6    2    1    2  501    0  0.52855954746E+02  0.58745297241E+02 -0.18984585232E+03  0.27365850186E+03  0.18056236069E+03 0.  0.
         24    2    3    3    0    0  0.31982486726E+02 -0.19174762346E+02 -0.30533118100E+02  0.95025149327E+02  0.81896011719E+02 0.  0.
         -6    2    1    2    0  502 -0.52855954746E+02 -0.58745297241E+02 -0.87001572029E+02  0.20634889320E+03  0.16960492413E+03 0.  0.
        -24    2    5    5    0    0 -0.27591572107E+02  0.24968229474E+02 -0.78443098744E+02  0.11836263831E+03  0.80446796531E+02 0.  0.
          5    1    3    3  501    0  0.20873468020E+02  0.77920059586E+02 -0.15931273422E+03  0.17863335254E+03  0.47000000000E+01 0. -1.
        -11    1    4    4    0    0  0.15545231277E+01  0.28474964924E+02 -0.25516653441E+02  0.38266692729E+02  0.00000000000E+00 0.  1.
         12    1    4    4    0    0  0.30427963598E+02 -0.47649727270E+02 -0.50164646591E+01  0.56758456597E+02  0.00000000000E+00 0. -1.
         -5    1    5    5    0  502 -0.25264382639E+02 -0.83713526714E+02 -0.85584732853E+01  0.87986254893E+02  0.47000000000E+01 0.  1.
         13    1    6    6    0    0 -0.29169283994E+02  0.23445373528E+00 -0.87299264627E+02  0.92043814032E+02  0.00000000000E+00 0. -1.
        -14    1    6    6    0    0  0.15777118874E+01  0.24733775738E+02  0.88561658824E+01  0.26318824275E+02  0.00000000000E+00 0.  1.
</event>
<event>
12    1  0.8258923E-002  0.2130234E+03  0.7818608E-02  0.1139668E+00
         21   -1    0    0  503  502  0.00000000000E+00  0.00000000000E+00  0.70466220014E+02  0.70466220014E+02  0.00000000000E+00 0. -1.
         21   -1    0    0  501  503 -0.00000000000E+00 -0.00000000000E+00 -0.75586802722E+03  0.75586802722E+03  0.00000000000E+00 0. -1.
          6    2    1    2  501    0 -0.11576223490E+03  0.34044660087E+02 -0.50841629872E+03  0.55124052735E+03  0.17555355955E+03 0.  0.
         24    2    3    3    0    0 -0.12655242353E+03  0.42342038940E+02 -0.26717991037E+03  0.30957472560E+03  0.81504859128E+02 0.  0.
         -6    2    1    2    0  502  0.11576223490E+03 -0.34044660087E+02 -0.17698550849E+03  0.27509371989E+03  0.17260576642E+03 0.  0.
        -24    2    5    5    0    0  0.11132858885E+03  0.24291646475E+02 -0.16567940520E+03  0.21532165407E+03  0.77003964975E+02 0.  0.
          5    1    3    3  501    0  0.10790188637E+02 -0.82973788526E+01 -0.24123638836E+03  0.24166580175E+03  0.47000000000E+01 0. -1.
        -11    1    4    4    0    0 -0.99916263240E+02 -0.36106950397E+01 -0.14273323008E+03  0.17426724233E+03  0.00000000000E+00 0.  1.
         12    1    4    4    0    0 -0.26636160295E+02  0.45952733979E+02 -0.12444668028E+03  0.13530748327E+03  0.00000000000E+00 0. -1.
         -5    1    5    5    0  502  0.44336460525E+01 -0.58336306562E+02 -0.11306103283E+02  0.59772065818E+02  0.47000000000E+01 0.  1.
         13    1    6    6    0    0 -0.35709112977E+01  0.12427600064E+02  0.50011708812E+00  0.12940122408E+02  0.00000000000E+00 0. -1.
        -14    1    6    6    0    0  0.11489950014E+03  0.11864046412E+02 -0.16617952229E+03  0.20238153167E+03  0.00000000000E+00 0.  1.
</event>
<event>
12    1  0.8258923E-002  0.1859376E+03  0.7818608E-02  0.1162210E+00
         21   -1    0    0  501  502  0.00000000000E+00  0.00000000000E+00  0.26979848452E+03  0.26979848452E+03  0.00000000000E+00 0.  1.
         21   -1    0    0  502  503 -0.00000000000E+00 -0.00000000000E+00 -0.26401574828E+03  0.26401574828E+03  0.00000000000E+00 0. -1.
         -6    2    1    2    0  503 -0.15286569855E+02  0.69730015927E+02 -0.18865332729E+03  0.26478229120E+03  0.17153317317E+03 0.  0.
        -24    2    3    3    0    0 -0.65995960501E+02  0.54917006793E+02 -0.72002730494E+02  0.13664049758E+03  0.78197748969E+02 0.  0.
          6    2    1    2  501    0  0.15286569855E+02 -0.69730015927E+02  0.19443606353E+03  0.26903194160E+03  0.17168823041E+03 0.  0.
         24    2    5    5    0    0 -0.33127811720E+02 -0.77643810704E+02  0.68744702751E+02  0.13402457637E+03  0.78171220187E+02 0.  0.
          5    1    5    5  501    0  0.48414381575E+02  0.79137947772E+01  0.12569136078E+03  0.13500736523E+03  0.47000000000E+01 0. -1.
        -11    1    6    6    0    0 -0.78246507046E+01 -0.84992238260E+02  0.37703483614E+02  0.93308404765E+02  0.00000000000E+00 0.  1.
         12    1    6    6    0    0 -0.25303161016E+02  0.73484275556E+01  0.31041219137E+02  0.40716171609E+02  0.00000000000E+00 0. -1.
         -5    1    3    3    0  503  0.50709390646E+02  0.14813009135E+02 -0.11665059679E+03  0.12814179362E+03  0.47000000000E+01 0.  1.
         13    1    4    4    0    0  0.10799283173E+02  0.34685380841E+01 -0.35482680834E+02  0.37251522287E+02  0.00000000000E+00 0. -1.
        -14    1    4    4    0    0 -0.76795243674E+02  0.51448468709E+02 -0.36520049660E+02  0.99388975297E+02  0.00000000000E+00 0.  1.
</event>
<event>
12    1  0.8258923E-002  0.2010350E+03  0.7818608E-02  0.1149396E+00
         21   -1    0    0  501  502  0.00000000000E+00  0.00000000000E+00  0.10299650220E+04  0.10299650220E+04  0.00000000000E+00 0.  1.
         21   -1    0    0  502  503 -0.00000000000E+00 -0.00000000000E+00 -0.13175718914E+03  0.13175718914E+03  0.00000000000E+00 0. -1.
         -6    2    1    2    0  503  0.10207286465E+03  0.19158086628E+02 -0.38085468728E+02  0.20461082702E+03  0.17213130344E+03 0.  0.
        -24    2    3    3    0    0  0.91197796009E+02  0.19578284411E+02  0.19278369322E+02  0.14603486266E+03  0.11069859245E+03 0.  0.
          6    2    1    2  501    0 -0.10207286465E+03 -0.19158086628E+02  0.93629330156E+03  0.95711138410E+03  0.16920742611E+03 0.  0.
         24    2    5    5    0    0 -0.68217747078E+02 -0.19903020596E+01  0.27739313231E+03  0.29710197141E+03  0.81639507844E+02 0.  0.
          5    1    5    5  501    0 -0.33855117571E+02 -0.17167784568E+02  0.65890016925E+03  0.66000941270E+03  0.47000000000E+01 0. -1.
        -13    1    6    6    0    0 -0.50836237343E+02  0.31935409050E+02  0.22118096235E+03  0.22918379411E+03  0.00000000000E+00 0.  1.
         14    1    6    6    0    0 -0.17381509735E+02 -0.33925711109E+02  0.56212169963E+02  0.67918177294E+02  0.00000000000E+00 0. -1.
         -5    1    3    3    0  503  0.10875068640E+02 -0.42019778350E+00 -0.57363838051E+02  0.58575964354E+02  0.47000000000E+01 0.  1.
         11    1    4    4    0    0  0.20711480699E+02  0.24837198311E+02 -0.41640118391E+02  0.52723346938E+02  0.00000000000E+00 0. -1.
        -12    1    4    4    0    0  0.70486315310E+02 -0.52589139001E+01  0.60918487713E+02  0.93311515723E+02  0.00000000000E+00 0.  1.
</event>
<event>
12    1  0.8258923E-002  0.3303720E+03  0.7818608E-02  0.1071044E+00
         21   -1    0    0  503  502  0.00000000000E+00  0.00000000000E+00  0.38491883048E+03  0.38491883048E+03  0.00000000000E+00 0.  1.
         21   -1    0    0  501  503 -0.00000000000E+00 -0.00000000000E+00 -0.29526320082E+03  0.29526320082E+03  0.00000000000E+00 0.  1.
          6    2    1    2  501    0 -0.25621608145E+03  0.11673278608E+03  0.11418939127E+03  0.34954950899E+03  0.17283639204E+03 0.  0.
         24    2    3    3    0    0 -0.27363979699E+03  0.12066360878E+03  0.11703530004E+03  0.33086190810E+03  0.79585776352E+02 0.  0.
         -6    2    1    2    0  502  0.25621608145E+03 -0.11673278608E+03 -0.24533761605E+02  0.33063252231E+03  0.17158885631E+03 0.  0.
        -24    2    5    5    0    0  0.11682419353E+03  0.38008136074E+01 -0.34531273281E+02  0.14602351031E+03  0.80424612839E+02 0.  0.
          5    1    3    3  501    0  0.17423715538E+02 -0.39308226939E+01 -0.28459087688E+01  0.18687600887E+02  0.47000000000E+01 0. -1.
        -11    1    4    4    0    0 -0.22032109311E+03  0.12050399601E+03  0.72468203974E+02  0.26136992503E+03  0.00000000000E+00 0.  1.
         12    1    4    4    0    0 -0.53318703885E+02  0.15961277155E+00  0.44567096066E+02  0.69491983076E+02  0.00000000000E+00 0. -1.
         -5    1    5    5    0  502  0.13939188792E+03 -0.12053359969E+03  0.99975116751E+01  0.18460901200E+03  0.47000000000E+01 0.  1.
         11    1    6    6    0    0  0.42491244581E+01  0.13185033481E+02  0.16941272165E+02  0.21883940896E+02  0.00000000000E+00 0. -1.
        -12    1    6    6    0    0  0.11257506907E+03 -0.93842198737E+01 -0.51472545446E+02  0.12413956941E+03  0.00000000000E+00 0.  1.
</event>
<event>
12    1  0.8258923E-002  0.1780218E+03  0.7818608E-02  0.1169905E+00
         21   -1    0    0  501  502  0.00000000000E+00  0.00000000000E+00  0.14529236015E+04  0.14529236015E+04  0.00000000000E+00 0.  1.
         21   -1    0    0  502  503 -0.00000000000E+00 -0.00000000000E+00 -0.44367558002E+02  0.44367558002E+02  0.00000000000E+00 0.  1.
         -6    2    1    2    0  503  0.32624241031E+02 -0.30818832896E+02  0.17015813062E+03  0.24626318278E+03  0.17227194841E+03 0.  0.
        -24    2    3    3    0    0  0.17725799046E+02 -0.79781228368E+02  0.65290364303E+02  0.12947868827E+03  0.76306295245E+02 0.  0.
          6    2    1    2  501    0 -0.32624241031E+02  0.30818832896E+02  0.12383979129E+04  0.12510279768E+04  0.17154435686E+03 0.  0.
         24    2    5    5    0    0 -0.30336034937E+01 -0.45968895227E+02  0.55922551127E+03  0.56687214497E+03  0.80551314147E+02 0.  0.
          5    1    5    5  501    0 -0.29590637537E+02  0.76787728123E+02  0.67917240165E+03  0.68415583179E+03  0.47000000000E+01 0. -1.
        -13    1    6    6    0    0 -0.26207829331E+02 -0.15202620950E+02  0.45064179031E+03  0.45165915597E+03  0.00000000000E+00 0.  1.
         14    1    6    6    0    0  0.23174225837E+02 -0.30766274277E+02  0.10858372096E+03  0.11521298900E+03  0.00000000000E+00 0. -1.
         -5    1    3    3    0  503  0.14898441985E+02  0.48962395472E+02  0.10486776632E+03  0.11678449450E+03  0.47000000000E+01 0.  1.
         13    1    4    4    0    0  0.22544399874E+02 -0.76807591483E+02  0.80332453481E+02  0.11340616896E+03  0.00000000000E+00 0. -1.
        -14    1    4    4    0    0 -0.48186008288E+01 -0.29736368845E+01 -0.15042089178E+02  0.16072519315E+02  0.00000000000E+00 0.  1.
</event>
<event>
12    1  0.8258923E-002  0.1831111E+03  0.7818608E-02  0.1164983E+00
         21   -1    0    0  501  502  0.00000000000E+00  0.00000000000E+00  0.10847940894E+03  0.10847940894E+03  0.00000000000E+00 0.  1.
         21   -1    0    0  502  503 -0.00000000000E+00 -0.00000000000E+00 -0.34898999888E+03  0.34898999888E+03  0.00000000000E+00 0. -1.
         -6    2    1    2    0  503  0.60397224112E+02  0.28922944794E+02 -0.19887137375E+03  0.27033218371E+03  0.17042683133E+03 0.  0.
        -24    2    3    3    0    0  0.51875436187E+02 -0.34080435361E+02 -0.17550082979E+03  0.20243285304E+03  0.79536040756E+02 0.  0.
          6    2    1    2  501    0 -0.60397224112E+02 -0.28922944794E+02 -0.41639216186E+02  0.18713722411E+03  0.16971197632E+03 0.  0.
         24    2    5    5    0    0 -0.19618238363E+02 -0.46098460781E+01  0.41442594159E+02  0.91331537125E+02  0.78853250444E+02 0.  0.
          5    1    5    5  501    0 -0.40778985749E+02 -0.24313098716E+02 -0.83081810346E+02  0.95805686983E+02  0.47000000000E+01 0. -1.
        -11    1    6    6    0    0 -0.48704365922E+02 -0.81742596947E+01  0.36965508049E+02  0.61687782962E+02  0.00000000000E+00 0.  1.
         12    1    6    6    0    0  0.29086127559E+02  0.35644136166E+01  0.44770861101E+01  0.29643754163E+02  0.00000000000E+00 0. -1.
         -5    1    3    3    0  503  0.85217879249E+01  0.63003380155E+02 -0.23370543953E+02  0.67899330667E+02  0.47000000000E+01 0.  1.
         13    1    4    4    0    0 -0.13127944225E+02  0.32817468407E+01 -0.23340292451E+01  0.13731732390E+02  0.00000000000E+00 0. -1.
        -14    1    4    4    0    0  0.65003380412E+02 -0.37362182201E+02 -0.17316680055E+03  0.18870112065E+03  0.00000000000E+00 0.  1.
</event>
<event>
12    1  0.8258923E-002  0.1785313E+03  0.7818608E-02  0.1170514E+00
         21   -1    0    0  503  502  0.00000000000E+00  0.00000000000E+00  0.10941655705E+03  0.10941655705E+03  0.00000000000E+00 0.  1.
         21   -1    0    0  501  503 -0.00000000000E+00 -0.00000000000E+00 -0.52340582599E+03  0.52340582599E+03  0.00000000000E+00 0.  1.
          6    2    1    2  501    0 -0.21391441812E+02 -0.15297929491E+02 -0.41980609571E+03  0.45419635856E+03  0.17136380513E+03 0.  0.
         24    2    3    3    0    0 -0.22425144204E+02  0.54631351734E+02 -0.21280248479E+03  0.23564714707E+03  0.82202242682E+02 0.  0.
         -6    2    1    2    0  502  0.21391441812E+02  0.15297929491E+02  0.58168267664E+01  0.17862602448E+03  0.17658369324E+03 0.  0.
        -24    2    5    5    0    0  0.77114758032E+01 -0.25998700095E+02 -0.56739642276E+02  0.10228498110E+03  0.80668649964E+02 0.  0.
          5    1    3    3  501    0  0.10337023918E+01 -0.69929281226E+02 -0.20700361091E+03  0.21854921149E+03  0.47000000000E+01 0. -1.
        -11    1    4    4    0    0 -0.36581791613E+01  0.12686585772E+02 -0.17674463551E+03  0.17723712341E+03  0.00000000000E+00 0.  1.
         12    1    4    4    0    0 -0.18766965043E+02  0.41944765962E+02 -0.36057849280E+02  0.58410023654E+02  0.00000000000E+00 0. -1.
         -5    1    5    5    0  502  0.13679966009E+02  0.41296629586E+02  0.62556469042E+02  0.76341043379E+02  0.47000000000E+01 0.  1.
         11    1    6    6    0    0  0.39138676707E+02  0.53832637322E+01 -0.18267154385E+02  0.43525905759E+02  0.00000000000E+00 0. -1.
        -12    1    6    6    0    0 -0.31427200903E+02 -0.31381963827E+02 -0.38472487890E+02  0.58759075340E+02  0.00000000000E+00 0.  1.
</event>
<event>
12    1  0.8258923E-002  0.1725350E+03  0.7818608E-02  0.1176118E+00
         21   -1    0    0  503  502  0.00000000000E+00  0.00000000000E+00  0.33899982768E+03  0.33899982768E+03  0.00000000000E+00 0.  1.
         21   -1    0    0  501  503 -0.00000000000E+00 -0.00000000000E+00 -0.12694763694E+03  0.12694763694E+03  0.00000000000E+00 0.  1.
          6    2    1    2  501    0 -0.14276501180E+02 -0.11712641261E+02 -0.25445052578E+02  0.17440124330E+03  0.17154398419E+03 0.  0.
         24    2    3    3    0    0  0.55532635247E+02 -0.11768398877E+02  0.35672109194E-01  0.99938662308E+02  0.82251845947E+02 0.  0.
         -6    2    1    2    0  502  0.14276501180E+02  0.11712641261E+02  0.23749724332E+03  0.29154622132E+03  0.16808704330E+03 0.  0.
        -24    2    5    5    0    0 -0.32615772697E+02  0.22323077835E+02  0.53910001695E+02  0.10170989180E+03  0.76658367942E+02 0.  0.
          5    1    3    3  501    0 -0.69809136427E+02  0.55757616160E-01 -0.25480724687E+02  0.74462580993E+02  0.47000000000E+01 0. -1.
        -11    1    4    4    0    0  0.21188406510E+02 -0.17805782574E+02 -0.38854769329E+02  0.47704167146E+02  0.00000000000E+00 0.  1.
         12    1    4    4    0    0  0.34344228737E+02  0.60373836964E+01  0.38890441438E+02  0.52234495161E+02  0.00000000000E+00 0. -1.
         -5    1    5    5    0  502  0.46892273877E+02 -0.10610436574E+02  0.18358724163E+03  0.18983632951E+03  0.47000000000E+01 0.  1.
         11    1    6    6    0    0  0.50595328446E+01 -0.25035364710E+02  0.19126945803E+02  0.31909378159E+02  0.00000000000E+00 0. -1.
        -12    1    6    6    0    0 -0.37675305542E+02  0.47358442545E+02  0.34783055892E+02  0.69800513645E+02  0.00000000000E+00 0.  1.
</event>
<event>
12    1  0.8258923E-002  0.2233154E+03  0.7818608E-02  0.1132023E+00
         21   -1    0    0  501  502  0.00000000000E+00  0.00000000000E+00  0.24139239352E+03  0.24139239352E+03  0.00000000000E+00 0. -1.
         21   -1    0    0  502  503 -0.00000000000E+00 -0.00000000000E+00 -0.21708043361E+03  0.21708043361E+03  0.00000000000E+00 0.  1.
         -6    2    1    2    0  503  0.13489711553E+03  0.36362012817E+02 -0.44781631467E+02  0.22776119958E+03  0.17421349478E+03 0.  0.
        -24    2    3    3    0    0  0.16804355559E+03  0.36404718247E+02 -0.42116704893E+02  0.19417727267E+03  0.79793836279E+02 0.  0.
          6    2    1    2  501    0 -0.13489711553E+03 -0.36362012817E+02  0.69093591372E+02  0.23071162756E+03  0.17010144905E+03 0.  0.
         24    2    5    5    0    0 -0.70710970783E+01 -0.38423722575E+02  0.49697118630E+02  0.10132053515E+03  0.79181212246E+02 0.  0.
          5    1    5    5  501    0 -0.12782601845E+03  0.20617097582E+01  0.19396472742E+02  0.12939109241E+03  0.47000000000E+01 0. -1.
        -11    1    6    6    0    0  0.29857671463E+02 -0.40251352664E+01  0.39757484219E+02  0.49883261827E+02  0.00000000000E+00 0.  1.
         12    1    6    6    0    0 -0.36928768541E+02 -0.34398587309E+02  0.99396344111E+01  0.51437273324E+02  0.00000000000E+00 0. -1.
         -5    1    3    3    0  503 -0.33146440060E+02 -0.42705430329E-01 -0.26649265734E+01  0.33583926900E+02  0.47000000000E+01 0.  1.
         13    1    4    4    0    0  0.34091471759E+02 -0.12531030675E+02  0.16620820943E+02  0.39943796330E+02  0.00000000000E+00 0. -1.
        -14    1    4    4    0    0  0.13395208383E+03  0.48935748923E+02 -0.58737525836E+02  0.15423347634E+03  0.00000000000E+00 0.  1.
</event>
<event>
12    1  0.8258923E-002  0.1754980E+03  0.7818608E-02  0.1172631E+00
         21   -1    0    0  503  502  0.00000000000E+00  0.00000000000E+00  0.43820392987E+02  0.43820392987E+02  0.00000000000E+00 0.  1.
         21   -1    0    0  501  503 -0.00000000000E+00 -0.00000000000E+00 -0.73963861607E+03  0.73963861607E+03  0.00000000000E+00 0.  1.
          6    2    1    2  501    0  0.22167047796E+02  0.23467122748E+02 -0.44100100795E+03  0.47405415615E+03  0.17088993559E+03 0.  0.
         24    2    3    3    0    0 -0.89605512160E+01 -0.47343095456E+02 -0.28986435445E+03  0.30420895470E+03  0.78740611977E+02 0.  0.
         -6    2    1    2    0  502 -0.22167047796E+02 -0.23467122748E+02 -0.25481721513E+03  0.30940485291E+03  0.17250352466E+03 0.  0.
        -24    2    5    5    0    0  0.24334785580E+02  0.34968422132E+02 -0.18807240346E+03  0.20913475119E+03  0.80939130703E+02 0.  0.
          5    1    3    3  501    0  0.31127599012E+02  0.70810218203E+02 -0.15113665350E+03  0.16984520145E+03  0.47000000000E+01 0. -1.
        -11    1    4    4    0    0  0.16930940146E+02 -0.59513104579E+02 -0.16801544167E+03  0.17904651627E+03  0.00000000000E+00 0.  1.
         12    1    4    4    0    0 -0.25891491362E+02  0.12170009124E+02 -0.12184891278E+03  0.12516243843E+03  0.00000000000E+00 0. -1.
         -5    1    5    5    0  502 -0.46501833376E+02 -0.58435544880E+02 -0.66744811672E+02  0.10027010171E+03  0.47000000000E+01 0.  1.
         11    1    6    6    0    0  0.33790508335E+02  0.12728394820E+01 -0.16200495236E+03  0.16549629350E+03  0.00000000000E+00 0. -1.
        -12    1    6    6    0    0 -0.94557227545E+01  0.33695582650E+02 -0.26067451097E+02  0.43638457690E+02  0.00000000000E+00 0.  1.
</event>
<event>
12    1  0.8258923E-002  0.1759288E+03  0.7818608E-02  0.1172534E+00
         21   -1    0    0  501  502  0.00000000000E+00  0.00000000000E+00  0.10463860564E+04  0.10463860564E+04  0.00000000000E+00 0. -1.
         21   -1    0    0  502  503 -0.00000000000E+00 -0.00000000000E+00 -0.59891871311E+02  0.59891871311E+02  0.00000000000E+00 0. -1.
         -6    2    1    2    0  503 -0.13707514968E+02  0.13747878173E+02  0.94592392940E+02  0.19719061869E+03  0.17192882009E+03 0.  0.
        -24    2    3    3    0    0  0.58448174511E+02 -0.44497731586E+01  0.44616876388E+02  0.10742848696E+03  0.78193507194E+02 0.  0.
          6    2    1    2  501    0  0.13707514968E+02 -0.13747878173E+02  0.89190179214E+03  0.90908730902E+03  0.17485430639E+03 0.  0.
         24    2    5    5    0    0 -0.49862148294E+02  0.23951564968E+02  0.38827687743E+03  0.40004654953E+03  0.78856812922E+02 0.  0.
          5    1    5    5  501    0  0.63569663262E+02 -0.37699443141E+02  0.50362491471E+03  0.50904075949E+03  0.47000000000E+01 0. -1.
        -13    1    6    6    0    0 -0.54449387419E+02 -0.15419626220E+02  0.23705290577E+03  0.24371413746E+03  0.00000000000E+00 0.  1.
         14    1    6    6    0    0  0.45872391247E+01  0.39371191188E+02  0.15122397166E+03  0.15633241207E+03  0.00000000000E+00 0. -1.
         -5    1    3    3    0  503 -0.72155689479E+02  0.18197651331E+02  0.49975516552E+02  0.89762131731E+02  0.47000000000E+01 0.  1.
         13    1    4    4    0    0  0.84224408776E+01  0.22323796814E+02  0.44721916503E+02  0.50688649915E+02  0.00000000000E+00 0. -1.
        -14    1    4    4    0    0  0.50025733633E+02 -0.26773569972E+02 -0.10504011491E+00  0.56739837046E+02  0.00000000000E+00 0.  1.
</event>
<event>
12    1  0.8258923E-002  0.2048920E+03  0.7818608E-02  0.1145863E+00
         21   -1    0    0  503  502  0.00000000000E+00  0.00000000000E+00  0.44024228445E+02  0.44024228445E+02  0.00000000000E+00 0. -1.
         21   -1    0    0  501  503 -0.00000000000E+00 -0.00000000000E+00 -0.10446567920E+04  0.10446567920E+04  0.00000000000E+00 0. -1.
          6    2    1    2  501    0 -0.28457339817E+02  0.10852660841E+03 -0.66576443339E+03  0.69657949828E+03  0.17144349428E+03 0.  0.
         24    2    3    3    0    0 -0.73175368257E+02  0.25632656247E+02 -0.41421170507E+03  0.42793107655E+03  0.74444624204E+02 0.  0.
         -6    2    1    2    0  502  0.28457339817E+02 -0.10852660841E+03 -0.33486813013E+03  0.39210152213E+03  0.17034991682E+03 0.  0.
        -24    2    5    5    0    0 -0.37675303579E+02 -0.10490697209E+03 -0.23279100152E+03  0.27032936409E+03  0.80382917376E+02 0.  0.
          5    1    3    3  501    0  0.44718028440E+02  0.82893952162E+02 -0.25155272832E+03  0.26864842173E+03  0.47000000000E+01 0. -1.
        -13    1    4    4    0    0 -0.47087669406E+02 -0.31080882524E+01 -0.92067591975E+02  0.10345699742E+03  0.00000000000E+00 0.  1.
         14    1    4    4    0    0 -0.26087698851E+02  0.28740744499E+02 -0.32214411309E+03  0.32447407913E+03  0.00000000000E+00 0. -1.
         -5    1    5    5    0  502  0.66132643396E+02 -0.36196363143E+01 -0.10207712861E+03  0.12177215804E+03  0.47000000000E+01 0.  1.
         11    1    6    6    0    0  0.10191604968E+02 -0.16160883292E+02 -0.29358278434E+01  0.19330340031E+02  0.00000000000E+00 0. -1.
        -12    1    6    6    0    0 -0.47866908547E+02 -0.88746088803E+02 -0.22985517368E+03  0.25099902406E+03  0.00000000000E+00 0.  1.
</event>
<event>
12    1  0.8258923E-002  0.2304130E+03  0.7818608E-02  0.1126404E+00
         21   -1    0    0  503  502  0.00000000000E+00  0.00000000000E+00  0.15412041928E+03  0.15412041928E+03  0.00000000000E+00 0.  1.
         21   -1    0    0  501  503 -0.00000000000E+00 -0.00000000000E+00 -0.20009944107E+04  0.20009944107E+04  0.00000000000E+00 0. -1.
          6    2    1    2  501    0 -0.13990091788E+03 -0.61829970379E+02 -0.19041097271E+04  0.19179999962E+04  0.17232214172E+03 0.  0.
         24    2    3    3    0    0 -0.16882536387E+03 -0.41795050580E+02 -0.17104356241E+04  0.17210995905E+04  0.79655172675E+02 0.  0.
         -6    2    1    2    0  502  0.13990091788E+03  0.61829970379E+02  0.57235735678E+02  0.23711483379E+03  0.17190783258E+03 0.  0.
        -24    2    5    5    0    0  0.16513093938E+03  0.25926422780E+02  0.58193205908E+02  0.19297159575E+03  0.76884205223E+02 0.  0.
          5    1    3    3  501    0  0.28924445989E+02 -0.20034919799E+02 -0.19367410300E+03  0.19690040569E+03  0.47000000000E+01 0. -1.
        -11    1    4    4    0    0  0.64301837732E+01 -0.36724717239E+01 -0.18635380909E+03  0.18650087527E+03  0.00000000000E+00 0.  1.
         12    1    4    4    0    0 -0.17525554765E+03 -0.38122578856E+02 -0.15240818150E+04  0.15345987152E+04  0.00000000000E+00 0. -1.
         -5    1    5    5    0  502 -0.25230021500E+02  0.35903547599E+02 -0.95747022959E+00  0.44143238036E+02  0.47000000000E+01 0.  1.
         11    1    6    6    0    0  0.76722866346E+02  0.30213939094E+02 -0.74221058559E+01  0.82791110581E+02  0.00000000000E+00 0. -1.
        -12    1    6    6    0    0  0.88408073038E+02 -0.42875163131E+01  0.65615311764E+02  0.11018048517E+03  0.00000000000E+00 0.  1.
</event>
<event>
12    1  0.8258923E-002  0.2704965E+03  0.7818608E-02  0.1101021E+00
         21   -1    0    0  503  502  0.00000000000E+00  0.00000000000E+00  0.18228559173E+03  0.18228559173E+03  0.00000000000E+00 0. -1.
         21   -1    0    0  501  503 -0.00000000000E+00 -0.00000000000E+00 -0.62548575113E+03  0.62548575113E+03  0.00000000000E+00 0. -1.
          6    2    1    2  501    0 -0.97680420126E+02 -0.18444382463E+03 -0.46353521864E+03  0.53668732184E+03  0.17206799118E+03 0.  0.
         24    2    3    3    0    0  0.10697207836E+02 -0.69767388929E+02 -0.24550577928E+03  0.26751206003E+03  0.79421003428E+02 0.  0.
         -6    2    1    2    0  502  0.97680420126E+02  0.18444382463E+03  0.20335059244E+02  0.27108402101E+03  0.17179069501E+03 0.  0.
        -24    2    5    5    0    0  0.91142742391E+02  0.41596548059E+02 -0.86017492581E+01  0.12511308370E+03  0.74444753481E+02 0.  0.
          5    1    3    3  501    0 -0.10837762796E+03 -0.11467643570E+03 -0.21802943936E+03  0.26917526182E+03  0.47000000000E+01 0. -1.
        -11    1    4    4    0    0  0.34647716607E+02 -0.32216567859E+02 -0.58303320867E+02  0.75084277547E+02  0.00000000000E+00 0.  1.
         12    1    4    4    0    0 -0.23950508770E+02 -0.37550821070E+02 -0.18720245841E+03  0.19242778248E+03  0.00000000000E+00 0. -1.
         -5    1    5    5    0  502  0.65376777344E+01  0.14284727657E+03  0.28936808502E+02  0.14597093731E+03  0.47000000000E+01 0.  1.
         13    1    6    6    0    0  0.35726470957E+02  0.92774469524E+01  0.32285719583E+02  0.49038958370E+02  0.00000000000E+00 0. -1.
        -14    1    6    6    0    0  0.55416271434E+02  0.32319101107E+02 -0.40887468841E+02  0.76074125327E+02  0.00000000000E+00 0.  1.
</event>
<event>
12    1  0.8258923E-002  0.2001227E+03  0.7818608E-02  0.1152762E+00
         21   -1    0    0  503  502  0.00000000000E+00  0.00000000000E+00  0.18669967668E+04  0.18669967668E+04  0.00000000000E+00 0.  1.
         21   -1    0    0  501  503 -0.00000000000E+00 -0.00000000000E+00 -0.22345583861E+02  0.22345583861E+02  0.00000000000E+00 0. -1.
          6    2    1    2  501    0  0.79276880674E+02 -0.61759583569E+02  0.58277761137E+03  0.61169842686E+03  0.15635264992E+03 0.  0.
         24    2    3    3    0    0  0.83722835611E+02 -0.72785452109E+02  0.31878317568E+03  0.34739464639E+03  0.82177198820E+02 0.  0.
         -6    2    1    2    0  502 -0.79276880674E+02  0.61759583569E+02  0.12618735715E+04  0.12776439238E+04  0.17306072757E+03 0.  0.
        -24    2    5    5    0    0 -0.92241964400E+02 -0.10491955468E+02  0.69343544443E+03  0.70446648821E+03  0.82472154616E+02 0.  0.
          5    1    3    3  501    0 -0.44459549370E+01  0.11025868540E+02  0.26399443570E+03  0.26430378047E+03  0.47000000000E+01 0. -1.
        -11    1    4    4    0    0  0.80777878907E+02 -0.19045822277E+02  0.21552631705E+03  0.23095324723E+03  0.00000000000E+00 0.  1.
         12    1    4    4    0    0  0.29449567047E+01 -0.53739629832E+02  0.10325685863E+03  0.11644139916E+03  0.00000000000E+00 0. -1.
         -5    1    5    5    0  502  0.12965083725E+02  0.72251539038E+02  0.56843812709E+03  0.57317743555E+03  0.47000000000E+01 0.  1.
         13    1    6    6    0    0  0.13057356118E+01  0.96050335961E+01  0.85367280003E+01  0.12916552978E+02  0.00000000000E+00 0. -1.
        -14    1    6    6    0    0 -0.93547700011E+02 -0.20096989065E+02  0.68489871643E+03  0.69154993523E+03  0.00000000000E+00 0.  1.
</event>
<event>
12    1  0.8258923E-002  0.4010132E+03  0.7818608E-02  0.1043539E+00
         21   -1    0    0  503  502  0.00000000000E+00  0.00000000000E+00  0.12033536531E+04  0.12033536531E+04  0.00000000000E+00 0. -1.
         21   -1    0    0  501  503 -0.00000000000E+00 -0.00000000000E+00 -0.31019196828E+03  0.31019196828E+03  0.00000000000E+00 0.  1.
          6    2    1    2  501    0 -0.24077753865E+03 -0.26844131167E+03 -0.12534272310E+03  0.41893937741E+03  0.17252490481E+03 0.  0.
         24    2    3    3    0    0 -0.20816069010E+03 -0.15186594546E+03 -0.12715350820E+03  0.29778227378E+03  0.78180110263E+02 0.  0.
         -6    2    1    2    0  502  0.24077753865E+03  0.26844131167E+03  0.10185044079E+04  0.10946062440E+04  0.17543386068E+03 0.  0.
        -24    2    5    5    0    0  0.12757609579E+03  0.24062460622E+03  0.73761872180E+03  0.79045629012E+03  0.81017939358E+02 0.  0.
          5    1    3    3  501    0 -0.32616848559E+02 -0.11657536621E+03  0.18107850993E+01  0.12115710362E+03  0.47000000000E+01 0. -1.
        -11    1    4    4    0    0 -0.14303416736E+03 -0.12852562003E+03 -0.12342757084E+03  0.22849939449E+03  0.00000000000E+00 0.  1.
         12    1    4    4    0    0 -0.65126522735E+02 -0.23340325430E+02 -0.37259373604E+01  0.69282879299E+02  0.00000000000E+00 0. -1.
         -5    1    5    5    0  502  0.11320144286E+03  0.27816705454E+02  0.28088568609E+03  0.30414995384E+03  0.47000000000E+01 0.  1.
         11    1    6    6    0    0  0.10184018690E+03  0.10689355532E+03  0.40246283988E+03  0.42868869045E+03  0.00000000000E+00 0. -1.
        -12    1    6    6    0    0  0.25735908893E+02  0.13373105090E+03  0.33515588192E+03  0.36176759967E+03  0.00000000000E+00 0.  1.
</event>
<event>
12    1  0.8258923E-002  0.1793452E+03  0.7818608E-02  0.1168934E+00
         21   -1    0    0  501  502  0.00000000000E+00  0.00000000000E+00  0.14419314511E+04  0.14419314511E+04  0.00000000000E+00 0.  1.
         21   -1    0    0  502  503 -0.00000000000E+00 -0.00000000000E+00 -0.26539758904E+02  0.26539758904E+02  0.00000000000E+00 0. -1.
         -6    2    1    2    0  503 -0.20790328677E+02 -0.43892288157E+02  0.40253236135E+03  0.43985625043E+03  0.17053576863E+03 0.  0.
        -24    2    3    3    0    0 -0.59455493187E+02 -0.21113397492E+02  0.13479934748E+03  0.16834763267E+03  0.78672295752E+02 0.  0.
          6    2    1    2  501    0  0.20790328677E+02  0.43892288157E+02  0.10128593308E+04  0.10286149596E+04  0.17264396963E+03 0.  0.
         24    2    5    5    0    0  0.24006747749E+02  0.87082522879E+02  0.89278167438E+03  0.90087900023E+03  0.79775718210E+02 0.  0.
          5    1    5    5  501    0 -0.32164190717E+01 -0.43190234722E+02  0.12007765645E+03  0.12773595933E+03  0.47000000000E+01 0. -1.
        -13    1    6    6    0    0  0.90815795247E+01  0.59471243201E+02  0.24288176771E+03  0.25022161565E+03  0.00000000000E+00 0.  1.
         14    1    6    6    0    0  0.14925168224E+02  0.27611279678E+02  0.64989990667E+03  0.65065738458E+03  0.00000000000E+00 0. -1.
         -5    1    3    3    0  503  0.38665164510E+02 -0.22778890666E+02  0.26773301387E+03  0.27150861777E+03  0.47000000000E+01 0.  1.
         13    1    4    4    0    0 -0.62600735005E+02  0.57743854105E+01  0.12433433133E+03  0.13932415978E+03  0.00000000000E+00 0. -1.
        -14    1    4    4    0    0  0.31452418180E+01 -0.26887782902E+02  0.10465016151E+02  0.29023472889E+02  0.00000000000E+00 0.  1.
</event>
<event>
12    1  0.8258923E-002  0.1716305E+03  0.7818608E-02  0.1176180E+00
         21   -1    0    0  501  502  0.00000000000E+00  0.00000000000E+00  0.60159082104E+03  0.60159082104E+03  0.00000000000E+00 0.  1.
         21   -1    0    0  502  503 -0.00000000000E+00 -0.00000000000E+00 -0.18592263699E+03  0.18592263699E+03  0.00000000000E+00 0. -1.
         -6    2    1    2    0  503 -0.16413811610E+01  0.10167321846E+02 -0.13013433394E+03  0.21538799311E+03  0.17132126003E+03 0.  0.
        -24    2    3    3    0    0 -0.64589371397E+02 -0.13115892687E+02 -0.68297644719E+02  0.12400734041E+03  0.79808763073E+02 0.  0.
          6    2    1    2  501    0  0.16413811610E+01 -0.10167321846E+02  0.54580251799E+03  0.57212546492E+03  0.17123402234E+03 0.  0.
         24    2    5    5    0    0 -0.37238374829E+02  0.48084424417E+02  0.34979357416E+03  0.36392724824E+03  0.79929275350E+02 0.  0.
          5    1    5    5  501    0  0.38879755990E+02 -0.58251746264E+02  0.19600894383E+03  0.20819821668E+03  0.47000000000E+01 0. -1.
        -11    1    6    6    0    0 -0.46345008928E+02  0.20437810177E+02  0.31270358316E+03  0.31677925257E+03  0.00000000000E+00 0.  1.
         12    1    6    6    0    0  0.91066340991E+01  0.27646614240E+02  0.37089991001E+02  0.47147995674E+02  0.00000000000E+00 0. -1.
         -5    1    3    3    0  503  0.62947990236E+02  0.23283214533E+02 -0.61836689217E+02  0.91380652695E+02  0.47000000000E+01 0.  1.
         13    1    4    4    0    0 -0.49701928786E+02  0.26181758642E+02 -0.57991366264E+02  0.80738867789E+02  0.00000000000E+00 0. -1.
        -14    1    4    4    0    0 -0.14887442611E+02 -0.39297651329E+02 -0.10306278455E+02  0.43268472622E+02  0.00000000000E+00 0.  1.
</event>
<event>
12    1  0.8258923E-002  0.2057973E+03  0.7818608E-02  0.1144987E+00
         21   -1    0    0  501  502  0.00000000000E+00  0.00000000000E+00  0.72557081674E+03  0.72557081674E+03  0.00000000000E+00 0. -1.
         21   -1    0    0  502  503 -0.00000000000E+00 -0.00000000000E+00 -0.64624593674E+02  0.64624593674E+02  0.00000000000E+00 0.  1.
         -6    2    1    2    0  503  0.80770362667E+00  0.11326701533E+03  0.20672277097E+03  0.29152572112E+03  0.17153096772E+03 0.  0.
        -24    2    3    3    0    0 -0.60875073186E+01 -0.97444844519E+01  0.67839774966E+02  0.10581102166E+03  0.80384852523E+02 0.  0.
          6    2    1    2  501    0 -0.80770362667E+00 -0.11326701533E+03  0.45422345209E+03  0.49866968930E+03  0.17182096916E+03 0.  0.
         24    2    5    5    0    0 -0.20721227679E+02 -0.11896579918E+03  0.21787461456E+03  0.26136843018E+03  0.79132028740E+02 0.  0.
          5    1    5    5  501    0  0.19913524053E+02  0.56987838439E+01  0.23634883753E+03  0.23730125912E+03  0.47000000000E+01 0. -1.
        -13    1    6    6    0    0  0.25509253404E+02 -0.59648215131E+02  0.69813802115E+02  0.95302668081E+02  0.00000000000E+00 0.  1.
         14    1    6    6    0    0 -0.46230481084E+02 -0.59317584046E+02  0.14806081245E+03  0.16606576210E+03  0.00000000000E+00 0. -1.
         -5    1    3    3    0  503  0.68952109453E+01  0.12301149979E+03  0.13888299601E+03  0.18571469945E+03  0.47000000000E+01 0.  1.
         13    1    4    4    0    0  0.25330523676E+02 -0.22914962431E+02  0.62642508311E+02  0.71349945903E+02  0.00000000000E+00 0. -1.
        -14    1    4    4    0    0 -0.31418030995E+02  0.13170477979E+02  0.51972666544E+01  0.34461075759E+02  0.00000000000E+00 0.  1.
</event>
<event>
12    1  0.8258923E-002  0.2010900E+03  0.7818608E-02  0.1149214E+00
         21   -1    0    0  503  502  0.00000000000E+00  0.00000000000E+00  0.18024826506E+03  0.18024826506E+03  0.00000000000E+00 0.  1.
         21   -1    0    0  501  503 -0.00000000000E+00 -0.00000000000E+00 -0.38469140008E+03  0.38469140008E+03  0.00000000000E+00 0.  1.
          6    2    1    2  501    0  0.10203972197E+03  0.35783394498E+01 -0.28548744260E+03  0.34813244635E+03  0.17107954567E+03 0.  0.
         24    2    3    3    0    0  0.34058831855E+02  0.25514780276E+02 -0.25412668207E+03  0.26997749668E+03  0.80600683204E+02 0.  0.
         -6    2    1    2    0  502 -0.10203972197E+03 -0.35783394498E+01  0.81044307576E+02  0.21680721879E+03  0.17324052920E+03 0.  0.
        -24    2    5    5    0    0 -0.28832763025E+02  0.50828555700E+02  0.76751923290E+02  0.12537481950E+03  0.80081941389E+02 0.  0.
          5    1    3    3  501    0  0.67980890118E+02 -0.21936440827E+02 -0.31360760528E+02  0.78154949672E+02  0.47000000000E+01 0. -1.
        -13    1    4    4    0    0  0.34191910308E+02 -0.21835452100E+02 -0.15343960197E+03  0.15871227159E+03  0.00000000000E+00 0.  1.
         14    1    4    4    0    0 -0.13307845253E+00  0.47350232377E+02 -0.10068708009E+03  0.11126522509E+03  0.00000000000E+00 0. -1.
         -5    1    5    5    0  502 -0.73206958948E+02 -0.54406895149E+02  0.42923842855E+01  0.91432399296E+02  0.47000000000E+01 0.  1.
         11    1    6    6    0    0 -0.30165958891E+02  0.58384688344E+02  0.20845203310E+02  0.68944030996E+02  0.00000000000E+00 0. -1.
        -12    1    6    6    0    0  0.13331958668E+01 -0.75561326449E+01  0.55906719980E+02  0.56430788500E+02  0.00000000000E+00 0.  1.
</event>
<event>
12    1  0.8258923E-002  0.2842372E+03  0.7818608E-02  0.1093554E+00
         21   -1    0    0  501  502  0.00000000000E+00  0.00000000000E+00  0.18578543652E+03  0.18578543652E+03  0.00000000000E+00 0.  1.
         21   -1    0    0  502  503 -0.00000000000E+00 -0.00000000000E+00 -0.85271506967E+03  0.85271506967E+03  0.00000000000E+00 0.  1.
         -6    2    1    2    0  503  0.21831922598E+03  0.53328721799E+02 -0.69807844432E+03  0.75372693708E+03  0.17402167754E+03 0.  0.
        -24    2    3    3    0    0  0.66809955713E+02 -0.35777825710E+02 -0.26409285112E+03  0.28547420523E+03  0.77503966611E+02 0.  0.
          6    2    1    2  501    0 -0.21831922598E+03 -0.53328721799E+02  0.31148811167E+02  0.28477356911E+03  0.17210026212E+03 0.  0.
         24    2    5    5    0    0 -0.15421588159E+03 -0.10240927436E+03  0.12378719406E+02  0.20175221194E+03  0.79249761623E+02 0.  0.
          5    1    5    5  501    0 -0.64103344387E+02  0.49080552561E+02  0.18770091762E+02  0.83021357169E+02  0.47000000000E+01 0. -1.
        -13    1    6    6    0    0 -0.73724847737E+02 -0.71235727832E+01  0.20204745476E+02  0.76774541371E+02  0.00000000000E+00 0.  1.
         14    1    6    6    0    0 -0.80491033857E+02 -0.95285701577E+02 -0.78260260703E+01  0.12497767057E+03  0.00000000000E+00 0. -1.
         -5    1    3    3    0  503  0.15150927027E+03  0.89106547510E+02 -0.43398559319E+03  0.46825273185E+03  0.47000000000E+01 0.  1.
         13    1    4    4    0    0  0.12237210100E+02 -0.13576415017E+02 -0.18969537792E+03  0.19057388268E+03  0.00000000000E+00 0. -1.
        -14    1    4    4    0    0  0.54572745612E+02 -0.22201410694E+02 -0.74397473207E+02  0.94900322550E+02  0.00000000000E+00 0.  1.
</event>
<event>
12    1  0.8258923E-002  0.2317781E+03  0.7818608E-02  0.1125483E+00
         21   -1    0    0  501  502  0.00000000000E+00  0.00000000000E+00  0.84728486352E+02  0.84728486352E+02  0.00000000000E+00 0.  1.
         21   -1    0    0  502  503 -0.00000000000E+00 -0.00000000000E+00 -0.63475202092E+03  0.63475202092E+03  0.00000000000E+00 0. -1.
         -6    2    1    2    0  503 -0.14660154187E+03  0.49741691986E+02 -0.25458766197E+03  0.34429049220E+03  0.17249584747E+03 0.  0.
        -24    2    3    3    0    0 -0.16889160358E+03  0.13191155342E+02 -0.21821616237E+03  0.28791882766E+03  0.81120758515E+02 0.  0.
          6    2    1    2  501    0  0.14660154187E+03 -0.49741691986E+02 -0.29543587260E+03  0.37519001507E+03  0.17181078135E+03 0.  0.
         24    2    5    5    0    0  0.34647343471E+02 -0.75021528017E+02 -0.11778383411E+03  0.16363588623E+03  0.77942309497E+02 0.  0.
          5    1    5    5  501    0  0.11195419840E+03  0.25279836031E+02 -0.17765203849E+03  0.21155412884E+03  0.47000000000E+01 0. -1.
        -11    1    6    6    0    0 -0.22607646622E+02 -0.40794033045E+02 -0.53840035083E+02  0.71232072801E+02  0.00000000000E+00 0.  1.
         12    1    6    6    0    0  0.57254990092E+02 -0.34227494972E+02 -0.63943799023E+02  0.92403813428E+02  0.00000000000E+00 0. -1.
         -5    1    3    3    0  503  0.22290061715E+02  0.36550536644E+02 -0.36371499600E+02  0.56371664544E+02  0.47000000000E+01 0.  1.
         13    1    4    4    0    0 -0.54763207804E+02 -0.27644977348E+02 -0.10739374162E+03  0.12367970504E+03  0.00000000000E+00 0. -1.
        -14    1    4    4    0    0 -0.11412839578E+03  0.40836132690E+02 -0.11082242075E+03  0.16423912262E+03  0.00000000000E+00 0.  1.
</event>
<event>
12    1  0.8258923E-002  0.4143263E+03  0.7818608E-02  0.1039029E+00
         21   -1    0    0  501  502  0.00000000000E+00  0.00000000000E+00  0.49179463756E+03  0.49179463756E+03  0.00000000000E+00 0.  1.
         21   -1    0    0  502  503 -0.00000000000E+00 -0.00000000000E+00 -0.46620220933E+03  0.46620220933E+03  0.00000000000E+00 0. -1.
         -6    2    1    2    0  503  0.13442463573E+03  0.35120473445E+03 -0.22835913490E+03  0.47203625702E+03  0.17104264163E+03 0.  0.
        -24    2    3    3    0    0  0.89648004461E+01  0.12928931927E+03 -0.12204246108E+03  0.19579008620E+03  0.81506440364E+02 0.  0.
          6    2    1    2  501    0 -0.13442463573E+03 -0.35120473445E+03  0.25395156313E+03  0.48596058988E+03  0.17392972808E+03 0.  0.
         24    2    5    5    0    0 -0.81263897399E+02 -0.16319845843E+03  0.20346174745E+03  0.28410981478E+03  0.78000937958E+02 0.  0.
          5    1    5    5  501    0 -0.53160738334E+02 -0.18800627602E+03  0.50489815678E+02  0.20185077510E+03  0.47000000000E+01 0. -1.
        -13    1    6    6    0    0 -0.48108782567E+02 -0.14137731512E+03  0.11959291418E+03  0.19132293462E+03  0.00000000000E+00 0.  1.
         14    1    6    6    0    0 -0.33155114832E+02 -0.21821143311E+02  0.83868833267E+02  0.92786880153E+02  0.00000000000E+00 0. -1.
         -5    1    3    3    0  503  0.12545983529E+03  0.22191541517E+03 -0.10631667382E+03  0.27624617082E+03  0.47000000000E+01 0.  1.
         11    1    4    4    0    0 -0.61143230099E+01  0.12951416992E+03 -0.12535761339E+03  0.18034920679E+03  0.00000000000E+00 0. -1.
        -12    1    4    4    0    0  0.15079123456E+02 -0.22485064025E+00  0.33151523112E+01  0.15440879407E+02  0.00000000000E+00 0.  1.
</event>
<event>
12    1  0.8258923E-002  0.1724725E+03  0.7818608E-02  0.1175317E+00
         21   -1    0    0  503  502  0.00000000000E+00  0.00000000000E+00  0.54621003199E+03  0.54621003199E+03  0.00000000000E+00 0. -1.
         21   -1    0    0  501  503 -0.00000000000E+00 -0.00000000000E+00 -0.70905026979E+02  0.70905026979E+02  0.00000000000E+00 0. -1.
          6    2    1    2  501    0 -0.14922806438E+01  0.11030310470E+02  0.38633318328E+03  0.42304615907E+03  0.17201985220E+03 0.  0.
         24    2    3    3    0    0  0.11252694296E+02 -0.23107104342E+02  0.37434581560E+03  0.38439923862E+03  0.83471094372E+02 0.  0.
         -6    2    1    2    0  502  0.14922806438E+01 -0.11030310470E+02  0.88971821734E+02  0.19406889990E+03  0.17211292280E+03 0.  0.
        -24    2    5    5    0    0 -0.25547463572E+02 -0.59686261166E+02  0.93102218579E+02  0.13805372800E+03  0.78585533288E+02 0.  0.
          5    1    3    3  501    0 -0.12744974939E+02  0.34137414813E+02  0.11987367678E+02  0.38646920448E+02  0.47000000000E+01 0. -1.
        -11    1    4    4    0    0  0.22707661705E+02 -0.48525412075E+02  0.17225699396E+03  0.18039630119E+03  0.00000000000E+00 0.  1.
         12    1    4    4    0    0 -0.11454967409E+02  0.25418307733E+02  0.20208882164E+03  0.20400293743E+03  0.00000000000E+00 0. -1.
         -5    1    5    5    0  502  0.27039744216E+02  0.48655950696E+02 -0.41303968451E+01  0.56015171905E+02  0.47000000000E+01 0.  1.
         13    1    6    6    0    0 -0.71284348779E+00 -0.53679959943E+02  0.14798750750E+02  0.55687065546E+02  0.00000000000E+00 0. -1.
        -14    1    6    6    0    0 -0.24834620084E+02 -0.60063012233E+01  0.78303467829E+02  0.82366662450E+02  0.00000000000E+00 0.  1.
</event>
<event>
12    1  0.8258923E-002  0.2663243E+03  0.7818608E-02  0.1103487E+00
         21   -1    0    0  503  502  0.00000000000E+00  0.00000000000E+00  0.58668851343E+02  0.58668851343E+02  0.00000000000E+00 0. -1.
         21   -1    0    0  501  503 -0.00000000000E+00 -0.00000000000E+00 -0.12295826835E+04  0.12295826835E+04  0.00000000000E+00 0. -1.
          6    2    1    2  501    0  0.47628461037E+02  0.19599495625E+03 -0.67468918050E+03  0.72535103843E+03  0.17391419001E+03 0.  0.
         24    2    3    3    0    0  0.89537482324E+02  0.17711060798E+03 -0.48215361297E+03  0.52734846410E+03  0.78988403531E+02 0.  0.
         -6    2    1    2    0  502 -0.47628461037E+02 -0.19599495625E+03 -0.49622465171E+03  0.56290049647E+03  0.17301898966E+03 0.  0.
        -24    2    5    5    0    0 -0.62319290587E+02 -0.18182537130E+03 -0.29668992553E+03  0.36226950544E+03  0.79184108451E+02 0.  0.
          5    1    3    3  501    0 -0.41909021287E+02  0.18884348272E+02 -0.19253556753E+03  0.19800257433E+03  0.47000000000E+01 0. -1.
        -11    1    4    4    0    0  0.52248297051E+02  0.10261364763E+03 -0.17805363249E+03  0.21204372490E+03  0.00000000000E+00 0.  1.
         12    1    4    4    0    0  0.37289185273E+02  0.74496960351E+02 -0.30409998047E+03  0.31530473920E+03  0.00000000000E+00 0. -1.
         -5    1    5    5    0  502  0.14690829550E+02 -0.14169584952E+02 -0.19953472617E+03  0.20063099103E+03  0.47000000000E+01 0.  1.
         11    1    6    6    0    0 -0.40947577580E+02 -0.76235731808E+02 -0.19834523745E+03  0.21640107240E+03  0.00000000000E+00 0. -1.
        -12    1    6    6    0    0 -0.21371713007E+02 -0.10558963949E+03 -0.98344688079E+02  0.14586843304E+03  0.00000000000E+00 0.  1.
</event>
<event>
12    1  0.8258923E-002  0.2220315E+03  0.7818608E-02  0.1132802E+00
         21   -1    0    0  503  502  0.00000000000E+00  0.00000000000E+00  0.28428152979E+03  0.28428152979E+03  0.00000000000E+00 0.  1.
         21   -1    0    0  501  503 -0.00000000000E+00 -0.00000000000E+00 -0.17172913422E+03  0.17172913422E+03  0.00000000000E+00 0.  1.
          6    2    1    2  501    0 -0.11886846087E+02  0.14042005805E+03  0.61592192739E+02  0.22820607381E+03  0.16859811418E+03 0.  0.
         24    2    3    3    0    0 -0.57581323302E+02  0.13989883705E+03  0.62957221813E+02  0.18224728549E+03  0.79769467153E+02 0.  0.
         -6    2    1    2    0  502  0.11886846087E+02 -0.14042005805E+03  0.50960202824E+02  0.22780459020E+03  0.17157767695E+03 0.  0.
        -24    2    5    5    0    0 -0.28278660565E+02 -0.68494888467E+02 -0.28676075687E+02  0.11312885257E+03  0.80526936970E+02 0.  0.
          5    1    3    3  501    0  0.45694477215E+02  0.52122100170E+00 -0.13650290737E+01  0.45958788318E+02  0.47000000000E+01 0. -1.
        -11    1    4    4    0    0 -0.44319925343E+02  0.14746168029E+03  0.49065156491E+02  0.16160628861E+03  0.00000000000E+00 0.  1.
         12    1    4    4    0    0 -0.13261397959E+02 -0.75628432356E+01  0.13892065321E+02  0.20640996888E+02  0.00000000000E+00 0. -1.
         -5    1    5    5    0  502  0.40165506652E+02 -0.71925169586E+02  0.79636278511E+02  0.11467573762E+03  0.47000000000E+01 0.  1.
         13    1    6    6    0    0  0.23836310402E+02 -0.24491071534E+02 -0.29150795409E+02  0.44919385029E+02  0.00000000000E+00 0. -1.
        -14    1    6    6    0    0 -0.52114970967E+02 -0.44003816933E+02  0.47471972167E+00  0.68209467542E+02  0.00000000000E+00 0.  1.
</event>
<event>
12    1  0.8258923E-002  0.1807696E+03  0.7818608E-02  0.1167749E+00
         21   -1    0    0  501  502  0.00000000000E+00  0.00000000000E+00  0.55066454638E+03  0.55066454638E+03  0.00000000000E+00 0. -1.
         21   -1    0    0  502  503 -0.00000000000E+00 -0.00000000000E+00 -0.60246476534E+02  0.60246476534E+02  0.00000000000E+00 0. -1.
         -6    2    1    2    0  503  0.29118849361E+02 -0.26997988418E+02  0.19007022035E+03  0.26035932987E+03  0.17344593746E+03 0.  0.
        -24    2    3    3    0    0  0.44162617763E+02  0.43318121008E+02  0.13897035402E+03  0.17201932449E+03  0.80318692004E+02 0.  0.
          6    2    1    2  501    0 -0.29118849361E+02  0.26997988418E+02  0.30034784950E+03  0.35055169305E+03  0.17635435926E+03 0.  0.
         24    2    5    5    0    0 -0.43880355370E+01 -0.50840662804E+02  0.17186178272E+03  0.19823219944E+03  0.84590216242E+02 0.  0.
          5    1    5    5  501    0 -0.24730813824E+02  0.77838651222E+02  0.12848606678E+03  0.15231949361E+03  0.47000000000E+01 0. -1.
        -13    1    6    6    0    0 -0.19330842662E+02  0.19145125121E+02  0.45566864030E+02  0.53071238835E+02  0.00000000000E+00 0.  1.
         14    1    6    6    0    0  0.14942807125E+02 -0.69985787924E+02  0.12629491869E+03  0.14516096060E+03  0.00000000000E+00 0. -1.
         -5    1    3    3    0  503 -0.15043768402E+02 -0.70316109426E+02  0.51099866332E+02  0.88340005387E+02  0.47000000000E+01 0.  1.
         11    1    4    4    0    0  0.32749269432E+02  0.48626961599E+02  0.37111394301E+02  0.69385528964E+02  0.00000000000E+00 0. -1.
        -12    1    4    4    0    0  0.11413348331E+02 -0.53088405905E+01  0.10185895972E+03  0.10263379552E+03  0.00000000000E+00 0.  1.
</event>
<event>
12    1  0.8258923E-002  0.2440694E+03  0.7818608E-02  0.1117334E+00
         21   -1    0    0  501  502  0.00000000000E+00  0.00000000000E+00  0.29269324973E+03  0.29269324973E+03  0.00000000000E+00 0. -1.
         21   -1    0    0  502  503 -0.00000000000E+00 -0.00000000000E+00 -0.46510602299E+03  0.46510602299E+03  0.00000000000E+00 0.  1.
         -6    2    1    2    0  503  0.16692059357E+03  0.38629179502E+02 -0.37107959791E+03  0.44415078978E+03  0.17382507877E+03 0.  0.
        -24    2    3    3    0    0  0.55821696909E+02  0.69335082802E+02 -0.12967660441E+03  0.17660021025E+03  0.80300666098E+02 0.  0.
          6    2    1    2  501    0 -0.16692059357E+03 -0.38629179502E+02  0.19866682465E+03  0.31364848293E+03  0.17190743313E+03 0.  0.
         24    2    5    5    0    0 -0.17822557114E+02 -0.44988586460E+02  0.78877625586E+02  0.12222693570E+03  0.79850657729E+02 0.  0.
          5    1    5    5  501    0 -0.14909803646E+03  0.63594069579E+01  0.11978919906E+03  0.19142154723E+03  0.47000000000E+01 0. -1.
        -11    1    6    6    0    0  0.84272100476E+00 -0.33680327494E+02 -0.63200927930E+01  0.34278538646E+02  0.00000000000E+00 0.  1.
         12    1    6    6    0    0 -0.18665278118E+02 -0.11308258966E+02  0.85197718379E+02  0.87948397058E+02  0.00000000000E+00 0. -1.
         -5    1    3    3    0  503  0.11109889666E+03 -0.30705903300E+02 -0.24140299350E+03  0.26755057953E+03  0.47000000000E+01 0.  1.
         11    1    4    4    0    0 -0.19042578262E+02  0.52979746439E+01 -0.11974290680E+02  0.23109996960E+02  0.00000000000E+00 0. -1.
        -12    1    4    4    0    0  0.74864275171E+02  0.64037108158E+02 -0.11770231373E+03  0.15349021329E+03  0.00000000000E+00 0.  1.
</event>
<event>
12    1  0.8258923E-002  0.2249201E+03  0.7818608E-02  0.1130454E+00
         21   -1    0    0  501  502  0.00000000000E+00  0.00000000000E+00  0.20039426558E+04  0.20039426558E+04  0.00000000000E+00 0.  1.
         21   -1    0    0  502  503 -0.00000000000E+00 -0.00000000000E+00 -0.25256698494E+02  0.25256698494E+02  0.00000000000E+00 0. -1.
         -6    2    1    2    0  503  0.12782179597E+03  0.65623842934E+02  0.91510818386E+03  0.94209921006E+03  0.17170624087E+03 0.  0.
        -24    2    3    3    0    0  0.12514948091E+03  0.34607840711E+02  0.43727061642E+03  0.46322556857E+03  0.80698452175E+02 0.  0.
          6    2    1    2  501    0 -0.12782179597E+03 -0.65623842934E+02  0.10635777735E+04  0.10871001442E+04  0.17304376072E+03 0.  0.
         24    2    5    5    0    0 -0.10348682616E+02 -0.13780825735E+02  0.61545461366E+03  0.62091982812E+03  0.80374405642E+02 0.  0.
          5    1    5    5  501    0 -0.11747311336E+03 -0.51843017199E+02  0.44812315980E+03  0.46618031612E+03  0.47000000000E+01 0. -1.
        -13    1    6    6    0    0  0.28422398417E+02 -0.27823495679E+02  0.24967786899E+03  0.25282606255E+03  0.00000000000E+00 0.  1.
         14    1    6    6    0    0 -0.38771081033E+02  0.14042669944E+02  0.36577674467E+03  0.36809376557E+03  0.00000000000E+00 0. -1.
         -5    1    3    3    0  503  0.26723150654E+01  0.31016002223E+02  0.47783756744E+03  0.47887364150E+03  0.47000000000E+01 0.  1.
         13    1    4    4    0    0  0.11918541909E+03  0.24473362085E+02  0.43440424197E+03  0.45112210655E+03  0.00000000000E+00 0. -1.
        -14    1    4    4    0    0  0.59640618210E+01  0.10134478626E+02  0.28663744481E+01  0.12103462021E+02  0.00000000000E+00 0.  1.
</event>
<event>
12    1  0.8258923E-002  0.1806370E+03  0.7818608E-02  0.1167567E+00
         21   -1    0    0  503  502  0.00000000000E+00  0.00000000000E+00  0.30450135713E+02  0.30450135713E+02  0.00000000000E+00 0.  1.
         21   -1    0    0  501  503 -0.00000000000E+00 -0.00000000000E+00 -0.16197792106E+04  0.16197792106E+04  0.00000000000E+00 0.  1.
          6    2    1    2  501    0  0.66489880412E+01  0.49806487814E+02 -0.12809939272E+04  0.12936673330E+04  0.17350744033E+03 0.  0.
         24    2    3    3    0    0 -0.41069176698E+02 -0.21275270838E+02 -0.56347344013E+03  0.57104199514E+03  0.80295255459E+02 0.  0.
         -6    2    1    2    0  502 -0.66489880412E+01 -0.49806487814E+02 -0.30833514768E+03  0.35656201323E+03  0.17187498573E+03 0.  0.
        -24    2    5    5    0    0 -0.18543242164E+02  0.27291135136E+02 -0.97809284946E+02  0.13199855756E+03  0.82269709429E+02 0.  0.
          5    1    3    3  501    0  0.47718164739E+02  0.71081758652E+02 -0.71752048703E+03  0.72262533790E+03  0.47000000000E+01 0. -1.
        -11    1    4    4    0    0 -0.40149599194E+02  0.15425810473E+02 -0.44340667814E+03  0.44548785411E+03  0.00000000000E+00 0.  1.
         12    1    4    4    0    0 -0.91957750396E+00 -0.36701081310E+02 -0.12006676200E+03  0.12555414102E+03  0.00000000000E+00 0. -1.
         -5    1    5    5    0  502  0.11894254123E+02 -0.77097622951E+02 -0.21052586273E+03  0.22456345567E+03  0.47000000000E+01 0.  1.
         11    1    6    6    0    0  0.74616674179E+01  0.12030904815E+02  0.11730087674E+02  0.18385159998E+02  0.00000000000E+00 0. -1.
        -12    1    6    6    0    0 -0.26004909582E+02  0.15260230321E+02 -0.10953937262E+03  0.11361339756E+03  0.00000000000E+00 0.  1.
</event>
<event>
12    1  0.8258923E-002  0.1847338E+03  0.7818608E-02  0.1163594E+00
         21   -1    0    0  503  502  0.00000000000E+00  0.00000000000E+00  0.45414541926E+03  0.45414541926E+03  0.00000000000E+00 0. -1.
         21   -1    0    0  501  503 -0.00000000000E+00 -0.00000000000E+00 -0.29501102024E+03  0.29501102024E+03  0.00000000000E+00 0. -1.
          6    2    1    2  501    0  0.67037202165E+02 -0.32155423844E+02 -0.24424951566E+03  0.30548408307E+03  0.16773413890E+03 0.  0.
         24    2    3    3    0    0 -0.20365299000E+02  0.18781809398E+01 -0.15547022611E+03  0.17625043530E+03  0.80467084996E+02 0.  0.
         -6    2    1    2    0  502 -0.67037202165E+02  0.32155423844E+02  0.40338391467E+03  0.44367235643E+03  0.16911126361E+03 0.  0.
        -24    2    5    5    0    0 -0.51598201483E+02  0.61116826028E+02  0.39207430541E+03  0.40864204355E+03  0.82875919136E+02 0.  0.
          5    1    3    3  501    0  0.87402501165E+02 -0.34033604784E+02 -0.88779289550E+02  0.12923364778E+03  0.47000000000E+01 0. -1.
        -11    1    4    4    0    0 -0.12326960643E+02 -0.13853522387E+02  0.12044240970E+01  0.18582913621E+02  0.00000000000E+00 0.  1.
         12    1    4    4    0    0 -0.80383383569E+01  0.15731703327E+02 -0.15667465021E+03  0.15766752168E+03  0.00000000000E+00 0. -1.
         -5    1    5    5    0  502 -0.15439000682E+02 -0.28961402184E+02  0.11309609264E+02  0.35030312876E+02  0.47000000000E+01 0.  1.
         13    1    6    6    0    0 -0.65053826534E+02  0.56468006241E+02  0.22443020556E+03  0.24039457823E+03  0.00000000000E+00 0. -1.
        -14    1    6    6    0    0  0.13455625051E+02  0.46488197871E+01  0.16764409985E+03  0.16824746532E+03  0.00000000000E+00 0.  1.
</event>
<event>
12    1  0.8258923E-002  0.2856656E+03  0.7818608E-02  0.1093442E+00
         21   -1    0    0  501  502  0.00000000000E+00  0.00000000000E+00  0.15405514496E+03  0.15405514496E+03  0.00000000000E+00 0. -1.
         21   -1    0    0  502  503 -0.00000000000E+00 -0.00000000000E+00 -0.51872043828E+03  0.51872043828E+03  0.00000000000E+00 0. -1.
         -6    2    1    2    0  503  0.23149891679E+02 -0.21970175555E+03 -0.18833606689E+03  0.34216267816E+03  0.18110782800E+03 0.  0.
        -24    2    3    3    0    0 -0.33399230362E+02 -0.20303044434E+03 -0.17647604401E+03  0.28184281441E+03  0.77166754541E+02 0.  0.
          6    2    1    2  501    0 -0.23149891679E+02  0.21970175555E+03 -0.17632922643E+03  0.33061290508E+03  0.17148795303E+03 0.  0.
         24    2    5    5    0    0 -0.46826611881E+02  0.65045650341E+02 -0.33224123304E+02  0.11852740699E+03  0.80754167886E+02 0.  0.
          5    1    5    5  501    0  0.23676720202E+02  0.15465610521E+03 -0.14310510313E+03  0.21208549809E+03  0.47000000000E+01 0. -1.
        -11    1    6    6    0    0 -0.36742079435E+02  0.49963769615E+02 -0.59928753932E+02  0.86242763310E+02  0.00000000000E+00 0.  1.
         12    1    6    6    0    0 -0.10084532445E+02  0.15081880725E+02  0.26704630628E+02  0.32284643684E+02  0.00000000000E+00 0. -1.
         -5    1    3    3    0  503  0.56549122041E+02 -0.16671311212E+02 -0.11860022879E+02  0.60319863758E+02  0.47000000000E+01 0.  1.
         13    1    4    4    0    0 -0.45242933610E+02 -0.11613770204E+03 -0.66781773503E+02  0.14140259597E+03  0.00000000000E+00 0. -1.
        -14    1    4    4    0    0  0.11843703248E+02 -0.86892742301E+02 -0.10969427051E+03  0.14044021843E+03  0.00000000000E+00 0.  1.
</event>
<event>
12    1  0.8258923E-002  0.1786994E+03  0.7818608E-02  0.1169508E+00
         21   -1    0    0  503  502  0.00000000000E+00  0.00000000000E+00  0.16863009188E+03  0.16863009188E+03  0.00000000000E+00 0.  1.
         21   -1    0    0  501  503 -0.00000000000E+00 -0.00000000000E+00 -0.20991137623E+03  0.20991137623E+03  0.00000000000E+00 0.  1.
          6    2    1    2  501    0 -0.47178926393E+02  0.75373510632E+01 -0.82428033242E+02  0.19516605603E+03  0.17033128311E+03 0.  0.
         24    2    3    3    0    0 -0.95089436118E+02  0.17741667536E+02 -0.67899554518E+02  0.14385609880E+03  0.82021095032E+02 0.  0.
         -6    2    1    2    0  502  0.47178926393E+02 -0.75373510632E+01  0.41146748891E+02  0.18337541207E+03  0.17219414639E+03 0.  0.
        -24    2    5    5    0    0 -0.42804530079E+00 -0.35797459088E+02  0.77782140085E+02  0.11682243057E+03  0.79471867145E+02 0.  0.
          5    1    3    3  501    0  0.47910509724E+02 -0.10204316473E+02 -0.14528478724E+02  0.51309957228E+02  0.47000000000E+01 0. -1.
        -11    1    4    4    0    0 -0.73566320698E+02  0.49348156191E+02 -0.47388344443E+02  0.10046342245E+03  0.00000000000E+00 0.  1.
         12    1    4    4    0    0 -0.21523115419E+02 -0.31606488655E+02 -0.20511210076E+02  0.43392676355E+02  0.00000000000E+00 0. -1.
         -5    1    5    5    0  502  0.47606971694E+02  0.28260108025E+02 -0.36635391194E+02  0.66552981507E+02  0.47000000000E+01 0.  1.
         11    1    6    6    0    0 -0.25034610000E+02 -0.43984315103E+02  0.21760456940E+02  0.55089646569E+02  0.00000000000E+00 0. -1.
        -12    1    6    6    0    0  0.24606564699E+02  0.81868560146E+01  0.56021683145E+02  0.61732783997E+02  0.00000000000E+00 0.  1.
</event>
<event>
12    1  0.8258923E-002  0.1860206E+03  0.7818608E-02  0.1162268E+00
         21   -1    0    0  501  502  0.00000000000E+00  0.00000000000E+00  0.73720615667E+03  0.73720615667E+03  0.00000000000E+00 0. -1.
         21   -1    0    0  502  503 -0.00000000000E+00 -0.00000000000E+00 -0.65425999734E+02  0.65425999734E+02  0.00000000000E+00 0. -1.
         -6    2    1    2    0  503  0.30609499079E+02  0.62259301101E+02  0.12198112819E+03  0.22244792163E+03  0.17259930531E+03 0.  0.
        -24    2    3    3    0    0 -0.61811192823E+01  0.38727039566E+02  0.14712162775E+03  0.17183713571E+03  0.79657002388E+02 0.  0.
          6    2    1    2  501    0 -0.30609499079E+02 -0.62259301101E+02  0.54979902875E+03  0.58018423478E+03  0.17181854459E+03 0.  0.
         24    2    5    5    0    0  0.27059270670E+02 -0.77181542821E+01  0.41601299760E+03  0.42455256759E+03  0.79914294360E+02 0.  0.
          5    1    5    5  501    0 -0.57668769748E+02 -0.54541146818E+02  0.13378603115E+03  0.15563166719E+03  0.47000000000E+01 0. -1.
        -13    1    6    6    0    0  0.46774870838E+02 -0.23946302621E+02  0.34720781421E+03  0.35116175789E+03  0.00000000000E+00 0.  1.
         14    1    6    6    0    0 -0.19715600168E+02  0.16228148339E+02  0.68805183384E+02  0.73390809704E+02  0.00000000000E+00 0. -1.
         -5    1    3    3    0  503  0.36790618361E+02  0.23532261535E+02 -0.25140499562E+02  0.50610785911E+02  0.47000000000E+01 0.  1.
         11    1    4    4    0    0 -0.26006084784E+02  0.39203084186E+02  0.36747537790E+02  0.59695726725E+02  0.00000000000E+00 0. -1.
        -12    1    4    4    0    0  0.19824965502E+02 -0.47604462048E+00  0.11037408996E+03  0.11214140899E+03  0.00000000000E+00 0.  1.
</event>
<event>
12    1  0.8258923E-002  0.1909919E+03  0.7818608E-02  0.1158039E+00
         21   -1    0    0  501  502  0.00000000000E+00  0.00000000000E+00  0.34530918611E+03  0.34530918611E+03  0.00000000000E+00 0.  1.
         21   -1    0    0  502  503 -0.00000000000E+00 -0.00000000000E+00 -0.12091455973E+03  0.12091455973E+03  0.00000000000E+00 0.  1.
         -6    2    1    2    0  503  0.72771966277E+02  0.40082300139E+02  0.26812972577E+02  0.19286485292E+03  0.17197548120E+03 0.  0.
        -24    2    3    3    0    0  0.56356727423E+02 -0.41354184934E+02  0.46600672543E+01  0.10675909015E+03  0.80557667334E+02 0.  0.
          6    2    1    2  501    0 -0.72771966277E+02 -0.40082300139E+02  0.19758165381E+03  0.27335889292E+03  0.16965914227E+03 0.  0.
         24    2    5    5    0    0 -0.90122142762E+02 -0.75322165638E+02  0.18262906823E+03  0.23106768154E+03  0.79015616415E+02 0.  0.
          5    1    5    5  501    0  0.17350176485E+02  0.35239865499E+02  0.14952585577E+02  0.42291211379E+02  0.47000000000E+01 0. -1.
        -13    1    6    6    0    0 -0.74765046396E+01 -0.30526404588E+01  0.81193330211E+02  0.81593955696E+02  0.00000000000E+00 0.  1.
         14    1    6    6    0    0 -0.82645638122E+02 -0.72269525179E+02  0.10143573802E+03  0.14947372585E+03  0.00000000000E+00 0. -1.
         -5    1    3    3    0  503  0.16415238855E+02  0.81436485073E+02  0.22152905323E+02  0.86105762769E+02  0.47000000000E+01 0.  1.
         11    1    4    4    0    0  0.51071148097E+02 -0.11010011880E+01  0.29670796264E+02  0.59074787537E+02  0.00000000000E+00 0. -1.
        -12    1    4    4    0    0  0.52855793253E+01 -0.40253183746E+02 -0.25010729010E+02  0.47684302617E+02  0.00000000000E+00 0.  1.
</event>
<event>
12    1  0.8258923E-002  0.1812186E+03  0.7818608E-02  0.1166715E+00
         21   -1    0    0  503  502  0.00000000000E+00  0.00000000000E+00  0.57776782842E+02  0.57776782842E+02  0.00000000000E+00 0.  1.
         21   -1    0    0  501  503 -0.00000000000E+00 -0.00000000000E+00 -0.56953426309E+03  0.56953426309E+03  0.00000000000E+00 0.  1.
          6    2    1    2  501    0 -0.39530201580E+02 -0.40555298182E+02 -0.27589940836E+03  0.33009188404E+03  0.17214180005E+03 0.  0.
         24    2    3    3    0    0 -0.41484584165E+02  0.23475659390E+02 -0.23796736209E+03  0.25549487824E+03  0.79856684649E+02 0.  0.
         -6    2    1    2    0  502  0.39530201580E+02  0.40555298182E+02 -0.23585807189E+03  0.29721916190E+03  0.17176388176E+03 0.  0.
        -24    2    5    5    0    0 -0.18057114806E+02  0.75356531724E+02 -0.12708465741E+03  0.16923021486E+03  0.80521358697E+02 0.  0.
          5    1    3    3  501    0  0.19543825849E+01 -0.64030957572E+02 -0.37932046276E+02  0.74597005794E+02  0.47000000000E+01 0. -1.
        -11    1    4    4    0    0 -0.32494121595E+02 -0.15288580436E+02 -0.40804420839E+02  0.54356318768E+02  0.00000000000E+00 0.  1.
         12    1    4    4    0    0 -0.89904625695E+01  0.38764239826E+02 -0.19716294125E+03  0.20113855948E+03  0.00000000000E+00 0. -1.
         -5    1    5    5    0  502  0.57587316385E+02 -0.34801233542E+02 -0.10877341448E+03  0.12798894703E+03  0.47000000000E+01 0.  1.
         11    1    6    6    0    0 -0.58005240701E+01  0.83959800545E+02 -0.67768559798E+02  0.10805309752E+03  0.00000000000E+00 0. -1.
        -12    1    6    6    0    0 -0.12256590736E+02 -0.86032688206E+01 -0.59316097608E+02  0.61177117342E+02  0.00000000000E+00 0.  1.
</event>
<event>
12    1  0.8258923E-002  0.2692712E+03  0.7818608E-02  0.1102173E+00
         21   -1    0    0  501  502  0.00000000000E+00  0.00000000000E+00  0.43646978985E+03  0.43646978985E+03  0.00000000000E+00 0. -1.
         21   -1    0    0  502  503 -0.00000000000E+00 -0.00000000000E+00 -0.16532498059E+03  0.16532498059E+03  0.00000000000E+00 0.  1.
         -6    2    1    2    0  503 -0.20449123748E+03  0.18446253874E+02  0.16067683868E+03  0.31074465045E+03  0.16908063403E+03 0.  0.
        -24    2    3    3    0    0 -0.21140561070E+03  0.27245634917E+02  0.17860832603E+03  0.28909133886E+03  0.78982347504E+02 0.  0.
          6    2    1    2  501    0  0.20449123748E+03 -0.18446253874E+02  0.11046797058E+03  0.29105012000E+03  0.17421271290E+03 0.  0.
         24    2    5    5    0    0  0.15400179874E+03 -0.37283866219E+02  0.11680490685E+02  0.17842199186E+03  0.81187022489E+02 0.  0.
          5    1    5    5  501    0  0.50489438744E+02  0.18837612344E+02  0.98787479898E+02  0.11262812814E+03  0.47000000000E+01 0. -1.
        -13    1    6    6    0    0  0.19870866374E+02 -0.38727197299E+02 -0.20941628984E+01  0.43577891864E+02  0.00000000000E+00 0.  1.
         14    1    6    6    0    0  0.13413093237E+03  0.14433310799E+01  0.13774653583E+02  0.13484409999E+03  0.00000000000E+00 0. -1.
         -5    1    3    3    0  503  0.69143732194E+01 -0.87993810427E+01 -0.17931487358E+02  0.21653311586E+02  0.47000000000E+01 0.  1.
         13    1    4    4    0    0 -0.81754133615E+02 -0.17397893603E+02  0.10251188377E+03  0.13226908701E+03  0.00000000000E+00 0. -1.
        -14    1    4    4    0    0 -0.12965147709E+03  0.44643528521E+02  0.76096442265E+02  0.15682225185E+03  0.00000000000E+00 0.  1.
</event>
<event>
12    1  0.8258923E-002  0.2225462E+03  0.7818608E-02  0.1132103E+00
         21   -1    0    0  501  502  0.00000000000E+00  0.00000000000E+00  0.35562597426E+02  0.35562597426E+02  0.00000000000E+00 0.  1.
         21   -1    0    0  502  503 -0.00000000000E+00 -0.00000000000E+00 -0.14798459213E+04  0.14798459213E+04  0.00000000000E+00 0. -1.
         -6    2    1    2    0  503 -0.97814878055E+01  0.13997681588E+03 -0.91062881853E+03  0.93742820378E+03  0.17273565242E+03 0.  0.
        -24    2    3    3    0    0  0.42603185754E+02  0.24513292443E+02 -0.40189598920E+03  0.41311230577E+03  0.82008890368E+02 0.  0.
          6    2    1    2  501    0  0.97814878055E+01 -0.13997681588E+03 -0.53365450533E+03  0.57798031494E+03  0.17200269446E+03 0.  0.
         24    2    5    5    0    0 -0.19246999543E+02 -0.43099392481E+01 -0.17697167035E+03  0.19523641979E+03  0.80057884943E+02 0.  0.
          5    1    5    5  501    0  0.29028487349E+02 -0.13566687664E+03 -0.35668283499E+03  0.38274389514E+03  0.47000000000E+01 0. -1.
        -13    1    6    6    0    0 -0.26431144700E+02 -0.26847760846E+02 -0.35382729938E+02  0.51685058290E+02  0.00000000000E+00 0.  1.
         14    1    6    6    0    0  0.71841451566E+01  0.22537821598E+02 -0.14158894041E+03  0.14355136150E+03  0.00000000000E+00 0. -1.
         -5    1    3    3    0  503 -0.52384673560E+02  0.11546352344E+03 -0.50873282933E+03  0.52431589801E+03  0.47000000000E+01 0.  1.
         11    1    4    4    0    0  0.43491425826E+02  0.30422515498E+02 -0.12071593831E+03  0.13186876556E+03  0.00000000000E+00 0. -1.
        -12    1    4    4    0    0 -0.88824007140E+00 -0.59092230550E+01 -0.28118005089E+03  0.28124354021E+03  0.00000000000E+00 0.  1.
</event>
<event>
12    1  0.8258923E-002  0.2009612E+03  0.7818608E-02  0.1149047E+00
         21   -1    0    0  503  502  0.00000000000E+00  0.00000000000E+00  0.38162376093E+03  0.38162376093E+03  0.00000000000E+00 0.  1.
         21   -1    0    0  501  503 -0.00000000000E+00 -0.00000000000E+00 -0.10926655880E+03  0.10926655880E+03  0.00000000000E+00 0.  1.
          6    2    1    2  501    0  0.98146256759E+02  0.35699342775E+02  0.90987460690E+02  0.22059948907E+03  0.17169241621E+03 0.  0.
         24    2    3    3    0    0  0.47881883202E+02  0.24579456979E+00 -0.17566755803E+02  0.95741292512E+02  0.81025113567E+02 0.  0.
         -6    2    1    2    0  502 -0.98146256759E+02 -0.35699342775E+02  0.18136974144E+03  0.27029083065E+03  0.17104098700E+03 0.  0.
        -24    2    5    5    0    0 -0.10865200535E+03 -0.34089838328E+02  0.20572472191E+03  0.24330534693E+03  0.62509641644E+02 0.  0.
          5    1    3    3  501    0  0.50264373557E+02  0.35453548205E+02  0.10855421649E+03  0.12485819656E+03  0.47000000000E+01 0. -1.
        -13    1    4    4    0    0 -0.62996367624E+01 -0.23513528351E+02 -0.26415230978E+02  0.35921245336E+02  0.00000000000E+00 0.  1.
         14    1    4    4    0    0  0.54181519964E+02  0.23759322921E+02  0.88484751751E+01  0.59820047177E+02  0.00000000000E+00 0. -1.
         -5    1    5    5    0  502  0.10505748592E+02 -0.16095044468E+01 -0.24354980467E+02  0.26985483720E+02  0.47000000000E+01 0.  1.
         11    1    6    6    0    0 -0.42572653314E+01  0.23342545858E+01 -0.39534613907E+01  0.62612226874E+01  0.00000000000E+00 0. -1.
        -12    1    6    6    0    0 -0.10439474002E+03 -0.36424092914E+02  0.20967818330E+03  0.23704412425E+03  0.00000000000E+00 0.  1.
</event>
<event>
12    1  0.8258923E-002  0.2272917E+03  0.7818608E-02  0.1129041E+00
         21   -1    0    0  501  502  0.00000000000E+00  0.00000000000E+00  0.75772658382E+03  0.75772658382E+03  0.00000000000E+00 0.  1.
         21   -1    0    0  502  503 -0.00000000000E+00 -0.00000000000E+00 -0.67401234721E+02  0.67401234721E+02  0.00000000000E+00 0.  1.
         -6    2    1    2    0  503  0.14230693810E+03  0.31484189796E+02  0.34012321562E+03  0.40907859466E+03  0.17441036656E+03 0.  0.
        -24    2    3    3    0    0  0.12352265528E+03  0.71538636800E+02  0.32215407012E+03  0.36109747133E+03  0.78946285432E+02 0.  0.
          6    2    1    2  501    0 -0.14230693810E+03 -0.31484189796E+02  0.35020213348E+03  0.41604922388E+03  0.17091782693E+03 0.  0.
         24    2    5    5    0    0 -0.15891650069E+03  0.11481039112E+02  0.27544669027E+03  0.32811541495E+03  0.80016110219E+02 0.  0.
          5    1    5    5  501    0  0.16609562595E+02 -0.42965228908E+02  0.74755443207E+02  0.87933808934E+02  0.47000000000E+01 0. -1.
        -13    1    6    6    0    0 -0.56516860342E+02  0.33885672164E+02  0.15510511941E+03  0.16852297276E+03  0.00000000000E+00 0.  1.
         14    1    6    6    0    0 -0.10239964035E+03 -0.22404633052E+02  0.12034157085E+03  0.15959244218E+03  0.00000000000E+00 0. -1.
         -5    1    3    3    0  503  0.18784282816E+02 -0.40054447004E+02  0.17969145502E+02  0.47981123328E+02  0.47000000000E+01 0.  1.
         11    1    4    4    0    0  0.23020173515E+02  0.53291755249E+02  0.85553708148E+02  0.10338944116E+03  0.00000000000E+00 0. -1.
        -12    1    4    4    0    0  0.10050248176E+03  0.18246881551E+02  0.23660036197E+03  0.25770803016E+03  0.00000000000E+00 0.  1.
</event>
<event>
12    1  0.8258923E-002  0.2242774E+03  0.7818608E-02  0.1131552E+00
         21   -1    0    0  501  502  0.00000000000E+00  0.00000000000E+00  0.13704632479E+04  0.13704632479E+04  0.00000000000E+00 0. -1.
         21   -1    0    0  502  503 -0.00000000000E+00 -0.00000000000E+00 -0.38334140715E+02  0.38334140715E+02  0.00000000000E+00 0. -1.
         -6    2    1    2    0  503 -0.11525145989E+03 -0.74316619397E+02  0.48517253375E+03  0.53264912364E+03  0.17180466372E+03 0.  0.
        -24    2    3    3    0    0 -0.14305185557E+03 -0.37947607007E+02  0.41465200440E+03  0.44844222295E+03  0.85207325494E+02 0.  0.
          6    2    1    2  501    0  0.11525145989E+03  0.74316619397E+02  0.84695657342E+03  0.87614826497E+03  0.17746685892E+03 0.  0.
         24    2    5    5    0    0  0.53144708619E+02  0.43650291273E+02  0.20919254034E+03  0.23461671927E+03  0.80955407747E+02 0.  0.
          5    1    5    5  501    0  0.62106751275E+02  0.30666328124E+02  0.63776403308E+03  0.64153154570E+03  0.47000000000E+01 0. -1.
        -11    1    6    6    0    0 -0.97478425198E+00 -0.77909367261E+01 -0.39391444313E+01  0.87844042632E+01  0.00000000000E+00 0.  1.
         12    1    6    6    0    0  0.54119492871E+02  0.51441227999E+02  0.21313168478E+03  0.22583231501E+03  0.00000000000E+00 0. -1.
         -5    1    3    3    0  503  0.27800395677E+02 -0.36369012390E+02  0.70520529355E+02  0.84206900682E+02  0.47000000000E+01 0.  1.
         13    1    4    4    0    0 -0.73279189304E+02  0.74402640349E+01  0.28505519620E+03  0.29441749607E+03  0.00000000000E+00 0. -1.
        -14    1    4    4    0    0 -0.69772666267E+02 -0.45387871042E+02  0.12959680820E+03  0.15402472688E+03  0.00000000000E+00 0.  1.
</event>
<event>
12    1  0.8258923E-002  0.1893448E+03  0.7818608E-02  0.1159124E+00
         21   -1    0    0  503  502  0.00000000000E+00  0.00000000000E+00  0.21900040463E+03  0.21900040463E+03  0.00000000000E+00 0.  1.
         21   -1    0    0  501  503 -0.00000000000E+00 -0.00000000000E+00 -0.18375552625E+03  0.18375552625E+03  0.00000000000E+00 0.  1.
          6    2    1    2  501    0  0.43090459320E+02  0.65291245896E+02 -0.49330466448E+02  0.19566539769E+03  0.17242887943E+03 0.  0.
         24    2    3    3    0    0  0.89046853458E+02  0.74954571662E+02 -0.27520818389E+02  0.14367385246E+03  0.79606849664E+02 0.  0.
         -6    2    1    2    0  502 -0.43090459320E+02 -0.65291245896E+02  0.84575344826E+02  0.20709053318E+03  0.17208650588E+03 0.  0.
        -24    2    5    5    0    0 -0.63392929191E+02 -0.48144989205E+01  0.51851325683E+01  0.10513699960E+03  0.83576672660E+02 0.  0.
          5    1    3    3  501    0 -0.45956394138E+02 -0.96633257662E+01 -0.21809648058E+02  0.51991545230E+02  0.47000000000E+01 0. -1.
        -13    1    4    4    0    0  0.37752629370E+02  0.60077775501E+02 -0.48870791940E+02  0.86156569328E+02  0.00000000000E+00 0.  1.
         14    1    4    4    0    0  0.51294224088E+02  0.14876796161E+02  0.21349973551E+02  0.57517283137E+02  0.00000000000E+00 0. -1.
         -5    1    5    5    0  502  0.20302469871E+02 -0.60476746975E+02  0.79390212258E+02  0.10195353358E+03  0.47000000000E+01 0.  1.
         13    1    6    6    0    0 -0.22676231159E+02 -0.17121239100E+02 -0.36045435717E+02  0.45897949016E+02  0.00000000000E+00 0. -1.
        -14    1    6    6    0    0 -0.40716698032E+02  0.12306740179E+02  0.41230568285E+02  0.59239050580E+02  0.00000000000E+00 0.  1.
</event>
<event>
12    1  0.8258923E-002  0.2236050E+03  0.7818608E-02  0.1131666E+00
         21   -1    0    0  501  502  0.00000000000E+00  0.00000000000E+00  0.35023804951E+03  0.35023804951E+03  0.00000000000E+00 0. -1.
         21   -1    0    0  502  503 -0.00000000000E+00 -0.00000000000E+00 -0.37954306862E+03  0.37954306862E+03  0.00000000000E+00 0. -1.
         -6    2    1    2    0  503 -0.12792800510E+03 -0.61694676216E+02 -0.30376435220E+03  0.37576539451E+03  0.16957311840E+03 0.  0.
        -24    2    3    3    0    0 -0.11111636964E+03 -0.55325674993E+02 -0.12357187237E+03  0.19461734718E+03  0.84841771958E+02 0.  0.
          6    2    1    2  501    0  0.12792800510E+03  0.61694676216E+02  0.27445933309E+03  0.35401572361E+03  0.17270610724E+03 0.  0.
         24    2    5    5    0    0  0.46348962456E+02 -0.27172661807E+02  0.81935648632E+02  0.12677135504E+03  0.80442190871E+02 0.  0.
          5    1    5    5  501    0  0.81579042646E+02  0.88867338022E+02  0.19252368446E+03  0.22724436856E+03  0.47000000000E+01 0. -1.
        -13    1    6    6    0    0 -0.21983231053E+02  0.16911039156E-01  0.10954816196E+02  0.24561570214E+02  0.00000000000E+00 0.  1.
         14    1    6    6    0    0  0.68332193509E+02 -0.27189572846E+02  0.70980832436E+02  0.10220978483E+03  0.00000000000E+00 0. -1.
         -5    1    3    3    0  503 -0.16811635462E+02 -0.63690012229E+01 -0.18019247983E+03  0.18114804733E+03  0.47000000000E+01 0.  1.
         11    1    4    4    0    0  0.10124924006E+02 -0.22240112037E+02 -0.24326932057E+02  0.34480955510E+02  0.00000000000E+00 0. -1.
        -12    1    4    4    0    0 -0.12124129365E+03 -0.33085562956E+02 -0.99244940309E+02  0.16013639167E+03  0.00000000000E+00 0.  1.
</event>
<event>
12    1  0.8258923E-002  0.2359063E+03  0.7818608E-02  0.1124075E+00
         21   -1    0    0  501  502  0.00000000000E+00  0.00000000000E+00  0.33673486744E+03  0.33673486744E+03  0.00000000000E+00 0. -1.
         21   -1    0    0  502  503 -0.00000000000E+00 -0.00000000000E+00 -0.15922882443E+03  0.15922882443E+03  0.00000000000E+00 0.  1.
         -6    2    1    2    0  503 -0.14469748113E+03 -0.52036262483E+02  0.82709752098E+02  0.24172340545E+03  0.16716509203E+03 0.  0.
        -24    2    3    3    0    0 -0.17355530170E+02 -0.13376909886E+02 -0.62031119495E+01  0.81604370322E+02  0.78362226310E+02 0.  0.
          6    2    1    2  501    0  0.14469748113E+03  0.52036262483E+02  0.94796290906E+02  0.25424028642E+03  0.17890403241E+03 0.  0.
         24    2    5    5    0    0  0.14863544652E+03 -0.10501753259E+01  0.30063878644E+02  0.17029951774E+03  0.77488645043E+02 0.  0.
          5    1    5    5  501    0 -0.39379653951E+01  0.53086437809E+02  0.64732412261E+02  0.83940768687E+02  0.47000000000E+01 0. -1.
        -13    1    6    6    0    0  0.65228283266E+02 -0.37860499552E+02  0.42168902075E+01  0.75537596779E+02  0.00000000000E+00 0.  1.
         14    1    6    6    0    0  0.83407163258E+02  0.36810324226E+02  0.25846988437E+02  0.94761920957E+02  0.00000000000E+00 0. -1.
         -5    1    3    3    0  503 -0.12734195096E+03 -0.38659352596E+02  0.88912864047E+02  0.16011903513E+03  0.47000000000E+01 0.  1.
         11    1    4    4    0    0  0.40725115646E+01 -0.14179637471E+01  0.34125341276E+02  0.34396727880E+02  0.00000000000E+00 0. -1.
        -12    1    4    4    0    0 -0.21428041735E+02 -0.11958946139E+02 -0.40328453226E+02  0.47207642442E+02  0.00000000000E+00 0.  1.
</event>
<event>
12    1  0.8258923E-002  0.1912701E+03  0.7818608E-02  0.1157881E+00
         21   -1    0    0  501  502  0.00000000000E+00  0.00000000000E+00  0.89819522351E+02  0.89819522351E+02  0.00000000000E+00 0.  1.
         21   -1    0    0  502  503 -0.00000000000E+00 -0.00000000000E+00 -0.84833820409E+03  0.84833820409E+03  0.00000000000E+00 0.  1.
         -6    2    1    2    0  503  0.77194893231E+02 -0.75156636423E+01 -0.71831570315E+03  0.74270818003E+03  0.17211175017E+03 0.  0.
        -24    2    3    3    0    0  0.80069728451E+02  0.11857629465E+00 -0.26646089122E+03  0.29075529824E+03  0.84416002195E+02 0.  0.
          6    2    1    2  501    0 -0.77194893231E+02  0.75156636423E+01 -0.40202978590E+02  0.19544954642E+03  0.17483909450E+03 0.  0.
         24    2    5    5    0    0 -0.80807320884E+02  0.27518681358E+02  0.32341574094E+02  0.11996463087E+03  0.77835944859E+02 0.  0.
          5    1    5    5  501    0  0.36124276529E+01 -0.20003017716E+02 -0.72544552684E+02  0.75484915549E+02  0.47000000000E+01 0. -1.
        -13    1    6    6    0    0 -0.71258298593E+02  0.13873280962E+02  0.55541173860E+02  0.91405880756E+02  0.00000000000E+00 0.  1.
         14    1    6    6    0    0 -0.95490222907E+01  0.13645400396E+02 -0.23199599765E+02  0.28558750112E+02  0.00000000000E+00 0. -1.
         -5    1    3    3    0  503 -0.28748352200E+01 -0.76342399370E+01 -0.45185481193E+03  0.45195288179E+03  0.47000000000E+01 0.  1.
         13    1    4    4    0    0  0.10361748375E+02 -0.30525665143E+01  0.39381572938E+01  0.11497524715E+02  0.00000000000E+00 0. -1.
        -14    1    4    4    0    0  0.69707980076E+02  0.31711428089E+01 -0.27039904852E+03  0.27925777352E+03  0.00000000000E+00 0.  1.
</event>
<event>
12    1  0.8258923E-002  0.1995584E+03  0.7818608E-02  0.1150431E+00
         21   -1    0    0  501  502  0.00000000000E+00  0.00000000000E+00  0.32508358048E+03  0.32508358048E+03  0.00000000000E+00 0.  1.
         21   -1    0    0  502  503 -0.00000000000E+00 -0.00000000000E+00 -0.14840248781E+03  0.14840248781E+03  0.00000000000E+00 0.  1.
         -6    2    1    2    0  503 -0.87424010227E+02 -0.49617113240E+02 -0.12026929458E+02  0.19992049372E+03  0.17239124481E+03 0.  0.
        -24    2    3    3    0    0 -0.10043467856E+03  0.18438273270E+02 -0.94414848750E+01  0.13042525901E+03  0.80588535000E+02 0.  0.
          6    2    1    2  501    0  0.87424010227E+02  0.49617113240E+02  0.18870802213E+03  0.27356557457E+03  0.17065342213E+03 0.  0.
         24    2    5    5    0    0  0.18172930345E+02 -0.28777702056E+02  0.49670453876E+02  0.99511001188E+02  0.79226724256E+02 0.  0.
          5    1    5    5  501    0  0.69251079882E+02  0.78394815296E+02  0.13903756825E+03  0.17405457338E+03  0.47000000000E+01 0. -1.
        -13    1    6    6    0    0  0.73668367218E+01  0.20121672060E+02 -0.82334887970E+01  0.22955223971E+02  0.00000000000E+00 0.  1.
         14    1    6    6    0    0  0.10806093623E+02 -0.48899374116E+02  0.57903942673E+02  0.76555777218E+02  0.00000000000E+00 0. -1.
         -5    1    3    3    0  503  0.13010668332E+02 -0.68055386511E+02 -0.25854445826E+01  0.69495234709E+02  0.47000000000E+01 0.  1.
         11    1    4    4    0    0  0.76177530602E+01  0.12646485635E+02  0.13280415608E+02  0.19857824637E+02  0.00000000000E+00 0. -1.
        -12    1    4    4    0    0 -0.10805243162E+03  0.57917876351E+01 -0.22721900483E+02  0.11056743438E+03  0.00000000000E+00 0.  1.
</event>
<event>
12    1  0.8258923E-002  0.2141456E+03  0.7818608E-02  0.1138837E+00
         21   -1    0    0  503  502  0.00000000000E+00  0.00000000000E+00  0.53420926250E+02  0.53420926250E+02  0.00000000000E+00 0. -1.
         21   -1    0    0  501  503 -0.00000000000E+00 -0.00000000000E+00 -0.88860270695E+03  0.88860270695E+03  0.00000000000E+00 0. -1.
          6    2    1    2  501    0  0.19717393141E+00  0.12662626771E+03 -0.52086096177E+03  0.56316471137E+03  0.17269655494E+03 0.  0.
         24    2    3    3    0    0  0.30864833633E+02  0.10492183070E+03 -0.50365730710E+03  0.52157572639E+03  0.80058271630E+02 0.  0.
         -6    2    1    2    0  502 -0.19717393141E+00 -0.12662626771E+03 -0.31432081893E+03  0.37885892183E+03  0.16941739841E+03 0.  0.
        -24    2    5    5    0    0  0.16249217264E+02 -0.66238939184E+02 -0.68701789795E+02  0.12534775698E+03  0.79627194683E+02 0.  0.
          5    1    3    3  501    0 -0.30667659702E+02  0.21704437003E+02 -0.17203654669E+02  0.41588984974E+02  0.47000000000E+01 0. -1.
        -11    1    4    4    0    0 -0.64855482104E+01  0.11859093631E+02 -0.22532695020E+03  0.22573199801E+03  0.00000000000E+00 0.  1.
         12    1    4    4    0    0  0.37350381844E+02  0.93062737072E+02 -0.27833035689E+03  0.29584372838E+03  0.00000000000E+00 0. -1.
         -5    1    5    5    0  502 -0.16446391195E+02 -0.60387328523E+02 -0.24561902914E+03  0.25351116485E+03  0.47000000000E+01 0.  1.
         11    1    6    6    0    0  0.32476377140E+02 -0.65373080498E+02 -0.77833829177E+02  0.10670735537E+03  0.00000000000E+00 0. -1.
        -12    1    6    6    0    0 -0.16227159876E+02 -0.86585868584E+00  0.91320393817E+01  0.18640401610E+02  0.00000000000E+00 0.  1.
</event>
<event>
12    1  0.8258923E-002  0.1896642E+03  0.7818608E-02  0.1159361E+00
         21   -1    0    0  503  502  0.00000000000E+00  0.00000000000E+00  0.99877643336E+02  0.99877643336E+02  0.00000000000E+00 0. -1.
         21   -1    0    0  501  503 -0.00000000000E+00 -0.00000000000E+00 -0.48693751054E+03  0.48693751054E+03  0.00000000000E+00 0. -1.
          6    2    1    2  501    0  0.12965969418E+02  0.66463016256E+02 -0.34711927671E+03  0.39555569137E+03  0.17716394617E+03 0.  0.
         24    2    3    3    0    0  0.35284571185E+02 -0.17362664468E+02 -0.10234508514E+03  0.13582244438E+03  0.80167055981E+02 0.  0.
         -6    2    1    2    0  502 -0.12965969418E+02 -0.66463016256E+02 -0.39940590497E+02  0.19125946251E+03  0.17435447323E+03 0.  0.
        -24    2    5    5    0    0  0.21233188660E+02 -0.10530343125E+03 -0.19075931049E+02  0.13526317455E+03  0.79953575973E+02 0.  0.
          5    1    3    3  501    0 -0.22318601767E+02  0.83825680723E+02 -0.24477419157E+03  0.25973324699E+03  0.47000000000E+01 0. -1.
        -13    1    4    4    0    0  0.96094752863E+00 -0.41182890501E+02 -0.75954001969E+02  0.86405811756E+02  0.00000000000E+00 0.  1.
         14    1    4    4    0    0  0.34323623656E+02  0.23820226034E+02 -0.26391083172E+02  0.49416632627E+02  0.00000000000E+00 0. -1.
         -5    1    5    5    0  502 -0.34199158078E+02  0.38840414998E+02 -0.20864659448E+02  0.55996287951E+02  0.47000000000E+01 0.  1.
         11    1    6    6    0    0  0.28115792159E+02 -0.73888077153E+02 -0.47595917546E+02  0.92278475719E+02  0.00000000000E+00 0. -1.
        -12    1    6    6    0    0 -0.68826034983E+01 -0.31415354101E+02  0.28519986497E+02  0.42984698836E+02  0.00000000000E+00 0.  1.
</event>
<event>
12    1  0.8258923E-002  0.2259568E+03  0.7818608E-02  0.1129657E+00
         21   -1    0    0  501  502  0.00000000000E+00  0.00000000000E+00  0.58016106751E+02  0.58016106751E+02  0.00000000000E+00 0.  1.
         21   -1    0    0  502  503 -0.00000000000E+00 -0.00000000000E+00 -0.89585574271E+03  0.89585574271E+03  0.00000000000E+00 0.  1.
         -6    2    1    2    0  503  0.10886356972E+03 -0.98206824119E+02 -0.48732606490E+03  0.53683920526E+03  0.17092039568E+03 0.  0.
        -24    2    3    3    0    0  0.82738044380E+02 -0.60601401603E+02 -0.15769331551E+03  0.20400809141E+03  0.78955720124E+02 0.  0.
          6    2    1    2  501    0 -0.10886356972E+03  0.98206824119E+02 -0.35051357106E+03  0.41703264420E+03  0.17193197991E+03 0.  0.
         24    2    5    5    0    0 -0.63843442674E+02  0.12497818496E+03 -0.31434249613E+03  0.35320510890E+03  0.79038675278E+02 0.  0.
          5    1    5    5  501    0 -0.45020127049E+02 -0.26771360846E+02 -0.36171074932E+02  0.63827535302E+02  0.47000000000E+01 0. -1.
        -11    1    6    6    0    0  0.91940345813E+01  0.51105402354E+02 -0.65761549338E+02  0.83790654568E+02  0.00000000000E+00 0.  1.
         12    1    6    6    0    0 -0.73037477255E+02  0.73872782611E+02 -0.24858094679E+03  0.26941445433E+03  0.00000000000E+00 0. -1.
         -5    1    3    3    0  503  0.26125525343E+02 -0.37605422516E+02 -0.32963274939E+03  0.33283111385E+03  0.47000000000E+01 0.  1.
         13    1    4    4    0    0 -0.63610060005E+00 -0.12002939078E+01  0.86131624963E+01  0.87196271495E+01  0.00000000000E+00 0. -1.
        -14    1    4    4    0    0  0.83374144980E+02 -0.59401107695E+02 -0.16630647800E+03  0.19528846426E+03  0.00000000000E+00 0.  1.
</event>
<event>
12    1  0.8258923E-002  0.2400506E+03  0.7818608E-02  0.1119940E+00
         21   -1    0    0  503  502  0.00000000000E+00  0.00000000000E+00  0.11948260030E+03  0.11948260030E+03  0.00000000000E+00 0.  1.
         21   -1    0    0  501  503 -0.00000000000E+00 -0.00000000000E+00 -0.56337944730E+03  0.56337944730E+03  0.00000000000E+00 0.  1.
          6    2    1    2  501    0  0.40283931869E+02  0.16262982557E+03 -0.35364071802E+03  0.42741790654E+03  0.17191001734E+03 0.  0.
         24    2    3    3    0    0 -0.30882652086E+01  0.17471041471E+03 -0.25892118993E+03  0.32243711252E+03  0.79951501184E+02 0.  0.
         -6    2    1    2    0  502 -0.40283931869E+02 -0.16262982557E+03 -0.90256128982E+02  0.25544414105E+03  0.17039449829E+03 0.  0.
        -24    2    5    5    0    0 -0.92645390000E+02 -0.11994742422E+03 -0.61014097333E+02  0.18168306664E+03  0.79469892207E+02 0.  0.
          5    1    3    3  501    0  0.43372197078E+02 -0.12080589143E+02 -0.94719528084E+02  0.10498079402E+03  0.47000000000E+01 0. -1.
        -13    1    4    4    0    0  0.10637498908E+02  0.75233627703E+02 -0.17776749255E+03  0.19332495061E+03  0.00000000000E+00 0.  1.
         14    1    4    4    0    0 -0.13725764116E+02  0.99476787007E+02 -0.81153697386E+02  0.12911216191E+03  0.00000000000E+00 0. -1.
         -5    1    5    5    0  502  0.52361458131E+02 -0.42682401351E+02 -0.29242031649E+02  0.73761074407E+02  0.47000000000E+01 0.  1.
         13    1    6    6    0    0 -0.47813509162E+02 -0.76072329529E+02 -0.75434521397E+02  0.11731793553E+03  0.00000000000E+00 0. -1.
        -14    1    6    6    0    0 -0.44831880838E+02 -0.43875094688E+02  0.14420424064E+02  0.64365131116E+02  0.00000000000E+00 0.  1.
</event>
<event>
12    1  0.8258923E-002  0.1785594E+03  0.7818608E-02  0.1169233E+00
         21   -1    0    0  501  502  0.00000000000E+00  0.00000000000E+00  0.19402006278E+03  0.19402006278E+03  0.00000000000E+00 0.  1.
         21   -1    0    0  502  503 -0.00000000000E+00 -0.00000000000E+00 -0.18670632283E+03  0.18670632283E+03  0.00000000000E+00 0.  1.
         -6    2    1    2    0  503  0.31198149197E+01  0.46742268289E+02 -0.62398184031E+02  0.18914810422E+03  0.17230466933E+03 0.  0.
        -24    2    3    3    0    0 -0.50808132394E+02  0.58648050930E+02 -0.97071607067E+01  0.11267323841E+03  0.81117011104E+02 0.  0.
          6    2    1    2  501    0 -0.31198149197E+01 -0.46742268289E+02  0.69711923979E+02  0.19157828139E+03  0.17218569239E+03 0.  0.
         24    2    5    5    0    0  0.16988956522E+02 -0.18499206269E+02 -0.28344394727E+02  0.87466971344E+02  0.78843015464E+02 0.  0.
          5    1    5    5  501    0 -0.20108771442E+02 -0.28243062020E+02  0.98056318706E+02  0.10411131005E+03  0.47000000000E+01 0. -1.
        -13    1    6    6    0    0  0.43351938265E+02 -0.11818475294E+02  0.41128026919E+01  0.45121857848E+02  0.00000000000E+00 0.  1.
         14    1    6    6    0    0 -0.26362981743E+02 -0.66807309753E+01 -0.32457197419E+02  0.42345113497E+02  0.00000000000E+00 0. -1.
         -5    1    3    3    0  503  0.53927947314E+02 -0.11905782641E+02 -0.52691023324E+02  0.76474865810E+02  0.47000000000E+01 0.  1.
         13    1    4    4    0    0  0.16370398532E+02  0.70683414578E+00  0.13209724642E+02  0.21047241808E+02  0.00000000000E+00 0. -1.
        -14    1    4    4    0    0 -0.67178530927E+02  0.57941216784E+02 -0.22916885349E+02  0.91625996606E+02  0.00000000000E+00 0.  1.
</event>
<event>
12    1  0.8258923E-002  0.2445493E+03  0.7818608E-02  0.1118621E+00
         21   -1    0    0  503  502  0.00000000000E+00  0.00000000000E+00  0.38757051544E+03  0.38757051544E+03  0.00000000000E+00 0.  1.
         21   -1    0    0  501  503 -0.00000000000E+00 -0.00000000000E+00 -0.19594967192E+03  0.19594967192E+03  0.00000000000E+00 0.  1.
          6    2    1    2  501    0 -0.68983871521E+02 -0.15931607043E+03 -0.47616143948E+02  0.24914187199E+03  0.17223237324E+03 0.  0.
         24    2    3    3    0    0 -0.64374556823E+02 -0.12529160439E+03 -0.95896136493E+02  0.18971159561E+03  0.83380758082E+02 0.  0.
         -6    2    1    2    0  502  0.68983871521E+02  0.15931607043E+03  0.23923698746E+03  0.33437831537E+03  0.15631422454E+03 0.  0.
        -24    2    5    5    0    0 -0.14527114987E+02  0.11424898746E+03  0.13849720760E+03  0.19590189108E+03  0.77020816758E+02 0.  0.
          5    1    3    3  501    0 -0.46093146980E+01 -0.34024466031E+02  0.48279992544E+02  0.59430276381E+02  0.47000000000E+01 0. -1.
        -11    1    4    4    0    0 -0.42360695331E+02 -0.13332779890E+03 -0.86403677956E+02  0.16442726669E+03  0.00000000000E+00 0.  1.
         12    1    4    4    0    0 -0.22013861492E+02  0.80361945039E+01 -0.94924585364E+01  0.25284328920E+02  0.00000000000E+00 0. -1.
         -5    1    5    5    0  502  0.83510986508E+02  0.45067082970E+02  0.10073977986E+03  0.13847642428E+03  0.47000000000E+01 0.  1.
         11    1    6    6    0    0  0.47638459822E+01  0.45218719820E+01  0.58203331424E+02  0.58572769643E+02  0.00000000000E+00 0. -1.
        -12    1    6    6    0    0 -0.19290960970E+02  0.10972711547E+03  0.80293876173E+02  0.13732912144E+03  0.00000000000E+00 0.  1.
</event>
<event>
12    1  0.8258923E-002  0.1882427E+03  0.7818608E-02  0.1160259E+00
         21   -1    0    0  501  502  0.00000000000E+00  0.00000000000E+00  0.30910500346E+03  0.30910500346E+03  0.00000000000E+00 0. -1.
         21   -1    0    0  502  503 -0.00000000000E+00 -0.00000000000E+00 -0.11886954299E+03  0.11886954299E+03  0.00000000000E+00 0. -1.
         -6    2    1    2    0  503  0.56115839862E+02  0.51837325923E+02  0.52030905308E+02  0.19444552693E+03  0.17107235894E+03 0.  0.
        -24    2    3    3    0    0  0.41366239254E+02  0.11158646139E+02  0.95832566635E+02  0.13269618489E+03  0.81170903178E+02 0.  0.
          6    2    1    2  501    0 -0.56115839862E+02 -0.51837325923E+02  0.13820455517E+03  0.23352901952E+03  0.17204420376E+03 0.  0.
         24    2    5    5    0    0 -0.14682331265E+02  0.13269799413E+02  0.90709253932E+01  0.83019027354E+02  0.80113786500E+02 0.  0.
          5    1    5    5  501    0 -0.41433508597E+02 -0.65107125336E+02  0.12913362977E+03  0.15050999217E+03  0.47000000000E+01 0. -1.
        -13    1    6    6    0    0 -0.10436871258E+02 -0.64494635466E+01  0.42357037558E+02  0.44098100780E+02  0.00000000000E+00 0.  1.
         14    1    6    6    0    0 -0.42454600075E+01  0.19719262960E+02 -0.33286112165E+02  0.38920926574E+02  0.00000000000E+00 0. -1.
         -5    1    3    3    0  503  0.14749600609E+02  0.40678679784E+02 -0.43801661327E+02  0.61749342038E+02  0.47000000000E+01 0.  1.
         11    1    4    4    0    0  0.12254627735E+02  0.43589154977E+02  0.65389498305E+02  0.79536009587E+02  0.00000000000E+00 0. -1.
        -12    1    4    4    0    0  0.29111611519E+02 -0.32430508839E+02  0.30443068330E+02  0.53160175302E+02  0.00000000000E+00 0.  1.
</event>
<event>
12    1  0.8258923E-002  0.2059260E+03  0.7818608E-02  0.1145068E+00
         21   -1    0    0  503  502  0.00000000000E+00  0.00000000000E+00  0.17357726944E+04  0.17357726944E+04  0.00000000000E+00 0.  1.
         21   -1    0    0  501  503 -0.00000000000E+00 -0.00000000000E+00 -0.31328361132E+02  0.31328361132E+02  0.00000000000E+00 0.  1.
          6    2    1    2  501    0 -0.39565632673E+02 -0.10610368866E+03  0.43168656423E+03  0.47779198730E+03  0.17061201996E+03 0.  0.
         24    2    3    3    0    0 -0.47742841094E+02 -0.90338236252E+02  0.16512919017E+03  0.21060227961E+03  0.81518678396E+02 0.  0.
         -6    2    1    2    0  502  0.39565632673E+02  0.10610368866E+03  0.12727577690E+04  0.12893090682E+04  0.17199448463E+03 0.  0.
        -24    2    5    5    0    0  0.40919665228E+02  0.12663040301E+03  0.74764166457E+03  0.76376916244E+03  0.81643107051E+02 0.  0.
          5    1    3    3  501    0  0.81772084204E+01 -0.15765452408E+02  0.26655737406E+03  0.26718970769E+03  0.47000000000E+01 0. -1.
        -13    1    4    4    0    0 -0.19476589976E+02  0.11871067439E+02  0.17097494539E+02  0.28505861130E+02  0.00000000000E+00 0.  1.
         14    1    4    4    0    0 -0.28266251118E+02 -0.10220930369E+03  0.14803169563E+03  0.18209641848E+03  0.00000000000E+00 0. -1.
         -5    1    5    5    0  502 -0.13540325545E+01 -0.20526714346E+02  0.52511610443E+03  0.52553990575E+03  0.47000000000E+01 0.  1.
         11    1    6    6    0    0 -0.20310975210E+02  0.64650398853E+02  0.37540954516E+03  0.38147678354E+03  0.00000000000E+00 0. -1.
        -12    1    6    6    0    0  0.61230640438E+02  0.61980004153E+02  0.37223211941E+03  0.38229237890E+03  0.00000000000E+00 0.  1.
</event>
<event>
12    1  0.8258923E-002  0.4003614E+03  0.7818608E-02  0.1043783E+00
         21   -1    0    0  503  502  0.00000000000E+00  0.00000000000E+00  0.24098865731E+03  0.24098865731E+03  0.00000000000E+00 0. -1.
         21   -1    0    0  501  503 -0.00000000000E+00 -0.00000000000E+00 -0.68362292285E+03  0.68362292285E+03  0.00000000000E+00 0. -1.
          6    2    1    2  501    0 -0.69031140189E+02  0.35562029976E+03 -0.14077328912E+03  0.42438936453E+03  0.17046441822E+03 0.  0.
         24    2    3    3    0    0  0.15281528019E+02  0.14445284052E+03 -0.10007840502E+03  0.19335152033E+03  0.79176859176E+02 0.  0.
         -6    2    1    2    0  502  0.69031140189E+02 -0.35562029976E+03 -0.30186097643E+03  0.50022221563E+03  0.16694645850E+03 0.  0.
        -24    2    5    5    0    0  0.81162726158E+02 -0.34627119401E+03 -0.24026950269E+03  0.43658118489E+03  0.79890982944E+02 0.  0.
          5    1    3    3  501    0 -0.84312668208E+02  0.21116745923E+03 -0.40694884099E+02  0.23103784420E+03  0.47000000000E+01 0. -1.
        -11    1    4    4    0    0  0.29845747465E+02  0.23878672745E+02 -0.38816852644E+01  0.38419098562E+02  0.00000000000E+00 0.  1.
         12    1    4    4    0    0 -0.14564219446E+02  0.12057416778E+03 -0.96196719754E+02  0.15493242177E+03  0.00000000000E+00 0. -1.
         -5    1    5    5    0  502 -0.12131585969E+02 -0.93491057434E+01 -0.61591473743E+02  0.63641030744E+02  0.47000000000E+01 0.  1.
         11    1    6    6    0    0  0.88065525388E+02 -0.27169830705E+03 -0.21517422146E+03  0.35759677347E+03  0.00000000000E+00 0. -1.
        -12    1    6    6    0    0 -0.69027992299E+01 -0.74572886961E+02 -0.25095281230E+02  0.78984411417E+02  0.00000000000E+00 0.  1.
</event>
<event>
12    1  0.8258923E-002  0.1771550E+03  0.7818608E-02  0.1172623E+00
         21   -1    0    0  503  502  0.00000000000E+00  0.00000000000E+00  0.12164502791E+03  0.12164502791E+03  0.00000000000E+00 0. -1.
         21   -1    0    0  501  503 -0.00000000000E+00 -0.00000000000E+00 -0.34732314201E+03  0.34732314201E+03  0.00000000000E+00 0. -1.
          6    2    1    2  501    0  0.45319342019E+02  0.10841255468E+02 -0.23734671055E+03  0.29142930245E+03  0.16256137836E+03 0.  0.
         24    2    3    3    0    0  0.80984597216E+01  0.60138577746E+02 -0.18357938661E+03  0.20940104398E+03  0.80406296083E+02 0.  0.
         -6    2    1    2    0  502 -0.45319342019E+02 -0.10841255468E+02  0.11668596455E+02  0.17753886747E+03  0.17091669824E+03 0.  0.
        -24    2    5    5    0    0 -0.45077930216E+01 -0.44512790884E+02 -0.43278313009E+02  0.10111499889E+03  0.79683887167E+02 0.  0.
          5    1    3    3  501    0  0.37220882298E+02 -0.49297322278E+02 -0.53767323944E+02  0.82028258465E+02  0.47000000000E+01 0. -1.
        -13    1    4    4    0    0 -0.12507313548E+02 -0.14700961431E+02 -0.17403917031E+02  0.25989372582E+02  0.00000000000E+00 0.  1.
         14    1    4    4    0    0  0.20605773270E+02  0.74839539177E+02 -0.16617546958E+03  0.18341167140E+03  0.00000000000E+00 0. -1.
         -5    1    5    5    0  502 -0.40811548998E+02  0.33671535415E+02  0.54946909464E+02  0.76423868578E+02  0.47000000000E+01 0.  1.
         11    1    6    6    0    0  0.19335137675E+02 -0.10048363654E+02  0.17043703423E+02  0.27664146244E+02  0.00000000000E+00 0. -1.
        -12    1    6    6    0    0 -0.23842930697E+02 -0.34464427230E+02 -0.60322016432E+02  0.73450852649E+02  0.00000000000E+00 0.  1.
</event>
<event>
12    1  0.8258923E-002  0.1735668E+03  0.7818608E-02  0.1174273E+00
         21   -1    0    0  501  502  0.00000000000E+00  0.00000000000E+00  0.95553368692E+02  0.95553368692E+02  0.00000000000E+00 0.  1.
         21   -1    0    0  502  503 -0.00000000000E+00 -0.00000000000E+00 -0.31505172726E+03  0.31505172726E+03  0.00000000000E+00 0.  1.
         -6    2    1    2    0  503  0.96278291585E+01  0.19515242997E+02 -0.10182177067E+03  0.20090715429E+03  0.17182104603E+03 0.  0.
        -24    2    3    3    0    0  0.21298268779E+02  0.77568797383E+02 -0.59595004181E+02  0.12802640137E+03  0.79803886774E+02 0.  0.
          6    2    1    2  501    0 -0.96278291585E+01 -0.19515242997E+02 -0.11767658791E+03  0.20969794167E+03  0.17219729265E+03 0.  0.
         24    2    5    5    0    0 -0.56796016506E+01  0.47857976942E+02 -0.27588019729E+02  0.97035705841E+02  0.79575030905E+02 0.  0.
          5    1    5    5  501    0 -0.39482275079E+01 -0.67373219939E+02 -0.90088568177E+02  0.11266223583E+03  0.47000000000E+01 0. -1.
        -11    1    6    6    0    0 -0.29158846766E+02  0.11573118622E+01 -0.33504554253E+02  0.44431215054E+02  0.00000000000E+00 0.  1.
         12    1    6    6    0    0  0.23479245116E+02  0.46700665080E+02  0.59165345245E+01  0.52604490787E+02  0.00000000000E+00 0. -1.
         -5    1    3    3    0  503 -0.11670439621E+02 -0.58053554386E+02 -0.42226766485E+02  0.72880752916E+02  0.47000000000E+01 0.  1.
         11    1    4    4    0    0 -0.16416406698E+02 -0.91085123462E+01 -0.10483683590E+02  0.21502814412E+02  0.00000000000E+00 0. -1.
        -12    1    4    4    0    0  0.37714675478E+02  0.86677309729E+02 -0.49111320592E+02  0.10652358696E+03  0.00000000000E+00 0.  1.
</event>
<event>
12    1  0.8258923E-002  0.1745596E+03  0.7818608E-02  0.1173240E+00
         21   -1    0    0  503  502  0.00000000000E+00  0.00000000000E+00  0.42631921804E+02  0.42631921804E+02  0.00000000000E+00 0. -1.
         21   -1    0    0  501  503 -0.00000000000E+00 -0.00000000000E+00 -0.84957293763E+03  0.84957293763E+03  0.00000000000E+00 0. -1.
          6    2    1    2  501    0  0.28365799322E+02  0.25185897901E+01 -0.58163257318E+03  0.60718739644E+03  0.17195674557E+03 0.  0.
         24    2    3    3    0    0  0.16877921311E+02  0.56040820814E+02 -0.21924292138E+03  0.24065642874E+03  0.80141252118E+02 0.  0.
         -6    2    1    2    0  502 -0.28365799322E+02 -0.25185897901E+01 -0.22530844265E+03  0.28501746300E+03  0.17222107310E+03 0.  0.
        -24    2    5    5    0    0 -0.64495318624E+02  0.37604393065E+02 -0.98173990877E+02  0.14681306818E+03  0.79637980906E+02 0.  0.
          5    1    3    3  501    0  0.11487878010E+02 -0.53522231023E+02 -0.36238965179E+03  0.36653096770E+03  0.47000000000E+01 0. -1.
        -11    1    4    4    0    0  0.32147737312E+02 -0.65028522426E+01 -0.52348488430E+02  0.61774819647E+02  0.00000000000E+00 0.  1.
         12    1    4    4    0    0 -0.15269816001E+02  0.62543673056E+02 -0.16689443295E+03  0.17888160909E+03  0.00000000000E+00 0. -1.
         -5    1    5    5    0  502  0.36129519302E+02 -0.40122982855E+02 -0.12713445177E+03  0.13820439481E+03  0.47000000000E+01 0.  1.
         11    1    6    6    0    0 -0.78056652342E+02  0.17109115614E+02 -0.91223017188E+02  0.12127325211E+03  0.00000000000E+00 0. -1.
        -12    1    6    6    0    0  0.13561333718E+02  0.20495277451E+02 -0.69509736887E+01  0.25539816077E+02  0.00000000000E+00 0.  1.
</event>
<event>
12    1  0.8258923E-002  0.2460014E+03  0.7818608E-02  0.1115899E+00
         21   -1    0    0  501  502  0.00000000000E+00  0.00000000000E+00  0.33781618207E+03  0.33781618207E+03  0.00000000000E+00 0. -1.
         21   -1    0    0  502  503 -0.00000000000E+00 -0.00000000000E+00 -0.20676835950E+03  0.20676835950E+03  0.00000000000E+00 0. -1.
         -6    2    1    2    0  503  0.13204420450E+02 -0.17572330510E+03 -0.34313143947E+02  0.24838293365E+03  0.17164979815E+03 0.  0.
        -24    2    3    3    0    0 -0.48397318175E+02 -0.53252335407E+02 -0.35566362062E+01  0.10780567593E+03  0.80195401793E+02 0.  0.
          6    2    1    2  501    0 -0.13204420450E+02  0.17572330510E+03  0.16536096652E+03  0.29620160792E+03  0.17128370212E+03 0.  0.
         24    2    5    5    0    0  0.43905189299E+01  0.17542157227E+03  0.79827865836E+02  0.20875062595E+03  0.80077031658E+02 0.  0.
          5    1    5    5  501    0 -0.17594939380E+02  0.30173283648E+00  0.85533100682E+02  0.87450981966E+02  0.47000000000E+01 0. -1.
        -13    1    6    6    0    0  0.18000255983E+02  0.77049716681E+02 -0.33713469531E+01  0.79196174379E+02  0.00000000000E+00 0.  1.
         14    1    6    6    0    0 -0.13609737053E+02  0.98371855586E+02  0.83199212789E+02  0.12955445157E+03  0.00000000000E+00 0. -1.
         -5    1    3    3    0  503  0.61601738625E+02 -0.12247096970E+03 -0.30756507741E+02  0.14057725772E+03  0.47000000000E+01 0.  1.
         13    1    4    4    0    0 -0.50685127356E+02 -0.39649301177E+02 -0.35155113712E+02  0.73327561251E+02  0.00000000000E+00 0. -1.
        -14    1    4    4    0    0  0.22878091803E+01 -0.13603034230E+02  0.31598477506E+02  0.34478114679E+02  0.00000000000E+00 0.  1.
</event>
<event>
12    1  0.8258923E-002  0.1877925E+03  0.7818608E-02  0.1160726E+00
         21   -1    0    0  503  502  0.00000000000E+00  0.00000000000E+00  0.29681503174E+02  0.29681503174E+02  0.00000000000E+00 0.  1.
         21   -1    0    0  501  503 -0.00000000000E+00 -0.00000000000E+00 -0.18575681718E+04  0.18575681718E+04  0.00000000000E+00 0.  1.
          6    2    1    2  501    0  0.22021417495E+02 -0.86143292589E+02 -0.14816654639E+04  0.14933776888E+04  0.16413032858E+03 0.  0.
         24    2    3    3    0    0 -0.46884333845E+02 -0.45742427641E+02 -0.68302968563E+03  0.69074363220E+03  0.79414756355E+02 0.  0.
         -6    2    1    2    0  502 -0.22021417495E+02  0.86143292589E+02 -0.34622120474E+03  0.39387198620E+03  0.16540982201E+03 0.  0.
        -24    2    5    5    0    0  0.33648415464E+02  0.70870239649E+02 -0.29649815863E+03  0.31753806345E+03  0.82246318702E+02 0.  0.
          5    1    3    3  501    0  0.68905751340E+02 -0.40400864948E+02 -0.79863577827E+03  0.80263405659E+03  0.47000000000E+01 0. -1.
        -11    1    4    4    0    0 -0.13642087343E+02 -0.38079403723E+02 -0.59440863781E+03  0.59578332994E+03  0.00000000000E+00 0.  1.
         12    1    4    4    0    0 -0.33242246503E+02 -0.76630239177E+01 -0.88621047823E+02  0.94960302260E+02  0.00000000000E+00 0. -1.
         -5    1    5    5    0  502 -0.55669832959E+02  0.15273052940E+02 -0.49723046111E+02  0.76333922749E+02  0.47000000000E+01 0.  1.
         11    1    6    6    0    0  0.19944786501E+02 -0.65098560326E+01 -0.14845935751E+03  0.14993449759E+03  0.00000000000E+00 0. -1.
        -12    1    6    6    0    0  0.13703628963E+02  0.77380095681E+02 -0.14803880112E+03  0.16760356586E+03  0.00000000000E+00 0.  1.
</event>
<event>
12    1  0.8258923E-002  0.1980346E+03  0.7818608E-02  0.1151947E+00
         21   -1    0    0  501  502  0.00000000000E+00  0.00000000000E+00  0.63084381407E+02  0.63084381407E+02  0.00000000000E+00 0. -1.
         21   -1    0    0  502  503 -0.00000000000E+00 -0.00000000000E+00 -0.68837330455E+03  0.68837330455E+03  0.00000000000E+00 0. -1.
         -6    2    1    2    0  503 -0.77443090380E+02 -0.46553252906E+02 -0.43805588900E+03  0.48073969844E+03  0.17621877926E+03 0.  0.
        -24    2    3    3    0    0 -0.32379209877E+02  0.24548905608E+02 -0.11516702284E+03  0.14702487982E+03  0.81864584160E+02 0.  0.
          6    2    1    2  501    0  0.77443090380E+02  0.46553252906E+02 -0.18723303414E+03  0.27071798751E+03  0.17339948698E+03 0.  0.
         24    2    5    5    0    0  0.72800234715E+02 -0.36869958194E+02 -0.10589841996E+03  0.15402009669E+03  0.76475138721E+02 0.  0.
          5    1    5    5  501    0  0.46428556648E+01  0.83423211099E+02 -0.81334614175E+02  0.11669789082E+03  0.47000000000E+01 0. -1.
        -13    1    6    6    0    0  0.31653927448E+02 -0.13421592380E+02  0.37457064966E+01  0.34585265389E+02  0.00000000000E+00 0.  1.
         14    1    6    6    0    0  0.41146307267E+02 -0.23448365814E+02 -0.10964412646E+03  0.11943483130E+03  0.00000000000E+00 0. -1.
         -5    1    3    3    0  503 -0.45063880503E+02 -0.71102158513E+02 -0.32288886617E+03  0.33371481862E+03  0.47000000000E+01 0.  1.
         13    1    4    4    0    0 -0.42277166709E+02  0.49015709442E+02 -0.76525421666E+02  0.10022992945E+03  0.00000000000E+00 0. -1.
        -14    1    4    4    0    0  0.98979568319E+01 -0.24466803834E+02 -0.38641601170E+02  0.46794950371E+02  0.00000000000E+00 0.  1.
</event>
<event>
12    1  0.8258923E-002  0.2130283E+03  0.7818608E-02  0.1139270E+00
         21   -1    0    0  503  502  0.00000000000E+00  0.00000000000E+00  0.55791483394E+03  0.55791483394E+03  0.00000000000E+00 0.  1.
         21   -1    0    0  501  503 -0.00000000000E+00 -0.00000000000E+00 -0.12478071585E+03  0.12478071585E+03  0.00000000000E+00 0. -1.
          6    2    1    2  501    0  0.10373781123E+03 -0.69060002381E+02  0.14663438521E+02  0.21312260384E+03  0.17226552305E+03 0.  0.
         24    2    3    3    0    0  0.67438535517E+02 -0.10552812139E+03  0.43889399000E+02  0.15376093365E+03  0.77665982884E+02 0.  0.
         -6    2    1    2    0  502 -0.10373781123E+03  0.69060002381E+02  0.41847067957E+03  0.46957294595E+03  0.17277217513E+03 0.  0.
        -24    2    5    5    0    0 -0.67934773758E+02  0.20811945042E+02  0.10583451981E+03  0.15118137741E+03  0.81280949484E+02 0.  0.
          5    1    3    3  501    0  0.36299275717E+02  0.36468119008E+02 -0.29225960479E+02  0.59361670187E+02  0.47000000000E+01 0. -1.
        -13    1    4    4    0    0 -0.82963429651E+01  0.53779250414E+01  0.12330498664E+02  0.15804827796E+02  0.00000000000E+00 0.  1.
         14    1    4    4    0    0  0.75734878482E+02 -0.11090604643E+03  0.31558900335E+02  0.13795610586E+03  0.00000000000E+00 0. -1.
         -5    1    5    5    0  502 -0.35803037475E+02  0.48248057339E+02  0.31263615976E+03  0.31839156854E+03  0.47000000000E+01 0.  1.
         13    1    6    6    0    0 -0.54104498967E+02  0.36837331262E+02  0.29191567343E+02  0.71668915067E+02  0.00000000000E+00 0. -1.
        -14    1    6    6    0    0 -0.13830274791E+02 -0.16025386220E+02  0.76642952469E+02  0.79512462341E+02  0.00000000000E+00 0.  1.
</event>
<event>
12    1  0.8258923E-002  0.2171015E+03  0.7818608E-02  0.1136133E+00
         21   -1    0    0  501  502  0.00000000000E+00  0.00000000000E+00  0.42470895887E+03  0.42470895887E+03  0.00000000000E+00 0. -1.
         21   -1    0    0  502  503 -0.00000000000E+00 -0.00000000000E+00 -0.13665217350E+03  0.13665217350E+03  0.00000000000E+00 0. -1.
         -6    2    1    2    0  503  0.11512984861E+03 -0.61905916254E+02  0.21814648040E+02  0.21782372944E+03  0.17287010653E+03 0.  0.
        -24    2    3    3    0    0  0.12165205584E+03 -0.10061311058E+03  0.18583128367E+02  0.17815864656E+03  0.80454645442E+02 0.  0.
          6    2    1    2  501    0 -0.11512984861E+03  0.61905916254E+02  0.26624213733E+03  0.34353740293E+03  0.17333737917E+03 0.  0.
         24    2    5    5    0    0 -0.77098752333E+02  0.47418632964E+02  0.61396604358E+02  0.13463544497E+03  0.78513792757E+02 0.  0.
          5    1    5    5  501    0 -0.38031096274E+02  0.14487283290E+02  0.20484553297E+03  0.20890195796E+03  0.47000000000E+01 0. -1.
        -11    1    6    6    0    0  0.74328911912E+01 -0.50916800607E+01  0.28398825415E+02  0.29793730251E+02  0.00000000000E+00 0.  1.
         12    1    6    6    0    0 -0.84531643525E+02  0.52510313025E+02  0.32997778943E+02  0.10484171472E+03  0.00000000000E+00 0. -1.
         -5    1    3    3    0  503 -0.65222072343E+01  0.38707194331E+02  0.32315196733E+01  0.39665082876E+02  0.47000000000E+01 0.  1.
         13    1    4    4    0    0  0.25973279328E+02 -0.69805661982E+02  0.21751796444E+02  0.77592411564E+02  0.00000000000E+00 0. -1.
        -14    1    4    4    0    0  0.95678776513E+02 -0.30807448603E+02 -0.31686680774E+01  0.10056623500E+03  0.00000000000E+00 0.  1.
</event>
<event>
12    1  0.8258923E-002  0.1724332E+03  0.7818608E-02  0.1175476E+00
         21   -1    0    0  501  502  0.00000000000E+00  0.00000000000E+00  0.46935488995E+02  0.46935488995E+02  0.00000000000E+00 0.  1.
         21   -1    0    0  502  503 -0.00000000000E+00 -0.00000000000E+00 -0.13360315072E+04  0.13360315072E+04  0.00000000000E+00 0.  1.
         -6    2    1    2    0  503  0.77892759168E+01  0.13167068852E+02 -0.11462112217E+04  0.11590266917E+04  0.17119773005E+03 0.  0.
        -24    2    3    3    0    0  0.16427288392E+02 -0.48300272132E+02 -0.88618623202E+03  0.89165441466E+03  0.84372894117E+02 0.  0.
          6    2    1    2  501    0 -0.77892759168E+01 -0.13167068852E+02 -0.14288479654E+03  0.22394030454E+03  0.17175316706E+03 0.  0.
         24    2    5    5    0    0  0.58317831216E+02 -0.31181711653E+02 -0.95412128694E+02  0.14045125639E+03  0.79055755898E+02 0.  0.
          5    1    5    5  501    0 -0.66107107133E+02  0.18014642802E+02 -0.47472667845E+02  0.83489048151E+02  0.47000000000E+01 0. -1.
        -13    1    6    6    0    0  0.33944252913E+00 -0.38278593233E+02 -0.62814858368E+02  0.73559991524E+02  0.00000000000E+00 0.  1.
         14    1    6    6    0    0  0.57978388687E+02  0.70968815794E+01 -0.32597270326E+02  0.66891264868E+02  0.00000000000E+00 0. -1.
         -5    1    3    3    0  503 -0.86380124749E+01  0.61467340984E+02 -0.26002498967E+03  0.26737227702E+03  0.47000000000E+01 0.  1.
         11    1    4    4    0    0 -0.21264058688E+02 -0.46691435291E+02 -0.30845189791E+03  0.31268966028E+03  0.00000000000E+00 0. -1.
        -12    1    4    4    0    0  0.37691347080E+02 -0.16088368411E+01 -0.57773433411E+03  0.57896475438E+03  0.00000000000E+00 0.  1.
</event>
<event>
12    1  0.8258923E-002  0.1910306E+03  0.7818608E-02  0.1158822E+00
         21   -1    0    0  501  502  0.00000000000E+00  0.00000000000E+00  0.45253139740E+02  0.45253139740E+02  0.00000000000E+00 0. -1.
         21   -1    0    0  502  503 -0.00000000000E+00 -0.00000000000E+00 -0.88850443459E+03  0.88850443459E+03  0.00000000000E+00 0. -1.
         -6    2    1    2    0  503  0.35705148557E+02 -0.67078391673E+02 -0.57712970934E+03  0.60617036981E+03  0.16908414348E+03 0.  0.
        -24    2    3    3    0    0  0.29627137392E+02 -0.11182224643E+03 -0.42091869061E+03  0.44349607212E+03  0.78321387956E+02 0.  0.
          6    2    1    2  501    0 -0.35705148557E+02  0.67078391673E+02 -0.26612158551E+03  0.32758720452E+03  0.17526639731E+03 0.  0.
         24    2    5    5    0    0  0.22670604312E+02  0.15381942431E+02 -0.22128664888E+03  0.23751771506E+03  0.81831067118E+02 0.  0.
          5    1    5    5  501    0 -0.58375752869E+02  0.51696449242E+02 -0.44834936639E+02  0.90069489455E+02  0.47000000000E+01 0. -1.
        -11    1    6    6    0    0  0.15245966021E+02 -0.20814637497E+02 -0.19408508356E+02  0.32285891820E+02  0.00000000000E+00 0.  1.
         12    1    6    6    0    0  0.74246382917E+01  0.36196579928E+02 -0.20187814052E+03  0.20523182324E+03  0.00000000000E+00 0. -1.
         -5    1    3    3    0  503  0.60780111653E+01  0.44743854761E+02 -0.15621101873E+03  0.16267429769E+03  0.47000000000E+01 0.  1.
         11    1    4    4    0    0  0.34554633127E+02 -0.81153485838E+02 -0.38931980457E+03  0.39918644913E+03  0.00000000000E+00 0. -1.
        -12    1    4    4    0    0 -0.49274957357E+01 -0.30668760597E+02 -0.31598886037E+02  0.44309622990E+02  0.00000000000E+00 0.  1.
</event>
<event>
12    1  0.8258923E-002  0.3359235E+03  0.7818608E-02  0.1068559E+00
         21   -1    0    0  503  502  0.00000000000E+00  0.00000000000E+00  0.42621600140E+03  0.42621600140E+03  0.00000000000E+00 0. -1.
         21   -1    0    0  501  503 -0.00000000000E+00 -0.00000000000E+00 -0.26654111866E+03  0.26654111866E+03  0.00000000000E+00 0. -1.
          6    2    1    2  501    0  0.57166821500E+02  0.28232420395E+03  0.50744126084E+02  0.33973453201E+03  0.17282819299E+03 0.  0.
         24    2    3    3    0    0 -0.85910547074E+01  0.18470630249E+03  0.82718582554E+02  0.21767795154E+03  0.79693803328E+02 0.  0.
         -6    2    1    2    0  502 -0.57166821500E+02 -0.28232420395E+03  0.10893075666E+03  0.35302258805E+03  0.17258052124E+03 0.  0.
        -24    2    5    5    0    0 -0.36224944417E+02 -0.63192036469E+02  0.15558079785E+01  0.10805536852E+03  0.79800138198E+02 0.  0.
          5    1    3    3  501    0  0.65757876207E+02  0.97617901458E+02 -0.31974456469E+02  0.12205658047E+03  0.47000000000E+01 0. -1.
        -11    1    4    4    0    0 -0.14753639563E+02  0.10601755345E+02 -0.95648918342E+01  0.20531786394E+02  0.00000000000E+00 0.  1.
         12    1    4    4    0    0  0.61625848557E+01  0.17410454714E+03  0.92283474388E+02  0.19714616515E+03  0.00000000000E+00 0. -1.
         -5    1    5    5    0  502 -0.20941877083E+02 -0.21913216748E+03  0.10737494868E+03  0.24496721953E+03  0.47000000000E+01 0.  1.
         13    1    6    6    0    0  0.48110469142E+01 -0.65801842632E+02  0.79042865395E+01  0.66449276986E+02  0.00000000000E+00 0. -1.
        -14    1    6    6    0    0 -0.41035991331E+02  0.26098061635E+01 -0.63484785609E+01  0.41606091534E+02  0.00000000000E+00 0.  1.
</event>
<event>
12    1  0.8258923E-002  0.2033328E+03  0.7818608E-02  0.1146960E+00
         21   -1    0    0  503  502  0.00000000000E+00  0.00000000000E+00  0.83218435689E+02  0.83218435689E+02  0.00000000000E+00 0. -1.
         21   -1    0    0  501  503 -0.00000000000E+00 -0.00000000000E+00 -0.49827551281E+03  0.49827551281E+03  0.00000000000E+00 0. -1.
          6    2    1    2  501    0  0.80716726194E+02 -0.72404195539E+02 -0.19161919561E+03  0.27939602285E+03  0.17200774412E+03 0.  0.
         24    2    3    3    0    0  0.11562670821E+03 -0.68055204839E+02 -0.18751871934E+03  0.24366754023E+03  0.78800720188E+02 0.  0.
         -6    2    1    2    0  502 -0.80716726194E+02  0.72404195539E+02 -0.22343788151E+03  0.30209792565E+03  0.17199160552E+03 0.  0.
        -24    2    5    5    0    0 -0.69611072392E+02  0.66671059438E+01 -0.20720641466E+03  0.23332110535E+03  0.81327044840E+02 0.  0.
          5    1    3    3  501    0 -0.34909982019E+02 -0.43489907001E+01 -0.41004762771E+01  0.35728482620E+02  0.47000000000E+01 0. -1.
        -11    1    4    4    0    0  0.81288165287E+02 -0.31252863748E+01 -0.86182723779E+02  0.11851158217E+03  0.00000000000E+00 0.  1.
         12    1    4    4    0    0  0.34338542926E+02 -0.64929918464E+02 -0.10133599556E+03  0.12515595806E+03  0.00000000000E+00 0. -1.
         -5    1    5    5    0  502 -0.11105653802E+02  0.65737089595E+02 -0.16231466845E+02  0.68776820301E+02  0.47000000000E+01 0.  1.
         11    1    6    6    0    0 -0.20400531994E+02 -0.15242815007E+02 -0.76032552432E+01  0.26576956283E+02  0.00000000000E+00 0. -1.
        -12    1    6    6    0    0 -0.49210540398E+02  0.21909920951E+02 -0.19960315942E+03  0.20674414907E+03  0.00000000000E+00 0.  1.
</event>
<event>
12    1  0.8258923E-002  0.2309303E+03  0.7818608E-02  0.1126061E+00
         21   -1    0    0  503  502  0.00000000000E+00  0.00000000000E+00  0.54591713288E+02  0.54591713288E+02  0.00000000000E+00 0. -1.
         21   -1    0    0  501  503 -0.00000000000E+00 -0.00000000000E+00 -0.98213336085E+03  0.98213336085E+03  0.00000000000E+00 0. -1.
          6    2    1    2  501    0  0.87627860375E+02  0.12637445015E+03 -0.42023983358E+03  0.47951052537E+03  0.17227792269E+03 0.  0.
         24    2    3    3    0    0  0.50464971177E+02  0.63810123736E+01 -0.27136650509E+03  0.28466478284E+03  0.69331290724E+02 0.  0.
         -6    2    1    2    0  502 -0.87627860375E+02 -0.12637445015E+03 -0.50730181399E+03  0.55721454877E+03  0.17170841367E+03 0.  0.
        -24    2    5    5    0    0 -0.67411603375E+02 -0.44891211215E+02 -0.42354342700E+03  0.43853105091E+03  0.79755269059E+02 0.  0.
          5    1    3    3  501    0  0.37162889199E+02  0.11999343778E+03 -0.14887332849E+03  0.19484574252E+03  0.47000000000E+01 0. -1.
        -13    1    4    4    0    0  0.46989759147E+02  0.29578269333E+02 -0.23438508430E+03  0.24087191456E+03  0.00000000000E+00 0.  1.
         14    1    4    4    0    0  0.34752120293E+01 -0.23197256959E+02 -0.36981420788E+02  0.43792868285E+02  0.00000000000E+00 0. -1.
         -5    1    5    5    0  502 -0.20216257000E+02 -0.81483238937E+02 -0.83758386988E+02  0.11868349787E+03  0.47000000000E+01 0.  1.
         11    1    6    6    0    0 -0.41614213208E+01 -0.46469184426E+02 -0.23704304979E+03  0.24159079035E+03  0.00000000000E+00 0. -1.
        -12    1    6    6    0    0 -0.63250182054E+02  0.15779732105E+01 -0.18650037721E+03  0.19694026056E+03  0.00000000000E+00 0.  1.
</event>
<event>
12    1  0.8258923E-002  0.2116745E+03  0.7818608E-02  0.1141454E+00
         21   -1    0    0  503  502  0.00000000000E+00  0.00000000000E+00  0.14556217851E+03  0.14556217851E+03  0.00000000000E+00 0.  1.
         21   -1    0    0  501  503 -0.00000000000E+00 -0.00000000000E+00 -0.33711269017E+03  0.33711269017E+03  0.00000000000E+00 0.  1.
          6    2    1    2  501    0 -0.62948280137E+02 -0.92945532325E+02 -0.17561958064E+03  0.27040168482E+03  0.17225990857E+03 0.  0.
         24    2    3    3    0    0  0.83844891304E+01 -0.10007694857E+03 -0.14283258501E+03  0.19143144897E+03  0.78480297016E+02 0.  0.
         -6    2    1    2    0  502  0.62948280137E+02  0.92945532325E+02 -0.15930931022E+02  0.21227318385E+03  0.17945682508E+03 0.  0.
        -24    2    5    5    0    0 -0.15624372111E+02  0.10402625243E+03 -0.14104805099E+02  0.13276300353E+03  0.79758932914E+02 0.  0.
          5    1    3    3  501    0 -0.71332769268E+02  0.71314162461E+01 -0.32786995628E+02  0.78970235857E+02  0.47000000000E+01 0. -1.
        -13    1    4    4    0    0  0.83395154701E+01 -0.37485696892E+02 -0.33488357017E+01  0.38547888273E+02  0.00000000000E+00 0.  1.
         14    1    4    4    0    0  0.44973660340E-01 -0.62591251678E+02 -0.13948374931E+03  0.15288356069E+03  0.00000000000E+00 0. -1.
         -5    1    5    5    0  502  0.78572652248E+02 -0.11080720109E+02 -0.18261259225E+01  0.79510180325E+02  0.47000000000E+01 0.  1.
         11    1    6    6    0    0 -0.25895224453E+02  0.74670919775E+01  0.15697567411E+02  0.31188679592E+02  0.00000000000E+00 0. -1.
        -12    1    6    6    0    0  0.10270852342E+02  0.96559160456E+02 -0.29802372510E+02  0.10157432394E+03  0.00000000000E+00 0.  1.
</event>
<event>
12    1  0.8258923E-002  0.1771087E+03  0.7818608E-02  0.1170731E+00
         21   -1    0    0  503  502  0.00000000000E+00  0.00000000000E+00  0.27282689812E+03  0.27282689812E+03  0.00000000000E+00 0. -1.
         21   -1    0    0  501  503 -0.00000000000E+00 -0.00000000000E+00 -0.11840177462E+03  0.11840177462E+03  0.00000000000E+00 0. -1.
          6    2    1    2  501    0 -0.39145038703E+02 -0.11370366138E+02  0.42753373763E+02  0.18219586297E+03  0.17235388663E+03 0.  0.
         24    2    3    3    0    0  0.23122115468E+02  0.42913587042E+02  0.27990467636E+02  0.98148379616E+02  0.80457628391E+02 0.  0.
         -6    2    1    2    0  502  0.39145038703E+02  0.11370366138E+02  0.11167174974E+03  0.20903280976E+03  0.17193753688E+03 0.  0.
        -24    2    5    5    0    0  0.51206522473E+02 -0.52925100315E+02  0.48337087075E+02  0.11785849380E+03  0.78300551638E+02 0.  0.
          5    1    3    3  501    0 -0.62267154171E+02 -0.54283953179E+02  0.14762906127E+02  0.84047483357E+02  0.47000000000E+01 0. -1.
        -13    1    4    4    0    0 -0.78470099182E+01  0.11208034521E+02 -0.25344548703E+02  0.28801766464E+02  0.00000000000E+00 0.  1.
         14    1    4    4    0    0  0.30969125386E+02  0.31705552521E+02  0.53335016339E+02  0.69346613152E+02  0.00000000000E+00 0. -1.
         -5    1    5    5    0  502 -0.12061483770E+02  0.64295466452E+02  0.63334662661E+02  0.91174315964E+02  0.47000000000E+01 0.  1.
         11    1    6    6    0    0 -0.70466421945E+01 -0.26016338282E+02 -0.12250200882E+02  0.29606966165E+02  0.00000000000E+00 0. -1.
        -12    1    6    6    0    0  0.58253164668E+02 -0.26908762033E+02  0.60587287958E+02  0.88251527635E+02  0.00000000000E+00 0.  1.
</event>
<event>
12    1  0.8258923E-002  0.2005773E+03  0.7818608E-02  0.1149433E+00
         21   -1    0    0  503  502  0.00000000000E+00  0.00000000000E+00  0.28408541954E+03  0.28408541954E+03  0.00000000000E+00 0.  1.
         21   -1    0    0  501  503 -0.00000000000E+00 -0.00000000000E+00 -0.32611671362E+03  0.32611671362E+03  0.00000000000E+00 0.  1.
          6    2    1    2  501    0 -0.90991520200E+02 -0.45646402458E+02 -0.25089488394E+03  0.32121564949E+03  0.17282418778E+03 0.  0.
         24    2    3    3    0    0 -0.85477567453E+02 -0.79423730582E+02 -0.24994089298E+03  0.28665683486E+03  0.78020173482E+02 0.  0.
         -6    2    1    2    0  502  0.90991520200E+02  0.45646402458E+02  0.20886358986E+03  0.28898648368E+03  0.17183171352E+03 0.  0.
        -24    2    5    5    0    0  0.81762930539E+02 -0.82036028172E+00  0.20870909837E+03  0.24137933322E+03  0.89546886967E+02 0.  0.
          5    1    3    3  501    0 -0.55139527466E+01  0.33777328124E+02 -0.95399096587E+00  0.34558814633E+02  0.47000000000E+01 0. -1.
        -13    1    4    4    0    0 -0.98214923163E+02 -0.81286465845E+02 -0.22696735311E+03  0.26032256921E+03  0.00000000000E+00 0.  1.
         14    1    4    4    0    0  0.12737355710E+02  0.18627352636E+01 -0.22973539867E+02  0.26334265647E+02  0.00000000000E+00 0. -1.
         -5    1    5    5    0  502  0.92285896601E+01  0.46466762739E+02  0.15449149439E+00  0.47607150453E+02  0.47000000000E+01 0.  1.
         11    1    6    6    0    0  0.10283291531E+02 -0.38634232132E+02  0.59872836842E+02  0.71993795348E+02  0.00000000000E+00 0. -1.
        -12    1    6    6    0    0  0.71479639008E+02  0.37813871850E+02  0.14883626152E+03  0.16938553788E+03  0.00000000000E+00 0.  1.
</event>
<event>
12    1  0.8258923E-002  0.2677559E+03  0.7818608E-02  0.1102577E+00
         21   -1    0    0  501  502  0.00000000000E+00  0.00000000000E+00  0.24315986379E+03  0.24315986379E+03  0.00000000000E+00 0.  1.
         21   -1    0    0  502  503 -0.00000000000E+00 -0.00000000000E+00 -0.29489029171E+03  0.29489029171E+03  0.00000000000E+00 0. -1.
         -6    2    1    2    0  503 -0.18865697801E+03 -0.81490543581E+02 -0.21042999368E+02  0.26858149422E+03  0.17164220683E+03 0.  0.
        -24    2    3    3    0    0 -0.18687170163E+03 -0.46819836310E+02  0.25411996604E+02  0.21039728841E+03  0.80672916491E+02 0.  0.
          6    2    1    2  501    0  0.18865697801E+03  0.81490543581E+02 -0.30687428553E+02  0.26946866129E+03  0.17157936093E+03 0.  0.
         24    2    5    5    0    0  0.90337338821E+02  0.10603695334E+03 -0.44259457893E+02  0.16711844065E+03  0.81024708168E+02 0.  0.
          5    1    5    5  501    0  0.98319639192E+02 -0.24546409762E+02  0.13572029340E+02  0.10235022063E+03  0.47000000000E+01 0. -1.
        -13    1    6    6    0    0  0.85922959584E+02  0.55953428121E+02 -0.38388105601E+01  0.10260739529E+03  0.00000000000E+00 0.  1.
         14    1    6    6    0    0  0.44143792378E+01  0.50083525223E+02 -0.40420647333E+02  0.64511045361E+02  0.00000000000E+00 0. -1.
         -5    1    3    3    0  503 -0.17852763789E+01 -0.34670707272E+02 -0.46454995972E+02  0.58184205806E+02  0.47000000000E+01 0.  1.
         11    1    4    4    0    0 -0.26080207382E+02  0.21551493574E+02 -0.15319545012E-01  0.33832592673E+02  0.00000000000E+00 0. -1.
        -12    1    4    4    0    0 -0.16079149425E+03 -0.68371329883E+02  0.25427316149E+02  0.17656469574E+03  0.00000000000E+00 0.  1.
</event>
<event>
12    1  0.8258923E-002  0.2451634E+03  0.7818608E-02  0.1116519E+00
         21   -1    0    0  501  502  0.00000000000E+00  0.00000000000E+00  0.69406329449E+02  0.69406329449E+02  0.00000000000E+00 0. -1.
         21   -1    0    0  502  503 -0.00000000000E+00 -0.00000000000E+00 -0.86413889558E+03  0.86413889558E+03  0.00000000000E+00 0. -1.
         -6    2    1    2    0  503 -0.12523416537E+03 -0.12035883594E+03 -0.41044624894E+03  0.47771516337E+03  0.17197618579E+03 0.  0.
        -24    2    3    3    0    0 -0.10517482797E+03 -0.58894703972E+02 -0.37886196199E+03  0.40560501348E+03  0.80303861185E+02 0.  0.
          6    2    1    2  501    0  0.12523416537E+03  0.12035883594E+03 -0.38428631719E+03  0.45583006167E+03  0.17301799320E+03 0.  0.
         24    2    5    5    0    0  0.12758510510E+03  0.34457408222E+02 -0.28947253787E+03  0.32778192638E+03  0.78621683110E+02 0.  0.
          5    1    5    5  501    0 -0.23509397305E+01  0.85901427714E+02 -0.94813779326E+02  0.12804813529E+03  0.47000000000E+01 0. -1.
        -13    1    6    6    0    0  0.12878957796E+02 -0.17591437376E+02 -0.83907021979E+02  0.86693220959E+02  0.00000000000E+00 0.  1.
         14    1    6    6    0    0  0.11470614730E+03  0.52048845599E+02 -0.20556551589E+03  0.24108870542E+03  0.00000000000E+00 0. -1.
         -5    1    3    3    0  503 -0.20059337401E+02 -0.61464131964E+02 -0.31584286953E+02  0.72110149892E+02  0.47000000000E+01 0.  1.
         11    1    4    4    0    0 -0.74391070065E+02 -0.78053644194E+02 -0.30054107420E+03  0.31929819911E+03  0.00000000000E+00 0. -1.
        -12    1    4    4    0    0 -0.30783757904E+02  0.19158940222E+02 -0.78320887793E+02  0.86306814365E+02  0.00000000000E+00 0.  1.
</event>
<event>
12    1  0.8258923E-002  0.2070228E+03  0.7818608E-02  0.1144468E+00
         21   -1    0    0  501  502  0.00000000000E+00  0.00000000000E+00  0.15958501431E+03  0.15958501431E+03  0.00000000000E+00 0. -1.
         21   -1    0    0  502  503 -0.00000000000E+00 -0.00000000000E+00 -0.44825816771E+03  0.44825816771E+03  0.00000000000E+00 0.  1.
         -6    2    1    2    0  503 -0.72736384490E+02 -0.85135309374E+02 -0.33907093957E+03  0.39727513600E+03  0.17412590012E+03 0.  0.
        -24    2    3    3    0    0  0.22457354192E+02 -0.32019785044E+02 -0.93006628689E+02  0.12810448028E+03  0.78936211573E+02 0.  0.
          6    2    1    2  501    0  0.72736384490E+02  0.85135309374E+02  0.50397786171E+02  0.21056804603E+03  0.17105660649E+03 0.  0.
         24    2    5    5    0    0  0.10221588949E+03  0.67678208903E+02 -0.34866138408E+01  0.14654140988E+03  0.80210973745E+02 0.  0.
          5    1    5    5  501    0 -0.29479504997E+02  0.17457100471E+02  0.53884400012E+02  0.64026636147E+02  0.47000000000E+01 0. -1.
        -11    1    6    6    0    0  0.44490078649E+02  0.11699852770E+02 -0.37384667904E+02  0.59277879915E+02  0.00000000000E+00 0.  1.
         12    1    6    6    0    0  0.57725810838E+02  0.55978356133E+02  0.33898054063E+02  0.87263529962E+02  0.00000000000E+00 0. -1.
         -5    1    3    3    0  503 -0.95193738681E+02 -0.53115524330E+02 -0.24606431088E+03  0.26917065571E+03  0.47000000000E+01 0.  1.
         13    1    4    4    0    0  0.91143788092E+01  0.26457636739E+02 -0.32877789605E+02  0.43174384677E+02  0.00000000000E+00 0. -1.
        -14    1    4    4    0    0  0.13342975382E+02 -0.58477421783E+02 -0.60128839084E+02  0.84930095608E+02  0.00000000000E+00 0.  1.
</event>
<event>
12    1  0.8258923E-002  0.1944110E+03  0.7818608E-02  0.1154624E+00
         21   -1    0    0  501  502  0.00000000000E+00  0.00000000000E+00  0.14555885949E+03  0.14555885949E+03  0.00000000000E+00 0.  1.
         21   -1    0    0  502  503 -0.00000000000E+00 -0.00000000000E+00 -0.26260685098E+03  0.26260685098E+03  0.00000000000E+00 0.  1.
         -6    2    1    2    0  503  0.41044466395E+02 -0.79710632839E+02 -0.81852878006E+02  0.21059463295E+03  0.17208071530E+03 0.  0.
        -24    2    3    3    0    0  0.40945069911E+02  0.99318080569E+01 -0.67701750408E+02  0.11972042592E+03  0.89299013511E+02 0.  0.
          6    2    1    2  501    0 -0.41044466395E+02  0.79710632839E+02 -0.35195113486E+02  0.19757107752E+03  0.17250275780E+03 0.  0.
         24    2    5    5    0    0 -0.59511413249E+02  0.82562237307E+02  0.27814692477E+02  0.13168112820E+03  0.78791694164E+02 0.  0.
          5    1    5    5  501    0  0.18466946854E+02 -0.28516044680E+01 -0.63009805962E+02  0.65889949321E+02  0.47000000000E+01 0. -1.
        -13    1    6    6    0    0 -0.56202891636E+02  0.47594748785E+02 -0.16161001349E+02  0.75400285840E+02  0.00000000000E+00 0.  1.
         14    1    6    6    0    0 -0.33085216125E+01  0.34967488522E+02  0.43975693826E+02  0.56280842355E+02  0.00000000000E+00 0. -1.
         -5    1    3    3    0  503  0.99396484250E-01 -0.89642440895E+02 -0.14151127598E+02  0.90874207021E+02  0.47000000000E+01 0.  1.
         11    1    4    4    0    0 -0.15565801489E+02 -0.16589155182E+02  0.56120097036E+01  0.23430512127E+02  0.00000000000E+00 0. -1.
        -12    1    4    4    0    0  0.56510871399E+02  0.26520963239E+02 -0.73313760112E+02  0.96289913798E+02  0.00000000000E+00 0.  1.
</event>
<event>
12    1  0.8258923E-002  0.1898155E+03  0.7818608E-02  0.1158892E+00
         21   -1    0    0  501  502  0.00000000000E+00  0.00000000000E+00  0.30568961302E+03  0.30568961302E+03  0.00000000000E+00 0. -1.
         21   -1    0    0  502  503 -0.00000000000E+00 -0.00000000000E+00 -0.13938028887E+03  0.13938028887E+03  0.00000000000E+00 0. -1.
         -6    2    1    2    0  503 -0.77696300821E+02 -0.91210101392E+01 -0.55190827815E+01  0.18989568324E+03  0.17294508449E+03 0.  0.
        -24    2    3    3    0    0 -0.11522526342E+02 -0.52512268605E+02 -0.42079146031E+02  0.10260021964E+03  0.76588795343E+02 0.  0.
          6    2    1    2  501    0  0.77696300821E+02  0.91210101392E+01  0.17182840693E+03  0.25517421864E+03  0.17166529191E+03 0.  0.
         24    2    5    5    0    0  0.73003426514E+02  0.26254494844E+02  0.19539305715E+03  0.22529174707E+03  0.80988429607E+02 0.  0.
          5    1    5    5  501    0  0.46928743072E+01 -0.17133484704E+02 -0.23564650224E+02  0.29882471577E+02  0.47000000000E+01 0. -1.
        -13    1    6    6    0    0  0.53513973906E+02  0.22212867682E+02  0.44411077361E+02  0.73003429277E+02  0.00000000000E+00 0.  1.
         14    1    6    6    0    0  0.19489452607E+02  0.40416271622E+01  0.15098197979E+03  0.15228831779E+03  0.00000000000E+00 0. -1.
         -5    1    3    3    0  503 -0.66173774479E+02  0.43391258465E+02  0.36560063249E+02  0.87295463598E+02  0.47000000000E+01 0.  1.
         11    1    4    4    0    0  0.67168546303E+01 -0.62443494684E+02 -0.88629647218E+01  0.63426006560E+02  0.00000000000E+00 0. -1.
        -12    1    4    4    0    0 -0.18239380972E+02  0.99312260793E+01 -0.33216181309E+02  0.39174213080E+02  0.00000000000E+00 0.  1.
</event>
<event>
12    1  0.8258923E-002  0.2236602E+03  0.7818608E-02  0.1131367E+00
         21   -1    0    0  501  502  0.00000000000E+00  0.00000000000E+00  0.70160747379E+03  0.70160747379E+03  0.00000000000E+00 0.  1.
         21   -1    0    0  502  503 -0.00000000000E+00 -0.00000000000E+00 -0.12000226908E+03  0.12000226908E+03  0.00000000000E+00 0.  1.
         -6    2    1    2    0  503 -0.71729862090E+02 -0.12538938007E+03  0.27847889278E+02  0.22439030131E+03  0.16943385917E+03 0.  0.
        -24    2    3    3    0    0 -0.63866408245E+02 -0.61700171388E+01  0.61354797895E+01  0.10286413487E+03  0.80164823431E+02 0.  0.
          6    2    1    2  501    0  0.71729862090E+02  0.12538938007E+03  0.55375731543E+03  0.59721944156E+03  0.17075194651E+03 0.  0.
         24    2    5    5    0    0  0.10265318621E+03  0.44337425024E+02  0.32471940682E+03  0.35225796506E+03  0.78354941651E+02 0.  0.
          5    1    5    5  501    0 -0.30923324122E+02  0.81051955051E+02  0.22903790860E+03  0.24496147650E+03  0.47000000000E+01 0. -1.
        -11    1    6    6    0    0  0.18527151881E+02  0.11701768624E+02  0.18261562445E+03  0.18392567260E+03  0.00000000000E+00 0.  1.
         12    1    6    6    0    0  0.84126034330E+02  0.32635656400E+02  0.14210378237E+03  0.16833229246E+03  0.00000000000E+00 0. -1.
         -5    1    3    3    0  503 -0.78634538446E+01 -0.11921936294E+03  0.21712409489E+02  0.12152616645E+03  0.47000000000E+01 0.  1.
         11    1    4    4    0    0 -0.76142393342E+02  0.25490581983E+01  0.23645721867E+02  0.79770181924E+02  0.00000000000E+00 0. -1.
        -12    1    4    4    0    0  0.12275985097E+02 -0.87190753371E+01 -0.17510242077E+02  0.23093952941E+02  0.00000000000E+00 0.  1.
</event>
<event>
12    1  0.8258923E-002  0.2117518E+03  0.7818608E-02  0.1140325E+00
         21   -1    0    0  501  502  0.00000000000E+00  0.00000000000E+00  0.95247005783E+03  0.95247005783E+03  0.00000000000E+00 0. -1.
         21   -1    0    0  502  503 -0.00000000000E+00 -0.00000000000E+00 -0.47020247537E+02  0.47020247537E+02  0.00000000000E+00 0.  1.
         -6    2    1    2    0  503  0.15524514802E+02  0.12208221743E+03  0.47514735083E+03  0.51990814781E+03  0.17144794775E+03 0.  0.
        -24    2    3    3    0    0  0.11256142313E+02  0.99000270620E+02  0.16305999015E+03  0.20690398495E+03  0.79328080007E+02 0.  0.
          6    2    1    2  501    0 -0.15524514802E+02 -0.12208221743E+03  0.43030245947E+03  0.47958215756E+03  0.17231877685E+03 0.  0.
         24    2    5    5    0    0  0.40884332583E+02 -0.47911716426E+02  0.12970832211E+03  0.16484076102E+03  0.79882203574E+02 0.  0.
          5    1    5    5  501    0 -0.56408847385E+02 -0.74170501001E+02  0.30059413736E+03  0.31474139654E+03  0.47000000000E+01 0. -1.
        -11    1    6    6    0    0  0.14237471289E+02  0.14927476215E+02  0.29021516561E+01  0.20831649457E+02  0.00000000000E+00 0.  1.
         12    1    6    6    0    0  0.26646861294E+02 -0.62839192640E+02  0.12680617045E+03  0.14400911156E+03  0.00000000000E+00 0. -1.
         -5    1    3    3    0  503  0.42683724891E+01  0.23081946807E+02  0.31208736068E+03  0.31300416286E+03  0.47000000000E+01 0.  1.
         13    1    4    4    0    0  0.16916631526E+01  0.69076314132E+02  0.16125670407E+03  0.17543695023E+03  0.00000000000E+00 0. -1.
        -14    1    4    4    0    0  0.95644791605E+01  0.29923956488E+02  0.18032860821E+01  0.31467034722E+02  0.00000000000E+00 0.  1.
</event>
<event>
12    1  0.8258923E-002  0.1861841E+03  0.7818608E-02  0.1161957E+00
         21   -1    0    0  501  502  0.00000000000E+00  0.00000000000E+00  0.91967684843E+03  0.91967684843E+03  0.00000000000E+00 0. -1.
         21   -1    0    0  502  503 -0.00000000000E+00 -0.00000000000E+00 -0.37979271360E+02  0.37979271360E+02  0.00000000000E+00 0. -1.
         -6    2    1    2    0  503  0.71213347799E+02  0.13743985504E+01  0.39873717604E+03  0.44006346650E+03  0.17202118796E+03 0.  0.
        -24    2    3    3    0    0  0.84189652159E+02 -0.39260258227E+02  0.17995427301E+03  0.21711143474E+03  0.78259627593E+02 0.  0.
          6    2    1    2  501    0 -0.71213347799E+02 -0.13743985504E+01  0.48296040103E+03  0.51759265330E+03  0.17198306867E+03 0.  0.
         24    2    5    5    0    0 -0.65744236265E+02 -0.61545633084E+02  0.37955036196E+03  0.39773350752E+03  0.77609897480E+02 0.  0.
          5    1    5    5  501    0 -0.54691115339E+01  0.60171234534E+02  0.10341003907E+03  0.11985914578E+03  0.47000000000E+01 0. -1.
        -13    1    6    6    0    0 -0.20992127461E+01 -0.18088421802E+02  0.11136107740E+02  0.21345036731E+02  0.00000000000E+00 0.  1.
         14    1    6    6    0    0 -0.63645023519E+02 -0.43457211282E+02  0.36841425422E+03  0.37638847079E+03  0.00000000000E+00 0. -1.
         -5    1    3    3    0  503 -0.12976304361E+02  0.40634656778E+02  0.21878290303E+03  0.22295203176E+03  0.47000000000E+01 0.  1.
         11    1    4    4    0    0  0.30020718161E+02 -0.47739596771E+02  0.13466609925E+03  0.14599750308E+03  0.00000000000E+00 0. -1.
        -12    1    4    4    0    0  0.54168933998E+02  0.84793385437E+01  0.45288173760E+02  0.71113931653E+02  0.00000000000E+00 0.  1.
</event>
<event>
12    1  0.8258923E-002  0.1815621E+03  0.7818608E-02  0.1166521E+00
         21   -1    0    0  503  502  0.00000000000E+00  0.00000000000E+00  0.35383498045E+03  0.35383498045E+03  0.00000000000E+00 0.  1.
         21   -1    0    0  501  503 -0.00000000000E+00 -0.00000000000E+00 -0.12827722027E+03  0.12827722027E+03  0.00000000000E+00 0. -1.
          6    2    1    2  501    0  0.21995029222E+02 -0.51525536511E+02 -0.13976679188E+02  0.18209929140E+03  0.17270246711E+03 0.  0.
         24    2    3    3    0    0  0.56080103894E+02 -0.24083285368E+02  0.47187556609E+02  0.10674663250E+03  0.73778014099E+02 0.  0.
         -6    2    1    2    0  502 -0.21995029222E+02  0.51525536511E+02  0.23953443936E+03  0.30001290931E+03  0.17173332784E+03 0.  0.
        -24    2    5    5    0    0 -0.58566361307E+01  0.82137779608E+02  0.87660564714E+02  0.14417542679E+03  0.79506377465E+02 0.  0.
          5    1    3    3  501    0 -0.34085074672E+02 -0.27442251143E+02 -0.61164235797E+02  0.75352658904E+02  0.47000000000E+01 0. -1.
        -13    1    4    4    0    0 -0.11247465723E+02 -0.42657247096E+00  0.31814460098E+02  0.33746812006E+02  0.00000000000E+00 0.  1.
         14    1    4    4    0    0  0.67327569618E+02 -0.23656712897E+02  0.15373096511E+02  0.72999820493E+02  0.00000000000E+00 0. -1.
         -5    1    5    5    0  502 -0.16138393091E+02 -0.30612243096E+02  0.15187387465E+03  0.15583748253E+03  0.47000000000E+01 0.  1.
         13    1    6    6    0    0 -0.28735130707E+01  0.95961455535E+02  0.87703170388E+02  0.13003347308E+03  0.00000000000E+00 0. -1.
        -14    1    6    6    0    0 -0.29831230600E+01 -0.13823675928E+02 -0.42605673860E-01  0.14141953705E+02  0.00000000000E+00 0.  1.
</event>
<event>
12    1  0.8258923E-002  0.1757000E+03  0.7818608E-02  0.1172249E+00
         21   -1    0    0  503  502  0.00000000000E+00  0.00000000000E+00  0.29876072552E+03  0.29876072552E+03  0.00000000000E+00 0. -1.
         21   -1    0    0  501  503 -0.00000000000E+00 -0.00000000000E+00 -0.17443574630E+03  0.17443574630E+03  0.00000000000E+00 0. -1.
          6    2    1    2  501    0  0.28046400652E+02 -0.18684381678E+02 -0.89532819346E+02  0.19641924174E+03  0.17154791190E+03 0.  0.
         24    2    3    3    0    0  0.37059929357E+02  0.44615570206E+02 -0.89210668877E+02  0.13230745352E+03  0.78630346220E+02 0.  0.
         -6    2    1    2    0  502 -0.28046400652E+02  0.18684381678E+02  0.21385779857E+03  0.27677723007E+03  0.17243772896E+03 0.  0.
        -24    2    5    5    0    0  0.17570492758E+02  0.17164523284E+02  0.21531930813E+03  0.23087040112E+03  0.79595191973E+02 0.  0.
          5    1    3    3  501    0 -0.90135287051E+01 -0.63299951884E+02 -0.32215046899E+00  0.64111788223E+02  0.47000000000E+01 0. -1.
        -13    1    4    4    0    0  0.13590862150E+02  0.18106670212E+02  0.11615507908E+02  0.25445688517E+02  0.00000000000E+00 0.  1.
         14    1    4    4    0    0  0.23469067208E+02  0.26508899994E+02 -0.10082617679E+03  0.10686176500E+03  0.00000000000E+00 0. -1.
         -5    1    5    5    0  502 -0.45616893410E+02  0.15198583935E+01 -0.14615095641E+01  0.45906828949E+02  0.47000000000E+01 0.  1.
         13    1    6    6    0    0  0.23623969122E+02  0.45868313764E+02  0.10926801825E+03  0.12083664153E+03  0.00000000000E+00 0. -1.
        -14    1    6    6    0    0 -0.60534763647E+01 -0.28703790480E+02  0.10605128988E+03  0.11003375959E+03  0.00000000000E+00 0.  1.
</event>
<event>
12    1  0.8258923E-002  0.1797410E+03  0.7818608E-02  0.1169221E+00
         21   -1    0    0  503  502  0.00000000000E+00  0.00000000000E+00  0.67653919643E+03  0.67653919643E+03  0.00000000000E+00 0. -1.
         21   -1    0    0  501  503 -0.00000000000E+00 -0.00000000000E+00 -0.10347845015E+03  0.10347845015E+03  0.00000000000E+00 0. -1.
          6    2    1    2  501    0  0.52300349414E+02 -0.92081269438E+01 -0.45818151158E+01  0.17505670209E+03  0.16674453444E+03 0.  0.
         24    2    3    3    0    0  0.18491938711E+02 -0.18582868110E+01  0.60293675539E+02  0.10138209268E+03  0.79357396498E+02 0.  0.
         -6    2    1    2    0  502 -0.52300349414E+02  0.92081269438E+01  0.57764256140E+03  0.60496094449E+03  0.17171691666E+03 0.  0.
        -24    2    5    5    0    0 -0.76619742698E+02  0.56078961938E+02  0.35006079319E+03  0.37128625762E+03  0.79344131633E+02 0.  0.
          5    1    3    3  501    0  0.33808410703E+02 -0.73498401328E+01 -0.64875490655E+02  0.73674609412E+02  0.47000000000E+01 0. -1.
        -13    1    4    4    0    0 -0.17929597259E+02  0.17840301696E+02 -0.32878920194E+01  0.25506020003E+02  0.00000000000E+00 0.  1.
         14    1    4    4    0    0  0.36421535970E+02 -0.19698588507E+02  0.63581567559E+02  0.75876072677E+02  0.00000000000E+00 0. -1.
         -5    1    5    5    0  502  0.24319393284E+02 -0.46870834994E+02  0.22758176821E+03  0.23367468687E+03  0.47000000000E+01 0.  1.
         13    1    6    6    0    0 -0.16689222219E+02 -0.20538932161E+02  0.74781031361E+02  0.79325787258E+02  0.00000000000E+00 0. -1.
        -14    1    6    6    0    0 -0.59930520479E+02  0.76617894099E+02  0.27527976183E+03  0.29196047036E+03  0.00000000000E+00 0.  1.
</event>
<event>
12    1  0.8258923E-002  0.1816712E+03  0.7818608E-02  0.1166400E+00
         21   -1    0    0  501  502  0.00000000000E+00  0.00000000000E+00  0.78916287468E+02  0.78916287468E+02  0.00000000000E+00 0.  1.
         21   -1    0    0  502  503 -0.00000000000E+00 -0.00000000000E+00 -0.58568328881E+03  0.58568328881E+03  0.00000000000E+00 0.  1.
         -6    2    1    2    0  503 -0.56562074337E+02 -0.27774681834E+01 -0.43168550627E+03  0.46802473741E+03  0.17172010925E+03 0.  0.
        -24    2    3    3    0    0  0.12284645733E+02  0.41404912003E+02 -0.15365143237E+03  0.17816789372E+03  0.79181793518E+02 0.  0.
          6    2    1    2  501    0  0.56562074337E+02  0.27774681834E+01 -0.75081495076E+02  0.19657483887E+03  0.17261938997E+03 0.  0.
         24    2    5    5    0    0  0.68338981316E+02  0.60095371378E+02 -0.37658615566E+02  0.12695731611E+03  0.80114410436E+02 0.  0.
          5    1    5    5  501    0 -0.11776906978E+02 -0.57317903195E+02 -0.37422879509E+02  0.69617522761E+02  0.47000000000E+01 0. -1.
        -13    1    6    6    0    0  0.52845048431E+02 -0.59202263516E+01 -0.12449387194E+02  0.54613509915E+02  0.00000000000E+00 0.  1.
         14    1    6    6    0    0  0.15493932885E+02  0.66015597730E+02 -0.25209228372E+02  0.72343806197E+02  0.00000000000E+00 0. -1.
         -5    1    3    3    0  503 -0.68846720071E+02 -0.44182380186E+02 -0.27803407390E+03  0.28985684369E+03  0.47000000000E+01 0.  1.
         13    1    4    4    0    0  0.28359717322E+02 -0.13169720188E+02 -0.73524492947E+02  0.79897222477E+02  0.00000000000E+00 0. -1.
        -14    1    4    4    0    0 -0.16075071588E+02  0.54574632191E+02 -0.80126939418E+02  0.98270671240E+02  0.00000000000E+00 0.  1.
</event>
<event>
12    1  0.8258923E-002  0.1897902E+03  0.7818608E-02  0.1158816E+00
         21   -1    0    0  501  502  0.00000000000E+00  0.00000000000E+00  0.10079928712E+03  0.10079928712E+03  0.00000000000E+00 0.  1.
         21   -1    0    0  502  503 -0.00000000000E+00 -0.00000000000E+00 -0.38178490131E+03  0.38178490131E+03  0.00000000000E+00 0.  1.
         -6    2    1    2    0  503 -0.33949043962E+02 -0.72401907441E+02 -0.20348615617E+03  0.27825693658E+03  0.17212127473E+03 0.  0.
        -24    2    3    3    0    0  0.21144140491E+02  0.14313557299E+02 -0.67146164007E+02  0.10747779774E+03  0.79943211516E+02 0.  0.
          6    2    1    2  501    0  0.33949043962E+02  0.72401907441E+02 -0.77499458018E+02  0.20432725186E+03  0.17131516591E+03 0.  0.
         24    2    5    5    0    0  0.66508265818E+02  0.25193671045E+02  0.15330556577E+00  0.10767963314E+03  0.80850537461E+02 0.  0.
          5    1    5    5  501    0 -0.32559221856E+02  0.47208236395E+02 -0.77652763584E+02  0.96647618717E+02  0.47000000000E+01 0. -1.
        -11    1    6    6    0    0 -0.14494575558E+02  0.20705627892E+02 -0.70325042399E+01  0.26234935923E+02  0.00000000000E+00 0.  1.
         12    1    6    6    0    0  0.81002841376E+02  0.44880431535E+01  0.71858098057E+01  0.81444697217E+02  0.00000000000E+00 0. -1.
         -5    1    3    3    0  503 -0.55093184453E+02 -0.86715464739E+02 -0.13633999216E+03  0.17077913883E+03  0.47000000000E+01 0.  1.
         13    1    4    4    0    0 -0.14989649450E+02  0.21092493640E+02  0.51380531745E+01  0.26381479659E+02  0.00000000000E+00 0. -1.
        -14    1    4    4    0    0  0.36133789941E+02 -0.67789363408E+01 -0.72284217182E+02  0.81096318085E+02  0.00000000000E+00 0.  1.
</event>
<event>
12    1  0.8258923E-002  0.2260299E+03  0.7818608E-02  0.1130347E+00
         21   -1    0    0  501  502  0.00000000000E+00  0.00000000000E+00  0.68561162777E+03  0.68561162777E+03  0.00000000000E+00 0.  1.
         21   -1    0    0  502  503 -0.00000000000E+00 -0.00000000000E+00 -0.88581168115E+02  0.88581168115E+02  0.00000000000E+00 0.  1.
         -6    2    1    2    0  503  0.50364810443E+02  0.13154398957E+03  0.13314683881E+03  0.25817191536E+03  0.17054096831E+03 0.  0.
        -24    2    3    3    0    0  0.32824537596E+02  0.11433172525E+03  0.23119156865E+02  0.14533529006E+03  0.80241245350E+02 0.  0.
          6    2    1    2  501    0 -0.50364810443E+02 -0.13154398957E+03  0.46388362084E+03  0.51602088053E+03  0.17677415006E+03 0.  0.
         24    2    5    5    0    0  0.38075567135E+02 -0.68320486147E+02  0.28696644573E+03  0.30831751363E+03  0.81194276856E+02 0.  0.
          5    1    5    5  501    0 -0.88440377578E+02 -0.63223503419E+02  0.17691717511E+03  0.20770336690E+03  0.47000000000E+01 0. -1.
        -13    1    6    6    0    0  0.45467511433E+02 -0.53130957807E+02  0.28224274063E+03  0.29077681804E+03  0.00000000000E+00 0.  1.
         14    1    6    6    0    0 -0.73919442979E+01 -0.15189528340E+02  0.47237051010E+01  0.17540695584E+02  0.00000000000E+00 0. -1.
         -5    1    3    3    0  503  0.17540272847E+02  0.17212264313E+02  0.11002768195E+03  0.11283662530E+03  0.47000000000E+01 0.  1.
         11    1    4    4    0    0  0.31937961190E+02  0.34668660877E+01  0.10257145499E+02  0.33723308841E+02  0.00000000000E+00 0. -1.
        -12    1    4    4    0    0  0.88657640653E+00  0.11086485917E+03  0.12862011367E+02  0.11161198122E+03  0.00000000000E+00 0.  1.
</event>
<event>
12    1  0.8258923E-002  0.2749592E+03  0.7818608E-02  0.1098527E+00
         21   -1    0    0  501  502  0.00000000000E+00  0.00000000000E+00  0.73595628151E+03  0.73595628151E+03  0.00000000000E+00 0. -1.
         21   -1    0    0  502  503 -0.00000000000E+00 -0.00000000000E+00 -0.21046124149E+03  0.21046124149E+03  0.00000000000E+00 0.  1.
         -6    2    1    2    0  503 -0.19251316444E+03 -0.95063099623E+02 -0.75952724809E+02  0.28525664487E+03  0.17176794126E+03 0.  0.
        -24    2    3    3    0    0 -0.12792900330E+03 -0.76724666444E+02 -0.11769074438E+03  0.20606343633E+03  0.79740354596E+02 0.  0.
          6    2    1    2  501    0  0.19251316444E+03  0.95063099623E+02  0.60144776483E+03  0.66116087814E+03  0.17116068934E+03 0.  0.
         24    2    5    5    0    0  0.40797361993E+02  0.25177871413E+02  0.32617718098E+03  0.33913973883E+03  0.79535269564E+02 0.  0.
          5    1    5    5  501    0  0.15171580244E+03  0.69885228210E+02  0.27527058384E+03  0.32202113931E+03  0.47000000000E+01 0. -1.
        -11    1    6    6    0    0  0.25739323621E+02  0.46138537173E+02  0.11698936552E+03  0.12836584062E+03  0.00000000000E+00 0.  1.
         12    1    6    6    0    0  0.15058038372E+02 -0.20960665760E+02  0.20918781546E+03  0.21077389821E+03  0.00000000000E+00 0. -1.
         -5    1    3    3    0  503 -0.64584161135E+02 -0.18338433179E+02  0.41738019572E+02  0.79193208540E+02  0.47000000000E+01 0.  1.
         13    1    4    4    0    0 -0.56720678138E+01 -0.19248669459E+02  0.79414011883E+01  0.21581229855E+02  0.00000000000E+00 0. -1.
        -14    1    4    4    0    0 -0.12225693549E+03 -0.57475996985E+02 -0.12563214557E+03  0.18448220647E+03  0.00000000000E+00 0.  1.
</event>
<event>
12    1  0.8258923E-002  0.1921625E+03  0.7818608E-02  0.1157884E+00
         21   -1    0    0  501  502  0.00000000000E+00  0.00000000000E+00  0.64080087133E+02  0.64080087133E+02  0.00000000000E+00 0. -1.
         21   -1    0    0  502  503 -0.00000000000E+00 -0.00000000000E+00 -0.11187717363E+04  0.11187717363E+04  0.00000000000E+00 0. -1.
         -6    2    1    2    0  503  0.70158192224E+02 -0.57368345856E+01 -0.95008438806E+03  0.96932283631E+03  0.17880529450E+03 0.  0.
        -24    2    3    3    0    0  0.51538616840E+02  0.25275929779E+02 -0.90826593958E+03  0.91383092001E+03  0.82733498129E+02 0.  0.
          6    2    1    2  501    0 -0.70158192224E+02  0.57368345856E+01 -0.10460726107E+03  0.21352898709E+03  0.17232778665E+03 0.  0.
         24    2    5    5    0    0 -0.48989827773E+02 -0.40164326104E+02 -0.12210609627E+03  0.15983247473E+03  0.81383935232E+02 0.  0.
          5    1    5    5  501    0 -0.21168364451E+02  0.45901160689E+02  0.17498835206E+02  0.53696512361E+02  0.47000000000E+01 0. -1.
        -13    1    6    6    0    0 -0.57935934223E+02 -0.12756222282E+02 -0.11610587594E+03  0.13038354232E+03  0.00000000000E+00 0.  1.
         14    1    6    6    0    0  0.89461064499E+01 -0.27408103821E+02 -0.60002203339E+01  0.29448932404E+02  0.00000000000E+00 0. -1.
         -5    1    3    3    0  503  0.18619575383E+02 -0.31012764365E+02 -0.41818448483E+02  0.55491916299E+02  0.47000000000E+01 0.  1.
         13    1    4    4    0    0  0.12441632648E+02 -0.21785342446E+02 -0.94670745364E+02  0.97938477608E+02  0.00000000000E+00 0. -1.
        -14    1    4    4    0    0  0.39096984192E+02  0.47061272225E+02 -0.81359519422E+03  0.81589244240E+03  0.00000000000E+00 0.  1.
</event>
<event>
12    1  0.8258923E-002  0.2803123E+03  0.7818608E-02  0.1095651E+00
         21   -1    0    0  503  502  0.00000000000E+00  0.00000000000E+00  0.15981632899E+03  0.15981632899E+03  0.00000000000E+00 0. -1.
         21   -1    0    0  501  503 -0.00000000000E+00 -0.00000000000E+00 -0.97067819872E+03  0.97067819872E+03  0.00000000000E+00 0.  1.
          6    2    1    2  501    0  0.54073770371E+02  0.21416102045E+03 -0.80356580004E+03  0.85105405688E+03  0.17258649258E+03 0.  0.
         24    2    3    3    0    0  0.51833476502E+02  0.18926699792E+03 -0.79732858723E+03  0.82486772270E+03  0.78518648401E+02 0.  0.
         -6    2    1    2    0  502 -0.54073770371E+02 -0.21416102045E+03 -0.72960696930E+01  0.27944047083E+03  0.17101119490E+03 0.  0.
        -24    2    5    5    0    0 -0.98622654289E+02 -0.17123585599E+03 -0.26347437356E+02  0.21453887291E+03  0.79275432631E+02 0.  0.
          5    1    3    3  501    0  0.22402938686E+01  0.24894022531E+02 -0.62372128090E+01  0.26186334184E+02  0.47000000000E+01 0. -1.
        -11    1    4    4    0    0 -0.17374598202E+02  0.75898122471E+02 -0.32716167862E+03  0.33629922036E+03  0.00000000000E+00 0.  1.
         12    1    4    4    0    0  0.69208074704E+02  0.11336887545E+03 -0.47016690861E+03  0.48856850234E+03  0.00000000000E+00 0. -1.
         -5    1    5    5    0  502  0.44548883918E+02 -0.42925164466E+02  0.19051367663E+02  0.64901597921E+02  0.47000000000E+01 0.  1.
         13    1    6    6    0    0 -0.22092292171E+02 -0.84846207695E+02  0.20401599431E+02  0.90017629346E+02  0.00000000000E+00 0. -1.
        -14    1    6    6    0    0 -0.76530362118E+02 -0.86389648292E+02 -0.46749036787E+02  0.12452124356E+03  0.00000000000E+00 0.  1.
</event>
<event>
12    1  0.8258923E-002  0.2003432E+03  0.7818608E-02  0.1150436E+00
         21   -1    0    0  501  502  0.00000000000E+00  0.00000000000E+00  0.18026660441E+04  0.18026660441E+04  0.00000000000E+00 0. -1.
         21   -1    0    0  502  503 -0.00000000000E+00 -0.00000000000E+00 -0.36646150116E+02  0.36646150116E+02  0.00000000000E+00 0. -1.
         -6    2    1    2    0  503 -0.68871861150E+02  0.77799426735E+02  0.29066100763E+03  0.35041285393E+03  0.16585916551E+03 0.  0.
        -24    2    3    3    0    0 -0.35123567417E+02 -0.19794913118E+02  0.16817988294E+03  0.19014021619E+03  0.79014715185E+02 0.  0.
          6    2    1    2  501    0  0.68871861150E+02 -0.77799426735E+02  0.14753588864E+04  0.14888993403E+04  0.17129307605E+03 0.  0.
         24    2    5    5    0    0  0.42252263491E+01 -0.60930240148E+02  0.12452374909E+04  0.12492293515E+04  0.78912719978E+02 0.  0.
          5    1    5    5  501    0  0.64646634801E+02 -0.16869186587E+02  0.23012139551E+03  0.23966998877E+03  0.47000000000E+01 0. -1.
        -13    1    6    6    0    0  0.14559910911E+02 -0.45384671881E+02  0.11893896863E+04  0.11903443137E+04  0.00000000000E+00 0.  1.
         14    1    6    6    0    0 -0.10334684562E+02 -0.15545568267E+02  0.55847804576E+02  0.58885037774E+02  0.00000000000E+00 0. -1.
         -5    1    3    3    0  503 -0.33748293733E+02  0.97594339853E+02  0.12248112469E+03  0.16027263774E+03  0.47000000000E+01 0.  1.
         13    1    4    4    0    0 -0.47675321717E+02 -0.30264498409E+02  0.16373828775E+03  0.17320249144E+03  0.00000000000E+00 0. -1.
        -14    1    4    4    0    0  0.12551754300E+02  0.10469585291E+02  0.44415951906E+01  0.16937724759E+02  0.00000000000E+00 0.  1.
</event>
<event>
12    1  0.8258923E-002  0.2164751E+03  0.7818608E-02  0.1137459E+00
         21   -1    0    0  503  502  0.00000000000E+00  0.00000000000E+00  0.20789087345E+03  0.20789087345E+03  0.00000000000E+00 0.  1.
         21   -1    0    0  501  503 -0.00000000000E+00 -0.00000000000E+00 -0.22200705587E+03  0.22200705587E+03  0.00000000000E+00 0. -1.
          6    2    1    2  501    0 -0.27516030894E+02 -0.12085632315E+03 -0.24878517209E+02  0.21315544139E+03  0.17161852690E+03 0.  0.
         24    2    3    3    0    0 -0.11664318415E+02 -0.15367518261E+03 -0.10901670630E+02  0.17383882195E+03  0.79680433728E+02 0.  0.
         -6    2    1    2    0  502  0.27516030894E+02  0.12085632315E+03  0.10762334793E+02  0.21674248793E+03  0.17747702787E+03 0.  0.
        -24    2    5    5    0    0  0.76922718045E+01  0.98105584590E+02 -0.55765034951E+02  0.14354031272E+03  0.88375366931E+02 0.  0.
          5    1    3    3  501    0 -0.15851712479E+02  0.32818859455E+02 -0.13976846579E+02  0.39316619447E+02  0.47000000000E+01 0. -1.
        -13    1    4    4    0    0 -0.28916570272E+02 -0.13179037562E+03 -0.32259594389E+02  0.13872834091E+03  0.00000000000E+00 0.  1.
         14    1    4    4    0    0  0.17252251857E+02 -0.21884806990E+02  0.21357923759E+02  0.35110481034E+02  0.00000000000E+00 0. -1.
         -5    1    5    5    0  502  0.19823759089E+02  0.22750738564E+02  0.66527369744E+02  0.73202175205E+02  0.47000000000E+01 0.  1.
         13    1    6    6    0    0  0.35459445934E+02  0.29723096248E+02 -0.52049491388E+02  0.69641828740E+02  0.00000000000E+00 0. -1.
        -14    1    6    6    0    0 -0.27767174129E+02  0.68382488342E+02 -0.37155435633E+01  0.73898483983E+02  0.00000000000E+00 0.  1.
</event>
<event>
12    1  0.8258923E-002  0.2433641E+03  0.7818608E-02  0.1117589E+00
         21   -1    0    0  501  502  0.00000000000E+00  0.00000000000E+00  0.13730713931E+03  0.13730713931E+03  0.00000000000E+00 0.  1.
         21   -1    0    0  502  503 -0.00000000000E+00 -0.00000000000E+00 -0.83144577798E+03  0.83144577798E+03  0.00000000000E+00 0. -1.
         -6    2    1    2    0  503 -0.14081166361E+03  0.99633761074E+02 -0.68319794297E+03  0.72524857278E+03  0.17167193156E+03 0.  0.
        -24    2    3    3    0    0 -0.86426272221E+02  0.13363838048E+03 -0.47556390394E+03  0.50788236312E+03  0.80341463584E+02 0.  0.
          6    2    1    2  501    0  0.14081166361E+03 -0.99633761074E+02 -0.10940695704E+02  0.24350434451E+03  0.17152217355E+03 0.  0.
         24    2    5    5    0    0  0.81327667527E+02 -0.13224487551E+03  0.30409491449E+01  0.17408239577E+03  0.78692671452E+02 0.  0.
          5    1    5    5  501    0  0.59483996085E+02  0.32611114434E+02 -0.13981644849E+02  0.69421948745E+02  0.47000000000E+01 0. -1.
        -11    1    6    6    0    0  0.49654781515E+01 -0.24056428143E+02  0.30173892143E+02  0.38907987295E+02  0.00000000000E+00 0.  1.
         12    1    6    6    0    0  0.76362189376E+02 -0.10818844737E+03 -0.27132942999E+02  0.13517440847E+03  0.00000000000E+00 0. -1.
         -5    1    3    3    0  503 -0.54385391391E+02 -0.34004619408E+02 -0.20763403904E+03  0.21736620966E+03  0.47000000000E+01 0.  1.
         13    1    4    4    0    0 -0.51686400750E+02  0.61110347319E+02 -0.12664768610E+03  0.14981854013E+03  0.00000000000E+00 0. -1.
        -14    1    4    4    0    0 -0.34739871471E+02  0.72528033164E+02 -0.34891621783E+03  0.35806382298E+03  0.00000000000E+00 0.  1.
</event>
<event>
12    1  0.8258923E-002  0.1863610E+03  0.7818608E-02  0.1162323E+00
         21   -1    0    0  503  502  0.00000000000E+00  0.00000000000E+00  0.68798164684E+03  0.68798164684E+03  0.00000000000E+00 0.  1.
         21   -1    0    0  501  503 -0.00000000000E+00 -0.00000000000E+00 -0.52939703983E+02  0.52939703983E+02  0.00000000000E+00 0.  1.
          6    2    1    2  501    0  0.15575433398E+02  0.65871824269E+02  0.22627697364E+03  0.29167838823E+03  0.17115291994E+03 0.  0.
         24    2    3    3    0    0 -0.55891380807E+02  0.30650081381E+02  0.14944473962E+03  0.18089319568E+03  0.79532031945E+02 0.  0.
         -6    2    1    2    0  502 -0.15575433398E+02 -0.65871824269E+02  0.40876496922E+03  0.44924296259E+03  0.17363394836E+03 0.  0.
        -24    2    5    5    0    0  0.41882206285E+02 -0.73654269116E+02  0.18907588171E+03  0.22198246894E+03  0.79670928887E+02 0.  0.
          5    1    3    3  501    0  0.71466814205E+02  0.35221742888E+02  0.76832234027E+02  0.11078519256E+03  0.47000000000E+01 0. -1.
        -11    1    4    4    0    0 -0.24175771344E+02 -0.17875872953E+02  0.13216807054E+02  0.32843549482E+02  0.00000000000E+00 0.  1.
         12    1    4    4    0    0 -0.31715609463E+02  0.48525954334E+02  0.13622793256E+03  0.14804964619E+03  0.00000000000E+00 0. -1.
         -5    1    5    5    0  502 -0.57457639682E+02  0.77824448470E+01  0.21968908751E+03  0.22726049365E+03  0.47000000000E+01 0.  1.
         11    1    6    6    0    0 -0.10483898591E+02 -0.38959360001E+02  0.28050653201E+02  0.49138406632E+02  0.00000000000E+00 0. -1.
        -12    1    6    6    0    0  0.52366104876E+02 -0.34694909115E+02  0.16102522851E+03  0.17284406231E+03  0.00000000000E+00 0.  1.
</event>
<event>
12    1  0.8258923E-002  0.2786901E+03  0.7818608E-02  0.1096466E+00
         21   -1    0    0  501  502  0.00000000000E+00  0.00000000000E+00  0.10332535970E+04  0.10332535970E+04  0.00000000000E+00 0.  1.
         21   -1    0    0  502  503 -0.00000000000E+00 -0.00000000000E+00 -0.76697625031E+02  0.76697625031E+02  0.00000000000E+00 0.  1.
         -6    2    1    2    0  503 -0.13466662182E+03  0.17271361046E+03  0.55919350168E+03  0.62460071777E+03  0.17164962582E+03 0.  0.
        -24    2    3    3    0    0 -0.11005989672E+03  0.18382696245E+03  0.55000344393E+03  0.59569492814E+03  0.80269085493E+02 0.  0.
          6    2    1    2  501    0  0.13466662182E+03 -0.17271361046E+03  0.39736247032E+03  0.48535050429E+03  0.17234584105E+03 0.  0.
         24    2    5    5    0    0  0.11008319677E+03 -0.19492901550E+03  0.30186370389E+03  0.38415775061E+03  0.79623177132E+02 0.  0.
          5    1    5    5  501    0  0.24583425053E+02  0.22215405034E+02  0.95498766426E+02  0.10119275368E+03  0.47000000000E+01 0. -1.
        -13    1    6    6    0    0  0.12081145888E+03 -0.16837999060E+03  0.27882474037E+03  0.34740533340E+03  0.00000000000E+00 0.  1.
         14    1    6    6    0    0 -0.10728262117E+02 -0.26549024896E+02  0.23038963527E+02  0.36752417218E+02  0.00000000000E+00 0. -1.
         -5    1    3    3    0  503 -0.24606725097E+02 -0.11113351990E+02  0.91900577459E+01  0.28905789625E+02  0.47000000000E+01 0.  1.
         11    1    4    4    0    0  0.60646784078E+01  0.20011013545E+02  0.11094128045E+03  0.11289459108E+03  0.00000000000E+00 0. -1.
        -12    1    4    4    0    0 -0.11612457513E+03  0.16381594891E+03  0.43906216348E+03  0.48280033706E+03  0.00000000000E+00 0.  1.
</event>
<event>
12    1  0.8258923E-002  0.1989315E+03  0.7818608E-02  0.1151635E+00
         21   -1    0    0  503  502  0.00000000000E+00  0.00000000000E+00  0.79482303260E+02  0.79482303260E+02  0.00000000000E+00 0. -1.
         21   -1    0    0  501  503 -0.00000000000E+00 -0.00000000000E+00 -0.49201437154E+03  0.49201437154E+03  0.00000000000E+00 0. -1.
          6    2    1    2  501    0 -0.34128844122E+02  0.83121350389E+02 -0.23432943527E+03  0.30442003592E+03  0.17230013680E+03 0.  0.
         24    2    3    3    0    0 -0.24516962538E+02 -0.97010292140E+01 -0.53874671426E+02  0.10120981418E+03  0.81521499284E+02 0.  0.
         -6    2    1    2    0  502  0.34128844122E+02 -0.83121350389E+02 -0.17820263301E+03  0.26707663889E+03  0.17748187439E+03 0.  0.
        -24    2    5    5    0    0 -0.28715893891E+02 -0.11552916340E+02 -0.31449133461E+02  0.92061835289E+02  0.80797655185E+02 0.  0.
          5    1    3    3  501    0 -0.96118815838E+01  0.92822379603E+02 -0.18045476385E+03  0.20321022173E+03  0.47000000000E+01 0. -1.
        -13    1    4    4    0    0  0.25909585985E+02  0.81700139757E+01 -0.35372324049E+02  0.44601088360E+02  0.00000000000E+00 0.  1.
         14    1    4    4    0    0 -0.50426548524E+02 -0.17871043190E+02 -0.18502347377E+02  0.56608725822E+02  0.00000000000E+00 0. -1.
         -5    1    5    5    0  502  0.62844738013E+02 -0.71568434049E+02 -0.14675349955E+03  0.17501480360E+03  0.47000000000E+01 0.  1.
         11    1    6    6    0    0 -0.80917733520E+00 -0.42365322385E+02 -0.47114390239E+01  0.42634176038E+02  0.00000000000E+00 0. -1.
        -12    1    6    6    0    0 -0.27906716556E+02  0.30812406045E+02 -0.26737694437E+02  0.49427659251E+02  0.00000000000E+00 0.  1.
</event>
<event>
12    1  0.8258923E-002  0.1741448E+03  0.7818608E-02  0.1174004E+00
         21   -1    0    0  503  502  0.00000000000E+00  0.00000000000E+00  0.75501988050E+02  0.75501988050E+02  0.00000000000E+00 0. -1.
         21   -1    0    0  501  503 -0.00000000000E+00 -0.00000000000E+00 -0.54291964260E+03  0.54291964260E+03  0.00000000000E+00 0. -1.
          6    2    1    2  501    0 -0.87086479522E+01 -0.65889874536E+01 -0.39269475250E+03  0.42892248763E+03  0.17218036023E+03 0.  0.
         24    2    3    3    0    0  0.29623431889E+02  0.53146007673E+02 -0.23472669986E+03  0.25567811213E+03  0.81071743202E+02 0.  0.
         -6    2    1    2    0  502  0.87086479522E+01  0.65889874536E+01 -0.74722902049E+02  0.18949914302E+03  0.17380206503E+03 0.  0.
        -24    2    5    5    0    0 -0.27836657875E+02  0.21288343876E+02  0.17208069972E+02  0.89374100828E+02  0.80396138714E+02 0.  0.
          5    1    3    3  501    0 -0.38332079842E+02 -0.59734995127E+02 -0.15796805264E+03  0.17324437550E+03  0.47000000000E+01 0. -1.
        -13    1    4    4    0    0  0.26266463026E+01  0.34492786225E+02 -0.23271339328E+02  0.41691807426E+02  0.00000000000E+00 0.  1.
         14    1    4    4    0    0  0.26996785587E+02  0.18653221448E+02 -0.21145536053E+03  0.21398630470E+03  0.00000000000E+00 0. -1.
         -5    1    5    5    0  502  0.36545305827E+02 -0.14699356422E+02 -0.91930972021E+02  0.10012504219E+03  0.47000000000E+01 0.  1.
         11    1    6    6    0    0 -0.98907121259E+01 -0.14433051351E+02  0.39785665574E+02  0.43463068723E+02  0.00000000000E+00 0. -1.
        -12    1    6    6    0    0 -0.17945945749E+02  0.35721395227E+02 -0.22577595602E+02  0.45911032105E+02  0.00000000000E+00 0.  1.
</event>
<event>
12    1  0.8258923E-002  0.2009720E+03  0.7818608E-02  0.1149263E+00
         21   -1    0    0  503  502  0.00000000000E+00  0.00000000000E+00  0.18448772029E+03  0.18448772029E+03  0.00000000000E+00 0.  1.
         21   -1    0    0  501  503 -0.00000000000E+00 -0.00000000000E+00 -0.30394581786E+03  0.30394581786E+03  0.00000000000E+00 0.  1.
          6    2    1    2  501    0  0.53419559064E+01 -0.10104701070E+03 -0.19039648347E+03  0.27684033096E+03  0.17363960685E+03 0.  0.
         24    2    3    3    0    0 -0.30409262529E+02 -0.12925295630E+03 -0.15512453979E+03  0.21904824675E+03  0.79293515494E+02 0.  0.
         -6    2    1    2    0  502 -0.53419559064E+01  0.10104701070E+03  0.70938385897E+02  0.21159320719E+03  0.17175679279E+03 0.  0.
        -24    2    5    5    0    0 -0.45691696780E+02  0.52380120337E+01  0.15949029405E+02  0.93892803023E+02  0.80288971820E+02 0.  0.
          5    1    3    3  501    0  0.35751218435E+02  0.28205945604E+02 -0.35271943680E+02  0.57792084216E+02  0.47000000000E+01 0. -1.
        -11    1    4    4    0    0  0.15364278847E+02 -0.47045649175E+02 -0.95764078309E+02  0.10779662734E+03  0.00000000000E+00 0.  1.
         12    1    4    4    0    0 -0.45773541375E+02 -0.82207307124E+02 -0.59360461478E+02  0.11125161941E+03  0.00000000000E+00 0. -1.
         -5    1    5    5    0  502  0.40349740874E+02  0.95808998661E+02  0.54989356493E+02  0.11770040416E+03  0.47000000000E+01 0.  1.
         13    1    6    6    0    0  0.31708229039E+01  0.11607626021E+02 -0.26340009265E+02  0.28958369909E+02  0.00000000000E+00 0. -1.
        -14    1    6    6    0    0 -0.48862519684E+02 -0.63696139875E+01  0.42289038669E+02  0.64934433114E+02  0.00000000000E+00 0.  1.
</event>
<event>
12    1  0.8258923E-002  0.3106050E+03  0.7818608E-02  0.1080315E+00
         21   -1    0    0  501  502  0.00000000000E+00  0.00000000000E+00  0.42794041046E+03  0.42794041046E+03  0.00000000000E+00 0. -1.
         21   -1    0    0  502  503 -0.00000000000E+00 -0.00000000000E+00 -0.37094648406E+03  0.37094648406E+03  0.00000000000E+00 0.  1.
         -6    2    1    2    0  503 -0.25355884355E+02 -0.25505259325E+03  0.27995004762E+03  0.41654558939E+03  0.17159094581E+03 0.  0.
        -24    2    3    3    0    0  0.31855815093E+02 -0.16919716569E+03  0.23955068831E+03  0.30564684626E+03  0.79956166286E+02 0.  0.
          6    2    1    2  501    0  0.25355884355E+02  0.25505259325E+03 -0.22295612122E+03  0.38234130513E+03  0.17544428011E+03 0.  0.
         24    2    5    5    0    0  0.27597915184E+02  0.23370778278E+03 -0.11794709110E+03  0.27505843583E+03  0.79778782720E+02 0.  0.
          5    1    5    5  501    0 -0.22420308287E+01  0.21344810470E+02 -0.10500903013E+03  0.10728286930E+03  0.47000000000E+01 0. -1.
        -13    1    6    6    0    0  0.36424640960E+02  0.10134719631E+03 -0.18511551030E+02  0.10927344687E+03  0.00000000000E+00 0.  1.
         14    1    6    6    0    0 -0.88267257759E+01  0.13236058646E+03 -0.99435540068E+02  0.16578498896E+03  0.00000000000E+00 0. -1.
         -5    1    3    3    0  503 -0.57211699448E+02 -0.85855427560E+02  0.40399359307E+02  0.11089874313E+03  0.47000000000E+01 0.  1.
         11    1    4    4    0    0  0.33419296385E+02 -0.17580738651E+03  0.23934691138E+03  0.29885118455E+03  0.00000000000E+00 0. -1.
        -12    1    4    4    0    0 -0.15634812925E+01  0.66102208191E+01  0.20377693148E+00  0.67956617092E+01  0.00000000000E+00 0.  1.
</event>
<event>
12    1  0.8258923E-002  0.1756472E+03  0.7818608E-02  0.1172087E+00
         21   -1    0    0  501  502  0.00000000000E+00  0.00000000000E+00  0.36793770396E+03  0.36793770396E+03  0.00000000000E+00 0. -1.
         21   -1    0    0  502  503 -0.00000000000E+00 -0.00000000000E+00 -0.11693888744E+03  0.11693888744E+03  0.00000000000E+00 0. -1.
         -6    2    1    2    0  503 -0.31437940056E+02 -0.18178752014E+02 -0.34710310643E+01  0.17568146696E+03  0.17185202552E+03 0.  0.
        -24    2    3    3    0    0 -0.14323356228E+02 -0.49110936502E+02 -0.43335247210E+02  0.12219357351E+03  0.10215812811E+03 0.  0.
          6    2    1    2  501    0  0.31437940056E+02  0.18178752014E+02  0.25446984759E+03  0.30919512444E+03  0.17183687191E+03 0.  0.
         24    2    5    5    0    0 -0.24296258814E+02  0.19084057886E+02  0.22871208837E+02  0.70936567463E+02  0.59618746649E+02 0.  0.
          5    1    5    5  501    0  0.55734198870E+02 -0.90530587269E+00  0.23159863875E+03  0.23825855698E+03  0.47000000000E+01 0. -1.
        -13    1    6    6    0    0 -0.31343235352E+02  0.25287528262E+02  0.36523630766E+02  0.54367573904E+02  0.00000000000E+00 0.  1.
         14    1    6    6    0    0  0.70469765378E+01 -0.62034703757E+01 -0.13652421929E+02  0.16568993559E+02  0.00000000000E+00 0. -1.
         -5    1    3    3    0  503 -0.17114583828E+02  0.30932184488E+02  0.39864216145E+02  0.53487893450E+02  0.47000000000E+01 0.  1.
         13    1    4    4    0    0 -0.55793992531E+02 -0.34670630367E+02 -0.42565204145E+02  0.78273998343E+02  0.00000000000E+00 0. -1.
        -14    1    4    4    0    0  0.41470636302E+02 -0.14440306135E+02 -0.77004306456E+00  0.43919575168E+02  0.00000000000E+00 0.  1.
</event>
<event>
12    1  0.8258923E-002  0.1759047E+03  0.7818608E-02  0.1173255E+00
         21   -1    0    0  501  502  0.00000000000E+00  0.00000000000E+00  0.97580319216E+02  0.97580319216E+02  0.00000000000E+00 0. -1.
         21   -1    0    0  502  503 -0.00000000000E+00 -0.00000000000E+00 -0.30871985259E+03  0.30871985259E+03  0.00000000000E+00 0. -1.
         -6    2    1    2    0  503  0.17990249725E+01  0.10820290245E+02 -0.11888852945E+03  0.20767308759E+03  0.16992149276E+03 0.  0.
        -24    2    3    3    0    0  0.14175292174E+02 -0.55982484728E+02 -0.87689161669E+02  0.13276465492E+03  0.81253227742E+02 0.  0.
          6    2    1    2  501    0 -0.17990249725E+01 -0.10820290245E+02 -0.92251003924E+02  0.19862708422E+03  0.17556239828E+03 0.  0.
         24    2    5    5    0    0 -0.46017497356E+02  0.38614098071E+02 -0.86020749650E+02  0.13184431611E+03  0.79841691409E+02 0.  0.
          5    1    5    5  501    0  0.44218472384E+02 -0.49434388316E+02 -0.62302542741E+01  0.66782768110E+02  0.47000000000E+01 0. -1.
        -11    1    6    6    0    0 -0.41194800344E+02 -0.16223733882E+02 -0.45528470115E+02  0.63506398949E+02  0.00000000000E+00 0.  1.
         12    1    6    6    0    0 -0.48226970125E+01  0.54837831953E+02 -0.40492279534E+02  0.68337917159E+02  0.00000000000E+00 0. -1.
         -5    1    3    3    0  503 -0.12376267202E+02  0.66802774973E+02 -0.31199367780E+02  0.74908432661E+02  0.47000000000E+01 0.  1.
         13    1    4    4    0    0 -0.29881592096E+02 -0.54182249453E+01 -0.41110114597E+02  0.51110744760E+02  0.00000000000E+00 0. -1.
        -14    1    4    4    0    0  0.44056884271E+02 -0.50564259783E+02 -0.46579047072E+02  0.81653910165E+02  0.00000000000E+00 0.  1.
</event>
<event>
12    1  0.8258923E-002  0.1790617E+03  0.7818608E-02  0.1168821E+00
         21   -1    0    0  503  502  0.00000000000E+00  0.00000000000E+00  0.11685010893E+03  0.11685010893E+03  0.00000000000E+00 0. -1.
         21   -1    0    0  501  503 -0.00000000000E+00 -0.00000000000E+00 -0.28284543619E+03  0.28284543619E+03  0.00000000000E+00 0. -1.
          6    2    1    2  501    0  0.21492577530E+02 -0.44415989482E+02 -0.11898193330E+03  0.21498792086E+03  0.17212900584E+03 0.  0.
         24    2    3    3    0    0 -0.20810115409E+02  0.49605315733E+02 -0.68045702033E+02  0.99896160423E+02  0.49550752261E+02 0.  0.
         -6    2    1    2    0  502 -0.21492577530E+02  0.44415989482E+02 -0.47013393949E+02  0.18470762426E+03  0.17167392417E+03 0.  0.
        -24    2    5    5    0    0  0.30249014961E+02 -0.24924794666E+02 -0.10526192664E+02  0.90693037110E+02  0.81105967431E+02 0.  0.
          5    1    3    3  501    0  0.42302692939E+02 -0.94021305216E+02 -0.50936231270E+02  0.11509176044E+03  0.47000000000E+01 0. -1.
        -11    1    4    4    0    0 -0.21825428500E+02  0.59163582778E+02 -0.54894467359E+02  0.83606706686E+02  0.00000000000E+00 0.  1.
         12    1    4    4    0    0  0.10153130910E+01 -0.95582670446E+01 -0.13151234675E+02  0.16289453737E+02  0.00000000000E+00 0. -1.
         -5    1    5    5    0  502 -0.51741592491E+02  0.69340784149E+02 -0.36487201286E+02  0.94014587153E+02  0.47000000000E+01 0.  1.
         13    1    6    6    0    0  0.18175837826E+02  0.27916755315E+02 -0.14527760891E+02  0.36342291404E+02  0.00000000000E+00 0. -1.
        -14    1    6    6    0    0  0.12073177135E+02 -0.52841549981E+02  0.40015682278E+01  0.54350745706E+02  0.00000000000E+00 0.  1.
</event>
<event>
12    1  0.8258923E-002  0.1832006E+03  0.7818608E-02  0.1165228E+00
         21   -1    0    0  501  502  0.00000000000E+00  0.00000000000E+00  0.41713519433E+02  0.41713519433E+02  0.00000000000E+00 0.  1.
         21   -1    0    0  502  503 -0.00000000000E+00 -0.00000000000E+00 -0.17593692797E+04  0.17593692797E+04  0.00000000000E+00 0.  1.
         -6    2    1    2    0  503  0.69377342340E+01  0.62402599361E+02 -0.15231488629E+04  0.15338836043E+04  0.16992420800E+03 0.  0.
        -24    2    3    3    0    0  0.42431320897E+02  0.93063001787E+02 -0.10617728883E+04  0.10701059259E+04  0.85462782661E+02 0.  0.
          6    2    1    2  501    0 -0.69377342340E+01 -0.62402599361E+02 -0.19450689740E+03  0.26719919486E+03  0.17210537479E+03 0.  0.
         24    2    5    5    0    0 -0.50114980793E+02  0.12495169430E+02 -0.80959579019E+02  0.12440902046E+03  0.79091784521E+02 0.  0.
          5    1    5    5  501    0  0.43177246559E+02 -0.74897768791E+02 -0.11354731838E+03  0.14279017439E+03  0.47000000000E+01 0. -1.
        -11    1    6    6    0    0 -0.17471979451E+02 -0.84042913716E+01  0.12610613802E+02  0.23128548590E+02  0.00000000000E+00 0.  1.
         12    1    6    6    0    0 -0.32643001342E+02  0.20899460802E+02 -0.93570192821E+02  0.10128047187E+03  0.00000000000E+00 0. -1.
         -5    1    3    3    0  503 -0.35493586663E+02 -0.30660402425E+02 -0.46137597463E+03  0.46377767836E+03  0.47000000000E+01 0.  1.
         11    1    4    4    0    0  0.19812698465E+02 -0.12878991287E+02 -0.13876727735E+03  0.14076494131E+03  0.00000000000E+00 0. -1.
        -12    1    4    4    0    0  0.22618622431E+02  0.10594199307E+03 -0.92300561090E+03  0.92934098464E+03  0.00000000000E+00 0.  1.
</event>
<event>
12    1  0.8258923E-002  0.1999053E+03  0.7818608E-02  0.1150934E+00
         21   -1    0    0  501  502  0.00000000000E+00  0.00000000000E+00  0.24455026768E+04  0.24455026768E+04  0.00000000000E+00 0.  1.
         21   -1    0    0  502  503 -0.00000000000E+00 -0.00000000000E+00 -0.20962307343E+02  0.20962307343E+02  0.00000000000E+00 0.  1.
         -6    2    1    2    0  503  0.75650538540E+01 -0.92532276188E+02  0.61950506401E+03  0.65095978923E+03  0.17703861355E+03 0.  0.
        -24    2    3    3    0    0 -0.23000762352E+02 -0.30613633529E+02  0.53302518019E+03  0.54019405566E+03  0.78914798502E+02 0.  0.
          6    2    1    2  501    0 -0.75650538540E+01  0.92532276188E+02  0.18050353054E+04  0.18155051949E+04  0.17113505385E+03 0.  0.
         24    2    5    5    0    0 -0.16405845971E+02  0.10258623853E+03  0.82396882698E+03  0.83433611319E+03  0.79993961083E+02 0.  0.
          5    1    5    5  501    0  0.88407921168E+01 -0.10053962340E+02  0.98106647844E+03  0.98116908170E+03  0.47000000000E+01 0. -1.
        -13    1    6    6    0    0 -0.26541899956E+02  0.14939385726E+02  0.40681881438E+03  0.40795735737E+03  0.00000000000E+00 0.  1.
         14    1    6    6    0    0  0.10136053985E+02  0.87646852802E+02  0.41715001261E+03  0.42637875582E+03  0.00000000000E+00 0. -1.
         -5    1    3    3    0  503  0.30565816206E+02 -0.61918642659E+02  0.86479883816E+02  0.11076573357E+03  0.47000000000E+01 0.  1.
         13    1    4    4    0    0 -0.52516932072E+02 -0.16965796811E+02  0.33232141716E+03  0.33687295932E+03  0.00000000000E+00 0. -1.
        -14    1    4    4    0    0  0.29516169720E+02 -0.13647836718E+02  0.20070376303E+03  0.20332109634E+03  0.00000000000E+00 0.  1.
</event>
<event>
12    1  0.8258923E-002  0.2002770E+03  0.7818608E-02  0.1149543E+00
         21   -1    0    0  503  502  0.00000000000E+00  0.00000000000E+00  0.34368577683E+02  0.34368577683E+02  0.00000000000E+00 0. -1.
         21   -1    0    0  501  503 -0.00000000000E+00 -0.00000000000E+00 -0.15815471700E+04  0.15815471700E+04  0.00000000000E+00 0. -1.
          6    2    1    2  501    0  0.73915967432E+02 -0.71151086945E+02 -0.11874630256E+04  0.12042044982E+04  0.17179635853E+03 0.  0.
         24    2    3    3    0    0  0.51169631197E+02 -0.10941927073E+03 -0.71029186749E+03  0.72493812772E+03  0.80186308283E+02 0.  0.
         -6    2    1    2    0  502 -0.73915967432E+02  0.71151086945E+02 -0.35971556668E+03  0.41171124949E+03  0.17200237390E+03 0.  0.
        -24    2    5    5    0    0  0.75543534468E+00 -0.85029563660E+01 -0.20162398473E+03  0.21952482101E+03  0.86406277959E+02 0.  0.
          5    1    3    3  501    0  0.22746336235E+02  0.38268183780E+02 -0.47717115810E+03  0.47926637043E+03  0.47000000000E+01 0. -1.
        -11    1    4    4    0    0  0.52015934166E+02 -0.94493925929E+02 -0.40005711975E+03  0.41434340649E+03  0.00000000000E+00 0.  1.
         12    1    4    4    0    0 -0.84630296931E+00 -0.14925344796E+02 -0.31023474775E+03  0.31059472123E+03  0.00000000000E+00 0. -1.
         -5    1    5    5    0  502 -0.74671402777E+02  0.79654043311E+02 -0.15809158195E+03  0.19218642848E+03  0.47000000000E+01 0.  1.
         11    1    6    6    0    0 -0.36639375694E+02  0.18105854188E+02 -0.99136968549E+02  0.10723061289E+03  0.00000000000E+00 0. -1.
        -12    1    6    6    0    0  0.37394811039E+02 -0.26608810554E+02 -0.10248701618E+03  0.11229420812E+03  0.00000000000E+00 0.  1.
</event>
<event>
12    1  0.8258923E-002  0.2689478E+03  0.7818608E-02  0.1102252E+00
         21   -1    0    0  501  502  0.00000000000E+00  0.00000000000E+00  0.26604997014E+03  0.26604997014E+03  0.00000000000E+00 0. -1.
         21   -1    0    0  502  503 -0.00000000000E+00 -0.00000000000E+00 -0.27335690391E+03  0.27335690391E+03  0.00000000000E+00 0. -1.
         -6    2    1    2    0  503  0.11726695405E+03  0.16927314939E+03 -0.36476335556E+02  0.26888189928E+03  0.16900300319E+03 0.  0.
        -24    2    3    3    0    0  0.78214626003E+02  0.19163624900E+03 -0.33207059902E+02  0.22351703718E+03  0.77557574937E+02 0.  0.
          6    2    1    2  501    0 -0.11726695405E+03 -0.16927314939E+03  0.29169401785E+02  0.27052497478E+03  0.17299702414E+03 0.  0.
         24    2    5    5    0    0  0.10118188736E+02 -0.80639930415E+02  0.11907989897E+02  0.11431079985E+03  0.79498318335E+02 0.  0.
          5    1    5    5  501    0 -0.12738514279E+03 -0.88633218974E+02  0.17261411888E+02  0.15621417493E+03  0.47000000000E+01 0. -1.
        -13    1    6    6    0    0 -0.10549885293E+02 -0.12530230395E+02  0.35687460132E+02  0.39267054437E+02  0.00000000000E+00 0.  1.
         14    1    6    6    0    0  0.20668074029E+02 -0.68109700020E+02 -0.23779470235E+02  0.75043745412E+02  0.00000000000E+00 0. -1.
         -5    1    3    3    0  503  0.39052328046E+02 -0.22363099612E+02 -0.32692756534E+01  0.45364862101E+02  0.47000000000E+01 0.  1.
         13    1    4    4    0    0 -0.55336124174E+01  0.39609696268E+02  0.16050553913E+02  0.43094885842E+02  0.00000000000E+00 0. -1.
        -14    1    4    4    0    0  0.83748238421E+02  0.15202655273E+03 -0.49257613815E+02  0.18042215134E+03  0.00000000000E+00 0.  1.
</event>
<event>
12    1  0.8258923E-002  0.1853570E+03  0.7818608E-02  0.1162922E+00
         21   -1    0    0  503  502  0.00000000000E+00  0.00000000000E+00  0.11446282647E+04  0.11446282647E+04  0.00000000000E+00 0.  1.
         21   -1    0    0  501  503 -0.00000000000E+00 -0.00000000000E+00 -0.29996552787E+02  0.29996552787E+02  0.00000000000E+00 0.  1.
          6    2    1    2  501    0  0.63068155713E+02 -0.23734272531E+02  0.52113575619E+03  0.55311815877E+03  0.17267400856E+03 0.  0.
         24    2    3    3    0    0  0.37098057495E+02 -0.52667794620E+02  0.15851734379E+03  0.18839114070E+03  0.78824559327E+02 0.  0.
         -6    2    1    2    0  502 -0.63068155713E+02  0.23734272531E+02  0.59349595576E+03  0.62150665875E+03  0.17173284311E+03 0.  0.
        -24    2    5    5    0    0 -0.16014975138E+02  0.71137372804E+02  0.27326977233E+03  0.29435538751E+03  0.81558080211E+02 0.  0.
          5    1    3    3  501    0  0.25970098218E+02  0.28933522089E+02  0.36261841240E+03  0.36472701807E+03  0.47000000000E+01 0. -1.
        -11    1    4    4    0    0  0.35859595943E+02 -0.15131364857E+02  0.17891637636E+02  0.42836660945E+02  0.00000000000E+00 0.  1.
         12    1    4    4    0    0  0.12384615520E+01 -0.37536429763E+02  0.14062570615E+03  0.14555447976E+03  0.00000000000E+00 0. -1.
         -5    1    5    5    0  502 -0.47053180575E+02 -0.47403100274E+02  0.32022618344E+03  0.32715127124E+03  0.47000000000E+01 0.  1.
         13    1    6    6    0    0  0.16264124240E+02  0.74151675304E+02  0.17160494043E+03  0.18764660473E+03  0.00000000000E+00 0. -1.
        -14    1    6    6    0    0 -0.32279099378E+02 -0.30143024997E+01  0.10166483190E+03  0.10670878277E+03  0.00000000000E+00 0.  1.
</event>
<event>
12    1  0.8258923E-002  0.1793237E+03  0.7818608E-02  0.1168816E+00
         21   -1    0    0  503  502  0.00000000000E+00  0.00000000000E+00  0.82270376818E+02  0.82270376818E+02  0.00000000000E+00 0.  1.
         21   -1    0    0  501  503 -0.00000000000E+00 -0.00000000000E+00 -0.61405429607E+03  0.61405429607E+03  0.00000000000E+00 0.  1.
          6    2    1    2  501    0  0.12108226976E+02 -0.48966074903E+02 -0.47796417729E+03  0.51049657966E+03  0.17208346061E+03 0.  0.
         24    2    3    3    0    0  0.57941398677E+02 -0.75140350289E+02 -0.30814237694E+03  0.33259968201E+03  0.81655043200E+02 0.  0.
         -6    2    1    2    0  502 -0.12108226976E+02  0.48966074903E+02 -0.53819741955E+02  0.18582809323E+03  0.17056151370E+03 0.  0.
        -24    2    5    5    0    0  0.16856795553E+02  0.40328469194E+02 -0.96859747893E+02  0.13302550926E+03  0.80021486913E+02 0.  0.
          5    1    3    3  501    0 -0.45833171701E+02  0.26174275386E+02 -0.16982180035E+03  0.17789689765E+03  0.47000000000E+01 0. -1.
        -11    1    4    4    0    0 -0.13863133350E+02  0.72518420500E+01 -0.45981528566E+02  0.48570326833E+02  0.00000000000E+00 0.  1.
         12    1    4    4    0    0  0.71804532027E+02 -0.82392192339E+02 -0.26216084838E+03  0.28402935517E+03  0.00000000000E+00 0. -1.
         -5    1    5    5    0  502 -0.28965022529E+02  0.86376057092E+01  0.43040005938E+02  0.52802583967E+02  0.47000000000E+01 0.  1.
         13    1    6    6    0    0  0.10298689834E+02 -0.19521499588E+02 -0.56187217118E+02  0.60366839622E+02  0.00000000000E+00 0. -1.
        -14    1    6    6    0    0  0.65581057196E+01  0.59849968782E+02 -0.40672530774E+02  0.72658669637E+02  0.00000000000E+00 0.  1.
</event>
<event>
12    1  0.8258923E-002  0.2089923E+03  0.7818608E-02  0.1143633E+00
         21   -1    0    0  503  502  0.00000000000E+00  0.00000000000E+00  0.30628741264E+03  0.30628741264E+03  0.00000000000E+00 0. -1.
         21   -1    0    0  501  503 -0.00000000000E+00 -0.00000000000E+00 -0.13954879707E+03  0.13954879707E+03  0.00000000000E+00 0. -1.
          6    2    1    2  501    0 -0.28368706876E+02 -0.11422817224E+03  0.10514360163E+03  0.23395075969E+03  0.17269893494E+03 0.  0.
         24    2    3    3    0    0 -0.67441184881E+02 -0.38463826819E+02  0.96528132478E+02  0.14814160584E+03  0.81243311298E+02 0.  0.
         -6    2    1    2    0  502  0.28368706876E+02  0.11422817224E+03  0.61595013941E+02  0.21188545002E+03  0.16507161878E+03 0.  0.
        -24    2    5    5    0    0  0.47018037721E+02  0.13435319710E+03  0.21317417169E+02  0.16292435355E+03  0.76344189451E+02 0.  0.
          5    1    3    3  501    0  0.39072478006E+02 -0.75764345421E+02  0.86154691555E+01  0.85809153844E+02  0.47000000000E+01 0. -1.
        -13    1    4    4    0    0 -0.55138322477E+02  0.98542654074E+01  0.75549336964E+02  0.94048091252E+02  0.00000000000E+00 0.  1.
         14    1    4    4    0    0 -0.12302862404E+02 -0.48318092227E+02  0.20978795513E+02  0.54093514592E+02  0.00000000000E+00 0. -1.
         -5    1    5    5    0  502 -0.18649330845E+02 -0.20125024856E+02  0.40277596771E+02  0.48961096476E+02  0.47000000000E+01 0.  1.
         11    1    6    6    0    0 -0.14016469700E+02  0.28028360162E+02  0.25279158719E+02  0.40262715529E+02  0.00000000000E+00 0. -1.
        -12    1    6    6    0    0  0.61034507421E+02  0.10632483693E+03 -0.39617415498E+01  0.12266163802E+03  0.00000000000E+00 0.  1.
</event>
<event>
12    1  0.8258923E-002  0.2284021E+03  0.7818608E-02  0.1128391E+00
         21   -1    0    0  501  502  0.00000000000E+00  0.00000000000E+00  0.52513113383E+02  0.52513113383E+02  0.00000000000E+00 0.  1.
         21   -1    0    0  502  503 -0.00000000000E+00 -0.00000000000E+00 -0.99018235615E+03  0.99018235615E+03  0.00000000000E+00 0. -1.
         -6    2    1    2    0  503 -0.14310025781E+03 -0.27248740759E+02 -0.52220073593E+03  0.56858407383E+03  0.17138863076E+03 0.  0.
        -24    2    3    3    0    0 -0.14394196868E+03 -0.70639992812E+02 -0.44081040442E+03  0.47622615433E+03  0.82269304671E+02 0.  0.
          6    2    1    2  501    0  0.14310025781E+03  0.27248740759E+02 -0.41546850684E+03  0.47411139570E+03  0.17591861102E+03 0.  0.
         24    2    5    5    0    0  0.17032894532E+03  0.46073434539E+02 -0.37431795817E+03  0.42109037935E+03  0.77900338795E+02 0.  0.
          5    1    5    5  501    0 -0.27228687514E+02 -0.18824693780E+02 -0.41150548669E+02  0.53021016356E+02  0.47000000000E+01 0. -1.
        -13    1    6    6    0    0  0.15248592972E+03  0.18421493170E+02 -0.25850749126E+03  0.30069491717E+03  0.00000000000E+00 0.  1.
         14    1    6    6    0    0  0.17843015605E+02  0.27651941369E+02 -0.11581046691E+03  0.12039546218E+03  0.00000000000E+00 0. -1.
         -5    1    3    3    0  503  0.84171086863E+00  0.43391252053E+02 -0.81390331512E+02  0.92357919506E+02  0.47000000000E+01 0.  1.
         11    1    4    4    0    0 -0.52428232587E+02 -0.24986782005E+02 -0.27768371530E+03  0.28369227094E+03  0.00000000000E+00 0. -1.
        -12    1    4    4    0    0 -0.91513736090E+02 -0.45653210807E+02 -0.16312668911E+03  0.19253388339E+03  0.00000000000E+00 0.  1.
</event>
<event>
12    1  0.8258923E-002  0.2311259E+03  0.7818608E-02  0.1126365E+00
         21   -1    0    0  501  502  0.00000000000E+00  0.00000000000E+00  0.15827448987E+03  0.15827448987E+03  0.00000000000E+00 0.  1.
         21   -1    0    0  502  503 -0.00000000000E+00 -0.00000000000E+00 -0.39496407137E+03  0.39496407137E+03  0.00000000000E+00 0.  1.
         -6    2    1    2    0  503 -0.95428907912E+02  0.11828191273E+03 -0.83646067439E+01  0.22835168470E+03  0.17022701876E+03 0.  0.
        -24    2    3    3    0    0 -0.25707420503E+02  0.12902552908E+03  0.83273944989E+01  0.15570718041E+03  0.82866892719E+02 0.  0.
          6    2    1    2  501    0  0.95428907912E+02 -0.11828191273E+03 -0.22832497476E+03  0.32488687654E+03  0.17413184978E+03 0.  0.
         24    2    5    5    0    0  0.12378478559E+03 -0.12849624890E+03 -0.21878436859E+03  0.29292593744E+03  0.78134792288E+02 0.  0.
          5    1    5    5  501    0 -0.28355877675E+02  0.10214336167E+02 -0.95406061679E+01  0.31960939100E+02  0.47000000000E+01 0. -1.
        -11    1    6    6    0    0  0.44372005008E+02 -0.41532586387E+01 -0.31821439042E+02  0.54760646165E+02  0.00000000000E+00 0.  1.
         12    1    6    6    0    0  0.79412780579E+02 -0.12434299026E+03 -0.18696292955E+03  0.23816529128E+03  0.00000000000E+00 0. -1.
         -5    1    3    3    0  503 -0.69721487408E+02 -0.10743616350E+02 -0.16692001243E+02  0.72644504295E+02  0.47000000000E+01 0.  1.
         13    1    4    4    0    0 -0.91392295126E+01  0.86235541759E+02 -0.34129187610E+02  0.93192787411E+02  0.00000000000E+00 0. -1.
        -14    1    4    4    0    0 -0.16568190991E+02  0.42789987321E+02  0.42456582109E+02  0.62514392999E+02  0.00000000000E+00 0.  1.
</event>
<event>
12    1  0.8258923E-002  0.2116654E+03  0.7818608E-02  0.1140347E+00
         21   -1    0    0  503  502  0.00000000000E+00  0.00000000000E+00  0.52880655664E+02  0.52880655664E+02  0.00000000000E+00 0.  1.
         21   -1    0    0  501  503 -0.00000000000E+00 -0.00000000000E+00 -0.10187228872E+04  0.10187228872E+04  0.00000000000E+00 0. -1.
          6    2    1    2  501    0 -0.10931514929E+03  0.56283647063E+02 -0.70442258596E+03  0.73553613595E+03  0.17229212662E+03 0.  0.
         24    2    3    3    0    0 -0.61771196682E+02 -0.51850803096E+00 -0.18172675730E+03  0.20759681032E+03  0.79094068972E+02 0.  0.
         -6    2    1    2    0  502  0.10931514929E+03 -0.56283647063E+02 -0.26141964561E+03  0.33606740695E+03  0.17170736766E+03 0.  0.
        -24    2    5    5    0    0  0.11840414185E+03 -0.31826063428E+02 -0.11238706090E+03  0.18469506968E+03  0.80305530228E+02 0.  0.
          5    1    3    3  501    0 -0.47543952603E+02  0.56802155094E+02 -0.52269582866E+03  0.52793932563E+03  0.47000000000E+01 0. -1.
        -11    1    4    4    0    0  0.99365513812E+01 -0.19228928700E+02 -0.72040068060E+02  0.75221394286E+02  0.00000000000E+00 0.  1.
         12    1    4    4    0    0 -0.71707748063E+02  0.18710420669E+02 -0.10968668924E+03  0.13237541603E+03  0.00000000000E+00 0. -1.
         -5    1    5    5    0  502 -0.90889925678E+01 -0.24457583634E+02 -0.14903258471E+03  0.15137233726E+03  0.47000000000E+01 0.  1.
         13    1    6    6    0    0 -0.33724554436E+01  0.98295292913E+01 -0.30322758078E+02  0.32054059949E+02  0.00000000000E+00 0. -1.
        -14    1    6    6    0    0  0.12177659730E+03 -0.41655592719E+02 -0.82064302826E+02  0.15264100973E+03  0.00000000000E+00 0.  1.
</event>
<event>
12    1  0.8258923E-002  0.2207695E+03  0.7818608E-02  0.1133571E+00
         21   -1    0    0  503  502  0.00000000000E+00  0.00000000000E+00  0.10330457810E+03  0.10330457810E+03  0.00000000000E+00 0. -1.
         21   -1    0    0  501  503 -0.00000000000E+00 -0.00000000000E+00 -0.11209612100E+04  0.11209612100E+04  0.00000000000E+00 0. -1.
          6    2    1    2  501    0 -0.46015700853E+02 -0.12848621274E+03 -0.97640071828E+03  0.10010482134E+04  0.17353100987E+03 0.  0.
         24    2    3    3    0    0  0.85362299660E+01 -0.66773215668E+02 -0.25401031693E+03  0.27396198119E+03  0.77475134587E+02 0.  0.
         -6    2    1    2    0  502  0.46015700853E+02  0.12848621274E+03 -0.41255913617E+02  0.22321757465E+03  0.17174947928E+03 0.  0.
        -24    2    5    5    0    0  0.64057568158E+02  0.82611457240E+02  0.30998840205E+02  0.13562281671E+03  0.80651071990E+02 0.  0.
          5    1    3    3  501    0 -0.54551930819E+02 -0.61712997077E+02 -0.72239040135E+03  0.72708623225E+03  0.47000000000E+01 0. -1.
        -13    1    4    4    0    0  0.25526528862E+02  0.98312189384E-01 -0.29114362030E+02  0.38720271402E+02  0.00000000000E+00 0.  1.
         14    1    4    4    0    0 -0.16990298896E+02 -0.66871527857E+02 -0.22489595490E+03  0.23524170979E+03  0.00000000000E+00 0. -1.
         -5    1    5    5    0  502 -0.18041867306E+02  0.45874755505E+02 -0.72254753823E+02  0.87594757940E+02  0.47000000000E+01 0.  1.
         13    1    6    6    0    0 -0.19175876088E+02  0.21264194939E+02  0.65868245096E+01  0.29381396619E+02  0.00000000000E+00 0. -1.
        -14    1    6    6    0    0  0.83233444247E+02  0.61347262301E+02  0.24412015696E+02  0.10624142009E+03  0.00000000000E+00 0.  1.
</event>
<event>
12    1  0.8258923E-002  0.1826015E+03  0.7818608E-02  0.1167181E+00
         21   -1    0    0  503  502  0.00000000000E+00  0.00000000000E+00  0.72646569382E+02  0.72646569382E+02  0.00000000000E+00 0. -1.
         21   -1    0    0  501  503 -0.00000000000E+00 -0.00000000000E+00 -0.81450155093E+03  0.81450155093E+03  0.00000000000E+00 0.  1.
          6    2    1    2  501    0  0.19904101206E+01 -0.35201971155E+02 -0.66742421772E+03  0.68995974360E+03  0.17130738713E+03 0.  0.
         24    2    3    3    0    0 -0.46747408160E+02  0.27285518314E+02 -0.42702555674E+03  0.43679247188E+03  0.74209283115E+02 0.  0.
         -6    2    1    2    0  502 -0.19904101206E+01  0.35201971155E+02 -0.74430763828E+02  0.19718837671E+03  0.17916522207E+03 0.  0.
        -24    2    5    5    0    0 -0.54983117046E+02 -0.19138331300E+02 -0.66271016869E+02  0.12070460766E+03  0.82391357239E+02 0.  0.
          5    1    3    3  501    0  0.48737818281E+02 -0.62487489469E+02 -0.24039866098E+03  0.25316727172E+03  0.47000000000E+01 0. -1.
        -13    1    4    4    0    0 -0.63875362882E+02  0.35243760165E+02 -0.33626978172E+03  0.34409235782E+03  0.00000000000E+00 0.  1.
         14    1    4    4    0    0  0.17127954722E+02 -0.79582418510E+01 -0.90755775027E+02  0.92700114062E+02  0.00000000000E+00 0. -1.
         -5    1    5    5    0  502  0.52992706926E+02  0.54340302455E+02 -0.81597469587E+01  0.76483769054E+02  0.47000000000E+01 0.  1.
         11    1    6    6    0    0  0.14939154490E+02  0.16406121052E+02 -0.11126516658E+02  0.24822137656E+02  0.00000000000E+00 0. -1.
        -12    1    6    6    0    0 -0.69922271537E+02 -0.35544452352E+02 -0.55144500211E+02  0.95882470001E+02  0.00000000000E+00 0.  1.
</event>
<event>
12    1  0.8258923E-002  0.1731814E+03  0.7818608E-02  0.1174617E+00
         21   -1    0    0  503  502  0.00000000000E+00  0.00000000000E+00  0.77994270878E+02  0.77994270878E+02  0.00000000000E+00 0.  1.
         21   -1    0    0  501  503 -0.00000000000E+00 -0.00000000000E+00 -0.44149668225E+03  0.44149668225E+03  0.00000000000E+00 0.  1.
          6    2    1    2  501    0  0.11710192782E+02  0.15072698576E+02 -0.27546075492E+03  0.32537734393E+03  0.17212633032E+03 0.  0.
         24    2    3    3    0    0  0.69531797089E+02 -0.52243064724E+01 -0.13260414260E+03  0.16986075954E+03  0.80042831113E+02 0.  0.
         -6    2    1    2    0  502 -0.11710192782E+02 -0.15072698576E+02 -0.88041656455E+02  0.19411360919E+03  0.17194314510E+03 0.  0.
        -24    2    5    5    0    0 -0.68864791045E+02  0.13914117179E+02 -0.73199759644E+02  0.12816472375E+03  0.78307276164E+02 0.  0.
          5    1    3    3  501    0 -0.57821604306E+02  0.20297005049E+02 -0.14285661232E+03  0.15551658439E+03  0.47000000000E+01 0. -1.
        -13    1    4    4    0    0  0.23073350405E+02 -0.40675567480E+02 -0.70349579753E+02  0.84474520775E+02  0.00000000000E+00 0.  1.
         14    1    4    4    0    0  0.46458446684E+02  0.35451261008E+02 -0.62254562846E+02  0.85386238765E+02  0.00000000000E+00 0. -1.
         -5    1    5    5    0  502  0.57154598262E+02 -0.28986815755E+02 -0.14841896811E+02  0.65948885442E+02  0.47000000000E+01 0.  1.
         11    1    6    6    0    0  0.16743192971E+02 -0.50111085184E+01 -0.13699907945E+02  0.22206602557E+02  0.00000000000E+00 0. -1.
        -12    1    6    6    0    0 -0.85607984016E+02  0.18925225697E+02 -0.59499851699E+02  0.10595812119E+03  0.00000000000E+00 0.  1.
</event>
<event>
12    1  0.8258923E-002  0.1851005E+03  0.7818608E-02  0.1163202E+00
         21   -1    0    0  503  502  0.00000000000E+00  0.00000000000E+00  0.54041693415E+02  0.54041693415E+02  0.00000000000E+00 0.  1.
         21   -1    0    0  501  503 -0.00000000000E+00 -0.00000000000E+00 -0.69232107884E+03  0.69232107884E+03  0.00000000000E+00 0.  1.
          6    2    1    2  501    0  0.31101146669E+01 -0.66994365411E+02 -0.42991983769E+03  0.46765879959E+03  0.17139360600E+03 0.  0.
         24    2    3    3    0    0 -0.37350755164E+02 -0.94033300373E+02 -0.24327108694E+03  0.27471312809E+03  0.77776220750E+02 0.  0.
         -6    2    1    2    0  502 -0.31101146669E+01  0.66994365411E+02 -0.20835954773E+03  0.27870397267E+03  0.17252328956E+03 0.  0.
        -24    2    5    5    0    0 -0.64353435446E+02  0.22007305546E+02 -0.15098657031E+03  0.18337124778E+03  0.78755215377E+02 0.  0.
          5    1    3    3  501    0  0.40460869831E+02  0.27038934962E+02 -0.18664875075E+03  0.19294567149E+03  0.47000000000E+01 0. -1.
        -11    1    4    4    0    0 -0.17426174991E+02 -0.74353443073E+02 -0.23247819666E+03  0.24470026154E+03  0.00000000000E+00 0.  1.
         12    1    4    4    0    0 -0.19924580173E+02 -0.19679857301E+02 -0.10792890279E+02  0.30012866558E+02  0.00000000000E+00 0. -1.
         -5    1    5    5    0  502  0.61243320779E+02  0.44987059865E+02 -0.57372977423E+02  0.95332724883E+02  0.47000000000E+01 0.  1.
         11    1    6    6    0    0 -0.25062466349E+02 -0.11085279362E+02 -0.12062630654E+03  0.12370010698E+03  0.00000000000E+00 0. -1.
        -12    1    6    6    0    0 -0.39290969097E+02  0.33092584908E+02 -0.30360263770E+02  0.59671140802E+02  0.00000000000E+00 0.  1.
</event>
<event>
12    1  0.8258923E-002  0.1750784E+03  0.7818608E-02  0.1172659E+00
         21   -1    0    0  501  502  0.00000000000E+00  0.00000000000E+00  0.81976062275E+03  0.81976062275E+03  0.00000000000E+00 0. -1.
         21   -1    0    0  502  503 -0.00000000000E+00 -0.00000000000E+00 -0.81384533095E+02  0.81384533095E+02  0.00000000000E+00 0. -1.
         -6    2    1    2    0  503 -0.11716067546E+02  0.29088174177E+02  0.37909221270E+02  0.17913558689E+03  0.17224709378E+03 0.  0.
        -24    2    3    3    0    0  0.53916751756E+02  0.47880245018E+02  0.36213485602E+02  0.11068287025E+03  0.75761119603E+02 0.  0.
          6    2    1    2  501    0  0.11716067546E+02 -0.29088174177E+02  0.70046686839E+03  0.72200956896E+03  0.17222251841E+03 0.  0.
         24    2    5    5    0    0  0.17144305440E+02 -0.61269706937E+02  0.24439162393E+03  0.26474396188E+03  0.79461911035E+02 0.  0.
          5    1    5    5  501    0 -0.54282378943E+01  0.32181532760E+02  0.45607524445E+03  0.45726560708E+03  0.47000000000E+01 0. -1.
        -11    1    6    6    0    0  0.27347147639E+02  0.99211426749E+01  0.86066533187E+02  0.90850116625E+02  0.00000000000E+00 0.  1.
         12    1    6    6    0    0 -0.10202842198E+02 -0.71190849612E+02  0.15832509075E+03  0.17389384525E+03  0.00000000000E+00 0. -1.
         -5    1    3    3    0  503 -0.65632819302E+02 -0.18792070841E+02  0.16957356683E+01  0.68452716640E+02  0.47000000000E+01 0.  1.
         11    1    4    4    0    0  0.57801474453E+02  0.57656948355E+01  0.53671895723E+01  0.58335755843E+02  0.00000000000E+00 0. -1.
        -12    1    4    4    0    0 -0.38847226976E+01  0.42114550183E+02  0.30846296030E+02  0.52347114403E+02  0.00000000000E+00 0.  1.
</event>
<event>
12    1  0.8258923E-002  0.2579695E+03  0.7818608E-02  0.1108770E+00
         21   -1    0    0  501  502  0.00000000000E+00  0.00000000000E+00  0.96956340897E+02  0.96956340897E+02  0.00000000000E+00 0.  1.
         21   -1    0    0  502  503 -0.00000000000E+00 -0.00000000000E+00 -0.68575364450E+03  0.68575364450E+03  0.00000000000E+00 0. -1.
         -6    2    1    2    0  503 -0.18619161315E+03 -0.27802359934E+02 -0.25522547101E+03  0.36102474520E+03  0.17250663051E+03 0.  0.
        -24    2    3    3    0    0 -0.18300522365E+03  0.15884592431E+02 -0.15893621986E+03  0.25513606416E+03  0.78041380646E+02 0.  0.
          6    2    1    2  501    0  0.18619161315E+03  0.27802359934E+02 -0.33357183259E+03  0.42168524019E+03  0.17637456244E+03 0.  0.
         24    2    5    5    0    0  0.87062025186E+02  0.43622226418E+02 -0.28177606624E+03  0.30862846332E+03  0.79819057880E+02 0.  0.
          5    1    5    5  501    0  0.99129587960E+02 -0.15819866484E+02 -0.51795766351E+02  0.11305677687E+03  0.47000000000E+01 0. -1.
        -13    1    6    6    0    0  0.25315670021E+02  0.28412922952E+02 -0.28642934535E+02  0.47629770502E+02  0.00000000000E+00 0.  1.
         14    1    6    6    0    0  0.61746355165E+02  0.15209303466E+02 -0.25313313170E+03  0.26099869282E+03  0.00000000000E+00 0. -1.
         -5    1    3    3    0  503 -0.31863894976E+01 -0.43686952364E+02 -0.96289251153E+02  0.10588868104E+03  0.47000000000E+01 0.  1.
         13    1    4    4    0    0 -0.50234459434E+02 -0.27379289724E+02 -0.66248546031E+02  0.87532829679E+02  0.00000000000E+00 0. -1.
        -14    1    4    4    0    0 -0.13277076421E+03  0.43263882154E+02 -0.92687673831E+02  0.16760323448E+03  0.00000000000E+00 0.  1.
</event>
<event>
12    1  0.8258923E-002  0.1979373E+03  0.7818608E-02  0.1151931E+00
         21   -1    0    0  503  502  0.00000000000E+00  0.00000000000E+00  0.37350366209E+02  0.37350366209E+02  0.00000000000E+00 0. -1.
         21   -1    0    0  501  503 -0.00000000000E+00 -0.00000000000E+00 -0.15221418620E+04  0.15221418620E+04  0.00000000000E+00 0. -1.
          6    2    1    2  501    0 -0.98424220316E+02  0.81984539897E+00 -0.11847070239E+04  0.12011285950E+04  0.17172993322E+03 0.  0.
         24    2    3    3    0    0 -0.22123401292E+02 -0.15060298147E+02 -0.23100143429E+03  0.24423234378E+03  0.74642599375E+02 0.  0.
         -6    2    1    2    0  502  0.98424220316E+02 -0.81984539897E+00 -0.30008447189E+03  0.35836363321E+03  0.16936884024E+03 0.  0.
        -24    2    5    5    0    0  0.57948896053E+02  0.13350167504E+02 -0.55634853061E+02  0.11013642421E+03  0.74151827599E+02 0.  0.
          5    1    3    3  501    0 -0.76300819024E+02  0.15880143546E+02 -0.95370558957E+03  0.95689625118E+03  0.47000000000E+01 0. -1.
        -13    1    4    4    0    0  0.20907543585E+02  0.11835488010E+02 -0.11708813443E+03  0.11952755072E+03  0.00000000000E+00 0.  1.
         14    1    4    4    0    0 -0.43030944877E+02 -0.26895786156E+02 -0.11391329986E+03  0.12470479307E+03  0.00000000000E+00 0. -1.
         -5    1    5    5    0  502  0.40475324264E+02 -0.14170012903E+02 -0.24444961883E+03  0.24822720900E+03  0.47000000000E+01 0.  1.
         13    1    6    6    0    0  0.74034340499E+02  0.65945068515E+01 -0.55375935428E+02  0.92687999861E+02  0.00000000000E+00 0. -1.
        -14    1    6    6    0    0 -0.16085444446E+02  0.67556606524E+01 -0.25891763263E+00  0.17448424348E+02  0.00000000000E+00 0.  1.
</event>
<event>
12    1  0.8258923E-002  0.1843453E+03  0.7818608E-02  0.1163970E+00
         21   -1    0    0  501  502  0.00000000000E+00  0.00000000000E+00  0.82188260080E+03  0.82188260080E+03  0.00000000000E+00 0. -1.
         21   -1    0    0  502  503 -0.00000000000E+00 -0.00000000000E+00 -0.22952623285E+03  0.22952623285E+03  0.00000000000E+00 0. -1.
         -6    2    1    2    0  503 -0.57461772288E+02  0.25838243356E+02 -0.18038174591E+03  0.25698616205E+03  0.17185704272E+03 0.  0.
        -24    2    3    3    0    0  0.28172450455E+02  0.41885092575E+02 -0.97219965452E+02  0.13645113310E+03  0.81358110205E+02 0.  0.
          6    2    1    2  501    0  0.57461772288E+02 -0.25838243356E+02  0.77273811386E+03  0.79442267160E+03  0.17324467799E+03 0.  0.
         24    2    5    5    0    0  0.72538956958E+02  0.20832090066E+02  0.26869908922E+03  0.28798129308E+03  0.70979915216E+02 0.  0.
          5    1    5    5  501    0 -0.15077184670E+02 -0.46670333422E+02  0.50403902464E+03  0.50644137852E+03  0.47000000000E+01 0. -1.
        -13    1    6    6    0    0  0.24023778262E+01  0.15855052516E+02  0.79120215706E+01  0.17881672037E+02  0.00000000000E+00 0.  1.
         14    1    6    6    0    0  0.70136579131E+02  0.49770375497E+01  0.26078706765E+03  0.27009962104E+03  0.00000000000E+00 0. -1.
         -5    1    3    3    0  503 -0.85634222743E+02 -0.16046849219E+02 -0.83161780463E+02  0.12053502895E+03  0.47000000000E+01 0.  1.
         11    1    4    4    0    0 -0.16658433551E+02  0.45369699642E+02 -0.34955067063E+02  0.59647043241E+02  0.00000000000E+00 0. -1.
        -12    1    4    4    0    0  0.44830884006E+02 -0.34846070673E+01 -0.62264898390E+02  0.76804089856E+02  0.00000000000E+00 0.  1.
</event>
<event>
12    1  0.8258923E-002  0.2230137E+03  0.7818608E-02  0.1132346E+00
         21   -1    0    0  503  502  0.00000000000E+00  0.00000000000E+00  0.19987249077E+03  0.19987249077E+03  0.00000000000E+00 0. -1.
         21   -1    0    0  501  503 -0.00000000000E+00 -0.00000000000E+00 -0.28710319708E+03  0.28710319708E+03  0.00000000000E+00 0.  1.
          6    2    1    2  501    0  0.89172752283E+02  0.10968887865E+03 -0.13751694211E+03  0.26200382837E+03  0.17248671504E+03 0.  0.
         24    2    3    3    0    0  0.98188723549E+02  0.96442311890E+02 -0.16582895294E+03  0.22913409721E+03  0.77852732237E+02 0.  0.
         -6    2    1    2    0  502 -0.89172752283E+02 -0.10968887865E+03  0.50286235793E+02  0.22497185948E+03  0.16763114925E+03 0.  0.
        -24    2    5    5    0    0 -0.28119241743E+02 -0.50950364661E+01  0.61622479672E+02  0.10324263786E+03  0.77749991112E+02 0.  0.
          5    1    3    3  501    0 -0.90159712653E+01  0.13246566759E+02  0.28312010838E+02  0.32869731159E+02  0.47000000000E+01 0. -1.
        -13    1    4    4    0    0  0.16394281294E+02  0.59767394712E+02 -0.10103466551E+03  0.11852812984E+03  0.00000000000E+00 0.  1.
         14    1    4    4    0    0  0.81794442255E+02  0.36674917178E+02 -0.64794287437E+02  0.11060596737E+03  0.00000000000E+00 0. -1.
         -5    1    5    5    0  502 -0.61053510540E+02 -0.10459384218E+03 -0.11336243879E+02  0.12172922162E+03  0.47000000000E+01 0.  1.
         11    1    6    6    0    0 -0.47557482002E+02  0.16839665214E+02  0.51859048879E+02  0.72350876771E+02  0.00000000000E+00 0. -1.
        -12    1    6    6    0    0  0.19438240259E+02 -0.21934701680E+02  0.97634307926E+01  0.30891761086E+02  0.00000000000E+00 0.  1.
</event>
<event>
12    1  0.8258923E-002  0.1822822E+03  0.7818608E-02  0.1165638E+00
         21   -1    0    0  501  502  0.00000000000E+00  0.00000000000E+00  0.20608674165E+04  0.20608674165E+04  0.00000000000E+00 0. -1.
         21   -1    0    0  502  503 -0.00000000000E+00 -0.00000000000E+00 -0.40652056850E+02  0.40652056850E+02  0.00000000000E+00 0. -1.
         -6    2    1    2    0  503 -0.29884363235E+02  0.52241102205E+02  0.19385239243E+03  0.26609315379E+03  0.17205989805E+03 0.  0.
        -24    2    3    3    0    0  0.33513316850E+02  0.74574526464E+02  0.11439299377E+03  0.16191093979E+03  0.80280090902E+02 0.  0.
          6    2    1    2  501    0  0.29884363235E+02 -0.52241102205E+02  0.18263629672E+04  0.18354263196E+04  0.17194731337E+03 0.  0.
         24    2    5    5    0    0  0.30139522155E+02 -0.89996382124E+02  0.16657946462E+04  0.16704117688E+04  0.79974584944E+02 0.  0.
          5    1    5    5  501    0 -0.25515891927E+00  0.37755279919E+02  0.16056832100E+03  0.16501455080E+03  0.47000000000E+01 0. -1.
        -11    1    6    6    0    0 -0.24189692225E+02 -0.41069666325E+02  0.85492189681E+03  0.85624955961E+03  0.00000000000E+00 0.  1.
         12    1    6    6    0    0  0.54329214380E+02 -0.48926715799E+02  0.81087274943E+03  0.81416220916E+03  0.00000000000E+00 0. -1.
         -5    1    3    3    0  503 -0.63397680085E+02 -0.22333424259E+02  0.79459398661E+02  0.10418221400E+03  0.47000000000E+01 0.  1.
         11    1    4    4    0    0  0.55340662716E+01  0.32368392943E+02 -0.40600602872E+01  0.33088107241E+02  0.00000000000E+00 0. -1.
        -12    1    4    4    0    0  0.27979250578E+02  0.42206133521E+02  0.11845305406E+03  0.12882283254E+03  0.00000000000E+00 0.  1.
</event>
<event>
12    1  0.8258923E-002  0.1904938E+03  0.7818608E-02  0.1158544E+00
         21   -1    0    0  501  502  0.00000000000E+00  0.00000000000E+00  0.10678252173E+03  0.10678252173E+03  0.00000000000E+00 0. -1.
         21   -1    0    0  502  503 -0.00000000000E+00 -0.00000000000E+00 -0.35039650651E+03  0.35039650651E+03  0.00000000000E+00 0. -1.
         -6    2    1    2    0  503 -0.22186797955E+02 -0.73412898858E+02 -0.16792972359E+03  0.25220098510E+03  0.17182327286E+03 0.  0.
        -24    2    3    3    0    0 -0.78772792251E+01 -0.10156208085E+03 -0.17733893924E+03  0.21891792465E+03  0.78096418397E+02 0.  0.
          6    2    1    2  501    0  0.22186797955E+02  0.73412898858E+02 -0.75684261193E+02  0.20497804314E+03  0.17437368797E+03 0.  0.
         24    2    5    5    0    0  0.46721498811E+00 -0.11409393974E+02 -0.30689735654E+02  0.10642268320E+03  0.10125974059E+03 0.  0.
          5    1    5    5  501    0  0.21719582967E+02  0.84822292832E+02 -0.44994525539E+02  0.98555359945E+02  0.47000000000E+01 0. -1.
        -13    1    6    6    0    0  0.41014433283E+02 -0.33174426547E+02 -0.32680053489E+01  0.52852683690E+02  0.00000000000E+00 0.  1.
         14    1    6    6    0    0 -0.40547218295E+02  0.21765032573E+02 -0.27421730305E+02  0.53569999508E+02  0.00000000000E+00 0. -1.
         -5    1    3    3    0  503 -0.14309518730E+02  0.28149181995E+02  0.94092156566E+01  0.33283060444E+02  0.47000000000E+01 0.  1.
         13    1    4    4    0    0 -0.25867206237E+02 -0.94910390080E+02 -0.10417341563E+03  0.14328012782E+03  0.00000000000E+00 0. -1.
        -14    1    4    4    0    0  0.17989927011E+02 -0.66516907720E+01 -0.73165523614E+02  0.75637796833E+02  0.00000000000E+00 0.  1.
</event>
<event>
12    1  0.8258923E-002  0.1949930E+03  0.7818608E-02  0.1154296E+00
         21   -1    0    0  501  502  0.00000000000E+00  0.00000000000E+00  0.30240449778E+03  0.30240449778E+03  0.00000000000E+00 0.  1.
         21   -1    0    0  502  503 -0.00000000000E+00 -0.00000000000E+00 -0.20318807267E+03  0.20318807267E+03  0.00000000000E+00 0. -1.
         -6    2    1    2    0  503 -0.84606585559E+02  0.34639710068E+02 -0.10715425534E+03  0.22249562725E+03  0.17223265043E+03 0.  0.
        -24    2    3    3    0    0 -0.10728070430E+03  0.69726140833E+00 -0.32941431690E+02  0.13766733789E+03  0.79734072460E+02 0.  0.
          6    2    1    2  501    0  0.84606585559E+02 -0.34639710068E+02  0.20637068045E+03  0.28309694320E+03  0.17087082157E+03 0.  0.
         24    2    5    5    0    0  0.32857848988E+01  0.25165255351E+02  0.12005330178E+03  0.15019665588E+03  0.86614973936E+02 0.  0.
          5    1    5    5  501    0  0.81320800660E+02 -0.59804965419E+02  0.86317378676E+02  0.13290028732E+03  0.47000000000E+01 0. -1.
        -13    1    6    6    0    0  0.32340549485E+02  0.18624717327E+02  0.11380290428E+03  0.11976598957E+03  0.00000000000E+00 0.  1.
         14    1    6    6    0    0 -0.29054764586E+02  0.65405380240E+01  0.62503974991E+01  0.30430666304E+02  0.00000000000E+00 0. -1.
         -5    1    3    3    0  503  0.22674118742E+02  0.33942448660E+02 -0.74212823653E+02  0.84828289363E+02  0.47000000000E+01 0.  1.
         11    1    4    4    0    0 -0.16872899710E+02 -0.32658496400E+02 -0.14706913466E+02  0.39592492160E+02  0.00000000000E+00 0. -1.
        -12    1    4    4    0    0 -0.90407804591E+02  0.33355757809E+02 -0.18234518223E+02  0.98074845729E+02  0.00000000000E+00 0.  1.
</event>
<event>
12    1  0.8258923E-002  0.1789451E+03  0.7818608E-02  0.1169365E+00
         21   -1    0    0  501  502  0.00000000000E+00  0.00000000000E+00  0.13332048884E+03  0.13332048884E+03  0.00000000000E+00 0. -1.
         21   -1    0    0  502  503 -0.00000000000E+00 -0.00000000000E+00 -0.27153871669E+03  0.27153871669E+03  0.00000000000E+00 0. -1.
         -6    2    1    2    0  503 -0.16331489828E+02  0.38371772309E+02 -0.14066331025E+03  0.22589738163E+03  0.17176830239E+03 0.  0.
        -24    2    3    3    0    0 -0.57313598960E+02  0.30617762753E+02 -0.15116407669E+03  0.18263060420E+03  0.79253160728E+02 0.  0.
          6    2    1    2  501    0  0.16331489828E+02 -0.38371772309E+02  0.24450824017E+01  0.17896182390E+03  0.17401794596E+03 0.  0.
         24    2    5    5    0    0  0.11726614158E+01  0.33683085903E+02  0.33847686106E+02  0.98775128056E+02  0.86457704440E+02 0.  0.
          5    1    5    5  501    0  0.15158828412E+02 -0.72054858212E+02 -0.31402603704E+02  0.80186695843E+02  0.47000000000E+01 0. -1.
        -13    1    6    6    0    0 -0.30688290604E+02  0.46057056307E+02  0.79938855719E+01  0.55918921864E+02  0.00000000000E+00 0.  1.
         14    1    6    6    0    0  0.31860952020E+02 -0.12373970404E+02  0.25853800534E+02  0.42856206193E+02  0.00000000000E+00 0. -1.
         -5    1    3    3    0  503  0.40982109132E+02  0.77540095567E+01  0.10500766444E+02  0.43266777428E+02  0.47000000000E+01 0.  1.
         11    1    4    4    0    0 -0.19853690954E+02 -0.18782146153E+02 -0.11173134126E+02  0.29525869756E+02  0.00000000000E+00 0. -1.
        -12    1    4    4    0    0 -0.37459908005E+02  0.49399908906E+02 -0.13999094257E+03  0.15310473444E+03  0.00000000000E+00 0.  1.
</event>
<event>
12    1  0.8258923E-002  0.2208060E+03  0.7818608E-02  0.1133319E+00
         21   -1    0    0  501  502  0.00000000000E+00  0.00000000000E+00  0.92752062188E+02  0.92752062188E+02  0.00000000000E+00 0.  1.
         21   -1    0    0  502  503 -0.00000000000E+00 -0.00000000000E+00 -0.61085169465E+03  0.61085169465E+03  0.00000000000E+00 0. -1.
         -6    2    1    2    0  503 -0.13879589254E+03  0.94061484132E+00 -0.39069094663E+03  0.44867581112E+03  0.17147997889E+03 0.  0.
        -24    2    3    3    0    0 -0.15033269662E+03  0.43349350934E+02 -0.29825442884E+03  0.34621509393E+03  0.80187910817E+02 0.  0.
          6    2    1    2  501    0  0.13879589254E+03 -0.94061484132E+00 -0.12740868583E+03  0.25492794572E+03  0.17172681719E+03 0.  0.
         24    2    5    5    0    0  0.13561227449E+01 -0.13695873762E+02 -0.27680700846E+02  0.84574935947E+02  0.78722821113E+02 0.  0.
          5    1    5    5  501    0  0.13743976979E+03  0.12755258921E+02 -0.99727984985E+02  0.17035300977E+03  0.47000000000E+01 0. -1.
        -13    1    6    6    0    0  0.24061135911E+02 -0.23011224500E+02  0.14070823199E+02  0.36144747610E+02  0.00000000000E+00 0.  1.
         14    1    6    6    0    0 -0.22705013166E+02  0.93153507377E+01 -0.41751524045E+02  0.48430188337E+02  0.00000000000E+00 0. -1.
         -5    1    3    3    0  503  0.11536804084E+02 -0.42408736092E+02 -0.92436517793E+02  0.10246071719E+03  0.47000000000E+01 0.  1.
         13    1    4    4    0    0 -0.87345291330E+02  0.73995732216E+01 -0.23190607410E+03  0.24792010972E+03  0.00000000000E+00 0. -1.
        -14    1    4    4    0    0 -0.62987405290E+02  0.35949777712E+02 -0.66348354739E+02  0.98294984202E+02  0.00000000000E+00 0.  1.
</event>
<event>
12    1  0.8258923E-002  0.2006935E+03  0.7818608E-02  0.1149310E+00
         21   -1    0    0  501  502  0.00000000000E+00  0.00000000000E+00  0.73861031961E+03  0.73861031961E+03  0.00000000000E+00 0. -1.
         21   -1    0    0  502  503 -0.00000000000E+00 -0.00000000000E+00 -0.10261943028E+03  0.10261943028E+03  0.00000000000E+00 0. -1.
         -6    2    1    2    0  503  0.65641991689E+01  0.10213233355E+03  0.29157965531E+02  0.20207085460E+03  0.17177992042E+03 0.  0.
        -24    2    3    3    0    0  0.16834375765E+02 -0.16235123315E+02  0.59201999333E+01  0.80916345313E+02  0.77236200937E+02 0.  0.
          6    2    1    2  501    0 -0.65641991689E+01 -0.10213233355E+03  0.60683292380E+03  0.63915889528E+03  0.17263775297E+03 0.  0.
         24    2    5    5    0    0  0.27975167340E+02 -0.11702143481E+03  0.56327701873E+03  0.58141930712E+03  0.79314466936E+02 0.  0.
          5    1    5    5  501    0 -0.34539366509E+02  0.14889101269E+02  0.43555905069E+02  0.57739588168E+02  0.47000000000E+01 0. -1.
        -13    1    6    6    0    0  0.12956807033E+02 -0.92501124098E+01  0.23581573162E+03  0.23635249672E+03  0.00000000000E+00 0.  1.
         14    1    6    6    0    0  0.15018360307E+02 -0.10777132240E+03  0.32746128711E+03  0.34506681039E+03  0.00000000000E+00 0. -1.
         -5    1    3    3    0  503 -0.10270176596E+02  0.11836745686E+03  0.23237765598E+02  0.12115450929E+03  0.47000000000E+01 0.  1.
         13    1    4    4    0    0 -0.19999889341E+02 -0.63961039424E+01 -0.24409422227E+02  0.32198223751E+02  0.00000000000E+00 0. -1.
        -14    1    4    4    0    0  0.36834265105E+02 -0.98390193722E+01  0.30329622161E+02  0.48718121561E+02  0.00000000000E+00 0.  1.
</event>
<event>
12    1  0.8258923E-002  0.1740331E+03  0.7818608E-02  0.1174240E+00
         21   -1    0    0  501  502  0.00000000000E+00  0.00000000000E+00  0.54921297905E+03  0.54921297905E+03  0.00000000000E+00 0. -1.
         21   -1    0    0  502  503 -0.00000000000E+00 -0.00000000000E+00 -0.11138077288E+03  0.11138077288E+03  0.00000000000E+00 0. -1.
         -6    2    1    2    0  503  0.14558936657E+02 -0.18058839653E+01 -0.16503263736E+02  0.17481379804E+03  0.17341361659E+03 0.  0.
        -24    2    3    3    0    0 -0.11436658337E+02 -0.59735866775E+02  0.18067542547E+02  0.10236461230E+03  0.80329987079E+02 0.  0.
          6    2    1    2  501    0 -0.14558936657E+02  0.18058839653E+01  0.45433546990E+03  0.48577995390E+03  0.17130738613E+03 0.  0.
         24    2    5    5    0    0 -0.55674095400E+02  0.48657476809E+02  0.29239971374E+03  0.31219767614E+03  0.80638957325E+02 0.  0.
          5    1    5    5  501    0  0.41115158743E+02 -0.46851592843E+02  0.16193575616E+03  0.17358227776E+03  0.47000000000E+01 0. -1.
        -11    1    6    6    0    0  0.19708300313E+02  0.18768193494E+02  0.94142487121E+02  0.97997296237E+02  0.00000000000E+00 0.  1.
         12    1    6    6    0    0 -0.75382395713E+02  0.29889283314E+02  0.19825722662E+03  0.21420037990E+03  0.00000000000E+00 0. -1.
         -5    1    3    3    0  503  0.25995594994E+02  0.57929982809E+02 -0.34570806283E+02  0.72449185740E+02  0.47000000000E+01 0.  1.
         13    1    4    4    0    0 -0.13877557705E+02 -0.30379358977E+02 -0.30716722819E+02  0.45376305716E+02  0.00000000000E+00 0. -1.
        -14    1    4    4    0    0  0.24408993680E+01 -0.29356507798E+02  0.48784265366E+02  0.56988306582E+02  0.00000000000E+00 0.  1.
</event>
<event>
12    1  0.8258923E-002  0.1949797E+03  0.7818608E-02  0.1154825E+00
         21   -1    0    0  501  502  0.00000000000E+00  0.00000000000E+00  0.95002325464E+02  0.95002325464E+02  0.00000000000E+00 0. -1.
         21   -1    0    0  502  503 -0.00000000000E+00 -0.00000000000E+00 -0.95777021649E+03  0.95777021649E+03  0.00000000000E+00 0. -1.
         -6    2    1    2    0  503  0.75470719462E+02  0.38217061204E+02 -0.83723804069E+03  0.85964215479E+03  0.17567220683E+03 0.  0.
        -24    2    3    3    0    0 -0.71812469979E+01 -0.24766911247E+01 -0.59669941556E+03  0.60202179609E+03  0.79513182110E+02 0.  0.
          6    2    1    2  501    0 -0.75470719462E+02 -0.38217061204E+02 -0.25529850334E+02  0.19313038716E+03  0.17173002045E+03 0.  0.
         24    2    5    5    0    0 -0.31553538490E+02 -0.40450071559E+02 -0.79651739853E+02  0.12323779782E+03  0.78811934816E+02 0.  0.
          5    1    5    5  501    0 -0.43917180972E+02  0.22330103550E+01  0.54121889519E+02  0.69892589342E+02  0.47000000000E+01 0. -1.
        -11    1    6    6    0    0 -0.66275216854E+01  0.12596822187E+02 -0.59623583636E+02  0.61299067681E+02  0.00000000000E+00 0.  1.
         12    1    6    6    0    0 -0.24926016805E+02 -0.53046893745E+02 -0.20028156216E+02  0.61938730139E+02  0.00000000000E+00 0. -1.
         -5    1    3    3    0  503  0.82651966460E+02  0.40693752329E+02 -0.24053862513E+03  0.25762035870E+03  0.47000000000E+01 0.  1.
         13    1    4    4    0    0 -0.11807711077E+02  0.37650133743E+02 -0.30228498041E+03  0.30484941199E+03  0.00000000000E+00 0. -1.
        -14    1    4    4    0    0  0.46264640794E+01 -0.40126824868E+02 -0.29441443515E+03  0.29717238409E+03  0.00000000000E+00 0.  1.
</event>
<event>
12    1  0.8258923E-002  0.1962511E+03  0.7818608E-02  0.1153670E+00
         21   -1    0    0  503  502  0.00000000000E+00  0.00000000000E+00  0.15501896341E+04  0.15501896341E+04  0.00000000000E+00 0. -1.
         21   -1    0    0  501  503 -0.00000000000E+00 -0.00000000000E+00 -0.25579529886E+02  0.25579529886E+02  0.00000000000E+00 0. -1.
          6    2    1    2  501    0  0.64100788845E+02  0.61506498988E+02  0.58861827408E+03  0.61942445927E+03  0.17124026285E+03 0.  0.
         24    2    3    3    0    0  0.14385926347E+02  0.73743487608E+02  0.20687424953E+03  0.23423372506E+03  0.80146278751E+02 0.  0.
         -6    2    1    2    0  502 -0.64100788845E+02 -0.61506498988E+02  0.93599183012E+03  0.95634470469E+03  0.17499293585E+03 0.  0.
        -24    2    5    5    0    0 -0.10871038573E+03 -0.48923026636E+02  0.58818254903E+03  0.60542912236E+03  0.79839217942E+02 0.  0.
          5    1    3    3  501    0  0.49714862498E+02 -0.12236988620E+02  0.38174402455E+03  0.38519073421E+03  0.47000000000E+01 0. -1.
        -13    1    4    4    0    0 -0.16944295466E+01 -0.75715222215E+01 -0.32037569733E+01  0.83942301007E+01  0.00000000000E+00 0.  1.
         14    1    4    4    0    0  0.16080355894E+02  0.81315009830E+02  0.21007800650E+03  0.22583949496E+03  0.00000000000E+00 0. -1.
         -5    1    5    5    0  502  0.44609596883E+02 -0.12583472352E+02  0.34780928109E+03  0.35091558233E+03  0.47000000000E+01 0.  1.
         11    1    6    6    0    0 -0.63132350414E+02 -0.45264227963E+02  0.19989776536E+03  0.21446132657E+03  0.00000000000E+00 0. -1.
        -12    1    6    6    0    0 -0.45578035314E+02 -0.36587986732E+01  0.38828478367E+03  0.39096779579E+03  0.00000000000E+00 0.  1.
</event>
<event>
12    1  0.8258923E-002  0.1895675E+03  0.7818608E-02  0.1159718E+00
         21   -1    0    0  501  502  0.00000000000E+00  0.00000000000E+00  0.56829277802E+02  0.56829277802E+02  0.00000000000E+00 0.  1.
         21   -1    0    0  502  503 -0.00000000000E+00 -0.00000000000E+00 -0.67839977769E+03  0.67839977769E+03  0.00000000000E+00 0. -1.
         -6    2    1    2    0  503  0.58091049130E+02 -0.41081062798E+02 -0.41598018046E+03  0.45558064921E+03  0.17161583172E+03 0.  0.
        -24    2    3    3    0    0 -0.25389647576E+02 -0.17621014964E+02 -0.12278040687E+03  0.14979052871E+03  0.80043986705E+02 0.  0.
          6    2    1    2  501    0 -0.58091049130E+02  0.41081062798E+02 -0.20559031943E+03  0.27964840628E+03  0.17570892971E+03 0.  0.
         24    2    5    5    0    0 -0.15017604486E+02  0.50821348971E+01 -0.20466254532E+02  0.86143228444E+02  0.82161010781E+02 0.  0.
          5    1    5    5  501    0 -0.43073444643E+02  0.35998927901E+02 -0.18512406490E+03  0.19350517783E+03  0.47000000000E+01 0. -1.
        -13    1    6    6    0    0 -0.44012075661E+02  0.28505576159E+01 -0.32382980779E+02  0.54716048165E+02  0.00000000000E+00 0.  1.
         14    1    6    6    0    0  0.28994471174E+02  0.22315772812E+01  0.11916726247E+02  0.31427180279E+02  0.00000000000E+00 0. -1.
         -5    1    3    3    0  503  0.83480696706E+02 -0.23460047835E+02 -0.29319977358E+03  0.30579012050E+03  0.47000000000E+01 0.  1.
         13    1    4    4    0    0 -0.23762859864E+02  0.23150173261E+02 -0.94474458325E+02  0.10013005197E+03  0.00000000000E+00 0. -1.
        -14    1    4    4    0    0 -0.16267877123E+01 -0.40771188224E+02 -0.28305948549E+02  0.49660476747E+02  0.00000000000E+00 0.  1.
</event>
<event>
12    1  0.8258923E-002  0.1780254E+03  0.7818608E-02  0.1170521E+00
         21   -1    0    0  501  502  0.00000000000E+00  0.00000000000E+00  0.16018297651E+03  0.16018297651E+03  0.00000000000E+00 0.  1.
         21   -1    0    0  502  503 -0.00000000000E+00 -0.00000000000E+00 -0.41770541522E+03  0.41770541522E+03  0.00000000000E+00 0.  1.
         -6    2    1    2    0  503 -0.10357381399E+02 -0.12866228293E+02 -0.33951903947E+03  0.38188715929E+03  0.17404542249E+03 0.  0.
        -24    2    3    3    0    0 -0.30325206057E+02  0.41013655163E+02 -0.29338773535E+03  0.30804988495E+03  0.78845610718E+02 0.  0.
          6    2    1    2  501    0  0.10357381399E+02  0.12866228293E+02  0.81996600760E+02  0.19600123244E+03  0.17725751156E+03 0.  0.
         24    2    5    5    0    0 -0.62593119104E+02  0.10780955345E+02  0.13363441196E+02  0.95708039859E+02  0.70337186294E+02 0.  0.
          5    1    5    5  501    0  0.72950500503E+02  0.20852729485E+01  0.68633159564E+02  0.10029319258E+03  0.47000000000E+01 0. -1.
        -13    1    6    6    0    0 -0.38604851520E+02 -0.27244031753E+02  0.17885526691E+02  0.50521914968E+02  0.00000000000E+00 0.  1.
         14    1    6    6    0    0 -0.23988267583E+02  0.38024987097E+02 -0.45220854946E+01  0.45186124891E+02  0.00000000000E+00 0. -1.
         -5    1    3    3    0  503  0.19967824658E+02 -0.53879883456E+02 -0.46131304117E+02  0.73837274342E+02  0.47000000000E+01 0.  1.
         13    1    4    4    0    0  0.12437920671E+02 -0.87341715572E+01 -0.12724013822E+02  0.19821406386E+02  0.00000000000E+00 0. -1.
        -14    1    4    4    0    0 -0.42763126727E+02  0.49747826720E+02 -0.28066372153E+03  0.28822847856E+03  0.00000000000E+00 0.  1.
</event>
<event>
12    1  0.8258923E-002  0.1805409E+03  0.7818608E-02  0.1167752E+00
         21   -1    0    0  503  502  0.00000000000E+00  0.00000000000E+00  0.38991743828E+02  0.38991743828E+02  0.00000000000E+00 0. -1.
         21   -1    0    0  501  503 -0.00000000000E+00 -0.00000000000E+00 -0.10394138924E+04  0.10394138924E+04  0.00000000000E+00 0. -1.
          6    2    1    2  501    0  0.23774327419E+02 -0.45540646419E+02 -0.25859939681E+03  0.31538655197E+03  0.17307761269E+03 0.  0.
         24    2    3    3    0    0  0.74044205837E+02 -0.59596163550E+02 -0.21306177587E+03  0.24595757273E+03  0.77881705917E+02 0.  0.
         -6    2    1    2    0  502 -0.23774327419E+02  0.45540646419E+02 -0.74182275178E+03  0.76301908428E+03  0.17104957992E+03 0.  0.
        -24    2    5    5    0    0 -0.11247176504E+02 -0.38980745627E+02 -0.32799989120E+03  0.34044099071E+03  0.81670937421E+02 0.  0.
          5    1    3    3  501    0 -0.50269878418E+02  0.14055517132E+02 -0.45537620936E+02  0.69428979241E+02  0.47000000000E+01 0. -1.
        -13    1    4    4    0    0  0.13498670873E+02 -0.59437758251E+02 -0.12528528615E+03  0.13932503058E+03  0.00000000000E+00 0.  1.
         14    1    4    4    0    0  0.60545534964E+02 -0.15840529893E+00 -0.87776489723E+02  0.10663254215E+03  0.00000000000E+00 0. -1.
         -5    1    5    5    0  502 -0.12527150915E+02  0.84521392046E+02 -0.41382286058E+03  0.42257809357E+03  0.47000000000E+01 0.  1.
         13    1    6    6    0    0  0.10474497469E+02  0.17147979230E+02 -0.17305517749E+03  0.17421786001E+03  0.00000000000E+00 0. -1.
        -14    1    6    6    0    0 -0.21721673973E+02 -0.56128724857E+02 -0.15494471371E+03  0.16622313070E+03  0.00000000000E+00 0.  1.
</event>
<event>
12    1  0.8258923E-002  0.1876946E+03  0.7818608E-02  0.1160653E+00
         21   -1    0    0  503  502  0.00000000000E+00  0.00000000000E+00  0.28235328534E+02  0.28235328534E+02  0.00000000000E+00 0.  1.
         21   -1    0    0  501  503 -0.00000000000E+00 -0.00000000000E+00 -0.13354356980E+04  0.13354356980E+04  0.00000000000E+00 0. -1.
          6    2    1    2  501    0  0.73825882756E+02 -0.23809853762E+02 -0.83043415433E+03  0.85128906573E+03  0.17045532741E+03 0.  0.
         24    2    3    3    0    0  0.94254090453E+02 -0.64204635539E+02 -0.55637388823E+03  0.57347587395E+03  0.79477076662E+02 0.  0.
         -6    2    1    2    0  502 -0.73825882756E+02  0.23809853762E+02 -0.47676621517E+03  0.51238196084E+03  0.17091541701E+03 0.  0.
        -24    2    5    5    0    0 -0.27378343201E+02  0.34740490020E+02 -0.44632452835E+03  0.45558725126E+03  0.79985521111E+02 0.  0.
          5    1    3    3  501    0 -0.20428207697E+02  0.40394781777E+02 -0.27406026611E+03  0.27781319177E+03  0.47000000000E+01 0. -1.
        -13    1    4    4    0    0  0.65599581759E+02 -0.33468407466E+02 -0.17597871708E+03  0.19076673791E+03  0.00000000000E+00 0.  1.
         14    1    4    4    0    0  0.28654508693E+02 -0.30736228073E+02 -0.38039517114E+03  0.38270913605E+03  0.00000000000E+00 0. -1.
         -5    1    5    5    0  502 -0.46447539555E+02 -0.10930636258E+02 -0.30441686823E+02  0.56794709580E+02  0.47000000000E+01 0.  1.
         13    1    6    6    0    0  0.18242141520E+02 -0.66816660293E+01 -0.22523340846E+03  0.22606969871E+03  0.00000000000E+00 0. -1.
        -14    1    6    6    0    0 -0.45620484720E+02  0.41422156049E+02 -0.22109111988E+03  0.22951755255E+03  0.00000000000E+00 0.  1.
</event>
<event>
12    1  0.8258923E-002  0.3465209E+03  0.7818608E-02  0.1064126E+00
         21   -1    0    0  503  502  0.00000000000E+00  0.00000000000E+00  0.29430918641E+03  0.29430918641E+03  0.00000000000E+00 0. -1.
         21   -1    0    0  501  503 -0.00000000000E+00 -0.00000000000E+00 -0.42781473296E+03  0.42781473296E+03  0.00000000000E+00 0.  1.
          6    2    1    2  501    0  0.22893864759E+03 -0.19375208678E+03 -0.14615570051E+03  0.37608276569E+03  0.17356261799E+03 0.  0.
         24    2    3    3    0    0  0.17331829620E+03 -0.55990874780E+02 -0.84873428152E+02  0.21530533591E+03  0.77321918035E+02 0.  0.
         -6    2    1    2    0  502 -0.22893864759E+03  0.19375208678E+03  0.12650153952E+02  0.34604115368E+03  0.17213854348E+03 0.  0.
        -24    2    5    5    0    0 -0.10066698949E+03  0.24146542339E+02 -0.15342444370E+02  0.13150599447E+03  0.79633772368E+02 0.  0.
          5    1    3    3  501    0  0.55620351393E+02 -0.13776121200E+03 -0.61282272354E+02  0.16077742978E+03  0.47000000000E+01 0. -1.
        -13    1    4    4    0    0  0.33022621511E+02 -0.24508100041E+02 -0.54623565864E+02  0.68373053514E+02  0.00000000000E+00 0.  1.
         14    1    4    4    0    0  0.14029567469E+03 -0.31482774739E+02 -0.30249862289E+02  0.14693228240E+03  0.00000000000E+00 0. -1.
         -5    1    5    5    0  502 -0.12827165810E+03  0.16960554444E+03  0.27992598322E+02  0.21453515921E+03  0.47000000000E+01 0.  1.
         13    1    6    6    0    0 -0.42750232308E+02  0.43095998451E+02  0.16284983210E+02  0.62849408295E+02  0.00000000000E+00 0. -1.
        -14    1    6    6    0    0 -0.57916757186E+02 -0.18949456112E+02 -0.31627427580E+02  0.68656586175E+02  0.00000000000E+00 0.  1.
</event>
<event>
12    1  0.8258923E-002  0.1732124E+03  0.7818608E-02  0.1174924E+00
         21   -1    0    0  501  502  0.00000000000E+00  0.00000000000E+00  0.10604436600E+03  0.10604436600E+03  0.00000000000E+00 0.  1.
         21   -1    0    0  502  503 -0.00000000000E+00 -0.00000000000E+00 -0.10479644846E+04  0.10479644846E+04  0.00000000000E+00 0.  1.
         -6    2    1    2    0  503 -0.18464392655E+02 -0.52555738083E+01 -0.96419993479E+03  0.97936946041E+03  0.17062963073E+03 0.  0.
        -24    2    3    3    0    0 -0.36357399984E+02 -0.41551683770E+02 -0.88674006127E+03  0.89184980939E+03  0.77715785286E+02 0.  0.
          6    2    1    2  501    0  0.18464392655E+02  0.52555738083E+01  0.22279816147E+02  0.17463939024E+03  0.17214520488E+03 0.  0.
         24    2    5    5    0    0 -0.16487907071E+02 -0.56847572908E+02  0.25399149964E+02  0.10315313749E+03  0.80572671110E+02 0.  0.
          5    1    5    5  501    0  0.34952299727E+02  0.62103146716E+02 -0.31193338164E+01  0.71486252746E+02  0.47000000000E+01 0. -1.
        -13    1    6    6    0    0  0.26092671400E+02 -0.42164998831E+02  0.29875930827E+02  0.57890291673E+02  0.00000000000E+00 0.  1.
         14    1    6    6    0    0 -0.42580578471E+02 -0.14682574077E+02 -0.44767808629E+01  0.45262845816E+02  0.00000000000E+00 0. -1.
         -5    1    3    3    0  503  0.17893007329E+02  0.36296109962E+02 -0.77459873521E+02  0.87519651025E+02  0.47000000000E+01 0.  1.
         13    1    4    4    0    0  0.14488598258E+02 -0.27084906707E+02 -0.14445309566E+03  0.14768279689E+03  0.00000000000E+00 0. -1.
        -14    1    4    4    0    0 -0.50845998242E+02 -0.14466777063E+02 -0.74228696561E+03  0.74416701250E+03  0.00000000000E+00 0.  1.
</event>
<event>
12    1  0.8258923E-002  0.1944667E+03  0.7818608E-02  0.1155158E+00
         21   -1    0    0  503  502  0.00000000000E+00  0.00000000000E+00  0.85690673825E+03  0.85690673825E+03  0.00000000000E+00 0. -1.
         21   -1    0    0  501  503 -0.00000000000E+00 -0.00000000000E+00 -0.51226944415E+02  0.51226944415E+02  0.00000000000E+00 0. -1.
          6    2    1    2  501    0  0.44673871819E+02 -0.75624115417E+02  0.22326970514E+03  0.29411511364E+03  0.17011636365E+03 0.  0.
         24    2    3    3    0    0  0.63092673423E+02 -0.19721260556E+02  0.20858880864E+03  0.23327104937E+03  0.80848486869E+02 0.  0.
         -6    2    1    2    0  502 -0.44673871819E+02  0.75624115417E+02  0.58241008869E+03  0.61401856902E+03  0.17350080703E+03 0.  0.
        -24    2    5    5    0    0 -0.71629904000E+02  0.38022497965E+02  0.53733076849E+03  0.54925172244E+03  0.79853280098E+02 0.  0.
          5    1    3    3  501    0 -0.18418801605E+02 -0.55902854861E+02  0.14680896501E+02  0.60844064265E+02  0.47000000000E+01 0. -1.
        -13    1    4    4    0    0  0.22871746580E+02  0.31565798272E+02  0.70028950924E+02  0.80147179487E+02  0.00000000000E+00 0.  1.
         14    1    4    4    0    0  0.40220926843E+02 -0.51287058827E+02  0.13855985771E+03  0.15312386989E+03  0.00000000000E+00 0. -1.
         -5    1    5    5    0  502  0.26956032181E+02  0.37601617452E+02  0.45079320204E+02  0.64766846581E+02  0.47000000000E+01 0.  1.
         11    1    6    6    0    0  0.70236552638E+01 -0.15858378024E+02  0.58280719992E+02  0.60806761216E+02  0.00000000000E+00 0. -1.
        -12    1    6    6    0    0 -0.78653559264E+02  0.53880875989E+02  0.47905004850E+03  0.48844496123E+03  0.00000000000E+00 0.  1.
</event>
<event>
12    1  0.8258923E-002  0.2386963E+03  0.7818608E-02  0.1121133E+00
         21   -1    0    0  501  502  0.00000000000E+00  0.00000000000E+00  0.26237800736E+03  0.26237800736E+03  0.00000000000E+00 0. -1.
         21   -1    0    0  502  503 -0.00000000000E+00 -0.00000000000E+00 -0.31961974984E+03  0.31961974984E+03  0.00000000000E+00 0. -1.
         -6    2    1    2    0  503 -0.12474613317E+03 -0.10332358412E+03 -0.19528494808E+03  0.30625898817E+03  0.17152549698E+03 0.  0.
        -24    2    3    3    0    0 -0.89524307582E+01 -0.57458526200E+02 -0.32054964600E+02  0.10088639370E+03  0.75953376671E+02 0.  0.
          6    2    1    2  501    0  0.12474613317E+03  0.10332358412E+03  0.13804320560E+03  0.27573876902E+03  0.17532421782E+03 0.  0.
         24    2    5    5    0    0  0.12757700289E+02  0.52547859405E+02  0.11770516832E+03  0.15101784423E+03  0.77639205190E+02 0.  0.
          5    1    5    5  501    0  0.11198843288E+03  0.50775724716E+02  0.20338037277E+02  0.12472092479E+03  0.47000000000E+01 0. -1.
        -11    1    6    6    0    0 -0.19632810116E+01  0.17863726825E+01 -0.11298973001E+02  0.11606566701E+02  0.00000000000E+00 0.  1.
         12    1    6    6    0    0  0.14720981301E+02  0.50761486722E+02  0.12900414132E+03  0.13941127753E+03  0.00000000000E+00 0. -1.
         -5    1    3    3    0  503 -0.11579370241E+03 -0.45865057920E+02 -0.16322998348E+03  0.20537259448E+03  0.47000000000E+01 0.  1.
         13    1    4    4    0    0 -0.32027320382E+02 -0.64027913840E+02 -0.25732154597E+02  0.76075401949E+02  0.00000000000E+00 0. -1.
        -14    1    4    4    0    0  0.23074889623E+02  0.65693876396E+01 -0.63228100036E+01  0.24810991746E+02  0.00000000000E+00 0.  1.
</event>
<event>
12    1  0.8258923E-002  0.2413675E+03  0.7818608E-02  0.1119977E+00
         21   -1    0    0  501  502  0.00000000000E+00  0.00000000000E+00  0.16509850551E+04  0.16509850551E+04  0.00000000000E+00 0.  1.
         21   -1    0    0  502  503 -0.00000000000E+00 -0.00000000000E+00 -0.51474191253E+02  0.51474191253E+02  0.00000000000E+00 0. -1.
         -6    2    1    2    0  503 -0.60211829504E+02 -0.14429426464E+03  0.30141106981E+03  0.38211029082E+03  0.17525222431E+03 0.  0.
        -24    2    3    3    0    0  0.83050731479E+01 -0.94852577177E+02  0.96075633857E+02  0.16002071955E+03  0.85499225884E+02 0.  0.
          6    2    1    2  501    0  0.60211829504E+02  0.14429426464E+03  0.12980997941E+04  0.13203489556E+04  0.18388036841E+03 0.  0.
         24    2    5    5    0    0  0.46991998642E+02  0.13087668396E+03  0.59630208405E+03  0.61828278263E+03  0.85793178687E+02 0.  0.
          5    1    5    5  501    0  0.13219830862E+02  0.13417580675E+02  0.70179771000E+03  0.70206617292E+03  0.47000000000E+01 0. -1.
        -11    1    6    6    0    0 -0.24697720469E+01  0.10730840862E+03  0.42967146147E+03  0.44287555716E+03  0.00000000000E+00 0.  1.
         12    1    6    6    0    0  0.49461770689E+02  0.23568275348E+02  0.16663062259E+03  0.17540722547E+03  0.00000000000E+00 0. -1.
         -5    1    3    3    0  503 -0.68516902651E+02 -0.49441687462E+02  0.20533543596E+03  0.22208957127E+03  0.47000000000E+01 0.  1.
         13    1    4    4    0    0 -0.36867438359E+02 -0.49296009170E+02  0.62034239682E+02  0.87393085677E+02  0.00000000000E+00 0. -1.
        -14    1    4    4    0    0  0.45172511507E+02 -0.45556568007E+02  0.34041394175E+02  0.72627633872E+02  0.00000000000E+00 0.  1.
</event>
<event>
12    1  0.8258923E-002  0.1768179E+03  0.7818608E-02  0.1171001E+00
         21   -1    0    0  501  502  0.00000000000E+00  0.00000000000E+00  0.15361864806E+03  0.15361864806E+03  0.00000000000E+00 0. -1.
         21   -1    0    0  502  503 -0.00000000000E+00 -0.00000000000E+00 -0.40436517751E+03  0.40436517751E+03  0.00000000000E+00 0. -1.
         -6    2    1    2    0  503 -0.79639605472E+01 -0.40858140386E+02 -0.32224325842E+03  0.36756672256E+03  0.17184808884E+03 0.  0.
        -24    2    3    3    0    0 -0.57163833733E+02 -0.92267660114E+01 -0.27154551187E+03  0.29001981501E+03  0.83795530804E+02 0.  0.
          6    2    1    2  501    0  0.79639605472E+01  0.40858140386E+02  0.71496728967E+02  0.19041710300E+03  0.17150533099E+03 0.  0.
         24    2    5    5    0    0 -0.65587701061E+01 -0.27836300216E+02 -0.83876382220E+01  0.83958481948E+02  0.78490745575E+02 0.  0.
          5    1    5    5  501    0  0.14522730653E+02  0.68694440602E+02  0.79884367189E+02  0.10645862105E+03  0.47000000000E+01 0. -1.
        -13    1    6    6    0    0  0.12442915359E+01 -0.27759654929E+02  0.32254798759E+02  0.42573686077E+02  0.00000000000E+00 0.  1.
         14    1    6    6    0    0 -0.78030616420E+01 -0.76645287301E-01 -0.40642436981E+02  0.41384795871E+02  0.00000000000E+00 0. -1.
         -5    1    3    3    0  503  0.49199873186E+02 -0.31631374374E+02 -0.50697746544E+02  0.77546907552E+02  0.47000000000E+01 0.  1.
         13    1    4    4    0    0 -0.40308443966E+02 -0.42528100084E+02 -0.21018000946E+03  0.21819497320E+03  0.00000000000E+00 0. -1.
        -14    1    4    4    0    0 -0.16855389767E+02  0.33301334072E+02 -0.61365502408E+02  0.71824841810E+02  0.00000000000E+00 0.  1.
</event>
<event>
12    1  0.8258923E-002  0.2221867E+03  0.7818608E-02  0.1132275E+00
         21   -1    0    0  501  502  0.00000000000E+00  0.00000000000E+00  0.39125471947E+03  0.39125471947E+03  0.00000000000E+00 0.  1.
         21   -1    0    0  502  503 -0.00000000000E+00 -0.00000000000E+00 -0.19002862138E+03  0.19002862138E+03  0.00000000000E+00 0.  1.
         -6    2    1    2    0  503  0.69454485157E+02  0.12174779890E+03 -0.67902248145E+02  0.23233092850E+03  0.17239632533E+03 0.  0.
        -24    2    3    3    0    0  0.80847191052E+02  0.24968696973E+02 -0.64629461022E+02  0.13471541000E+03  0.82532238119E+02 0.  0.
          6    2    1    2  501    0 -0.69454485157E+02 -0.12174779890E+03  0.26912834624E+03  0.34895241235E+03  0.17231154137E+03 0.  0.
         24    2    5    5    0    0 -0.11195627919E+03 -0.67359405364E+02  0.19996684332E+03  0.25112652961E+03  0.77500306488E+02 0.  0.
          5    1    5    5  501    0  0.42501794034E+02 -0.54388393533E+02  0.69161502918E+02  0.97825882736E+02  0.47000000000E+01 0. -1.
        -13    1    6    6    0    0  0.19567333553E+01  0.62039725571E+01  0.43897784087E+02  0.44377173509E+02  0.00000000000E+00 0.  1.
         14    1    6    6    0    0 -0.11391301255E+03 -0.73563377921E+02  0.15606905923E+03  0.20674935610E+03  0.00000000000E+00 0. -1.
         -5    1    3    3    0  503 -0.11392705895E+02  0.96779101925E+02 -0.32727871230E+01  0.97615518502E+02  0.47000000000E+01 0.  1.
         11    1    4    4    0    0 -0.13158893641E+02 -0.11233727874E+02 -0.12034883268E+02  0.21075852036E+02  0.00000000000E+00 0. -1.
        -12    1    4    4    0    0  0.94006084693E+02  0.36202424847E+02 -0.52594577754E+02  0.11363955796E+03  0.00000000000E+00 0.  1.
</event>
<event>
12    1  0.8258923E-002  0.2082374E+03  0.7818608E-02  0.1144095E+00
         21   -1    0    0  501  502  0.00000000000E+00  0.00000000000E+00  0.22982491756E+02  0.22982491756E+02  0.00000000000E+00 0.  1.
         21   -1    0    0  502  503 -0.00000000000E+00 -0.00000000000E+00 -0.20735001235E+04  0.20735001235E+04  0.00000000000E+00 0.  1.
         -6    2    1    2    0  503 -0.93901412569E+02 -0.66756541988E+02 -0.13670718715E+04  0.13820171274E+04  0.16676908440E+03 0.  0.
        -24    2    3    3    0    0 -0.19819183267E+00 -0.13701315874E+02 -0.35509477502E+03  0.36431634410E+03  0.80289065265E+02 0.  0.
          6    2    1    2  501    0  0.93901412569E+02  0.66756541988E+02 -0.68344576024E+03  0.71446548782E+03  0.17346156607E+03 0.  0.
         24    2    5    5    0    0  0.81629921845E+02 -0.22566582622E+02 -0.41292421898E+03  0.42927571878E+03  0.81231381387E+02 0.  0.
          5    1    5    5  501    0  0.12271490724E+02  0.89323124610E+02 -0.27052154126E+03  0.28518976903E+03  0.47000000000E+01 0. -1.
        -11    1    6    6    0    0  0.97090384247E+01 -0.24202904336E+01 -0.36778560773E+00  0.10012916616E+02  0.00000000000E+00 0.  1.
         12    1    6    6    0    0  0.71920883420E+02 -0.20146292189E+02 -0.41255643338E+03  0.41926280217E+03  0.00000000000E+00 0. -1.
         -5    1    3    3    0  503 -0.93703220736E+02 -0.53055226114E+02 -0.10119770964E+04  0.10177007833E+04  0.47000000000E+01 0.  1.
         13    1    4    4    0    0 -0.31444684578E+02  0.12079955625E+01 -0.65581785901E+02  0.72740621963E+02  0.00000000000E+00 0. -1.
        -14    1    4    4    0    0  0.31246492745E+02 -0.14909311436E+02 -0.28951298911E+03  0.29157572214E+03  0.00000000000E+00 0.  1.
</event>
<event>
12    1  0.8258923E-002  0.2188454E+03  0.7818608E-02  0.1134945E+00
         21   -1    0    0  503  502  0.00000000000E+00  0.00000000000E+00  0.82188563662E+03  0.82188563662E+03  0.00000000000E+00 0.  1.
         21   -1    0    0  501  503 -0.00000000000E+00 -0.00000000000E+00 -0.67482663352E+02  0.67482663352E+02  0.00000000000E+00 0.  1.
          6    2    1    2  501    0  0.90527106382E+02  0.10181874459E+03  0.21122019578E+03  0.30415009027E+03  0.17126322596E+03 0.  0.
         24    2    3    3    0    0  0.12800524346E+03  0.59565336079E+02  0.14732833268E+03  0.21874387586E+03  0.78802753745E+02 0.  0.
         -6    2    1    2    0  502 -0.90527106382E+02 -0.10181874459E+03  0.54318277748E+03  0.58521820970E+03  0.16991353527E+03 0.  0.
        -24    2    5    5    0    0 -0.12024792095E+03 -0.10814986544E+03  0.50744641204E+03  0.53807388103E+03  0.76587756677E+02 0.  0.
          5    1    3    3  501    0 -0.37478137082E+02  0.42253408511E+02  0.63891863099E+02  0.85406214412E+02  0.47000000000E+01 0. -1.
        -13    1    4    4    0    0  0.12563163342E+02 -0.11613599328E+02 -0.17590642991E+01  0.17198926412E+02  0.00000000000E+00 0.  1.
         14    1    4    4    0    0  0.11544208012E+03  0.71178935407E+02  0.14908739698E+03  0.20154494945E+03  0.00000000000E+00 0. -1.
         -5    1    5    5    0  502  0.29720814570E+02  0.63311208532E+01  0.35736365448E+02  0.47144328667E+02  0.47000000000E+01 0.  1.
         11    1    6    6    0    0 -0.50571195666E+02 -0.10912147770E+02  0.89834729386E+02  0.10366677097E+03  0.00000000000E+00 0. -1.
        -12    1    6    6    0    0 -0.69676725286E+02 -0.97237717674E+02  0.41761168265E+03  0.43440711006E+03  0.00000000000E+00 0.  1.
</event>
<event>
12    1  0.8258923E-002  0.1955131E+03  0.7818608E-02  0.1153737E+00
         21   -1    0    0  503  502  0.00000000000E+00  0.00000000000E+00  0.84091931128E+02  0.84091931128E+02  0.00000000000E+00 0. -1.
         21   -1    0    0  501  503 -0.00000000000E+00 -0.00000000000E+00 -0.65827655751E+03  0.65827655751E+03  0.00000000000E+00 0. -1.
          6    2    1    2  501    0 -0.84445557660E+02  0.36668582537E+02 -0.49478385015E+03  0.53201169516E+03  0.17248115334E+03 0.  0.
         24    2    3    3    0    0  0.16368221479E+02  0.15980492992E+02 -0.13482289790E+03  0.15759829761E+03  0.78337186455E+02 0.  0.
         -6    2    1    2    0  502  0.84445557660E+02 -0.36668582537E+02 -0.79400776231E+02  0.21035679348E+03  0.17166787744E+03 0.  0.
        -24    2    5    5    0    0  0.32601394192E+02 -0.60015464168E+02 -0.10446903865E+03  0.14803984596E+03  0.79607217717E+02 0.  0.
          5    1    3    3  501    0 -0.10081377914E+03  0.20688089546E+02 -0.35996095225E+03  0.37441339754E+03  0.47000000000E+01 0. -1.
        -11    1    4    4    0    0  0.65364717487E+01 -0.31189926640E+02 -0.39179701085E+02  0.50503326265E+02  0.00000000000E+00 0.  1.
         12    1    4    4    0    0  0.98317497299E+01  0.47170419631E+02 -0.95643196817E+02  0.10709497135E+03  0.00000000000E+00 0. -1.
         -5    1    5    5    0  502  0.51844163468E+02  0.23346881631E+02  0.25068262422E+02  0.62316947522E+02  0.47000000000E+01 0.  1.
         13    1    6    6    0    0  0.28422838363E+02  0.86394674321E+01 -0.10332810706E+02  0.31452585191E+02  0.00000000000E+00 0. -1.
        -14    1    6    6    0    0  0.41785558291E+01 -0.68654931601E+02 -0.94136227947E+02  0.11658726077E+03  0.00000000000E+00 0.  1.
</event>
<event>
12    1  0.8258923E-002  0.1788532E+03  0.7818608E-02  0.1170343E+00
         21   -1    0    0  501  502  0.00000000000E+00  0.00000000000E+00  0.43215050842E+03  0.43215050842E+03  0.00000000000E+00 0. -1.
         21   -1    0    0  502  503 -0.00000000000E+00 -0.00000000000E+00 -0.11561759552E+03  0.11561759552E+03  0.00000000000E+00 0. -1.
         -6    2    1    2    0  503  0.12593402975E+02  0.13939977318E+02 -0.12188812264E+02  0.17354033516E+03  0.17208940704E+03 0.  0.
        -24    2    3    3    0    0 -0.10383969160E+02 -0.55734138221E+02 -0.18354825515E+02  0.99766683183E+02  0.80014814097E+02 0.  0.
          6    2    1    2  501    0 -0.12593402975E+02 -0.13939977318E+02  0.32872172516E+03  0.37422776879E+03  0.17786380624E+03 0.  0.
         24    2    5    5    0    0  0.41827464635E+02 -0.37834870469E+02  0.11531326221E+03  0.15264740231E+03  0.82601856931E+02 0.  0.
          5    1    5    5  501    0 -0.54420867610E+02  0.23894893151E+02  0.21340846295E+03  0.22158036648E+03  0.47000000000E+01 0. -1.
        -13    1    6    6    0    0  0.94206780985E+01 -0.53927496826E+02  0.36138099647E+02  0.65596389656E+02  0.00000000000E+00 0.  1.
         14    1    6    6    0    0  0.32406786537E+02  0.16092626357E+02  0.79175162567E+02  0.87051012655E+02  0.00000000000E+00 0. -1.
         -5    1    3    3    0  503  0.22977372135E+02  0.69674115538E+02  0.61660132512E+01  0.73773651975E+02  0.47000000000E+01 0.  1.
         13    1    4    4    0    0  0.28671419654E+02 -0.12246936175E+01 -0.15576644508E+02  0.32652442995E+02  0.00000000000E+00 0. -1.
        -14    1    4    4    0    0 -0.39055388814E+02 -0.54509444603E+02 -0.27781810075E+01  0.67114240188E+02  0.00000000000E+00 0.  1.
</event>
<event>
12    1  0.8258923E-002  0.1905387E+03  0.7818608E-02  0.1158593E+00
         21   -1    0    0  501  502  0.00000000000E+00  0.00000000000E+00  0.14044720731E+03  0.14044720731E+03  0.00000000000E+00 0.  1.
         21   -1    0    0  502  503 -0.00000000000E+00 -0.00000000000E+00 -0.25484230853E+03  0.25484230853E+03  0.00000000000E+00 0.  1.
         -6    2    1    2    0  503  0.28790384255E+02  0.78867090350E+02 -0.54696039737E+02  0.19561731447E+03  0.16800468086E+03 0.  0.
        -24    2    3    3    0    0 -0.32684558764E+02  0.11879354064E+01 -0.20740112195E+02  0.90792151708E+02  0.82118030820E+02 0.  0.
          6    2    1    2  501    0 -0.28790384255E+02 -0.78867090350E+02 -0.59699061479E+02  0.19967220138E+03  0.17104416358E+03 0.  0.
         24    2    5    5    0    0  0.20104686948E+02 -0.16907622991E+02  0.23570166905E+02  0.84843816478E+02  0.77154742395E+02 0.  0.
          5    1    5    5  501    0 -0.48895071203E+02 -0.61959467358E+02 -0.83269228384E+02  0.11482838490E+03  0.47000000000E+01 0. -1.
        -13    1    6    6    0    0 -0.15129104051E+02 -0.35776976178E+02  0.22438454910E+02  0.44859403391E+02  0.00000000000E+00 0.  1.
         14    1    6    6    0    0  0.35233790999E+02  0.18869353187E+02  0.11317119947E+01  0.39984413087E+02  0.00000000000E+00 0. -1.
         -5    1    3    3    0  503  0.61474943019E+02  0.77679154943E+02 -0.33955927542E+02  0.10482516276E+03  0.47000000000E+01 0.  1.
         13    1    4    4    0    0 -0.14517502031E+02 -0.35800405579E+02 -0.29567444721E+02  0.48648336993E+02  0.00000000000E+00 0. -1.
        -14    1    4    4    0    0 -0.18167056733E+02  0.36988340986E+02  0.88273325255E+01  0.42143814715E+02  0.00000000000E+00 0.  1.
</event>
<event>
12    1  0.8258923E-002  0.2103760E+03  0.7818608E-02  0.1142418E+00
         21   -1    0    0  501  502  0.00000000000E+00  0.00000000000E+00  0.43294642634E+03  0.43294642634E+03  0.00000000000E+00 0. -1.
         21   -1    0    0  502  503 -0.00000000000E+00 -0.00000000000E+00 -0.16165389123E+03  0.16165389123E+03  0.00000000000E+00 0. -1.
         -6    2    1    2    0  503  0.94712958859E+02  0.74013993312E+02 -0.47599684128E+02  0.21569374813E+03  0.17265412613E+03 0.  0.
        -24    2    3    3    0    0  0.46800333903E+02 -0.35895315782E+01 -0.76248489905E+02  0.11998183258E+03  0.79866463212E+02 0.  0.
          6    2    1    2  501    0 -0.94712958859E+02 -0.74013993312E+02  0.31889221924E+03  0.37890656945E+03  0.16561800958E+03 0.  0.
         24    2    5    5    0    0 -0.58257287526E+02  0.22405718646E+02  0.12981673446E+03  0.16350599894E+03  0.77368594196E+02 0.  0.
          5    1    5    5  501    0 -0.36455671333E+02 -0.96419711958E+02  0.18907548478E+03  0.21540057050E+03  0.47000000000E+01 0. -1.
        -11    1    6    6    0    0 -0.70950274912E+02  0.32509765396E+02  0.12350703363E+03  0.14609864378E+03  0.00000000000E+00 0.  1.
         12    1    6    6    0    0  0.12692987386E+02 -0.10104046749E+02  0.63097008232E+01  0.17407355169E+02  0.00000000000E+00 0. -1.
         -5    1    3    3    0  503  0.47912624956E+02  0.77603524890E+02  0.28648805777E+02  0.95711915548E+02  0.47000000000E+01 0.  1.
         13    1    4    4    0    0  0.25096595924E+02  0.22938212013E+02 -0.78587574193E+02  0.85627142396E+02  0.00000000000E+00 0. -1.
        -14    1    4    4    0    0  0.21703737979E+02 -0.26527743591E+02  0.23390842883E+01  0.34354690183E+02  0.00000000000E+00 0.  1.
</event>
<event>
12    1  0.8258923E-002  0.1860730E+03  0.7818608E-02  0.1162791E+00
         21   -1    0    0  501  502  0.00000000000E+00  0.00000000000E+00  0.21214189969E+04  0.21214189969E+04  0.00000000000E+00 0. -1.
         21   -1    0    0  502  503 -0.00000000000E+00 -0.00000000000E+00 -0.16879374852E+02  0.16879374852E+02  0.00000000000E+00 0. -1.
         -6    2    1    2    0  503  0.95378521331E-01 -0.67080008708E+02  0.80594572535E+03  0.82644119214E+03  0.17016696272E+03 0.  0.
        -24    2    3    3    0    0  0.25880221219E+02  0.20925411953E+02  0.29413278298E+03  0.30645620183E+03  0.79332533675E+02 0.  0.
          6    2    1    2  501    0 -0.95378521331E-01  0.67080008708E+02  0.12985938967E+04  0.13118571796E+04  0.17356098201E+03 0.  0.
         24    2    5    5    0    0 -0.45228009650E+02  0.72848596089E+02  0.11574225228E+04  0.11634601520E+04  0.81609669802E+02 0.  0.
          5    1    5    5  501    0  0.45132631129E+02 -0.57685873809E+01  0.14117137391E+03  0.14839702761E+03  0.47000000000E+01 0. -1.
        -13    1    6    6    0    0 -0.49339727493E+02  0.16310171504E+02  0.78820914846E+03  0.78992030745E+03  0.00000000000E+00 0.  1.
         14    1    6    6    0    0  0.41117178426E+01  0.56538424585E+02  0.36921337432E+03  0.37353984454E+03  0.00000000000E+00 0. -1.
         -5    1    3    3    0  503 -0.25784842697E+02 -0.88005420661E+02  0.51181294236E+03  0.51998499031E+03  0.47000000000E+01 0.  1.
         11    1    4    4    0    0  0.50112711700E+01 -0.23074650462E+02  0.31614209053E+02  0.39458972955E+02  0.00000000000E+00 0. -1.
        -12    1    4    4    0    0  0.20868950049E+02  0.44000062415E+02  0.26251857393E+03  0.26699722887E+03  0.00000000000E+00 0.  1.
</event>
<event>
12    1  0.8258923E-002  0.2023845E+03  0.7818608E-02  0.1147768E+00
         21   -1    0    0  503  502  0.00000000000E+00  0.00000000000E+00  0.10809785309E+03  0.10809785309E+03  0.00000000000E+00 0.  1.
         21   -1    0    0  501  503 -0.00000000000E+00 -0.00000000000E+00 -0.39378266566E+03  0.39378266566E+03  0.00000000000E+00 0. -1.
          6    2    1    2  501    0  0.10190605080E+03 -0.26696870488E+02 -0.93664215971E+02  0.22289772355E+03  0.17266396187E+03 0.  0.
         24    2    3    3    0    0  0.96473522746E+02 -0.73095770363E+02 -0.37642551951E+02  0.14980266825E+03  0.79835740497E+02 0.  0.
         -6    2    1    2    0  502 -0.10190605080E+03  0.26696870488E+02 -0.19202059661E+03  0.27898279520E+03  0.17280603118E+03 0.  0.
        -24    2    5    5    0    0 -0.76380479831E+02  0.19994092703E+02 -0.31442918596E+02  0.11618303267E+03  0.79221831012E+02 0.  0.
          5    1    3    3  501    0  0.54325280550E+01  0.46398899875E+02 -0.56021664020E+02  0.73095055306E+02  0.47000000000E+01 0. -1.
        -11    1    4    4    0    0  0.36125660079E+02 -0.67043471369E+02 -0.45392824076E+02  0.88658890400E+02  0.00000000000E+00 0.  1.
         12    1    4    4    0    0  0.60347862666E+02 -0.60522989946E+01  0.77502721246E+01  0.61143777848E+02  0.00000000000E+00 0. -1.
         -5    1    5    5    0  502 -0.25525570970E+02  0.67027777851E+01 -0.16057767801E+03  0.16279976253E+03  0.47000000000E+01 0.  1.
         11    1    6    6    0    0 -0.62584437211E+01  0.20384049060E+02 -0.40210016604E+02  0.45513986962E+02  0.00000000000E+00 0. -1.
        -12    1    6    6    0    0 -0.70122036110E+02 -0.38995635719E+00  0.87670980077E+01  0.70669045711E+02  0.00000000000E+00 0.  1.
</event>
<event>
12    1  0.8258923E-002  0.2020993E+03  0.7818608E-02  0.1148167E+00
         21   -1    0    0  503  502  0.00000000000E+00  0.00000000000E+00  0.68570167347E+02  0.68570167347E+02  0.00000000000E+00 0.  1.
         21   -1    0    0  501  503 -0.00000000000E+00 -0.00000000000E+00 -0.13026973617E+04  0.13026973617E+04  0.00000000000E+00 0.  1.
          6    2    1    2  501    0  0.10056750047E+03 -0.30270656452E+02 -0.11162784652E+03  0.23087854694E+03  0.17266728852E+03 0.  0.
         24    2    3    3    0    0  0.14144341748E+02 -0.65057611933E+02 -0.81453493406E+02  0.13283939037E+03  0.81111508253E+02 0.  0.
         -6    2    1    2    0  502 -0.10056750047E+03  0.30270656452E+02 -0.11224993479E+04  0.11403889822E+04  0.17161617011E+03 0.  0.
        -24    2    5    5    0    0 -0.68558985690E+02  0.18616691084E+02 -0.32554596941E+03  0.34269409226E+03  0.80075882513E+02 0.  0.
          5    1    3    3  501    0  0.86423158722E+02  0.34786955481E+02 -0.30174353116E+02  0.98039156571E+02  0.47000000000E+01 0. -1.
        -13    1    4    4    0    0 -0.97529336517E+01 -0.64200841208E+02 -0.21681141262E+02  0.68461227078E+02  0.00000000000E+00 0.  1.
         14    1    4    4    0    0  0.23897275400E+02 -0.85677072569E+00 -0.59772352145E+02  0.64378163289E+02  0.00000000000E+00 0. -1.
         -5    1    5    5    0  502 -0.32008514780E+02  0.11653965368E+02 -0.79695337846E+03  0.79769488989E+03  0.47000000000E+01 0.  1.
         13    1    6    6    0    0 -0.25694953933E+02  0.45406989017E+02 -0.11692895424E+03  0.12804064061E+03  0.00000000000E+00 0. -1.
        -14    1    6    6    0    0 -0.42864031757E+02 -0.26790297934E+02 -0.20861701518E+03  0.21465345165E+03  0.00000000000E+00 0.  1.
</event>
<event>
12    1  0.8258923E-002  0.2345346E+03  0.7818608E-02  0.1123856E+00
         21   -1    0    0  503  502  0.00000000000E+00  0.00000000000E+00  0.99558471902E+03  0.99558471902E+03  0.00000000000E+00 0. -1.
         21   -1    0    0  501  503 -0.00000000000E+00 -0.00000000000E+00 -0.93218405081E+02  0.93218405081E+02  0.00000000000E+00 0.  1.
          6    2    1    2  501    0 -0.75535739258E+02  0.13962779021E+03  0.10024683323E+03  0.25309853373E+03  0.16972882047E+03 0.  0.
         24    2    3    3    0    0  0.10605946011E+01  0.13288800035E+03  0.70389614775E+02  0.17047912546E+03  0.80299992860E+02 0.  0.
         -6    2    1    2    0  502  0.75535739258E+02 -0.13962779021E+03  0.80211948071E+03  0.83570459037E+03  0.17264105344E+03 0.  0.
        -24    2    5    5    0    0  0.14437923666E+02 -0.14302371740E+03  0.67132022308E+03  0.69122271889E+03  0.80335345971E+02 0.  0.
          5    1    3    3  501    0 -0.76596333859E+02  0.67397898634E+01  0.29857218455E+02  0.82619408264E+02  0.47000000000E+01 0. -1.
        -13    1    4    4    0    0  0.13782746705E+02  0.20957147395E+02 -0.14906954449E+02  0.29178475365E+02  0.00000000000E+00 0.  1.
         14    1    4    4    0    0 -0.12722152104E+02  0.11193085295E+03  0.85296569224E+02  0.14130065010E+03  0.00000000000E+00 0. -1.
         -5    1    5    5    0  502  0.61097815592E+02  0.33959271882E+01  0.13079925762E+03  0.14448187148E+03  0.47000000000E+01 0.  1.
         11    1    6    6    0    0  0.33028311565E+02 -0.58236717655E+02  0.42075955632E+03  0.42605280058E+03  0.00000000000E+00 0. -1.
        -12    1    6    6    0    0 -0.18590387900E+02 -0.84786999744E+02  0.25056066676E+03  0.26516991831E+03  0.00000000000E+00 0.  1.
</event>
<event>
12    1  0.8258923E-002  0.1987194E+03  0.7818608E-02  0.1150925E+00
         21   -1    0    0  503  502  0.00000000000E+00  0.00000000000E+00  0.13325823522E+03  0.13325823522E+03  0.00000000000E+00 0.  1.
         21   -1    0    0  501  503 -0.00000000000E+00 -0.00000000000E+00 -0.36123061703E+03  0.36123061703E+03  0.00000000000E+00 0. -1.
          6    2    1    2  501    0  0.82947704237E+02 -0.53679944807E+02 -0.21923928515E+03  0.29557766189E+03  0.17186748367E+03 0.  0.
         24    2    3    3    0    0  0.16308791022E+02 -0.38991762486E+02 -0.20880836082E+03  0.22638675471E+03  0.76574780131E+02 0.  0.
         -6    2    1    2    0  502 -0.82947704237E+02  0.53679944807E+02 -0.87330966496E+01  0.19891119035E+03  0.17241675254E+03 0.  0.
        -24    2    5    5    0    0 -0.72463646693E+02 -0.64703661185E+01  0.45544797542E+02  0.11708115207E+03  0.79629277642E+02 0.  0.
          5    1    3    3  501    0  0.66638913215E+02 -0.14688182321E+02 -0.10430924332E+02  0.69190907183E+02  0.47000000000E+01 0. -1.
        -11    1    4    4    0    0 -0.21259916466E+02 -0.22170095845E+02 -0.30124993081E+02  0.43023393707E+02  0.00000000000E+00 0.  1.
         12    1    4    4    0    0  0.37568707488E+02 -0.16821666642E+02 -0.17868336774E+03  0.18336336100E+03  0.00000000000E+00 0. -1.
         -5    1    5    5    0  502 -0.10484057544E+02  0.60150310926E+02 -0.54277894191E+02  0.81830038280E+02  0.47000000000E+01 0.  1.
         13    1    6    6    0    0 -0.50146178678E+02 -0.14278106914E+02 -0.13176558651E+02  0.53778483345E+02  0.00000000000E+00 0. -1.
        -14    1    6    6    0    0 -0.22317468015E+02  0.78077407960E+01  0.58721356193E+02  0.63302668728E+02  0.00000000000E+00 0.  1.
</event>
<event>
12    1  0.8258923E-002  0.2115608E+03  0.7818608E-02  0.1140453E+00
         21   -1    0    0  503  502  0.00000000000E+00  0.00000000000E+00  0.31741009715E+02  0.31741009715E+02  0.00000000000E+00 0. -1.
         21   -1    0    0  501  503 -0.00000000000E+00 -0.00000000000E+00 -0.14411121062E+04  0.14411121062E+04  0.00000000000E+00 0.  1.
          6    2    1    2  501    0  0.26187116119E+02 -0.12104292138E+03 -0.59092614821E+03  0.62765569107E+03  0.17152492538E+03 0.  0.
         24    2    3    3    0    0  0.74197065934E+02 -0.11952790612E+03 -0.42424821030E+03  0.45413083539E+03  0.80350151053E+02 0.  0.
         -6    2    1    2    0  502 -0.26187116119E+02  0.12104292138E+03 -0.81844494824E+03  0.84519742481E+03  0.17079051421E+03 0.  0.
        -24    2    5    5    0    0  0.24892162662E+02  0.13449181213E+03 -0.55554633580E+03  0.57700395769E+03  0.74794175430E+02 0.  0.
          5    1    3    3  501    0 -0.48009949815E+02 -0.15150152531E+01 -0.16667793791E+03  0.17352485568E+03  0.47000000000E+01 0. -1.
        -11    1    4    4    0    0 -0.11739076432E+02 -0.37239414973E+02 -0.66496628198E+02  0.77112784315E+02  0.00000000000E+00 0.  1.
         12    1    4    4    0    0  0.85936142366E+02 -0.82288491149E+02 -0.35775158210E+03  0.37701805108E+03  0.00000000000E+00 0. -1.
         -5    1    5    5    0  502 -0.51079278781E+02 -0.13448890754E+02 -0.26289861244E+03  0.26819346712E+03  0.47000000000E+01 0.  1.
         11    1    6    6    0    0  0.47661859394E+02  0.55109274819E+02 -0.23872877784E+03  0.24959990862E+03  0.00000000000E+00 0. -1.
        -12    1    6    6    0    0 -0.22769696732E+02  0.79382537311E+02 -0.31681755796E+03  0.32740404907E+03  0.00000000000E+00 0.  1.
</event>
<event>
12    1  0.8258923E-002  0.3717977E+03  0.7818608E-02  0.1054210E+00
         21   -1    0    0  503  502  0.00000000000E+00  0.00000000000E+00  0.98078091999E+03  0.98078091999E+03  0.00000000000E+00 0.  1.
         21   -1    0    0  501  503 -0.00000000000E+00 -0.00000000000E+00 -0.22379173007E+03  0.22379173007E+03  0.00000000000E+00 0. -1.
          6    2    1    2  501    0  0.32578582623E+03  0.52647529436E+02  0.74604591977E+03  0.83261391919E+03  0.16659308836E+03 0.  0.
         24    2    3    3    0    0  0.18943465786E+03  0.90412205941E+02  0.50369348788E+03  0.55194578214E+03  0.82928644703E+02 0.  0.
         -6    2    1    2    0  502 -0.32578582623E+03 -0.52647529436E+02  0.10943270141E+02  0.37195873087E+03  0.17124653392E+03 0.  0.
        -24    2    5    5    0    0 -0.20641733075E+03 -0.39790412969E+02  0.73338151279E+02  0.23657278496E+03  0.79980039710E+02 0.  0.
          5    1    3    3  501    0  0.13635116838E+03 -0.37764676505E+02  0.24235243189E+03  0.28066813705E+03  0.47000000000E+01 0. -1.
        -11    1    4    4    0    0  0.79081437886E+02  0.40634445185E+02  0.11830378633E+03  0.14798924898E+03  0.00000000000E+00 0.  1.
         12    1    4    4    0    0  0.11035321997E+03  0.49777760756E+02  0.38538970156E+03  0.40395653317E+03  0.00000000000E+00 0. -1.
         -5    1    5    5    0  502 -0.11936849548E+03 -0.12857116467E+02 -0.62394881138E+02  0.13538594591E+03  0.47000000000E+01 0.  1.
         11    1    6    6    0    0 -0.46626558821E+02  0.12904856118E+02 -0.90666361549E+01  0.49221694303E+02  0.00000000000E+00 0. -1.
        -12    1    6    6    0    0 -0.15979077193E+03 -0.52695269087E+02  0.82404787434E+02  0.18735109066E+03  0.00000000000E+00 0.  1.
</event>
<event>
12    1  0.8258923E-002  0.1780421E+03  0.7818608E-02  0.1169725E+00
         21   -1    0    0  501  502  0.00000000000E+00  0.00000000000E+00  0.14807886948E+04  0.14807886948E+04  0.00000000000E+00 0.  1.
         21   -1    0    0  502  503 -0.00000000000E+00 -0.00000000000E+00 -0.24792287613E+02  0.24792287613E+02  0.00000000000E+00 0.  1.
         -6    2    1    2    0  503 -0.17000262700E+02 -0.43944955164E+02  0.10065360980E+04  0.10221613879E+04  0.17169396734E+03 0.  0.
        -24    2    3    3    0    0 -0.31056881231E+02  0.18488034706E+02  0.30192362333E+03  0.31463308731E+03  0.80806979925E+02 0.  0.
          6    2    1    2  501    0  0.17000262700E+02  0.43944955164E+02  0.44946030918E+03  0.48341959446E+03  0.17163847692E+03 0.  0.
         24    2    5    5    0    0 -0.55313031985E+02  0.37396312488E+02  0.25067963616E+03  0.27174072618E+03  0.80899484448E+02 0.  0.
          5    1    5    5  501    0  0.72313294685E+02  0.65486426760E+01  0.19878067302E+03  0.21167886828E+03  0.47000000000E+01 0. -1.
        -11    1    6    6    0    0 -0.14450422286E+02 -0.24781059557E+02  0.49066349039E+02  0.56836803437E+02  0.00000000000E+00 0.  1.
         12    1    6    6    0    0 -0.40862609699E+02  0.62177372045E+02  0.20161328713E+03  0.21490392275E+03  0.00000000000E+00 0. -1.
         -5    1    3    3    0  503  0.14056618531E+02 -0.62432989870E+02  0.70461247465E+03  0.70752830062E+03  0.47000000000E+01 0.  1.
         11    1    4    4    0    0 -0.50969057100E+02  0.32414377822E+01  0.11241957063E+03  0.12347676527E+03  0.00000000000E+00 0. -1.
        -12    1    4    4    0    0  0.19912175870E+02  0.15246596924E+02  0.18950405269E+03  0.19115632203E+03  0.00000000000E+00 0.  1.
</event>
<event>
12    1  0.8258923E-002  0.2071709E+03  0.7818608E-02  0.1147161E+00
         21   -1    0    0  501  502  0.00000000000E+00  0.00000000000E+00  0.96730539802E+03  0.96730539802E+03  0.00000000000E+00 0. -1.
         21   -1    0    0  502  503 -0.00000000000E+00 -0.00000000000E+00 -0.48515468412E+02  0.48515468412E+02  0.00000000000E+00 0.  1.
         -6    2    1    2    0  503  0.70057424169E+02 -0.92334184123E+02  0.24466618562E+03  0.31058146513E+03  0.15220269332E+03 0.  0.
        -24    2    3    3    0    0  0.61299864069E+02 -0.99955209304E+02  0.25669975285E+03  0.29321276846E+03  0.79562851062E+02 0.  0.
          6    2    1    2  501    0 -0.70057424169E+02  0.92334184123E+02  0.67412374398E+03  0.70523940130E+03  0.17171530716E+03 0.  0.
         24    2    5    5    0    0 -0.98909074831E+02  0.50050843949E+02  0.59620150948E+03  0.61188918314E+03  0.81633574388E+02 0.  0.
          5    1    5    5  501    0  0.28851650662E+02  0.42283340175E+02  0.77922234499E+02  0.93350218165E+02  0.47000000000E+01 0. -1.
        -13    1    6    6    0    0 -0.32456942882E+02 -0.21085373984E+02  0.21489933572E+03  0.21835697981E+03  0.00000000000E+00 0.  1.
         14    1    6    6    0    0 -0.66452131949E+02  0.71136217933E+02  0.38130217376E+03  0.39353220333E+03  0.00000000000E+00 0. -1.
         -5    1    3    3    0  503  0.87575601004E+01  0.76210251808E+01 -0.12033567230E+02  0.17368696670E+02  0.47000000000E+01 0.  1.
         11    1    4    4    0    0  0.75073393265E+02 -0.50803791013E+02  0.16567490090E+03  0.18885235594E+03  0.00000000000E+00 0. -1.
        -12    1    4    4    0    0 -0.13773529196E+02 -0.49151418291E+02  0.91024851953E+02  0.10436041251E+03  0.00000000000E+00 0.  1.
</event>
<event>
12    1  0.8258923E-002  0.2659822E+03  0.7818608E-02  0.1103748E+00
         21   -1    0    0  503  502  0.00000000000E+00  0.00000000000E+00  0.42712420387E+02  0.42712420387E+02  0.00000000000E+00 0. -1.
         21   -1    0    0  501  503 -0.00000000000E+00 -0.00000000000E+00 -0.16513812919E+04  0.16513812919E+04  0.00000000000E+00 0.  1.
          6    2    1    2  501    0 -0.31416174712E+02  0.19756972411E+03 -0.82619247101E+03  0.86764597222E+03  0.17376640079E+03 0.  0.
         24    2    3    3    0    0 -0.61094880580E+02  0.10000519031E+03 -0.30998100090E+03  0.34143685437E+03  0.82202689015E+02 0.  0.
         -6    2    1    2    0  502  0.31416174712E+02 -0.19756972411E+03 -0.78247640051E+03  0.82644774008E+03  0.17528770008E+03 0.  0.
        -24    2    5    5    0    0 -0.14720642117E+02 -0.37313275230E+02 -0.19011616331E+03  0.21104260857E+03  0.82376266392E+02 0.  0.
          5    1    3    3  501    0  0.29678705868E+02  0.97564533795E+02 -0.51621147011E+03  0.52620911785E+03  0.47000000000E+01 0. -1.
        -11    1    4    4    0    0 -0.11200490568E+02 -0.14178617587E+02 -0.49231170965E+02  0.52442276650E+02  0.00000000000E+00 0.  1.
         12    1    4    4    0    0 -0.49894390012E+02  0.11418380790E+03 -0.26074982993E+03  0.28899457772E+03  0.00000000000E+00 0. -1.
         -5    1    5    5    0  502  0.46136816829E+02 -0.16025644888E+03 -0.59236023720E+03  0.61540513151E+03  0.47000000000E+01 0.  1.
         11    1    6    6    0    0 -0.46561884089E+02 -0.30691630823E+02 -0.91014930245E+02  0.10674128901E+03  0.00000000000E+00 0. -1.
        -12    1    6    6    0    0  0.31841241973E+02 -0.66216444066E+01 -0.99101233068E+02  0.10430131955E+03  0.00000000000E+00 0.  1.
</event>
<event>
12    1  0.8258923E-002  0.2059696E+03  0.7818608E-02  0.1144986E+00
         21   -1    0    0  503  502  0.00000000000E+00  0.00000000000E+00  0.23610819480E+03  0.23610819480E+03  0.00000000000E+00 0. -1.
         21   -1    0    0  501  503 -0.00000000000E+00 -0.00000000000E+00 -0.24688938163E+03  0.24688938163E+03  0.00000000000E+00 0. -1.
          6    2    1    2  501    0 -0.76341846492E+02 -0.84935812638E+02 -0.13213885479E+03  0.24393447364E+03  0.17029733025E+03 0.  0.
         24    2    3    3    0    0 -0.67628582411E+02  0.69157187740E+01 -0.36363422656E+02  0.11086438611E+03  0.79669073523E+02 0.  0.
         -6    2    1    2    0  502  0.76341846492E+02  0.84935812638E+02  0.12135766796E+03  0.23906310279E+03  0.17140978312E+03 0.  0.
        -24    2    5    5    0    0  0.38062431435E+02  0.11621114532E+03  0.12092628979E+03  0.18940692353E+03  0.79360167182E+02 0.  0.
          5    1    3    3  501    0 -0.87132640801E+01 -0.91851531412E+02 -0.95775432139E+02  0.13307008753E+03  0.47000000000E+01 0. -1.
        -13    1    4    4    0    0  0.17357943048E+02  0.78624483545E+01 -0.11722847743E+02  0.22372783470E+02  0.00000000000E+00 0.  1.
         14    1    4    4    0    0 -0.84986525459E+02 -0.94672958047E+00 -0.24640574913E+02  0.88491602644E+02  0.00000000000E+00 0. -1.
         -5    1    5    5    0  502  0.38279415057E+02 -0.31275332686E+02  0.43137817909E+00  0.49656179262E+02  0.47000000000E+01 0.  1.
         13    1    6    6    0    0  0.42041441091E+01  0.46832191206E+02  0.98287991401E+02  0.10895622155E+03  0.00000000000E+00 0. -1.
        -14    1    6    6    0    0  0.33858287326E+02  0.69378954119E+02  0.22638298385E+02  0.80450701980E+02  0.00000000000E+00 0.  1.
</event>
<event>
12    1  0.8258923E-002  0.1865069E+03  0.7818608E-02  0.1162443E+00
         21   -1    0    0  501  502  0.00000000000E+00  0.00000000000E+00  0.11079848628E+03  0.11079848628E+03  0.00000000000E+00 0.  1.
         21   -1    0    0  502  503 -0.00000000000E+00 -0.00000000000E+00 -0.84290926540E+03  0.84290926540E+03  0.00000000000E+00 0.  1.
         -6    2    1    2    0  503  0.63689010185E+02 -0.52811591677E+01 -0.74706195413E+03  0.76999116842E+03  0.17521602516E+03 0.  0.
        -24    2    3    3    0    0  0.33225520180E+02  0.63858876923E+02 -0.35206899668E+03  0.36780974760E+03  0.78419006973E+02 0.  0.
          6    2    1    2  501    0 -0.63689010185E+02  0.52811591677E+01  0.14951175014E+02  0.18371658326E+03  0.17159272907E+03 0.  0.
         24    2    5    5    0    0 -0.47087006404E+02  0.55730618811E+02  0.51664762408E+02  0.11898056541E+03  0.78511395517E+02 0.  0.
          5    1    5    5  501    0 -0.16602003781E+02 -0.50449459643E+02 -0.36713587393E+02  0.64736017850E+02  0.47000000000E+01 0. -1.
        -13    1    6    6    0    0 -0.20251192608E+02  0.96358673540E+01  0.60856071972E+02  0.64856936696E+02  0.00000000000E+00 0.  1.
         14    1    6    6    0    0 -0.26835813796E+02  0.46094751457E+02 -0.91913095641E+01  0.54123628717E+02  0.00000000000E+00 0. -1.
         -5    1    3    3    0  503  0.30463490005E+02 -0.69140036090E+02 -0.39499295745E+03  0.40218142082E+03  0.47000000000E+01 0.  1.
         13    1    4    4    0    0 -0.39721361352E+01  0.21163111918E+02 -0.15552004589E+02  0.26561626800E+02  0.00000000000E+00 0. -1.
        -14    1    4    4    0    0  0.37197656315E+02  0.42695765005E+02 -0.33651699209E+03  0.34124812080E+03  0.00000000000E+00 0.  1.
</event>
<event>
12    1  0.8258923E-002  0.2146084E+03  0.7818608E-02  0.1138282E+00
         21   -1    0    0  501  502  0.00000000000E+00  0.00000000000E+00  0.32932903960E+03  0.32932903960E+03  0.00000000000E+00 0. -1.
         21   -1    0    0  502  503 -0.00000000000E+00 -0.00000000000E+00 -0.15197070171E+03  0.15197070171E+03  0.00000000000E+00 0.  1.
         -6    2    1    2    0  503 -0.90041861574E+02 -0.89385128158E+02  0.17509927338E+02  0.21370249242E+03  0.17106992646E+03 0.  0.
        -24    2    3    3    0    0 -0.11448278181E+03 -0.41779563122E+02  0.45903040940E+02  0.15294142508E+03  0.80200692701E+02 0.  0.
          6    2    1    2  501    0  0.90041861574E+02  0.89385128158E+02  0.15984841055E+03  0.26759724890E+03  0.17308822978E+03 0.  0.
         24    2    5    5    0    0  0.12945598632E+03  0.56345902701E+02  0.12952452914E+03  0.20770825632E+03  0.80202262734E+02 0.  0.
          5    1    5    5  501    0 -0.39414124745E+02  0.33039225458E+02  0.30323881409E+02  0.59888992578E+02  0.47000000000E+01 0. -1.
        -13    1    6    6    0    0  0.83412655889E+02  0.69523983877E+02  0.62367597587E+02  0.12522369075E+03  0.00000000000E+00 0.  1.
         14    1    6    6    0    0  0.46043330430E+02 -0.13178081176E+02  0.67156931556E+02  0.82484565566E+02  0.00000000000E+00 0. -1.
         -5    1    3    3    0  503  0.24440920240E+02 -0.47605565036E+02 -0.28393113602E+02  0.60761067343E+02  0.47000000000E+01 0.  1.
         11    1    4    4    0    0 -0.11452729236E+03 -0.15592425071E+02  0.22359155025E+02  0.11772661648E+03  0.00000000000E+00 0. -1.
        -12    1    4    4    0    0  0.44510541433E-01 -0.26187138051E+02  0.23543885915E+02  0.35214808596E+02  0.00000000000E+00 0.  1.
</event>
<event>
12    1  0.8258923E-002  0.1825624E+03  0.7818608E-02  0.1165565E+00
         21   -1    0    0  503  502  0.00000000000E+00  0.00000000000E+00  0.91378781007E+02  0.91378781007E+02  0.00000000000E+00 0.  1.
         21   -1    0    0  501  503 -0.00000000000E+00 -0.00000000000E+00 -0.94260146170E+03  0.94260146170E+03  0.00000000000E+00 0. -1.
          6    2    1    2  501    0 -0.15707301529E+02  0.53441597940E+02 -0.19765987034E+02  0.18271690682E+03  0.17289317535E+03 0.  0.
         24    2    3    3    0    0  0.27777163037E+01  0.74072813615E+02 -0.65666412472E+02  0.12889979058E+03  0.82514125214E+02 0.  0.
         -6    2    1    2    0  502  0.15707301529E+02 -0.53441597940E+02 -0.83145669366E+03  0.85126333589E+03  0.17385715370E+03 0.  0.
        -24    2    5    5    0    0  0.21133351892E+02  0.11508351151E+01 -0.73898505264E+03  0.74363959241E+03  0.80330519623E+02 0.  0.
          5    1    3    3  501    0 -0.18485017833E+02 -0.20631215675E+02  0.45900425438E+02  0.53817116235E+02  0.47000000000E+01 0. -1.
        -13    1    4    4    0    0  0.33755432132E+02  0.17677546372E+02 -0.16564694789E+01  0.38140119759E+02  0.00000000000E+00 0.  1.
         14    1    4    4    0    0 -0.30977715828E+02  0.56395267243E+02 -0.64009942994E+02  0.90759670820E+02  0.00000000000E+00 0. -1.
         -5    1    5    5    0  502 -0.54260503625E+01 -0.54592433055E+02 -0.92471641016E+02  0.10762374348E+03  0.47000000000E+01 0.  1.
         11    1    6    6    0    0 -0.19081323024E+02  0.22194317379E+02 -0.14509603361E+03  0.14801872713E+03  0.00000000000E+00 0. -1.
        -12    1    6    6    0    0  0.40214674916E+02 -0.21043482264E+02 -0.59388901904E+03  0.59562086528E+03  0.00000000000E+00 0.  1.
</event>
<event>
12    1  0.8258923E-002  0.2452024E+03  0.7818608E-02  0.1116723E+00
         21   -1    0    0  501  502  0.00000000000E+00  0.00000000000E+00  0.10772256692E+04  0.10772256692E+04  0.00000000000E+00 0.  1.
         21   -1    0    0  502  503 -0.00000000000E+00 -0.00000000000E+00 -0.17313438221E+03  0.17313438221E+03  0.00000000000E+00 0. -1.
         -6    2    1    2    0  503  0.16197208066E+03 -0.57699935682E+02 -0.64287601676E+02  0.25141965719E+03  0.17179845983E+03 0.  0.
        -24    2    3    3    0    0  0.18035050897E+03 -0.26148145748E+02 -0.74724704081E+02  0.21315341644E+03  0.81489667611E+02 0.  0.
          6    2    1    2  501    0 -0.16197208066E+03  0.57699935682E+02  0.96837888872E+03  0.99894039426E+03  0.17481419188E+03 0.  0.
         24    2    5    5    0    0 -0.13280586374E+03  0.51538229666E+02  0.94982895761E+03  0.96351688831E+03  0.76786449096E+02 0.  0.
          5    1    5    5  501    0 -0.29166216920E+02  0.61617060157E+01  0.18549931105E+02  0.35423505959E+02  0.47000000000E+01 0. -1.
        -13    1    6    6    0    0 -0.17723501603E+02 -0.34526402220E+01  0.34067837948E+03  0.34115656447E+03  0.00000000000E+00 0.  1.
         14    1    6    6    0    0 -0.11508236214E+03  0.54990869888E+02  0.60915057813E+03  0.62236032383E+03  0.00000000000E+00 0. -1.
         -5    1    3    3    0  503 -0.18378428303E+02 -0.31551789934E+02  0.10437102406E+02  0.38266240756E+02  0.47000000000E+01 0.  1.
         11    1    4    4    0    0  0.65832324932E+02 -0.13557141477E+02 -0.71167452143E+02  0.97890231053E+02  0.00000000000E+00 0. -1.
        -12    1    4    4    0    0  0.11451818404E+03 -0.12591004270E+02 -0.35572519382E+01  0.11526318538E+03  0.00000000000E+00 0.  1.
</event>
<event>
12    1  0.8258923E-002  0.1886401E+03  0.7818608E-02  0.1159983E+00
         21   -1    0    0  503  502  0.00000000000E+00  0.00000000000E+00  0.34339821304E+02  0.34339821304E+02  0.00000000000E+00 0. -1.
         21   -1    0    0  501  503 -0.00000000000E+00 -0.00000000000E+00 -0.10977828547E+04  0.10977828547E+04  0.00000000000E+00 0.  1.
          6    2    1    2  501    0 -0.30144044154E+01  0.74156897971E+02 -0.67140892645E+03  0.69706425633E+03  0.17204737365E+03 0.  0.
         24    2    3    3    0    0  0.17998710704E+02 -0.24560017668E+00 -0.50652196640E+03  0.51489103565E+03  0.90687718237E+02 0.  0.
         -6    2    1    2    0  502  0.30144044154E+01 -0.74156897971E+02 -0.39203410695E+03  0.43505841968E+03  0.17342651289E+03 0.  0.
        -24    2    5    5    0    0  0.57868466190E+02 -0.35402420141E+01 -0.19636290979E+03  0.21987248244E+03  0.80151253874E+02 0.  0.
          5    1    3    3  501    0 -0.21013115120E+02  0.74402498147E+02 -0.16488696005E+03  0.18217322068E+03  0.47000000000E+01 0. -1.
        -13    1    4    4    0    0  0.40050397254E+02  0.15997714013E+02 -0.45021966259E+03  0.45228056088E+03  0.00000000000E+00 0.  1.
         14    1    4    4    0    0 -0.22051686550E+02 -0.16243314189E+02 -0.56302303811E+02  0.62610474762E+02  0.00000000000E+00 0. -1.
         -5    1    5    5    0  502 -0.54854061775E+02 -0.70616655957E+02 -0.19567119715E+03  0.21518593724E+03  0.47000000000E+01 0.  1.
         13    1    6    6    0    0  0.53600829992E+02 -0.25073877311E+02 -0.70199715985E+02  0.91813661421E+02  0.00000000000E+00 0. -1.
        -14    1    6    6    0    0  0.42676361978E+01  0.21533635296E+02 -0.12616319381E+03  0.12805882101E+03  0.00000000000E+00 0.  1.
</event>
<event>
12    1  0.8258923E-002  0.2000508E+03  0.7818608E-02  0.1150456E+00
         21   -1    0    0  501  502  0.00000000000E+00  0.00000000000E+00  0.55263807148E+02  0.55263807148E+02  0.00000000000E+00 0.  1.
         21   -1    0    0  502  503 -0.00000000000E+00 -0.00000000000E+00 -0.85383496185E+03  0.85383496185E+03  0.00000000000E+00 0.  1.
         -6    2    1    2    0  503  0.36390396519E+02  0.95761383880E+02 -0.21657418882E+03  0.29482992343E+03  0.17183073325E+03 0.  0.
        -24    2    3    3    0    0  0.78430386222E+02  0.63390877371E+02 -0.19914830673E+03  0.23878563923E+03  0.84786818601E+02 0.  0.
          6    2    1    2  501    0 -0.36390396519E+02 -0.95761383880E+02 -0.58199696589E+03  0.61426884557E+03  0.16766407705E+03 0.  0.
         24    2    5    5    0    0  0.57212009201E+00 -0.11239210527E+03 -0.53261675791E+03  0.55021181264E+03  0.80125622070E+02 0.  0.
          5    1    5    5  501    0 -0.36962516611E+02  0.16630721388E+02 -0.49380207982E+02  0.64057032935E+02  0.47000000000E+01 0. -1.
        -13    1    6    6    0    0  0.36144740373E+02 -0.27977590304E+02 -0.20467339821E+03  0.20971501556E+03  0.00000000000E+00 0.  1.
         14    1    6    6    0    0 -0.35572620281E+02 -0.84414514965E+02 -0.32794335970E+03  0.34049679708E+03  0.00000000000E+00 0. -1.
         -5    1    3    3    0  503 -0.42039989702E+02  0.32370506508E+02 -0.17425882082E+02  0.56044284205E+02  0.47000000000E+01 0.  1.
         13    1    4    4    0    0  0.69683732521E+02  0.82245906745E+02 -0.14420652126E+03  0.18004369616E+03  0.00000000000E+00 0. -1.
        -14    1    4    4    0    0  0.87466537010E+01 -0.18855029373E+02 -0.54941785475E+02  0.58741943063E+02  0.00000000000E+00 0.  1.
</event>
<event>
12    1  0.8258923E-002  0.2145872E+03  0.7818608E-02  0.1139455E+00
         21   -1    0    0  503  502  0.00000000000E+00  0.00000000000E+00  0.35168653452E+03  0.35168653452E+03  0.00000000000E+00 0.  1.
         21   -1    0    0  501  503 -0.00000000000E+00 -0.00000000000E+00 -0.24302914480E+03  0.24302914480E+03  0.00000000000E+00 0.  1.
          6    2    1    2  501    0 -0.10001928091E+03  0.58840143499E+02 -0.15114549083E+03  0.26247408717E+03  0.18050392792E+03 0.  0.
         24    2    3    3    0    0 -0.70162970983E+02  0.79280359486E+02 -0.30161330756E+02  0.13610772036E+03  0.80046160246E+02 0.  0.
         -6    2    1    2    0  502  0.10001928091E+03 -0.58840143499E+02  0.25980288056E+03  0.33224159216E+03  0.17152527445E+03 0.  0.
        -24    2    5    5    0    0  0.74970245931E+02  0.11609074983E+02  0.22221348907E+03  0.24842274648E+03  0.81115459990E+02 0.  0.
          5    1    3    3  501    0 -0.29856309923E+02 -0.20440215987E+02 -0.12098416007E+03  0.12636636681E+03  0.47000000000E+01 0. -1.
        -13    1    4    4    0    0 -0.22512674875E+02  0.64230339153E+02  0.13922850606E+02  0.69470877112E+02  0.00000000000E+00 0.  1.
         14    1    4    4    0    0 -0.47650296107E+02  0.15050020333E+02 -0.44084181362E+02  0.66636843244E+02  0.00000000000E+00 0. -1.
         -5    1    5    5    0  502  0.25049034974E+02 -0.70449218482E+02  0.37589391490E+02  0.83818845676E+02  0.47000000000E+01 0.  1.
         13    1    6    6    0    0  0.30008457490E+02 -0.27162100669E+01  0.18733638971E+03  0.18974405980E+03  0.00000000000E+00 0. -1.
        -14    1    6    6    0    0  0.44961788441E+02  0.14325285050E+02  0.34877099354E+02  0.58678686684E+02  0.00000000000E+00 0.  1.
</event>
<event>
12    1  0.8258923E-002  0.2232632E+03  0.7818608E-02  0.1132023E+00
         21   -1    0    0  503  502  0.00000000000E+00  0.00000000000E+00  0.13548724798E+04  0.13548724798E+04  0.00000000000E+00 0. -1.
         21   -1    0    0  501  503 -0.00000000000E+00 -0.00000000000E+00 -0.15855819780E+03  0.15855819780E+03  0.00000000000E+00 0. -1.
          6    2    1    2  501    0  0.20500824408E+02 -0.14118507274E+03 -0.67233748268E+02  0.23030944954E+03  0.16783491019E+03 0.  0.
         24    2    3    3    0    0 -0.31002050572E+02 -0.23105999535E+02 -0.99396976607E+01  0.89242402030E+02  0.79814750368E+02 0.  0.
         -6    2    1    2    0  502 -0.20500824408E+02  0.14118507274E+03  0.12635480302E+04  0.12831212280E+04  0.17173512315E+03 0.  0.
        -24    2    5    5    0    0 -0.10295553217E+02  0.39793493749E+02  0.26745722209E+03  0.28182038016E+03  0.78739065693E+02 0.  0.
          5    1    3    3  501    0  0.51502874980E+02 -0.11807907320E+03 -0.57294050607E+02  0.14106704751E+03  0.47000000000E+01 0. -1.
        -13    1    4    4    0    0  0.24660092985E+02 -0.12765525483E+02  0.95538490392E+01  0.29365879152E+02  0.00000000000E+00 0.  1.
         14    1    4    4    0    0 -0.55662143557E+02 -0.10340474052E+02 -0.19493546700E+02  0.59876522878E+02  0.00000000000E+00 0. -1.
         -5    1    5    5    0  502 -0.10205271191E+02  0.10139157899E+03  0.99609080816E+03  0.10013008479E+04  0.47000000000E+01 0.  1.
         13    1    6    6    0    0  0.28618144343E+02  0.27628232507E+02  0.19175338186E+03  0.19583584164E+03  0.00000000000E+00 0. -1.
        -14    1    6    6    0    0 -0.38913697561E+02  0.12165261242E+02  0.75703840225E+02  0.85984538516E+02  0.00000000000E+00 0.  1.
</event>
<event>
12    1  0.8258923E-002  0.2195583E+03  0.7818608E-02  0.1134312E+00
         21   -1    0    0  501  502  0.00000000000E+00  0.00000000000E+00  0.10943133474E+04  0.10943133474E+04  0.00000000000E+00 0.  1.
         21   -1    0    0  502  503 -0.00000000000E+00 -0.00000000000E+00 -0.56384828264E+02  0.56384828264E+02  0.00000000000E+00 0. -1.
         -6    2    1    2    0  503  0.17324916988E+01  0.13555810669E+03  0.24822469957E+03  0.33104095342E+03  0.17202793247E+03 0.  0.
        -24    2    3    3    0    0 -0.42626858416E+02  0.66106429200E+02  0.21324304364E+03  0.24139111404E+03  0.81301692722E+02 0.  0.
          6    2    1    2  501    0 -0.17324916988E+01 -0.13555810669E+03  0.78970381959E+03  0.81965722226E+03  0.17270448029E+03 0.  0.
         24    2    5    5    0    0 -0.28929519284E+02 -0.38690316237E+02  0.18535089160E+03  0.20696839528E+03  0.78403481883E+02 0.  0.
          5    1    5    5  501    0  0.27197027585E+02 -0.96867790457E+02  0.60435292799E+03  0.61268882698E+03  0.47000000000E+01 0. -1.
        -11    1    6    6    0    0  0.12147315972E+01 -0.46888519680E+02  0.16001150240E+03  0.16674438447E+03  0.00000000000E+00 0.  1.
         12    1    6    6    0    0 -0.30144250881E+02  0.81982034427E+01  0.25339389196E+02  0.40224010810E+02  0.00000000000E+00 0. -1.
         -5    1    3    3    0  503  0.44359350115E+02  0.69451677494E+02  0.34981655930E+02  0.89649839381E+02  0.47000000000E+01 0.  1.
         13    1    4    4    0    0 -0.62783117377E+01 -0.15227922671E+02  0.94807439491E+01  0.19005034411E+02  0.00000000000E+00 0. -1.
        -14    1    4    4    0    0 -0.36348546679E+02  0.81334351871E+02  0.20376229969E+03  0.22238607963E+03  0.00000000000E+00 0.  1.
</event>
<event>
12    1  0.8258923E-002  0.1942752E+03  0.7818608E-02  0.1154747E+00
         21   -1    0    0  503  502  0.00000000000E+00  0.00000000000E+00  0.13599068500E+03  0.13599068500E+03  0.00000000000E+00 0.  1.
         21   -1    0    0  501  503 -0.00000000000E+00 -0.00000000000E+00 -0.27725150034E+03  0.27725150034E+03  0.00000000000E+00 0. -1.
          6    2    1    2  501    0  0.72759168315E+02 -0.51289387060E+02 -0.77003221763E+02  0.20861598013E+03  0.17224004530E+03 0.  0.
         24    2    3    3    0    0  0.23865947875E+02 -0.50095810635E+02  0.21840831747E+02  0.98233877667E+02  0.78062148823E+02 0.  0.
         -6    2    1    2    0  502 -0.72759168315E+02  0.51289387060E+02 -0.64257593574E+02  0.20462620521E+03  0.17267989961E+03 0.  0.
        -24    2    5    5    0    0 -0.80448112550E+02 -0.16164986961E+01 -0.89738449779E+02  0.14521646995E+03  0.80995814059E+02 0.  0.
          5    1    3    3  501    0  0.48893220440E+02 -0.11935764248E+01 -0.98844053510E+02  0.11038210246E+03  0.47000000000E+01 0. -1.
        -13    1    4    4    0    0  0.34890473644E+01  0.12849772598E+02  0.28778481602E+02  0.31709479823E+02  0.00000000000E+00 0.  1.
         14    1    4    4    0    0  0.20376900511E+02 -0.62945583233E+02 -0.69376498547E+01  0.66524397844E+02  0.00000000000E+00 0. -1.
         -5    1    5    5    0  502  0.76889442344E+01  0.52905885756E+02  0.25480856205E+02  0.59409735263E+02  0.47000000000E+01 0.  1.
         11    1    6    6    0    0 -0.33968242114E+02  0.38852936411E+02 -0.50190722027E+02  0.71989587564E+02  0.00000000000E+00 0. -1.
        -12    1    6    6    0    0 -0.46479870436E+02 -0.40469435107E+02 -0.39547727752E+02  0.73226882386E+02  0.00000000000E+00 0.  1.
</event>
<event>
12    1  0.8258923E-002  0.2538441E+03  0.7818608E-02  0.1111607E+00
         21   -1    0    0  501  502  0.00000000000E+00  0.00000000000E+00  0.55486675638E+03  0.55486675638E+03  0.00000000000E+00 0.  1.
         21   -1    0    0  502  503 -0.00000000000E+00 -0.00000000000E+00 -0.15191217576E+03  0.15191217576E+03  0.00000000000E+00 0. -1.
         -6    2    1    2    0  503 -0.12582570614E+03 -0.13799159315E+03  0.23739704365E+02  0.25044491836E+03  0.16518261247E+03 0.  0.
        -24    2    3    3    0    0 -0.46775604134E+02 -0.13275343160E+03 -0.96890973586E+01  0.16432911407E+03  0.84254070414E+02 0.  0.
          6    2    1    2  501    0  0.12582570614E+03  0.13799159315E+03  0.37921487625E+03  0.45633401379E+03  0.17193900565E+03 0.  0.
         24    2    5    5    0    0  0.11197197572E+03  0.59014069569E+02  0.14561806153E+03  0.20931389938E+03  0.81162213342E+02 0.  0.
          5    1    5    5  501    0  0.13853730420E+02  0.78977523579E+02  0.23359681472E+03  0.24702011441E+03  0.47000000000E+01 0. -1.
        -11    1    6    6    0    0  0.73076423698E+02  0.40984789017E+02  0.14377099428E+03  0.16640317133E+03  0.00000000000E+00 0.  1.
         12    1    6    6    0    0  0.38895552019E+02  0.18029280552E+02  0.18470672491E+01  0.42910728047E+02  0.00000000000E+00 0. -1.
         -5    1    3    3    0  503 -0.79050102004E+02 -0.52381615524E+01  0.33428801723E+02  0.86115804286E+02  0.47000000000E+01 0.  1.
         11    1    4    4    0    0  0.15645999609E+02  0.16900605694E+01 -0.24305353066E+01  0.15923602306E+02  0.00000000000E+00 0. -1.
        -12    1    4    4    0    0 -0.62421603743E+02 -0.13444349216E+03 -0.72585620519E+01  0.14840551177E+03  0.00000000000E+00 0.  1.
</event>
<event>
12    1  0.8258923E-002  0.2357728E+03  0.7818608E-02  0.1122667E+00
         21   -1    0    0  501  502  0.00000000000E+00  0.00000000000E+00  0.20479908806E+03  0.20479908806E+03  0.00000000000E+00 0.  1.
         21   -1    0    0  502  503 -0.00000000000E+00 -0.00000000000E+00 -0.49701969644E+03  0.49701969644E+03  0.00000000000E+00 0.  1.
         -6    2    1    2    0  503 -0.41422007675E+02  0.15546090054E+03 -0.38258644945E+03  0.44932164216E+03  0.17214433624E+03 0.  0.
        -24    2    3    3    0    0 -0.46790476684E+02  0.16943875152E+03 -0.25076670446E+03  0.31657098888E+03  0.80214784864E+02 0.  0.
          6    2    1    2  501    0  0.41422007675E+02 -0.15546090054E+03  0.90365841067E+02  0.25249714233E+03  0.17235123248E+03 0.  0.
         24    2    5    5    0    0 -0.50061394562E+00 -0.17168738034E+03  0.81535614614E+02  0.20644426241E+03  0.80587653207E+02 0.  0.
          5    1    5    5  501    0  0.41922621620E+02  0.16226479795E+02  0.88302264529E+01  0.46052879924E+02  0.47000000000E+01 0. -1.
        -13    1    6    6    0    0 -0.36607690843E+02 -0.55663187241E+02  0.41571746554E+02  0.78528488807E+02  0.00000000000E+00 0.  1.
         14    1    6    6    0    0  0.36107076898E+02 -0.11602419310E+03  0.39963868061E+02  0.12791577360E+03  0.00000000000E+00 0. -1.
         -5    1    3    3    0  503  0.53684690088E+01 -0.13977850982E+02 -0.13181974499E+03  0.13275065328E+03  0.47000000000E+01 0.  1.
         13    1    4    4    0    0  0.22041468916E+02  0.46852431919E+02 -0.54826380467E+02  0.75411595420E+02  0.00000000000E+00 0. -1.
        -14    1    4    4    0    0 -0.68831945599E+02  0.12258631961E+03 -0.19594032399E+03  0.24115939346E+03  0.00000000000E+00 0.  1.
</event>
<event>
12    1  0.8258923E-002  0.1808391E+03  0.7818608E-02  0.1167001E+00
         21   -1    0    0  501  502  0.00000000000E+00  0.00000000000E+00  0.14109425410E+04  0.14109425410E+04  0.00000000000E+00 0. -1.
         21   -1    0    0  502  503 -0.00000000000E+00 -0.00000000000E+00 -0.23182611770E+02  0.23182611770E+02  0.00000000000E+00 0.  1.
         -6    2    1    2    0  503  0.17289761245E+02  0.53308151423E+02  0.70783349549E+03  0.73056897944E+03  0.17193627170E+03 0.  0.
        -24    2    3    3    0    0  0.44074935274E+02 -0.26005534270E+02  0.33720265303E+03  0.35057237726E+03  0.81095466905E+02 0.  0.
          6    2    1    2  501    0 -0.17289761245E+02 -0.53308151423E+02  0.67992643376E+03  0.70355617335E+03  0.17190299266E+03 0.  0.
         24    2    5    5    0    0 -0.20163571815E+02 -0.81111072480E+01  0.14927545347E+03  0.17095539935E+03  0.80437726649E+02 0.  0.
          5    1    5    5  501    0  0.28738105705E+01 -0.45197044175E+02  0.53065098028E+03  0.53260077400E+03  0.47000000000E+01 0. -1.
        -13    1    6    6    0    0  0.28854532539E+02  0.10052026956E+02  0.46343054518E+02  0.55509512662E+02  0.00000000000E+00 0.  1.
         14    1    6    6    0    0 -0.49018104354E+02 -0.18163134204E+02  0.10293239895E+03  0.11544588669E+03  0.00000000000E+00 0. -1.
         -5    1    3    3    0  503 -0.26785174029E+02  0.79313685692E+02  0.37063084246E+03  0.37999660218E+03  0.47000000000E+01 0.  1.
         11    1    4    4    0    0 -0.30713094812E+01 -0.39968404520E+02  0.21751868458E+03  0.22118156443E+03  0.00000000000E+00 0. -1.
        -12    1    4    4    0    0  0.47146244755E+02  0.13962870250E+02  0.11968396845E+03  0.12939081282E+03  0.00000000000E+00 0.  1.
</event>
<event>
12    1  0.8258923E-002  0.3581753E+03  0.7818608E-02  0.1059407E+00
         21   -1    0    0  503  502  0.00000000000E+00  0.00000000000E+00  0.17131911996E+03  0.17131911996E+03  0.00000000000E+00 0. -1.
         21   -1    0    0  501  503 -0.00000000000E+00 -0.00000000000E+00 -0.83604596712E+03  0.83604596712E+03  0.00000000000E+00 0. -1.
          6    2    1    2  501    0 -0.98081941656E+02 -0.29840779311E+03 -0.49653881219E+03  0.61166731157E+03  0.17005537264E+03 0.  0.
         24    2    3    3    0    0 -0.99295904945E+02 -0.29230216083E+03 -0.50799809807E+03  0.59780521631E+03  0.63314919554E+02 0.  0.
         -6    2    1    2    0  502  0.98081941656E+02  0.29840779311E+03 -0.16818803496E+03  0.39569777551E+03  0.17211111577E+03 0.  0.
        -24    2    5    5    0    0  0.24774759781E+02  0.26304477120E+03 -0.13778339185E+03  0.30868617539E+03  0.80601187505E+02 0.  0.
          5    1    3    3  501    0  0.12139632893E+01 -0.61056322747E+01  0.11459285874E+02  0.13862095263E+02  0.47000000000E+01 0. -1.
        -13    1    4    4    0    0 -0.28839960538E+02 -0.17555208473E+03 -0.30934157649E+03  0.35685079336E+03  0.00000000000E+00 0.  1.
         14    1    4    4    0    0 -0.70455944408E+02 -0.11675007610E+03 -0.19865652157E+03  0.24095442294E+03  0.00000000000E+00 0. -1.
         -5    1    5    5    0  502  0.73307181875E+02  0.35363021905E+02 -0.30404643112E+02  0.87011600120E+02  0.47000000000E+01 0.  1.
         11    1    6    6    0    0  0.54502413954E+02  0.16432876291E+03 -0.85614099518E+02  0.19314302856E+03  0.00000000000E+00 0. -1.
        -12    1    6    6    0    0 -0.29727654173E+02  0.98716008292E+02 -0.52169292333E+02  0.11554314683E+03  0.00000000000E+00 0.  1.
</event>
<event>
12    1  0.8258923E-002  0.2599517E+03  0.7818608E-02  0.1107256E+00
         21   -1    0    0  503  502  0.00000000000E+00  0.00000000000E+00  0.37911147092E+03  0.37911147092E+03  0.00000000000E+00 0.  1.
         21   -1    0    0  501  503 -0.00000000000E+00 -0.00000000000E+00 -0.18350124009E+03  0.18350124009E+03  0.00000000000E+00 0.  1.
          6    2    1    2  501    0 -0.67035464046E+01 -0.19364164413E+03  0.48602662681E+02  0.26445622859E+03  0.17329989655E+03 0.  0.
         24    2    3    3    0    0  0.12796385527E+02 -0.21548073670E+03  0.47516822273E+02  0.23478364260E+03  0.79182163778E+02 0.  0.
         -6    2    1    2    0  502  0.67035464046E+01  0.19364164413E+03  0.14700756815E+03  0.29815648243E+03  0.17246460230E+03 0.  0.
        -24    2    5    5    0    0 -0.59202437590E+02  0.82741062208E+02  0.59839850518E+02  0.14239114998E+03  0.79645589272E+02 0.  0.
          5    1    3    3  501    0 -0.19499931931E+02  0.21839092574E+02  0.10858404082E+01  0.29672585987E+02  0.47000000000E+01 0. -1.
        -13    1    4    4    0    0 -0.17978817210E+02 -0.12721279474E+03 -0.30317853410E+01  0.12851274153E+03  0.00000000000E+00 0.  1.
         14    1    4    4    0    0  0.30775202737E+02 -0.88267941966E+02  0.50548607614E+02  0.10627090107E+03  0.00000000000E+00 0. -1.
         -5    1    5    5    0  502  0.65905983995E+02  0.11090058192E+03  0.87167717627E+02  0.15576533245E+03  0.47000000000E+01 0.  1.
         13    1    6    6    0    0 -0.49753649577E+02  0.83511797229E+02  0.17211330960E+02  0.98721202566E+02  0.00000000000E+00 0. -1.
        -14    1    6    6    0    0 -0.94487880131E+01 -0.77073502108E+00  0.42628519558E+02  0.43669947413E+02  0.00000000000E+00 0.  1.
</event>
<event>
12    1  0.8258923E-002  0.1750622E+03  0.7818608E-02  0.1172720E+00
         21   -1    0    0  503  502  0.00000000000E+00  0.00000000000E+00  0.77147395227E+02  0.77147395227E+02  0.00000000000E+00 0. -1.
         21   -1    0    0  501  503 -0.00000000000E+00 -0.00000000000E+00 -0.43522480534E+03  0.43522480534E+03  0.00000000000E+00 0. -1.
          6    2    1    2  501    0  0.17125882696E+02 -0.18305789131E+02 -0.25507483953E+03  0.30925569457E+03  0.17305349775E+03 0.  0.
         24    2    3    3    0    0  0.29915862453E+02 -0.61124615860E+02 -0.23835553171E+03  0.26131134392E+03  0.82698739266E+02 0.  0.
         -6    2    1    2    0  502 -0.17125882696E+02  0.18305789131E+02 -0.10300257058E+03  0.20311650600E+03  0.17325815331E+03 0.  0.
        -24    2    5    5    0    0 -0.20610348808E+02 -0.57058366996E+02 -0.59874479316E+02  0.11608766142E+03  0.78809568822E+02 0.  0.
          5    1    3    3  501    0 -0.12789979757E+02  0.42818826729E+02 -0.16719307827E+02  0.47944350646E+02  0.47000000000E+01 0. -1.
        -11    1    4    4    0    0 -0.15801773739E+02 -0.44976724007E+02 -0.17589502515E+03  0.18224066953E+03  0.00000000000E+00 0.  1.
         12    1    4    4    0    0  0.45717636193E+02 -0.16147891853E+02 -0.62460506554E+02  0.79070674396E+02  0.00000000000E+00 0. -1.
         -5    1    5    5    0  502  0.34844661120E+01  0.75364156127E+02 -0.43128091260E+02  0.87028844578E+02  0.47000000000E+01 0.  1.
         13    1    6    6    0    0 -0.42346382452E+02 -0.24629551590E+02 -0.57090994703E+01  0.49319618156E+02  0.00000000000E+00 0. -1.
        -14    1    6    6    0    0  0.21736033644E+02 -0.32428815406E+02 -0.54165379846E+02  0.66768043262E+02  0.00000000000E+00 0.  1.
</event>
<event>
12    1  0.8258923E-002  0.1872807E+03  0.7818608E-02  0.1162964E+00
         21   -1    0    0  503  502  0.00000000000E+00  0.00000000000E+00  0.54948307535E+02  0.54948307535E+02  0.00000000000E+00 0. -1.
         21   -1    0    0  501  503 -0.00000000000E+00 -0.00000000000E+00 -0.13536030051E+04  0.13536030051E+04  0.00000000000E+00 0. -1.
          6    2    1    2  501    0  0.11587023683E+02 -0.76570900862E+02 -0.11783629525E+04  0.11931526695E+04  0.17051886392E+03 0.  0.
         24    2    3    3    0    0  0.27585055840E+02 -0.10433867166E+03 -0.68876176004E+03  0.70248128886E+03  0.86253726859E+02 0.  0.
         -6    2    1    2    0  502 -0.11587023683E+02  0.76570900862E+02 -0.12029174510E+03  0.21539864316E+03  0.16102518300E+03 0.  0.
        -24    2    5    5    0    0  0.11164381183E+02 -0.23662425867E+02 -0.27799622155E+02  0.77046812607E+02  0.66924125216E+02 0.  0.
          5    1    3    3  501    0 -0.15998032156E+02  0.27767770797E+02 -0.48960119247E+03  0.49067138066E+03  0.47000000000E+01 0. -1.
        -13    1    4    4    0    0 -0.12167324225E+02 -0.10664000641E+02 -0.18661675498E+02  0.24698640061E+02  0.00000000000E+00 0.  1.
         14    1    4    4    0    0  0.39752380065E+02 -0.93674671018E+02 -0.67010008454E+03  0.67778264880E+03  0.00000000000E+00 0. -1.
         -5    1    5    5    0  502 -0.22751404866E+02  0.10023332673E+03 -0.92492122942E+02  0.13835183055E+03  0.47000000000E+01 0.  1.
         13    1    6    6    0    0  0.18823711899E+02  0.10949780318E+02  0.11078922825E+02  0.24433017612E+02  0.00000000000E+00 0. -1.
        -14    1    6    6    0    0 -0.76593307163E+01 -0.34612206185E+02 -0.38878544980E+02  0.52613794995E+02  0.00000000000E+00 0.  1.
</event>
<event>
12    1  0.8258923E-002  0.2505403E+03  0.7818608E-02  0.1113207E+00
         21   -1    0    0  501  502  0.00000000000E+00  0.00000000000E+00  0.16153975005E+03  0.16153975005E+03  0.00000000000E+00 0. -1.
         21   -1    0    0  502  503 -0.00000000000E+00 -0.00000000000E+00 -0.40000069599E+03  0.40000069599E+03  0.00000000000E+00 0. -1.
         -6    2    1    2    0  503  0.12603618167E+03 -0.13191260961E+03 -0.17174202689E+03  0.30375281287E+03  0.17171019730E+03 0.  0.
        -24    2    3    3    0    0  0.15565581252E+03 -0.98625832220E+02 -0.11329811515E+03  0.23011102514E+03  0.78478240540E+02 0.  0.
          6    2    1    2  501    0 -0.12603618167E+03  0.13191260961E+03 -0.66718919046E+02  0.25778763317E+03  0.16946089222E+03 0.  0.
         24    2    5    5    0    0 -0.61530770652E+02  0.23138339406E+01 -0.71047367052E+01  0.10115835288E+03  0.79944640281E+02 0.  0.
          5    1    5    5  501    0 -0.64505411020E+02  0.12959877567E+03 -0.59614182341E+02  0.15662928029E+03  0.47000000000E+01 0. -1.
        -11    1    6    6    0    0 -0.81028597936E+02  0.15872136969E+01 -0.23606158865E+01  0.81078514035E+02  0.00000000000E+00 0.  1.
         12    1    6    6    0    0  0.19497827284E+02  0.72662024372E+00 -0.47441208186E+01  0.20079838847E+02  0.00000000000E+00 0. -1.
         -5    1    3    3    0  503 -0.29619630850E+02 -0.33286777394E+02 -0.58443911738E+02  0.73641787731E+02  0.47000000000E+01 0.  1.
         13    1    4    4    0    0  0.58103575953E+02 -0.78327587417E+02 -0.35834704729E+02  0.10390073413E+03  0.00000000000E+00 0. -1.
        -14    1    4    4    0    0  0.97552236568E+02 -0.20298244803E+02 -0.77463410426E+02  0.12621029101E+03  0.00000000000E+00 0.  1.
</event>
<event>
12    1  0.8258923E-002  0.1960400E+03  0.7818608E-02  0.1154818E+00
         21   -1    0    0  501  502  0.00000000000E+00  0.00000000000E+00  0.89129916849E+02  0.89129916849E+02  0.00000000000E+00 0.  1.
         21   -1    0    0  502  503 -0.00000000000E+00 -0.00000000000E+00 -0.71220541461E+03  0.71220541461E+03  0.00000000000E+00 0.  1.
         -6    2    1    2    0  503  0.48276261849E+02 -0.76523899434E+02 -0.56693776119E+03  0.59741593537E+03  0.16522974952E+03 0.  0.
        -24    2    3    3    0    0  0.30900472051E+02 -0.29182703894E+02 -0.52177004459E+03  0.52955343107E+03  0.79852285832E+02 0.  0.
          6    2    1    2  501    0 -0.48276261849E+02  0.76523899434E+02 -0.56137736570E+02  0.20391939609E+03  0.17391138546E+03 0.  0.
         24    2    5    5    0    0 -0.72063784249E+02  0.10867132333E-01 -0.60777875043E+02  0.12352218707E+03  0.79815985144E+02 0.  0.
          5    1    5    5  501    0  0.23787522399E+02  0.76513032301E+02  0.46401384722E+01  0.80397209024E+02  0.47000000000E+01 0. -1.
        -11    1    6    6    0    0 -0.42949754575E+01  0.26299359794E+02  0.30050525683E+01  0.26816664235E+02  0.00000000000E+00 0.  1.
         12    1    6    6    0    0 -0.67768808791E+02 -0.26288492661E+02 -0.63782927611E+02  0.96705522831E+02  0.00000000000E+00 0. -1.
         -5    1    3    3    0  503  0.17375789799E+02 -0.47341195539E+02 -0.45167716605E+02  0.67862504297E+02  0.47000000000E+01 0.  1.
         11    1    4    4    0    0 -0.88290295747E+01 -0.16063882450E+02 -0.24871140290E+02  0.30896176170E+02  0.00000000000E+00 0. -1.
        -12    1    4    4    0    0  0.39729501625E+02 -0.13118821445E+02 -0.49689890430E+03  0.49865725490E+03  0.00000000000E+00 0.  1.
</event>
<event>
12    1  0.8258923E-002  0.2294049E+03  0.7818608E-02  0.1127269E+00
         21   -1    0    0  503  502  0.00000000000E+00  0.00000000000E+00  0.50201469995E+02  0.50201469995E+02  0.00000000000E+00 0.  1.
         21   -1    0    0  501  503 -0.00000000000E+00 -0.00000000000E+00 -0.12374583898E+04  0.12374583898E+04  0.00000000000E+00 0. -1.
          6    2    1    2  501    0  0.14930770268E+03 -0.21045352127E+02 -0.85019774717E+03  0.88060365873E+03  0.17288984225E+03 0.  0.
         24    2    3    3    0    0  0.61267484615E+02  0.36859535414E+02 -0.26846690448E+03  0.28938718455E+03  0.80982305245E+02 0.  0.
         -6    2    1    2    0  502 -0.14930770268E+03  0.21045352127E+02 -0.33705917265E+03  0.40705620108E+03  0.17131890744E+03 0.  0.
        -24    2    5    5    0    0 -0.54354335954E+02  0.30140600286E+02 -0.27486573892E+03  0.29308700090E+03  0.80535495530E+02 0.  0.
          5    1    3    3  501    0  0.88040218062E+02 -0.57904887540E+02 -0.58173084269E+03  0.59121647418E+03  0.47000000000E+01 0. -1.
        -11    1    4    4    0    0 -0.50830251364E+01 -0.19943978467E+02 -0.46364668235E+02  0.50727525882E+02  0.00000000000E+00 0.  1.
         12    1    4    4    0    0  0.66350509752E+02  0.56803513881E+02 -0.22210223624E+03  0.23865965867E+03  0.00000000000E+00 0. -1.
         -5    1    5    5    0  502 -0.94953366724E+02 -0.90952481593E+01 -0.62193433732E+02  0.11396920018E+03  0.47000000000E+01 0.  1.
         11    1    6    6    0    0 -0.12355468143E+02 -0.27576654462E+02 -0.75108553265E+02  0.80959398700E+02  0.00000000000E+00 0. -1.
        -12    1    6    6    0    0 -0.41998867811E+02  0.57717254748E+02 -0.19975718566E+03  0.21212760220E+03  0.00000000000E+00 0.  1.
</event>
<event>
12    1  0.8258923E-002  0.2161645E+03  0.7818608E-02  0.1137020E+00
         21   -1    0    0  501  502  0.00000000000E+00  0.00000000000E+00  0.10271489687E+03  0.10271489687E+03  0.00000000000E+00 0. -1.
         21   -1    0    0  502  503 -0.00000000000E+00 -0.00000000000E+00 -0.54808555095E+03  0.54808555095E+03  0.00000000000E+00 0.  1.
         -6    2    1    2    0  503  0.12996034075E+03  0.11799007848E+02 -0.35822179811E+03  0.41772963170E+03  0.17072282156E+03 0.  0.
        -24    2    3    3    0    0  0.74557303962E+01 -0.12771673201E+02 -0.19929059928E+03  0.21551115112E+03  0.80682152570E+02 0.  0.
          6    2    1    2  501    0 -0.12996034075E+03 -0.11799007848E+02 -0.87148855977E+02  0.23307081612E+03  0.17233158583E+03 0.  0.
         24    2    5    5    0    0 -0.72808883644E+00  0.12894706456E+02 -0.51379366475E+02  0.96643909534E+02  0.80829464818E+02 0.  0.
          5    1    5    5  501    0 -0.12923225192E+03 -0.24693714304E+02 -0.35769489502E+02  0.13642690659E+03  0.47000000000E+01 0. -1.
        -11    1    6    6    0    0 -0.29790935979E+02  0.30069083918E+02 -0.45911099298E+02  0.62445806207E+02  0.00000000000E+00 0.  1.
         12    1    6    6    0    0  0.29062847143E+02 -0.17174377461E+02 -0.54682671775E+01  0.34198103327E+02  0.00000000000E+00 0. -1.
         -5    1    3    3    0  503  0.12250461036E+03  0.24570681049E+02 -0.15893119883E+03  0.20221848058E+03  0.47000000000E+01 0.  1.
         13    1    4    4    0    0 -0.31742489480E+01 -0.69211195388E+01  0.61037197370E+01  0.97587471882E+01  0.00000000000E+00 0. -1.
        -14    1    4    4    0    0  0.10629979344E+02 -0.58505536622E+01 -0.20539431902E+03  0.20575240393E+03  0.00000000000E+00 0.  1.
</event>
<event>
12    1  0.8258923E-002  0.1854818E+03  0.7818608E-02  0.1165067E+00
         21   -1    0    0  501  502  0.00000000000E+00  0.00000000000E+00  0.17392133985E+03  0.17392133985E+03  0.00000000000E+00 0. -1.
         21   -1    0    0  502  503 -0.00000000000E+00 -0.00000000000E+00 -0.18931708135E+03  0.18931708135E+03  0.00000000000E+00 0. -1.
         -6    2    1    2    0  503 -0.38628892396E+02 -0.43528467491E+02 -0.28010058895E+02  0.18758480185E+03  0.17611523408E+03 0.  0.
        -24    2    3    3    0    0 -0.75037498057E+02 -0.79426922951E+02 -0.25918132867E+02  0.13619655587E+03  0.77061598835E+02 0.  0.
          6    2    1    2  501    0  0.38628892396E+02  0.43528467491E+02  0.12614317395E+02  0.17565361936E+03  0.16525179025E+03 0.  0.
         24    2    5    5    0    0  0.39726415249E+02 -0.18093929897E+02  0.50025653241E+02  0.10340251233E+03  0.79271276052E+02 0.  0.
          5    1    5    5  501    0 -0.10975228533E+01  0.61622397388E+02 -0.37411335846E+02  0.72251107023E+02  0.47000000000E+01 0. -1.
        -13    1    6    6    0    0  0.45827554491E+02 -0.18321603861E+02 -0.35484069759E+01  0.49481684598E+02  0.00000000000E+00 0.  1.
         14    1    6    6    0    0 -0.61011392418E+01  0.22767396368E+00  0.53574060217E+02  0.53920827735E+02  0.00000000000E+00 0. -1.
         -5    1    3    3    0  503  0.36408605661E+02  0.35898455461E+02 -0.20919260283E+01  0.51388245982E+02  0.47000000000E+01 0.  1.
         11    1    4    4    0    0 -0.19353053410E+02 -0.73353606086E+02 -0.37545968974E+01  0.75956495443E+02  0.00000000000E+00 0. -1.
        -12    1    4    4    0    0 -0.55684444647E+02 -0.60733168653E+01 -0.22163535970E+02  0.60240060426E+02  0.00000000000E+00 0.  1.
</event>
<event>
12    1  0.8258923E-002  0.2095211E+03  0.7818608E-02  0.1142886E+00
         21   -1    0    0  503  502  0.00000000000E+00  0.00000000000E+00  0.16757579126E+03  0.16757579126E+03  0.00000000000E+00 0. -1.
         21   -1    0    0  501  503 -0.00000000000E+00 -0.00000000000E+00 -0.46818075478E+03  0.46818075478E+03  0.00000000000E+00 0. -1.
          6    2    1    2  501    0 -0.10699852165E+03  0.49366316377E+02 -0.36328849071E+03  0.41705964202E+03  0.16755447083E+03 0.  0.
         24    2    3    3    0    0 -0.66396039550E+02  0.15853410530E+02 -0.88744783059E+02  0.13747420996E+03  0.79773160844E+02 0.  0.
         -6    2    1    2    0  502  0.10699852165E+03 -0.49366316377E+02  0.62683527186E+02  0.21869690401E+03  0.17324374279E+03 0.  0.
        -24    2    5    5    0    0  0.13032603846E+03 -0.49774904266E+02  0.95366030043E+01  0.16046439132E+03  0.78711223408E+02 0.  0.
          5    1    3    3  501    0 -0.40602482099E+02  0.33512905847E+02 -0.27454370765E+03  0.27958543206E+03  0.47000000000E+01 0. -1.
        -13    1    4    4    0    0  0.56360103217E+01 -0.30442811050E+00 -0.56728299339E+02  0.57008396177E+02  0.00000000000E+00 0.  1.
         14    1    4    4    0    0 -0.72032049872E+02  0.16157838640E+02 -0.32016483721E+02  0.80465813785E+02  0.00000000000E+00 0. -1.
         -5    1    5    5    0  502 -0.23327516809E+02  0.40858788896E+00  0.53146924182E+02  0.58232512692E+02  0.47000000000E+01 0.  1.
         11    1    6    6    0    0  0.85069207647E+02 -0.31290409358E+02  0.43896286005E+02  0.10071118971E+03  0.00000000000E+00 0. -1.
        -12    1    6    6    0    0  0.45256830811E+02 -0.18484494908E+02 -0.34359683001E+02  0.59753201613E+02  0.00000000000E+00 0.  1.
</event>
<event>
12    1  0.8258923E-002  0.2487958E+03  0.7818608E-02  0.1114168E+00
         21   -1    0    0  503  502  0.00000000000E+00  0.00000000000E+00  0.70258476659E+03  0.70258476659E+03  0.00000000000E+00 0. -1.
         21   -1    0    0  501  503 -0.00000000000E+00 -0.00000000000E+00 -0.21125790811E+03  0.21125790811E+03  0.00000000000E+00 0. -1.
          6    2    1    2  501    0 -0.76093172750E+02 -0.16245403621E+03 -0.10339032991E+03  0.26942331692E+03  0.17238874256E+03 0.  0.
         24    2    3    3    0    0 -0.44224250443E+02 -0.16267403732E+03 -0.13047282563E+03  0.22733735508E+03  0.78996759705E+02 0.  0.
         -6    2    1    2    0  502  0.76093172750E+02  0.16245403621E+03  0.59471718839E+03  0.64441935777E+03  0.17148262210E+03 0.  0.
        -24    2    5    5    0    0  0.70116408658E+02  0.41783649633E+02  0.39723761810E+03  0.41286518573E+03  0.77445156185E+02 0.  0.
          5    1    3    3  501    0 -0.31868922307E+02  0.22000110830E+00  0.27082495721E+02  0.42085961840E+02  0.47000000000E+01 0. -1.
        -13    1    4    4    0    0 -0.12291269094E+02 -0.78727290990E+02 -0.15054917217E+02  0.81090765041E+02  0.00000000000E+00 0.  1.
         14    1    4    4    0    0 -0.31932981349E+02 -0.83946746331E+02 -0.11541790841E+03  0.14624659004E+03  0.00000000000E+00 0. -1.
         -5    1    5    5    0  502  0.59767640921E+01  0.12067038658E+03  0.19747957029E+03  0.23155417204E+03  0.47000000000E+01 0.  1.
         11    1    6    6    0    0  0.68763645929E+02 -0.69999484937E+00  0.21469868440E+03  0.22544279558E+03  0.00000000000E+00 0. -1.
        -12    1    6    6    0    0  0.13527627288E+01  0.42483644482E+02  0.18253893369E+03  0.18742239015E+03  0.00000000000E+00 0.  1.
</event>
<event>
12    1  0.8258923E-002  0.2354495E+03  0.7818608E-02  0.1123093E+00
         21   -1    0    0  501  502  0.00000000000E+00  0.00000000000E+00  0.11138127185E+03  0.11138127185E+03  0.00000000000E+00 0. -1.
         21   -1    0    0  502  503 -0.00000000000E+00 -0.00000000000E+00 -0.54997155331E+03  0.54997155331E+03  0.00000000000E+00 0. -1.
         -6    2    1    2    0  503 -0.14036108437E+03  0.74371420378E+02 -0.11406520271E+03  0.26041267614E+03  0.17196380215E+03 0.  0.
        -24    2    3    3    0    0 -0.93281130802E+02  0.77985138337E+02 -0.14413521379E+03  0.20423548725E+03  0.78448220058E+02 0.  0.
          6    2    1    2  501    0  0.14036108437E+03 -0.74371420378E+02 -0.32452507875E+03  0.40094014903E+03  0.17379336636E+03 0.  0.
         24    2    5    5    0    0  0.16360094047E+02  0.14526279057E+02 -0.10968341601E+03  0.13739114673E+03  0.79794799268E+02 0.  0.
          5    1    5    5  501    0  0.12400099032E+03 -0.88897699436E+02 -0.21484166274E+03  0.26354900230E+03  0.47000000000E+01 0. -1.
        -13    1    6    6    0    0 -0.68736688133E+01 -0.27021343563E+02 -0.70236330813E+02  0.75568131491E+02  0.00000000000E+00 0.  1.
         14    1    6    6    0    0  0.23233762861E+02  0.41547622621E+02 -0.39447085199E+02  0.61823015235E+02  0.00000000000E+00 0. -1.
         -5    1    3    3    0  503 -0.47079953568E+02 -0.36137179593E+01  0.30070011083E+02  0.56177188894E+02  0.47000000000E+01 0.  1.
         11    1    4    4    0    0 -0.38369465265E+01 -0.13402313193E+02 -0.28951867754E+02  0.32133390795E+02  0.00000000000E+00 0. -1.
        -12    1    4    4    0    0 -0.89444184275E+02  0.91387451531E+02 -0.11518334604E+03  0.17210209645E+03  0.00000000000E+00 0.  1.
</event>
<event>
12    1  0.8258923E-002  0.2722169E+03  0.7818608E-02  0.1100459E+00
         21   -1    0    0  503  502  0.00000000000E+00  0.00000000000E+00  0.12618312172E+04  0.12618312172E+04  0.00000000000E+00 0. -1.
         21   -1    0    0  501  503 -0.00000000000E+00 -0.00000000000E+00 -0.11962825261E+03  0.11962825261E+03  0.00000000000E+00 0. -1.
          6    2    1    2  501    0 -0.20848011672E+03  0.29623527493E+02  0.77160003027E+02  0.28294119795E+03  0.17251244298E+03 0.  0.
         24    2    3    3    0    0 -0.15752841753E+03  0.33542800906E+02 -0.11375980010E+02  0.18060769099E+03  0.80928383782E+02 0.  0.
         -6    2    1    2    0  502  0.20848011672E+03 -0.29623527493E+02  0.10650429616E+04  0.10985182719E+04  0.16758392288E+03 0.  0.
        -24    2    5    5    0    0  0.19975074707E+03  0.20801283652E+02  0.81167100126E+03  0.83998722201E+03  0.80222593443E+02 0.  0.
          5    1    3    3  501    0 -0.50951699194E+02 -0.39192734132E+01  0.88535983037E+02  0.10233350696E+03  0.47000000000E+01 0. -1.
        -13    1    4    4    0    0 -0.43169280619E+02  0.23961259551E+01  0.32640976144E+02  0.54173439363E+02  0.00000000000E+00 0.  1.
         14    1    4    4    0    0 -0.11435913691E+03  0.31146674951E+02 -0.44016956155E+02  0.12643425162E+03  0.00000000000E+00 0. -1.
         -5    1    5    5    0  502  0.87293696523E+01 -0.50424811144E+02  0.25337196032E+03  0.25853104988E+03  0.47000000000E+01 0.  1.
         11    1    6    6    0    0  0.17587200346E+03  0.40364179393E+01  0.76484545528E+03  0.78481579031E+03  0.00000000000E+00 0. -1.
        -12    1    6    6    0    0  0.23878743608E+02  0.16764865712E+02  0.46825545983E+02  0.55171431695E+02  0.00000000000E+00 0.  1.
</event>
<event>
12    1  0.8258923E-002  0.2097375E+03  0.7818608E-02  0.1141918E+00
         21   -1    0    0  501  502  0.00000000000E+00  0.00000000000E+00  0.47277555859E+03  0.47277555859E+03  0.00000000000E+00 0.  1.
         21   -1    0    0  502  503 -0.00000000000E+00 -0.00000000000E+00 -0.17538760666E+03  0.17538760666E+03  0.00000000000E+00 0.  1.
         -6    2    1    2    0  503 -0.63415810988E+02  0.99796530990E+02 -0.73931575585E+02  0.22170332875E+03  0.17235305460E+03 0.  0.
        -24    2    3    3    0    0 -0.55519864969E+02  0.10350066092E+03  0.60007528636E+01  0.14115934279E+03  0.78071177820E+02 0.  0.
          6    2    1    2  501    0  0.63415810988E+02 -0.99796530990E+02  0.37131952752E+03  0.42645983651E+03  0.17323073619E+03 0.  0.
         24    2    5    5    0    0  0.76419723293E+02 -0.12277249351E+03  0.36153669557E+03  0.39791530306E+03  0.81943559195E+02 0.  0.
          5    1    5    5  501    0 -0.13003912305E+02  0.22975962522E+02  0.97828319485E+01  0.28544533452E+02  0.47000000000E+01 0. -1.
        -11    1    6    6    0    0 -0.97318947781E+01 -0.41518381398E+02  0.14463500933E+03  0.15079048940E+03  0.00000000000E+00 0.  1.
         12    1    6    6    0    0  0.86151618071E+02 -0.81254112114E+02  0.21690168624E+03  0.24712481365E+03  0.00000000000E+00 0. -1.
         -5    1    3    3    0  503 -0.78959460182E+01 -0.37041299285E+01 -0.79932328449E+02  0.80543985954E+02  0.47000000000E+01 0.  1.
         13    1    4    4    0    0 -0.24036098251E+02  0.42672743349E+02  0.41336238697E+02  0.64088857641E+02  0.00000000000E+00 0. -1.
        -14    1    4    4    0    0 -0.31483766719E+02  0.60827917569E+02 -0.35335485834E+02  0.77070485153E+02  0.00000000000E+00 0.  1.
</event>
<event>
12    1  0.8258923E-002  0.1851355E+03  0.7818608E-02  0.1165143E+00
         21   -1    0    0  501  502  0.00000000000E+00  0.00000000000E+00  0.40722610187E+02  0.40722610187E+02  0.00000000000E+00 0. -1.
         21   -1    0    0  502  503 -0.00000000000E+00 -0.00000000000E+00 -0.80813584643E+03  0.80813584643E+03  0.00000000000E+00 0.  1.
         -6    2    1    2    0  503 -0.45720397345E+02 -0.14995096576E+02 -0.41624906802E+03  0.45188057924E+03  0.16916726517E+03 0.  0.
        -24    2    3    3    0    0  0.17252926633E+02  0.40521870683E+02 -0.18497343180E+03  0.20579465299E+03  0.78718379340E+02 0.  0.
          6    2    1    2  501    0  0.45720397345E+02  0.14995096576E+02 -0.35116416822E+03  0.39697787738E+03  0.17877347240E+03 0.  0.
         24    2    5    5    0    0  0.15373261365E+02  0.17804505456E+02 -0.35695201478E+03  0.36560224020E+03  0.75477941165E+02 0.  0.
          5    1    5    5  501    0  0.30347135979E+02 -0.28094088800E+01  0.57878465656E+01  0.31375637177E+02  0.47000000000E+01 0. -1.
        -13    1    6    6    0    0  0.65453594397E+01 -0.24349358985E+02 -0.23341904480E+03  0.23477688022E+03  0.00000000000E+00 0.  1.
         14    1    6    6    0    0  0.88279019255E+01  0.42153864442E+02 -0.12353296999E+03  0.13082535998E+03  0.00000000000E+00 0. -1.
         -5    1    3    3    0  503 -0.62973323978E+02 -0.55516967259E+02 -0.23127563622E+03  0.24608592625E+03  0.47000000000E+01 0.  1.
         13    1    4    4    0    0  0.44309832850E+02  0.48291842035E+01 -0.10627802676E+03  0.11524626362E+03  0.00000000000E+00 0. -1.
        -14    1    4    4    0    0 -0.27056906217E+02  0.35692686479E+02 -0.78695405038E+02  0.90548389363E+02  0.00000000000E+00 0.  1.
</event>
<event>
12    1  0.8258923E-002  0.2810900E+03  0.7818608E-02  0.1095200E+00
         21   -1    0    0  503  502  0.00000000000E+00  0.00000000000E+00  0.20633371639E+03  0.20633371639E+03  0.00000000000E+00 0. -1.
         21   -1    0    0  501  503 -0.00000000000E+00 -0.00000000000E+00 -0.45561661469E+03  0.45561661469E+03  0.00000000000E+00 0. -1.
          6    2    1    2  501    0 -0.17241883004E+03  0.13749138261E+03 -0.25793726505E+03  0.38150129278E+03  0.17429707526E+03 0.  0.
         24    2    3    3    0    0 -0.43258401744E+02  0.92754632237E+02 -0.66146561486E+02  0.14593907797E+03  0.80300284924E+02 0.  0.
         -6    2    1    2    0  502  0.17241883004E+03 -0.13749138261E+03  0.86543667515E+01  0.28044903830E+03  0.17304517265E+03 0.  0.
        -24    2    5    5    0    0  0.11613937818E+03 -0.11822465699E+03 -0.56362544593E+02  0.19220011662E+03  0.79364499054E+02 0.  0.
          5    1    3    3  501    0 -0.12916042829E+03  0.44736750369E+02 -0.19179070357E+03  0.23556221481E+03  0.47000000000E+01 0. -1.
        -13    1    4    4    0    0 -0.64405432889E+02  0.67896473671E+02 -0.32505759157E+02  0.99068740281E+02  0.00000000000E+00 0.  1.
         14    1    4    4    0    0  0.21147031145E+02  0.24858158566E+02 -0.33640802328E+02  0.46870337687E+02  0.00000000000E+00 0. -1.
         -5    1    5    5    0  502  0.56279451854E+02 -0.19266725619E+02  0.65016911345E+02  0.88248921681E+02  0.47000000000E+01 0.  1.
         11    1    6    6    0    0  0.63910130299E+02 -0.43655713421E+02  0.12037157177E+02  0.78327640217E+02  0.00000000000E+00 0. -1.
        -12    1    6    6    0    0  0.52229247884E+02 -0.74568943567E+02 -0.68399701770E+02  0.11387247640E+03  0.00000000000E+00 0.  1.
</event>
<event>
12    1  0.8258923E-002  0.2092278E+03  0.7818608E-02  0.1142387E+00
         21   -1    0    0  501  502  0.00000000000E+00  0.00000000000E+00  0.80842681495E+02  0.80842681495E+02  0.00000000000E+00 0.  1.
         21   -1    0    0  502  503 -0.00000000000E+00 -0.00000000000E+00 -0.71920230369E+03  0.71920230369E+03  0.00000000000E+00 0.  1.
         -6    2    1    2    0  503 -0.86877729673E+02  0.82326716424E+02 -0.52011859586E+03  0.56062430251E+03  0.17161243154E+03 0.  0.
        -24    2    3    3    0    0 -0.11887038723E+03  0.75207446364E+02 -0.49021100007E+03  0.51600627443E+03  0.78545029872E+02 0.  0.
          6    2    1    2  501    0  0.86877729673E+02 -0.82326716424E+02 -0.11824102633E+03  0.23942068267E+03  0.17034052610E+03 0.  0.
         24    2    5    5    0    0  0.91215763084E+02 -0.39299068270E+02 -0.75869657310E+01  0.12052321353E+03  0.67849471253E+02 0.  0.
          5    1    5    5  501    0 -0.43380334110E+01 -0.43027648154E+02 -0.11065406060E+03  0.11889746914E+03  0.47000000000E+01 0. -1.
        -11    1    6    6    0    0 -0.50005220305E+01 -0.67979225914E+01  0.14327722437E+02  0.16628307261E+02  0.00000000000E+00 0.  1.
         12    1    6    6    0    0  0.96216285115E+02 -0.32501145679E+02 -0.21914688168E+02  0.10389490627E+03  0.00000000000E+00 0. -1.
         -5    1    3    3    0  503  0.31992657557E+02  0.71192700605E+01 -0.29907595791E+02  0.44618028080E+02  0.47000000000E+01 0.  1.
         13    1    4    4    0    0 -0.39824906746E+02 -0.13433100269E+02 -0.14270460681E+03  0.14876517128E+03  0.00000000000E+00 0. -1.
        -14    1    4    4    0    0 -0.79045480484E+02  0.88640546632E+02 -0.34750639326E+03  0.36724110316E+03  0.00000000000E+00 0.  1.
</event>
<event>
12    1  0.8258923E-002  0.2010083E+03  0.7818608E-02  0.1149525E+00
         21   -1    0    0  501  502  0.00000000000E+00  0.00000000000E+00  0.75116108877E+03  0.75116108877E+03  0.00000000000E+00 0. -1.
         21   -1    0    0  502  503 -0.00000000000E+00 -0.00000000000E+00 -0.12282616952E+03  0.12282616952E+03  0.00000000000E+00 0. -1.
         -6    2    1    2    0  503 -0.71204063560E+02 -0.76304615167E+02 -0.16359573834E+02  0.19868337933E+03  0.16827072414E+03 0.  0.
        -24    2    3    3    0    0 -0.45435772367E+02 -0.95570173553E+02 -0.59958271963E+02  0.14429493341E+03  0.77639976476E+02 0.  0.
          6    2    1    2  501    0  0.71204063560E+02  0.76304615167E+02  0.64469449309E+03  0.67530387897E+03  0.17179035646E+03 0.  0.
         24    2    5    5    0    0  0.30087026404E+02  0.13423841808E+02  0.14419336291E+03  0.16917338818E+03  0.82112609708E+02 0.  0.
          5    1    5    5  501    0  0.41117037156E+02  0.62880773360E+02  0.50050113017E+03  0.50613049079E+03  0.47000000000E+01 0. -1.
        -13    1    6    6    0    0  0.88474192373E+00  0.31486243198E+02  0.13896134740E+02  0.34427733583E+02  0.00000000000E+00 0.  1.
         14    1    6    6    0    0  0.29202284480E+02 -0.18062401390E+02  0.13029722817E+03  0.13474565460E+03  0.00000000000E+00 0. -1.
         -5    1    3    3    0  503 -0.25768291192E+02  0.19265558385E+02  0.43598698128E+02  0.54388445918E+02  0.47000000000E+01 0.  1.
         11    1    4    4    0    0  0.21230133726E+02 -0.19538959232E+02 -0.52555090946E+01  0.29327630006E+02  0.00000000000E+00 0. -1.
        -12    1    4    4    0    0 -0.66665906094E+02 -0.76031214321E+02 -0.54702762868E+02  0.11496730340E+03  0.00000000000E+00 0.  1.
</event>
<event>
12    1  0.8258923E-002  0.3010312E+03  0.7818608E-02  0.1084822E+00
         21   -1    0    0  503  502  0.00000000000E+00  0.00000000000E+00  0.10325536668E+04  0.10325536668E+04  0.00000000000E+00 0.  1.
         21   -1    0    0  501  503 -0.00000000000E+00 -0.00000000000E+00 -0.12641992474E+03  0.12641992474E+03  0.00000000000E+00 0.  1.
          6    2    1    2  501    0 -0.19779808647E+03 -0.14662237921E+03  0.13130134340E+03  0.32771849220E+03  0.17186378983E+03 0.  0.
         24    2    3    3    0    0 -0.11790024439E+03 -0.77284777124E+02  0.44649405030E+01  0.16248855747E+03  0.80679558823E+02 0.  0.
         -6    2    1    2    0  502  0.19779808647E+03  0.14662237921E+03  0.77483239870E+03  0.83125509939E+03  0.17319812090E+03 0.  0.
        -24    2    5    5    0    0  0.11540320804E+03  0.14690475821E+03  0.41631917101E+03  0.46336541462E+03  0.80541584933E+02 0.  0.
          5    1    3    3  501    0 -0.79897842077E+02 -0.69337602085E+02  0.12683640290E+03  0.16522993473E+03  0.47000000000E+01 0. -1.
        -11    1    4    4    0    0 -0.29645751491E+02 -0.29516554663E+02  0.38166083395E+02  0.56628151148E+02  0.00000000000E+00 0.  1.
         12    1    4    4    0    0 -0.88254492902E+02 -0.47768222460E+02 -0.33701142892E+02  0.10586040632E+03  0.00000000000E+00 0. -1.
         -5    1    5    5    0  502  0.82394878435E+02 -0.28237900133E+00  0.35851322769E+03  0.36788968477E+03  0.47000000000E+01 0.  1.
         11    1    6    6    0    0  0.88379433611E+02  0.51813676518E+02  0.24523497841E+03  0.26577391895E+03  0.00000000000E+00 0. -1.
        -12    1    6    6    0    0  0.27023774425E+02  0.95091081692E+02  0.17108419260E+03  0.19759149566E+03  0.00000000000E+00 0.  1.
</event>
<event>
12    1  0.8258923E-002  0.1757296E+03  0.7818608E-02  0.1172214E+00
         21   -1    0    0  501  502  0.00000000000E+00  0.00000000000E+00  0.20720720709E+04  0.20720720709E+04  0.00000000000E+00 0.  1.
         21   -1    0    0  502  503 -0.00000000000E+00 -0.00000000000E+00 -0.30436956496E+02  0.30436956496E+02  0.00000000000E+00 0.  1.
         -6    2    1    2    0  503 -0.32100453732E+02  0.14456239273E+02  0.26928146498E+03  0.32154844593E+03  0.17216699368E+03 0.  0.
        -24    2    3    3    0    0 -0.77093787700E+02  0.75106432884E+01  0.11376823299E+03  0.15944015888E+03  0.80486592434E+02 0.  0.
          6    2    1    2  501    0  0.32100453732E+02 -0.14456239273E+02  0.17723536494E+04  0.17809605815E+04  0.17130006460E+03 0.  0.
         24    2    5    5    0    0  0.62923133806E+02 -0.51003114651E+02  0.11202644207E+04  0.11271042028E+04  0.93866251720E+02 0.  0.
          5    1    5    5  501    0 -0.30822680074E+02  0.36546875378E+02  0.65208922869E+03  0.65385637864E+03  0.47000000000E+01 0. -1.
        -11    1    6    6    0    0 -0.21503917529E+02 -0.87146559457E+01  0.10907462428E+03  0.11151518891E+03  0.00000000000E+00 0.  1.
         12    1    6    6    0    0  0.84427051335E+02 -0.42288458705E+02  0.10111897964E+04  0.10155890139E+04  0.00000000000E+00 0. -1.
         -5    1    3    3    0  503  0.44993333968E+02  0.69455959845E+01  0.15551323199E+03  0.16210828705E+03  0.47000000000E+01 0.  1.
         11    1    4    4    0    0 -0.58879824250E+02  0.14042747123E+02  0.12368094893E+03  0.13769898176E+03  0.00000000000E+00 0. -1.
        -12    1    4    4    0    0 -0.18213963450E+02 -0.65321038344E+01 -0.99127159413E+01  0.21741177116E+02  0.00000000000E+00 0.  1.
</event>
<event>
12    1  0.8258923E-002  0.3384092E+03  0.7818608E-02  0.1067480E+00
         21   -1    0    0  501  502  0.00000000000E+00  0.00000000000E+00  0.71018903669E+03  0.71018903669E+03  0.00000000000E+00 0.  1.
         21   -1    0    0  502  503 -0.00000000000E+00 -0.00000000000E+00 -0.16128905551E+03  0.16128905551E+03  0.00000000000E+00 0. -1.
         -6    2    1    2    0  503  0.12787837037E+03 -0.26235215388E+03  0.28247832674E+03  0.44081152526E+03  0.17128708495E+03 0.  0.
        -24    2    3    3    0    0  0.63448730361E+01 -0.12575763883E+03  0.84128461911E+02  0.17100935441E+03  0.79444068723E+02 0.  0.
          6    2    1    2  501    0 -0.12787837037E+03  0.26235215388E+03  0.26642165444E+03  0.43066656693E+03  0.17120649423E+03 0.  0.
         24    2    5    5    0    0 -0.11131101359E+02  0.97912456211E+02  0.15348891907E+03  0.19948215632E+03  0.80768384384E+02 0.  0.
          5    1    5    5  501    0 -0.11674726901E+03  0.16443969767E+03  0.11293273537E+03  0.23118441061E+03  0.47000000000E+01 0. -1.
        -11    1    6    6    0    0  0.20158348468E+02 -0.32670218216E+01  0.35325878520E+02  0.40803800531E+02  0.00000000000E+00 0.  1.
         12    1    6    6    0    0 -0.31289449828E+02  0.10117947803E+03  0.11816304055E+03  0.15867835579E+03  0.00000000000E+00 0. -1.
         -5    1    3    3    0  503  0.12153349734E+03 -0.13659451505E+03  0.19834986483E+03  0.26980217085E+03  0.47000000000E+01 0.  1.
         11    1    4    4    0    0 -0.35261911564E+02 -0.74095559273E+02  0.39578123657E+02  0.91104238010E+02  0.00000000000E+00 0. -1.
        -12    1    4    4    0    0  0.41606784600E+02 -0.51662079558E+02  0.44550338254E+02  0.79905116404E+02  0.00000000000E+00 0.  1.
</event>
<event>
12    1  0.8258923E-002  0.1775229E+03  0.7818608E-02  0.1170372E+00
         21   -1    0    0  503  502  0.00000000000E+00  0.00000000000E+00  0.16776307863E+03  0.16776307863E+03  0.00000000000E+00 0. -1.
         21   -1    0    0  501  503 -0.00000000000E+00 -0.00000000000E+00 -0.18899796294E+03  0.18899796294E+03  0.00000000000E+00 0. -1.
          6    2    1    2  501    0  0.40124386201E+02  0.10938520574E+02 -0.27961798051E+02  0.17911068550E+03  0.17195684898E+03 0.  0.
         24    2    3    3    0    0  0.70074422341E+02 -0.44638639657E+02 -0.11550243392E+02  0.11370996280E+03  0.76769230166E+02 0.  0.
         -6    2    1    2    0  502 -0.40124386201E+02 -0.10938520574E+02  0.67269137383E+01  0.17765035607E+03  0.17258267596E+03 0.  0.
        -24    2    5    5    0    0 -0.29633043347E+02  0.10317302884E+02 -0.56058385672E+02  0.11037508477E+03  0.89752731084E+02 0.  0.
          5    1    3    3  501    0 -0.29950036140E+02  0.55577160230E+02 -0.16411554659E+02  0.65400722705E+02  0.47000000000E+01 0. -1.
        -11    1    4    4    0    0  0.36760749032E+02 -0.12434573563E+02 -0.42837170629E+02  0.57801336288E+02  0.00000000000E+00 0.  1.
         12    1    4    4    0    0  0.33313673309E+02 -0.32204066094E+02  0.31286927237E+02  0.55908626510E+02  0.00000000000E+00 0. -1.
         -5    1    5    5    0  502 -0.10491342853E+02 -0.21255823458E+02  0.62785299410E+02  0.67275271295E+02  0.47000000000E+01 0.  1.
         11    1    6    6    0    0 -0.44377513150E+02 -0.16559142155E+02 -0.63121204127E+02  0.78916761671E+02  0.00000000000E+00 0. -1.
        -12    1    6    6    0    0  0.14744469803E+02  0.26876445039E+02  0.70628184546E+01  0.31458323099E+02  0.00000000000E+00 0.  1.
</event>
<event>
12    1  0.8258923E-002  0.2381372E+03  0.7818608E-02  0.1121446E+00
         21   -1    0    0  501  502  0.00000000000E+00  0.00000000000E+00  0.21937771574E+03  0.21937771574E+03  0.00000000000E+00 0. -1.
         21   -1    0    0  502  503 -0.00000000000E+00 -0.00000000000E+00 -0.86655545351E+03  0.86655545351E+03  0.00000000000E+00 0.  1.
         -6    2    1    2    0  503 -0.16172725419E+03  0.10718777397E+02 -0.77986784053E+03  0.81541596366E+03  0.17446704030E+03 0.  0.
        -24    2    3    3    0    0 -0.91329409480E+02  0.21500706206E+02 -0.22643704552E+03  0.25740176903E+03  0.78604031170E+02 0.  0.
          6    2    1    2  501    0  0.16172725419E+03 -0.10718777397E+02  0.13269010276E+03  0.27051720559E+03  0.17117914071E+03 0.  0.
         24    2    5    5    0    0  0.71916914353E+02  0.55645594282E+02  0.90026149520E+02  0.15088263753E+03  0.79952410701E+02 0.  0.
          5    1    5    5  501    0  0.89810339837E+02 -0.66364371678E+02  0.42663953245E+02  0.11963456807E+03  0.47000000000E+01 0. -1.
        -11    1    6    6    0    0 -0.16803003771E+02  0.14505722424E+02  0.25051081973E+02  0.33471086430E+02  0.00000000000E+00 0.  1.
         12    1    6    6    0    0  0.88719918124E+02  0.41139871857E+02  0.64975067546E+02  0.11741155110E+03  0.00000000000E+00 0. -1.
         -5    1    3    3    0  503 -0.70397844711E+02 -0.10781928809E+02 -0.55343079502E+03  0.55801419462E+03  0.47000000000E+01 0.  1.
         11    1    4    4    0    0 -0.73208923954E+02 -0.19376330421E+02 -0.11927149449E+03  0.14128226402E+03  0.00000000000E+00 0. -1.
        -12    1    4    4    0    0 -0.18120485525E+02  0.40877036627E+02 -0.10716555103E+03  0.11611950502E+03  0.00000000000E+00 0.  1.
</event>
<event>
12    1  0.8258923E-002  0.1781294E+03  0.7818608E-02  0.1170443E+00
         21   -1    0    0  503  502  0.00000000000E+00  0.00000000000E+00  0.35684791193E+03  0.35684791193E+03  0.00000000000E+00 0. -1.
         21   -1    0    0  501  503 -0.00000000000E+00 -0.00000000000E+00 -0.15734175650E+03  0.15734175650E+03  0.00000000000E+00 0. -1.
          6    2    1    2  501    0 -0.22093885234E+01  0.48423415971E+02 -0.71284772333E+02  0.19186350281E+03  0.17140704867E+03 0.  0.
         24    2    3    3    0    0  0.46890439827E+02  0.47157826346E+02  0.17665924355E+01  0.10371030233E+03  0.79562126840E+02 0.  0.
         -6    2    1    2    0  502  0.22093885234E+01 -0.48423415971E+02  0.27079092777E+03  0.32232616562E+03  0.16797833751E+03 0.  0.
        -24    2    5    5    0    0 -0.16573445461E+00 -0.74623386276E+02  0.94606571893E+02  0.14412656712E+03  0.79078357703E+02 0.  0.
          5    1    3    3  501    0 -0.49099828350E+02  0.12655896248E+01 -0.73051364769E+02  0.88153200485E+02  0.47000000000E+01 0. -1.
        -13    1    4    4    0    0 -0.13176970852E+02  0.10419636378E+02  0.24512105005E+02  0.29716067621E+02  0.00000000000E+00 0.  1.
         14    1    4    4    0    0  0.60067410679E+02  0.36738189968E+02 -0.22745512570E+02  0.73994234707E+02  0.00000000000E+00 0. -1.
         -5    1    5    5    0  502  0.23751229780E+01  0.26199970305E+02  0.17618435587E+03  0.17819959851E+03  0.47000000000E+01 0.  1.
         11    1    6    6    0    0  0.54781350694E+01 -0.21330361368E+02  0.87305782317E+02  0.90040512581E+02  0.00000000000E+00 0. -1.
        -12    1    6    6    0    0 -0.56438695240E+01 -0.53293024908E+02  0.73007895758E+01  0.54086054538E+02  0.00000000000E+00 0.  1.
</event>
<event>
12    1  0.8258923E-002  0.3727690E+03  0.7818608E-02  0.1053646E+00
         21   -1    0    0  503  502  0.00000000000E+00  0.00000000000E+00  0.54396881162E+03  0.54396881162E+03  0.00000000000E+00 0. -1.
         21   -1    0    0  501  503 -0.00000000000E+00 -0.00000000000E+00 -0.26477656725E+03  0.26477656725E+03  0.00000000000E+00 0. -1.
          6    2    1    2  501    0  0.65438212723E+02 -0.32459418115E+03  0.63509957916E+02  0.37814052629E+03  0.17121098315E+03 0.  0.
         24    2    3    3    0    0  0.10030445004E+03 -0.22981872810E+03  0.74913487823E+01  0.26256277941E+03  0.77494918161E+02 0.  0.
         -6    2    1    2    0  502 -0.65438212723E+02  0.32459418115E+03  0.21568228646E+03  0.43060485258E+03  0.17105013374E+03 0.  0.
        -24    2    5    5    0    0 -0.47804617293E+02  0.66839768060E+02  0.47496064068E+02  0.12229173810E+03  0.77113922722E+02 0.  0.
          5    1    3    3  501    0 -0.34866237318E+02 -0.94775453047E+02  0.56018609134E+02  0.11557774688E+03  0.47000000000E+01 0. -1.
        -11    1    4    4    0    0  0.11213084184E+03 -0.21968437270E+03  0.96723878650E+01  0.24683618938E+03  0.00000000000E+00 0.  1.
         12    1    4    4    0    0 -0.11826391802E+02 -0.10134355399E+02 -0.21810390827E+01  0.15726590027E+02  0.00000000000E+00 0. -1.
         -5    1    5    5    0  502 -0.17633595430E+02  0.25775441309E+03  0.16818622239E+03  0.30831311448E+03  0.47000000000E+01 0.  1.
         13    1    6    6    0    0 -0.33079633403E+02  0.77834895144E+02  0.16365339498E+02  0.86141496301E+02  0.00000000000E+00 0. -1.
        -14    1    6    6    0    0 -0.14724983890E+02 -0.10995127083E+02  0.31130724569E+02  0.36150241802E+02  0.00000000000E+00 0.  1.
</event>
<event>
12    1  0.8258923E-002  0.1913587E+03  0.7818608E-02  0.1158637E+00
         21   -1    0    0  501  502  0.00000000000E+00  0.00000000000E+00  0.78922426677E+02  0.78922426677E+02  0.00000000000E+00 0. -1.
         21   -1    0    0  502  503 -0.00000000000E+00 -0.00000000000E+00 -0.71888843729E+03  0.71888843729E+03  0.00000000000E+00 0. -1.
         -6    2    1    2    0  503 -0.49153489010E+02 -0.42835899417E+02 -0.56102395936E+03  0.59080845151E+03  0.17336598181E+03 0.  0.
        -24    2    3    3    0    0 -0.31201588449E+02 -0.50565631255E+02 -0.56239513869E+03  0.57065926739E+03  0.76375946782E+02 0.  0.
          6    2    1    2  501    0  0.49153489010E+02  0.42835899417E+02 -0.78942051258E+02  0.20700241245E+03  0.17990878673E+03 0.  0.
         24    2    5    5    0    0 -0.14562670812E+02  0.29951619226E+02 -0.10699126646E+03  0.13604748188E+03  0.77153194053E+02 0.  0.
          5    1    5    5  501    0  0.63716159822E+02  0.12884280191E+02  0.28049215204E+02  0.70954930569E+02  0.47000000000E+01 0. -1.
        -13    1    6    6    0    0 -0.40533849085E+02  0.39186933846E+02 -0.68847106561E+02  0.88986138177E+02  0.00000000000E+00 0.  1.
         14    1    6    6    0    0  0.25971178273E+02 -0.92353146198E+01 -0.38144159901E+02  0.47061343708E+02  0.00000000000E+00 0. -1.
         -5    1    3    3    0  503 -0.17951900561E+02  0.77297318384E+01  0.13711793378E+01  0.20149184123E+02  0.47000000000E+01 0.  1.
         11    1    4    4    0    0 -0.31641356451E+02 -0.49141939949E+02 -0.20262943096E+03  0.21089047392E+03  0.00000000000E+00 0. -1.
        -12    1    4    4    0    0  0.43976800224E+00 -0.14236913067E+01 -0.35976570773E+03  0.35976879347E+03  0.00000000000E+00 0.  1.
</event>
<event>
12    1  0.8258923E-002  0.2029439E+03  0.7818608E-02  0.1147516E+00
         21   -1    0    0  501  502  0.00000000000E+00  0.00000000000E+00  0.89912064615E+03  0.89912064615E+03  0.00000000000E+00 0. -1.
         21   -1    0    0  502  503 -0.00000000000E+00 -0.00000000000E+00 -0.46859812823E+02  0.46859812823E+02  0.00000000000E+00 0. -1.
         -6    2    1    2    0  503  0.10764241637E+03  0.59812709747E+01  0.34588124657E+03  0.40044721269E+03  0.17059152388E+03 0.  0.
        -24    2    3    3    0    0  0.14385708060E+03  0.12641830943E+02  0.30811398792E+03  0.34749137458E+03  0.70436853476E+02 0.  0.
          6    2    1    2  501    0 -0.10764241637E+03 -0.59812709747E+01  0.50637958675E+03  0.54553324627E+03  0.17194060460E+03 0.  0.
         24    2    5    5    0    0 -0.46890119579E+02  0.50968864415E+02  0.38039523947E+03  0.39444285861E+03  0.78026418871E+02 0.  0.
          5    1    5    5  501    0 -0.60752296788E+02 -0.56950135389E+02  0.12598434728E+03  0.15109038766E+03  0.47000000000E+01 0. -1.
        -11    1    6    6    0    0  0.12351410086E+02  0.40651608224E+02  0.19359906989E+03  0.19820623210E+03  0.00000000000E+00 0.  1.
         12    1    6    6    0    0 -0.59241529665E+02  0.10317256190E+02  0.18679616958E+03  0.19623662651E+03  0.00000000000E+00 0. -1.
         -5    1    3    3    0  503 -0.36214664229E+02 -0.66605599679E+01  0.37767258657E+02  0.52955838118E+02  0.47000000000E+01 0.  1.
         11    1    4    4    0    0  0.78542241403E+02  0.17760673128E+02  0.95010461046E+02  0.12454442140E+03  0.00000000000E+00 0. -1.
        -12    1    4    4    0    0  0.65314839193E+02 -0.51188421853E+01  0.21310352687E+03  0.22294695317E+03  0.00000000000E+00 0.  1.
</event>
<event>
12    1  0.8258923E-002  0.2701064E+03  0.7818608E-02  0.1101425E+00
         21   -1    0    0  503  502  0.00000000000E+00  0.00000000000E+00  0.69891329529E+02  0.69891329529E+02  0.00000000000E+00 0. -1.
         21   -1    0    0  501  503 -0.00000000000E+00 -0.00000000000E+00 -0.13807654167E+04  0.13807654167E+04  0.00000000000E+00 0. -1.
          6    2    1    2  501    0  0.12434591733E+02 -0.20781568800E+03 -0.10153411827E+04  0.10502854904E+04  0.16982318684E+03 0.  0.
         24    2    3    3    0    0  0.42163392362E+02 -0.15059597022E+03 -0.49530795152E+03  0.52624870807E+03  0.84562627728E+02 0.  0.
         -6    2    1    2    0  502 -0.12434591733E+02  0.20781568800E+03 -0.29553290446E+03  0.40037125583E+03  0.17209144552E+03 0.  0.
        -24    2    5    5    0    0  0.38866303845E+02  0.10755687504E+03 -0.23088194153E+03  0.27042723530E+03  0.82130065890E+02 0.  0.
          5    1    3    3  501    0 -0.29728800628E+02 -0.57219717786E+02 -0.52003323121E+03  0.52403678235E+03  0.47000000000E+01 0. -1.
        -13    1    4    4    0    0  0.17424717902E+01 -0.73732528927E+02 -0.11861506668E+03  0.13967482262E+03  0.00000000000E+00 0.  1.
         14    1    4    4    0    0  0.40420920572E+02 -0.76863441291E+02 -0.37669288483E+03  0.38657388545E+03  0.00000000000E+00 0. -1.
         -5    1    5    5    0  502 -0.51300895578E+02  0.10025881296E+03 -0.64650962933E+02  0.12994402053E+03  0.47000000000E+01 0.  1.
         13    1    6    6    0    0  0.60990779892E+02  0.99369523942E+02 -0.20083452500E+03  0.23222550237E+03  0.00000000000E+00 0. -1.
        -14    1    6    6    0    0 -0.22124476047E+02  0.81873510983E+01 -0.30047416532E+02  0.38201732927E+02  0.00000000000E+00 0.  1.
</event>
<event>
12    1  0.8258923E-002  0.2037730E+03  0.7818608E-02  0.1148141E+00
         21   -1    0    0  503  502  0.00000000000E+00  0.00000000000E+00  0.21499635728E+03  0.21499635728E+03  0.00000000000E+00 0. -1.
         21   -1    0    0  501  503 -0.00000000000E+00 -0.00000000000E+00 -0.30010243611E+03  0.30010243611E+03  0.00000000000E+00 0. -1.
          6    2    1    2  501    0  0.45047936392E+02  0.96363138600E+02 -0.20167869370E+03  0.28670146170E+03  0.17380524041E+03 0.  0.
         24    2    3    3    0    0  0.17979385876E+02  0.19361905573E+02 -0.23493898211E+02  0.90656039262E+02  0.83477017782E+02 0.  0.
         -6    2    1    2    0  502 -0.45047936392E+02 -0.96363138600E+02  0.11657261487E+03  0.22839733169E+03  0.16510904133E+03 0.  0.
        -24    2    5    5    0    0 -0.51498891943E+02 -0.10698603676E+03  0.14079776174E+03  0.20076748308E+03  0.79908851954E+02 0.  0.
          5    1    3    3  501    0  0.27068550516E+02  0.77001233028E+02 -0.17818479549E+03  0.19604542244E+03  0.47000000000E+01 0. -1.
        -13    1    4    4    0    0  0.51616602606E+02  0.93922684743E+01 -0.14787126281E+02  0.54508233096E+02  0.00000000000E+00 0.  1.
         14    1    4    4    0    0 -0.33637216730E+02  0.99696370983E+01 -0.87067719298E+01  0.36147806166E+02  0.00000000000E+00 0. -1.
         -5    1    5    5    0  502  0.64509555505E+01  0.10622898159E+02 -0.24225146871E+02  0.27629848601E+02  0.47000000000E+01 0.  1.
         13    1    6    6    0    0 -0.19476988239E+02  0.53767270782E+01  0.35348269090E+01  0.20512368616E+02  0.00000000000E+00 0. -1.
        -14    1    6    6    0    0 -0.32021903703E+02 -0.11236276384E+03  0.13726293483E+03  0.18025511447E+03  0.00000000000E+00 0.  1.
</event>
<event>
12    1  0.8258923E-002  0.3196953E+03  0.7818608E-02  0.1075845E+00
         21   -1    0    0  503  502  0.00000000000E+00  0.00000000000E+00  0.98354327028E+03  0.98354327028E+03  0.00000000000E+00 0. -1.
         21   -1    0    0  501  503 -0.00000000000E+00 -0.00000000000E+00 -0.16211628768E+03  0.16211628768E+03  0.00000000000E+00 0.  1.
          6    2    1    2  501    0 -0.25135703827E+03  0.98918211180E+02  0.67227269960E+02  0.32668728839E+03  0.17099679933E+03 0.  0.
         24    2    3    3    0    0 -0.20686025138E+03  0.45568380193E+02 -0.49774696272E+01  0.22637884942E+03  0.79718049331E+02 0.  0.
         -6    2    1    2    0  502  0.25135703827E+03 -0.98918211180E+02  0.75419971264E+03  0.81897226957E+03  0.17009761485E+03 0.  0.
        -24    2    5    5    0    0  0.62158882639E+02  0.50538866473E+01  0.29149276845E+03  0.30835896635E+03  0.78917359348E+02 0.  0.
          5    1    3    3  501    0 -0.44496786893E+02  0.53349830987E+02  0.72204739587E+02  0.10030843897E+03  0.47000000000E+01 0. -1.
        -11    1    4    4    0    0 -0.79397046783E+02  0.54761495186E+02  0.13012950069E+02  0.97324453569E+02  0.00000000000E+00 0.  1.
         12    1    4    4    0    0 -0.12746320459E+03 -0.91931149934E+01 -0.17990419696E+02  0.12905439585E+03  0.00000000000E+00 0. -1.
         -5    1    5    5    0  502  0.18919815563E+03 -0.10397209783E+03  0.46270694419E+03  0.51061330322E+03  0.47000000000E+01 0.  1.
         13    1    6    6    0    0  0.51532981133E+02  0.27477370799E+02  0.10437133794E+03  0.11959945750E+03  0.00000000000E+00 0. -1.
        -14    1    6    6    0    0  0.10625901506E+02 -0.22423484152E+02  0.18712143052E+03  0.18875950885E+03  0.00000000000E+00 0.  1.
</event>
<event>
12    1  0.8258923E-002  0.1774425E+03  0.7818608E-02  0.1171023E+00
         21   -1    0    0  503  502  0.00000000000E+00  0.00000000000E+00  0.11634291041E+04  0.11634291041E+04  0.00000000000E+00 0.  1.
         21   -1    0    0  501  503 -0.00000000000E+00 -0.00000000000E+00 -0.27763090790E+02  0.27763090790E+02  0.00000000000E+00 0.  1.
          6    2    1    2  501    0 -0.28918003037E+02  0.71944258729E+01  0.44260323348E+03  0.47577493299E+03  0.17197719009E+03 0.  0.
         24    2    3    3    0    0 -0.25272907858E+02  0.69505689577E+02  0.33212069615E+03  0.34879280292E+03  0.76697469309E+02 0.  0.
         -6    2    1    2    0  502  0.28918003037E+02 -0.71944258729E+01  0.69306277985E+03  0.71541726192E+03  0.17492235757E+03 0.  0.
        -24    2    5    5    0    0  0.51177449814E+02  0.13823558959E+02  0.66985729444E+03  0.67671554090E+03  0.80155512718E+02 0.  0.
          5    1    3    3  501    0 -0.36450951795E+01 -0.62311263705E+02  0.11048253733E+03  0.12698213008E+03  0.47000000000E+01 0. -1.
        -11    1    4    4    0    0 -0.61394917353E+00  0.75726153143E+02  0.28875481734E+03  0.29851996874E+03  0.00000000000E+00 0.  1.
         12    1    4    4    0    0 -0.24658958684E+02 -0.62204635659E+01  0.43365878817E+02  0.50272834175E+02  0.00000000000E+00 0. -1.
         -5    1    5    5    0  502 -0.22259446777E+02 -0.21017984832E+02  0.23205485402E+02  0.38701721021E+02  0.47000000000E+01 0.  1.
         13    1    6    6    0    0  0.41946648095E+02  0.25575035601E+02  0.17867890736E+03  0.18530989090E+03  0.00000000000E+00 0. -1.
        -14    1    6    6    0    0  0.92308017194E+01 -0.11751476642E+02  0.49117838709E+03  0.49140564999E+03  0.00000000000E+00 0.  1.
</event>
<event>
12    1  0.8258923E-002  0.1994445E+03  0.7818608E-02  0.1151940E+00
         21   -1    0    0  503  502  0.00000000000E+00  0.00000000000E+00  0.18833037776E+03  0.18833037776E+03  0.00000000000E+00 0. -1.
         21   -1    0    0  501  503 -0.00000000000E+00 -0.00000000000E+00 -0.42146568212E+03  0.42146568212E+03  0.00000000000E+00 0. -1.
          6    2    1    2  501    0  0.35268349453E+02  0.95180466646E+02 -0.33729840047E+03  0.39185241463E+03  0.17168263219E+03 0.  0.
         24    2    3    3    0    0  0.49836895696E+02  0.39089220091E+02 -0.31244811507E+03  0.32862190646E+03  0.79729853222E+02 0.  0.
         -6    2    1    2    0  502 -0.35268349453E+02 -0.95180466646E+02  0.10416309611E+03  0.21794364524E+03  0.16231544661E+03 0.  0.
        -24    2    5    5    0    0 -0.38874982543E+02 -0.45697403466E+02  0.12798030490E+03  0.16270841393E+03  0.80594990975E+02 0.  0.
          5    1    3    3  501    0 -0.14568546243E+02  0.56091246555E+02 -0.24850285396E+02  0.63230508174E+02  0.47000000000E+01 0. -1.
        -13    1    4    4    0    0  0.12451440851E+01 -0.21541905633E+02 -0.10275386411E+03  0.10499505071E+03  0.00000000000E+00 0.  1.
         14    1    4    4    0    0  0.48591751611E+02  0.60631125724E+02 -0.20969425096E+03  0.22362685575E+03  0.00000000000E+00 0. -1.
         -5    1    5    5    0  502  0.36066330897E+01 -0.49483063180E+02 -0.23817208789E+02  0.55235231315E+02  0.47000000000E+01 0.  1.
         13    1    6    6    0    0 -0.63624725950E+02 -0.25559385334E+02  0.87404797096E+02  0.11108999274E+03  0.00000000000E+00 0. -1.
        -14    1    6    6    0    0  0.24749743407E+02 -0.20138018133E+02  0.40575507801E+02  0.51618421191E+02  0.00000000000E+00 0.  1.
</event>
<event>
12    1  0.8258923E-002  0.2413247E+03  0.7818608E-02  0.1119164E+00
         21   -1    0    0  501  502  0.00000000000E+00  0.00000000000E+00  0.22935166565E+04  0.22935166565E+04  0.00000000000E+00 0. -1.
         21   -1    0    0  502  503 -0.00000000000E+00 -0.00000000000E+00 -0.26330537975E+02  0.26330537975E+02  0.00000000000E+00 0. -1.
         -6    2    1    2    0  503  0.53071116298E+02  0.16143266021E+03  0.90027509385E+03  0.93205839583E+03  0.17134923828E+03 0.  0.
        -24    2    3    3    0    0  0.67484718267E+01  0.92228858024E+02  0.34029772121E+03  0.36590320377E+03  0.97626386508E+02 0.  0.
          6    2    1    2  501    0 -0.53071116298E+02 -0.16143266021E+03  0.13669110247E+04  0.13877887987E+04  0.16921865472E+03 0.  0.
         24    2    5    5    0    0 -0.64803475278E+02 -0.39531489088E+02  0.82418582509E+03  0.83139839971E+03  0.78605316104E+02 0.  0.
          5    1    5    5  501    0  0.11732358979E+02 -0.12190117112E+03  0.54272519959E+03  0.55639039895E+03  0.47000000000E+01 0. -1.
        -11    1    6    6    0    0 -0.48711766824E+01 -0.51743769460E+01  0.37047246154E+01  0.80142076044E+01  0.00000000000E+00 0.  1.
         12    1    6    6    0    0 -0.59932298595E+02 -0.34357112142E+02  0.82048110047E+03  0.82338419210E+03  0.00000000000E+00 0. -1.
         -5    1    3    3    0  503  0.46322644471E+02  0.69203802183E+02  0.55997737265E+03  0.56615519207E+03  0.47000000000E+01 0.  1.
         11    1    4    4    0    0  0.47735921702E+02  0.72143807298E+02  0.25320269836E+03  0.26757252028E+03  0.00000000000E+00 0. -1.
        -12    1    4    4    0    0 -0.40987449876E+02  0.20085050726E+02  0.87095022850E+02  0.98330683488E+02  0.00000000000E+00 0.  1.
</event>
<event>
12    1  0.8258923E-002  0.1825630E+03  0.7818608E-02  0.1165351E+00
         21   -1    0    0  501  502  0.00000000000E+00  0.00000000000E+00  0.85673995038E+03  0.85673995038E+03  0.00000000000E+00 0.  1.
         21   -1    0    0  502  503 -0.00000000000E+00 -0.00000000000E+00 -0.43755096565E+02  0.43755096565E+02  0.00000000000E+00 0.  1.
         -6    2    1    2    0  503  0.61675449116E+02  0.18739108904E+02  0.25649618828E+03  0.31483258547E+03  0.17080470441E+03 0.  0.
        -24    2    3    3    0    0  0.10173023181E+02  0.62341691676E+02  0.93362325079E+02  0.13823011543E+03  0.80006650642E+02 0.  0.
          6    2    1    2  501    0 -0.61675449116E+02 -0.18739108904E+02  0.55648866554E+03  0.58566246148E+03  0.17078017648E+03 0.  0.
         24    2    5    5    0    0 -0.19491085864E+01  0.35335168474E+02  0.17805439151E+03  0.19871821099E+03  0.80828137956E+02 0.  0.
          5    1    5    5  501    0 -0.59726340530E+02 -0.54074277377E+02  0.37843427403E+03  0.38694425049E+03  0.47000000000E+01 0. -1.
        -11    1    6    6    0    0 -0.28375460161E+02 -0.90726544052E+01  0.10561298418E+03  0.10973414339E+03  0.00000000000E+00 0.  1.
         12    1    6    6    0    0  0.26426351575E+02  0.44407822879E+02  0.72441407332E+02  0.88984067600E+02  0.00000000000E+00 0. -1.
         -5    1    3    3    0  503  0.51502425935E+02 -0.43602582772E+02  0.16313386320E+03  0.17660247004E+03  0.47000000000E+01 0.  1.
         13    1    4    4    0    0 -0.11108366283E+02  0.21366673941E+02  0.88598575912E+02  0.91813061219E+02  0.00000000000E+00 0. -1.
        -14    1    4    4    0    0  0.21281389465E+02  0.40975017735E+02  0.47637491678E+01  0.46417054215E+02  0.00000000000E+00 0.  1.
</event>
<event>
12    1  0.8258923E-002  0.2044485E+03  0.7818608E-02  0.1146153E+00
         21   -1    0    0  501  502  0.00000000000E+00  0.00000000000E+00  0.22248992337E+03  0.22248992337E+03  0.00000000000E+00 0.  1.
         21   -1    0    0  502  503 -0.00000000000E+00 -0.00000000000E+00 -0.19911939579E+03  0.19911939579E+03  0.00000000000E+00 0. -1.
         -6    2    1    2    0  503  0.11019032940E+03  0.36121784098E+01 -0.39530731040E+02  0.20823514492E+03  0.17217502826E+03 0.  0.
        -24    2    3    3    0    0  0.12086062893E+03 -0.39555119620E+02 -0.45336269422E+02  0.16314562078E+03  0.91592669689E+02 0.  0.
          6    2    1    2  501    0 -0.11019032940E+03 -0.36121784098E+01  0.62901258621E+02  0.21337417424E+03  0.17151388682E+03 0.  0.
         24    2    5    5    0    0  0.13531692426E+02 -0.17363426725E+01  0.21772240376E+02  0.82896806143E+02  0.78814519170E+02 0.  0.
          5    1    5    5  501    0 -0.12372202182E+03 -0.18758357373E+01  0.41129018245E+02  0.13047736810E+03  0.47000000000E+01 0. -1.
        -11    1    6    6    0    0 -0.13104807379E+02 -0.12789825368E+02  0.43231582943E+02  0.46949817605E+02  0.00000000000E+00 0.  1.
         12    1    6    6    0    0  0.26636499805E+02  0.11053482695E+02 -0.21459342567E+02  0.35946988538E+02  0.00000000000E+00 0. -1.
         -5    1    3    3    0  503 -0.10670299530E+02  0.43167298029E+02  0.58055383817E+01  0.45089524139E+02  0.47000000000E+01 0.  1.
         13    1    4    4    0    0  0.52375959776E+02 -0.25688218393E+02  0.25481708786E+02  0.63658803078E+02  0.00000000000E+00 0. -1.
        -14    1    4    4    0    0  0.68484669152E+02 -0.13866901227E+02 -0.70817978208E+02  0.99486817700E+02  0.00000000000E+00 0.  1.
</event>
<event>
12    1  0.8258923E-002  0.3028562E+03  0.7818608E-02  0.1084163E+00
         21   -1    0    0  503  502  0.00000000000E+00  0.00000000000E+00  0.30487965717E+03  0.30487965717E+03  0.00000000000E+00 0. -1.
         21   -1    0    0  501  503 -0.00000000000E+00 -0.00000000000E+00 -0.82846498177E+03  0.82846498177E+03  0.00000000000E+00 0.  1.
          6    2    1    2  501    0  0.21432488514E+03 -0.12009269454E+03 -0.71475333417E+03  0.77520073468E+03  0.17235555882E+03 0.  0.
         24    2    3    3    0    0  0.40647965420E+02 -0.41812659317E+02 -0.15872532968E+03  0.18742469898E+03  0.80831503349E+02 0.  0.
         -6    2    1    2    0  502 -0.21432488514E+03  0.12009269454E+03  0.19116800957E+03  0.35814390427E+03  0.17710007512E+03 0.  0.
        -24    2    5    5    0    0 -0.12008427895E+03  0.58620052427E+01  0.14822579028E+03  0.20388416736E+03  0.71716606449E+02 0.  0.
          5    1    3    3  501    0  0.17367691972E+03 -0.78280035221E+02 -0.55602800449E+03  0.58777603569E+03  0.47000000000E+01 0. -1.
        -13    1    4    4    0    0  0.18925847996E+02 -0.61524979068E+01 -0.14043704190E+03  0.14184006377E+03  0.00000000000E+00 0.  1.
         14    1    4    4    0    0  0.21722117424E+02 -0.35660161411E+02 -0.18288287781E+02  0.45584635209E+02  0.00000000000E+00 0. -1.
         -5    1    5    5    0  502 -0.94240606193E+02  0.11423068930E+03  0.42942219293E+02  0.15425973691E+03  0.47000000000E+01 0.  1.
         13    1    6    6    0    0 -0.46436789918E+02 -0.22148696802E+02  0.97301734498E+02  0.11006619719E+03  0.00000000000E+00 0. -1.
        -14    1    6    6    0    0 -0.73647489031E+02  0.28010702045E+02  0.50924055783E+02  0.93817970171E+02  0.00000000000E+00 0.  1.
</event>
<event>
12    1  0.8258923E-002  0.2364211E+03  0.7818608E-02  0.1122292E+00
         21   -1    0    0  501  502  0.00000000000E+00  0.00000000000E+00  0.11803008371E+03  0.11803008371E+03  0.00000000000E+00 0.  1.
         21   -1    0    0  502  503 -0.00000000000E+00 -0.00000000000E+00 -0.47256372345E+03  0.47256372345E+03  0.00000000000E+00 0.  1.
         -6    2    1    2    0  503  0.15905873016E+03 -0.30304833222E+02 -0.17315136239E+03  0.29260983372E+03  0.17152567719E+03 0.  0.
        -24    2    3    3    0    0  0.16550225247E+02  0.20820221539E+02 -0.69306623060E+02  0.10895726749E+03  0.79755166341E+02 0.  0.
          6    2    1    2  501    0 -0.15905873016E+03  0.30304833222E+02 -0.18138227735E+03  0.29798397344E+03  0.17226971683E+03 0.  0.
         24    2    5    5    0    0 -0.16674278877E+03  0.30203032790E+02 -0.20201190902E+03  0.27547337987E+03  0.79758327659E+02 0.  0.
          5    1    5    5  501    0  0.76840586133E+01  0.10180043219E+00  0.20629631675E+02  0.22510593576E+02  0.47000000000E+01 0. -1.
        -11    1    6    6    0    0 -0.57472359869E+02  0.76774794704E+01 -0.13090615879E+03  0.14317275666E+03  0.00000000000E+00 0.  1.
         12    1    6    6    0    0 -0.10927042890E+03  0.22525553319E+02 -0.71105750230E+02  0.13230062321E+03  0.00000000000E+00 0. -1.
         -5    1    3    3    0  503  0.14250850491E+03 -0.51125054761E+02 -0.10384473933E+03  0.18365256623E+03  0.47000000000E+01 0.  1.
         13    1    4    4    0    0  0.46020025971E+02  0.12983392076E+02 -0.60700677494E+02  0.77272139276E+02  0.00000000000E+00 0. -1.
        -14    1    4    4    0    0 -0.29469800724E+02  0.78368294631E+01 -0.86059455662E+01  0.31685128212E+02  0.00000000000E+00 0.  1.
</event>
<event>
12    1  0.8258923E-002  0.1721569E+03  0.7818608E-02  0.1175627E+00
         21   -1    0    0  501  502  0.00000000000E+00  0.00000000000E+00  0.37778447947E+03  0.37778447947E+03  0.00000000000E+00 0.  1.
         21   -1    0    0  502  503 -0.00000000000E+00 -0.00000000000E+00 -0.87255126681E+02  0.87255126681E+02  0.00000000000E+00 0.  1.
         -6    2    1    2    0  503  0.11869092551E+02 -0.32886442743E+00  0.71349199894E+02  0.18635639257E+03  0.17174694529E+03 0.  0.
        -24    2    3    3    0    0 -0.16979104709E+01 -0.37255465286E+02 -0.15908900075E+02  0.90524751493E+02  0.80936919497E+02 0.  0.
          6    2    1    2  501    0 -0.11869092551E+02  0.32886442743E+00  0.21918015290E+03  0.27868321358E+03  0.17170733996E+03 0.  0.
         24    2    5    5    0    0 -0.64113462672E+00 -0.20620688629E+02  0.29377857718E+02  0.87340714202E+02  0.79622345985E+02 0.  0.
          5    1    5    5  501    0 -0.11227957925E+02  0.20949553056E+02  0.18980229518E+03  0.19134249938E+03  0.47000000000E+01 0. -1.
        -11    1    6    6    0    0 -0.15901561957E+02 -0.21523291051E+02  0.52902329836E+02  0.59285480789E+02  0.00000000000E+00 0.  1.
         12    1    6    6    0    0  0.15260427330E+02  0.90260242250E+00 -0.23524472118E+02  0.28055233413E+02  0.00000000000E+00 0. -1.
         -5    1    3    3    0  503  0.13567003022E+02  0.36926600859E+02  0.87258099968E+02  0.95831641080E+02  0.47000000000E+01 0.  1.
         13    1    4    4    0    0 -0.15027699709E+02  0.12863109183E+02 -0.30767070514E+02  0.36577369566E+02  0.00000000000E+00 0. -1.
        -14    1    4    4    0    0  0.13329789238E+02 -0.50118574469E+02  0.14858170439E+02  0.53947381927E+02  0.00000000000E+00 0.  1.
</event>
<event>
12    1  0.8258923E-002  0.1908809E+03  0.7818608E-02  0.1158023E+00
         21   -1    0    0  503  502  0.00000000000E+00  0.00000000000E+00  0.12309848643E+03  0.12309848643E+03  0.00000000000E+00 0. -1.
         21   -1    0    0  501  503 -0.00000000000E+00 -0.00000000000E+00 -0.29798869520E+03  0.29798869520E+03  0.00000000000E+00 0. -1.
          6    2    1    2  501    0  0.79900626828E+02 -0.12557741923E+02 -0.62121137613E+02  0.20073506828E+03  0.17289801864E+03 0.  0.
         24    2    3    3    0    0  0.58278463237E+01 -0.60882563313E+02 -0.47465142401E+02  0.11096339474E+03  0.79493930091E+02 0.  0.
         -6    2    1    2    0  502 -0.79900626828E+02  0.12557741923E+02 -0.11276907115E+03  0.22035211335E+03  0.17116186315E+03 0.  0.
        -24    2    5    5    0    0  0.90950145563E+01  0.13736141790E+02 -0.44223935392E+02  0.10791484885E+03  0.97048736516E+02 0.  0.
          5    1    3    3  501    0  0.74072780504E+02  0.48324821390E+02 -0.14655995212E+02  0.89771673537E+02  0.47000000000E+01 0. -1.
        -11    1    4    4    0    0 -0.17620782781E+02 -0.24980051226E+02 -0.59094300004E+02  0.66532933484E+02  0.00000000000E+00 0.  1.
         12    1    4    4    0    0  0.23448629105E+02 -0.35902512087E+02  0.11629157603E+02  0.44430461258E+02  0.00000000000E+00 0. -1.
         -5    1    5    5    0  502 -0.88995641384E+02 -0.11783998667E+01 -0.68545135760E+02  0.11243726450E+03  0.47000000000E+01 0.  1.
         11    1    6    6    0    0 -0.18821112067E+02 -0.60519299904E+01  0.24297523257E+02  0.31324587028E+02  0.00000000000E+00 0. -1.
        -12    1    6    6    0    0  0.27916126623E+02  0.19788071780E+02 -0.68521458649E+02  0.76590261821E+02  0.00000000000E+00 0.  1.
</event>
<event>
12    1  0.8258923E-002  0.1767421E+03  0.7818608E-02  0.1171169E+00
         21   -1    0    0  501  502  0.00000000000E+00  0.00000000000E+00  0.53871307521E+02  0.53871307521E+02  0.00000000000E+00 0. -1.
         21   -1    0    0  502  503 -0.00000000000E+00 -0.00000000000E+00 -0.72120743130E+03  0.72120743130E+03  0.00000000000E+00 0. -1.
         -6    2    1    2    0  503  0.22692061721E+02 -0.28245914765E+02 -0.50716707619E+03  0.53708118703E+03  0.17298843003E+03 0.  0.
        -24    2    3    3    0    0  0.55394851797E+02 -0.64484557444E+02 -0.41475145213E+03  0.43246068583E+03  0.88185202755E+02 0.  0.
          6    2    1    2  501    0 -0.22692061721E+02  0.28245914765E+02 -0.16016904758E+03  0.23799755179E+03  0.17226708765E+03 0.  0.
         24    2    5    5    0    0 -0.56901559045E+02 -0.36503794862E+02 -0.97020980603E+02  0.14118545044E+03  0.77135894867E+02 0.  0.
          5    1    5    5  501    0  0.34209497324E+02  0.64749709627E+02 -0.63148066981E+02  0.96812101348E+02  0.47000000000E+01 0. -1.
        -13    1    6    6    0    0 -0.16242741261E+01 -0.37935183230E+02 -0.12105455039E+02  0.39852960176E+02  0.00000000000E+00 0.  1.
         14    1    6    6    0    0 -0.55277284919E+02  0.14313883672E+01 -0.84915525564E+02  0.10133249026E+03  0.00000000000E+00 0. -1.
         -5    1    3    3    0  503 -0.32702790076E+02  0.36238642679E+02 -0.92415624057E+02  0.10462050120E+03  0.47000000000E+01 0.  1.
         11    1    4    4    0    0  0.35077098600E+02 -0.67327004917E+02 -0.16230680432E+03  0.17918378042E+03  0.00000000000E+00 0. -1.
        -12    1    4    4    0    0  0.20317753197E+02  0.28424474723E+01 -0.25244464782E+03  0.25327690541E+03  0.00000000000E+00 0.  1.
</event>
<event>
12    1  0.8258923E-002  0.2793267E+03  0.7818608E-02  0.1096154E+00
         21   -1    0    0  501  502  0.00000000000E+00  0.00000000000E+00  0.67075450339E+03  0.67075450339E+03  0.00000000000E+00 0.  1.
         21   -1    0    0  502  503 -0.00000000000E+00 -0.00000000000E+00 -0.12106642736E+03  0.12106642736E+03  0.00000000000E+00 0. -1.
         -6    2    1    2    0  503  0.28066900392E+02 -0.21887465404E+03  0.19441104794E+03  0.34032203130E+03  0.17125876430E+03 0.  0.
        -24    2    3    3    0    0  0.76948947654E+01 -0.75081109689E+02  0.26061410148E+02  0.11793657190E+03  0.86795469087E+02 0.  0.
          6    2    1    2  501    0 -0.28066900392E+02  0.21887465404E+03  0.35527702809E+03  0.45149889945E+03  0.17010474548E+03 0.  0.
         24    2    5    5    0    0 -0.51519474754E+02  0.10202835652E+03  0.27377212218E+03  0.30704053113E+03  0.79111763102E+02 0.  0.
          5    1    5    5  501    0  0.23452574362E+02  0.11684629752E+03  0.81504905909E+02  0.14445836832E+03  0.47000000000E+01 0. -1.
        -13    1    6    6    0    0 -0.65058759894E+02  0.91879343377E+02  0.18416626819E+03  0.21585103733E+03  0.00000000000E+00 0.  1.
         14    1    6    6    0    0  0.13539285139E+02  0.10149013140E+02  0.89605853993E+02  0.91189493801E+02  0.00000000000E+00 0. -1.
         -5    1    3    3    0  503  0.20372005627E+02 -0.14379354435E+03  0.16834963779E+03  0.22238545940E+03  0.47000000000E+01 0.  1.
         11    1    4    4    0    0  0.87969556165E+01 -0.93874646249E+02  0.29512841916E+02  0.98796981100E+02  0.00000000000E+00 0. -1.
        -12    1    4    4    0    0 -0.11020608511E+01  0.18793536561E+02 -0.34514317675E+01  0.19139590796E+02  0.00000000000E+00 0.  1.
</event>
<event>
12    1  0.8258923E-002  0.1766349E+03  0.7818608E-02  0.1171285E+00
         21   -1    0    0  503  502  0.00000000000E+00  0.00000000000E+00  0.28182771482E+03  0.28182771482E+03  0.00000000000E+00 0.  1.
         21   -1    0    0  501  503 -0.00000000000E+00 -0.00000000000E+00 -0.14228763681E+03  0.14228763681E+03  0.00000000000E+00 0.  1.
          6    2    1    2  501    0 -0.32966989458E+02 -0.19492985824E+02 -0.30754554263E+02  0.17929234768E+03  0.17243289836E+03 0.  0.
         24    2    3    3    0    0 -0.67614317543E+02 -0.47947946850E+02  0.14624279175E+02  0.11532789916E+03  0.78841316827E+02 0.  0.
         -6    2    1    2    0  502  0.32966989458E+02  0.19492985824E+02  0.17029463227E+03  0.24482300395E+03  0.17167190391E+03 0.  0.
        -24    2    5    5    0    0 -0.24775093806E+02 -0.10166875663E+02  0.15693007987E+03  0.17838087256E+03  0.80470585264E+02 0.  0.
          5    1    3    3  501    0  0.34647328085E+02  0.28454961025E+02 -0.45378833437E+02  0.63964448520E+02  0.47000000000E+01 0. -1.
        -11    1    4    4    0    0 -0.32019533337E+02 -0.48318426910E+02 -0.24058263180E+02  0.62759229771E+02  0.00000000000E+00 0.  1.
         12    1    4    4    0    0 -0.35594784206E+02  0.37048006041E+00  0.38682542355E+02  0.52568669388E+02  0.00000000000E+00 0. -1.
         -5    1    5    5    0  502  0.57742083264E+02  0.29659861488E+02  0.13364552398E+02  0.66442131392E+02  0.47000000000E+01 0.  1.
         13    1    6    6    0    0 -0.21590984326E+02 -0.40003276598E+02  0.51165378547E+02  0.68442155903E+02  0.00000000000E+00 0. -1.
        -14    1    6    6    0    0 -0.31841094801E+01  0.29836400935E+02  0.10576470132E+03  0.10993871666E+03  0.00000000000E+00 0.  1.
</event>
<event>
12    1  0.8258923E-002  0.1964203E+03  0.7818608E-02  0.1157540E+00
         21   -1    0    0  503  502  0.00000000000E+00  0.00000000000E+00  0.26581858151E+03  0.26581858151E+03  0.00000000000E+00 0.  1.
         21   -1    0    0  501  503 -0.00000000000E+00 -0.00000000000E+00 -0.27013819040E+03  0.27013819040E+03  0.00000000000E+00 0.  1.
          6    2    1    2  501    0  0.20632819889E+02 -0.32746680149E+02 -0.19480358840E+03  0.26234193044E+03  0.17139659301E+03 0.  0.
         24    2    3    3    0    0 -0.42019198492E+02 -0.56321546743E+02 -0.12247113160E+03  0.16367519821E+03  0.82780811564E+02 0.  0.
         -6    2    1    2    0  502 -0.20632819889E+02  0.32746680149E+02  0.19048397951E+03  0.27361484147E+03  0.19256914785E+03 0.  0.
        -24    2    5    5    0    0 -0.31446763322E+02 -0.56911473055E+02  0.76300941443E+02  0.12795983128E+03  0.79524021956E+02 0.  0.
          5    1    3    3  501    0  0.62652018381E+02  0.23574866594E+02 -0.72332456804E+02  0.98666732233E+02  0.47000000000E+01 0. -1.
        -13    1    4    4    0    0 -0.21215484764E+01 -0.62857555736E+02 -0.97910168642E+02  0.11636998928E+03  0.00000000000E+00 0.  1.
         14    1    4    4    0    0 -0.39897650016E+02  0.65360089930E+01 -0.24560962957E+02  0.47305208928E+02  0.00000000000E+00 0. -1.
         -5    1    5    5    0  502  0.10813943433E+02  0.89658153204E+02  0.11418303807E+03  0.14565501018E+03  0.47000000000E+01 0.  1.
         13    1    6    6    0    0 -0.55422799812E+02 -0.37176876629E+02  0.69134220105E+02  0.96090307963E+02  0.00000000000E+00 0. -1.
        -14    1    6    6    0    0  0.23976036490E+02 -0.19734596426E+02  0.71667213384E+01  0.31869523320E+02  0.00000000000E+00 0.  1.
</event>
<event>
12    1  0.8258923E-002  0.1833120E+03  0.7818608E-02  0.1164709E+00
         21   -1    0    0  501  502  0.00000000000E+00  0.00000000000E+00  0.45400249637E+03  0.45400249637E+03  0.00000000000E+00 0. -1.
         21   -1    0    0  502  503 -0.00000000000E+00 -0.00000000000E+00 -0.14382062979E+03  0.14382062979E+03  0.00000000000E+00 0.  1.
         -6    2    1    2    0  503 -0.51189201033E+02  0.34344451349E+02 -0.53409029135E+02  0.19063566693E+03  0.17230657988E+03 0.  0.
        -24    2    3    3    0    0  0.40479259875E+00  0.11431983922E+02 -0.90610420272E+02  0.12286432457E+03  0.82186007789E+02 0.  0.
          6    2    1    2  501    0  0.51189201033E+02 -0.34344451349E+02  0.36359089571E+03  0.40718745923E+03  0.17263664693E+03 0.  0.
         24    2    5    5    0    0 -0.28348409444E+02 -0.31122384765E+02  0.26556378871E+03  0.28082284036E+03  0.81025345678E+02 0.  0.
          5    1    5    5  501    0  0.79537610476E+02 -0.32220665845E+01  0.98027107002E+02  0.12636461886E+03  0.47000000000E+01 0. -1.
        -13    1    6    6    0    0 -0.38071156843E+02 -0.52666565098E+02  0.16099909401E+03  0.17361995374E+03  0.00000000000E+00 0.  1.
         14    1    6    6    0    0  0.97227473997E+01  0.21544180333E+02  0.10456469470E+03  0.10720288662E+03  0.00000000000E+00 0. -1.
         -5    1    3    3    0  503 -0.51593993631E+02  0.22912467427E+02  0.37201391137E+02  0.67771342358E+02  0.47000000000E+01 0.  1.
         13    1    4    4    0    0  0.13240192839E+02  0.24643839006E+02  0.23712190108E+01  0.28075686758E+02  0.00000000000E+00 0. -1.
        -14    1    4    4    0    0 -0.12835400240E+02 -0.13211855084E+02 -0.92981639283E+02  0.94788637810E+02  0.00000000000E+00 0.  1.
</event>
<event>
12    1  0.8258923E-002  0.1745052E+03  0.7818608E-02  0.1173444E+00
         21   -1    0    0  503  502  0.00000000000E+00  0.00000000000E+00  0.14333550557E+04  0.14333550557E+04  0.00000000000E+00 0.  1.
         21   -1    0    0  501  503 -0.00000000000E+00 -0.00000000000E+00 -0.21251982086E+02  0.21251982086E+02  0.00000000000E+00 0.  1.
          6    2    1    2  501    0  0.17471232333E+02  0.19280790157E+02  0.65547315980E+03  0.67830458650E+03  0.17255450159E+03 0.  0.
         24    2    3    3    0    0 -0.24699284190E+02  0.57795716456E+02  0.26541424539E+03  0.28405872574E+03  0.79336237214E+02 0.  0.
         -6    2    1    2    0  502 -0.17471232333E+02 -0.19280790157E+02  0.75662991377E+03  0.77630245124E+03  0.17169646637E+03 0.  0.
        -24    2    5    5    0    0  0.22155770509E+02  0.15124524895E+02  0.66943995725E+03  0.67442898278E+03  0.77362568688E+02 0.  0.
          5    1    3    3  501    0  0.42170516523E+02 -0.38514926299E+02  0.39005891441E+03  0.39424586076E+03  0.47000000000E+01 0. -1.
        -13    1    4    4    0    0  0.21136984561E+02  0.18694305483E+02  0.16146043006E+03  0.16390765585E+03  0.00000000000E+00 0.  1.
         14    1    4    4    0    0 -0.45836268751E+02  0.39101410973E+02  0.10395381533E+03  0.12015106989E+03  0.00000000000E+00 0. -1.
         -5    1    5    5    0  502 -0.39627002842E+02 -0.34405315052E+02  0.87189956518E+02  0.10187346846E+03  0.47000000000E+01 0.  1.
         11    1    6    6    0    0  0.47390671525E+02 -0.61974642501E+01  0.34130701843E+03  0.34463714997E+03  0.00000000000E+00 0. -1.
        -12    1    6    6    0    0 -0.25234901016E+02  0.21321989145E+02  0.32813293882E+03  0.32979183281E+03  0.00000000000E+00 0.  1.
</event>
<event>
12    1  0.8258923E-002  0.1878344E+03  0.7818608E-02  0.1160747E+00
         21   -1    0    0  501  502  0.00000000000E+00  0.00000000000E+00  0.13318480706E+03  0.13318480706E+03  0.00000000000E+00 0.  1.
         21   -1    0    0  502  503 -0.00000000000E+00 -0.00000000000E+00 -0.11655500129E+04  0.11655500129E+04  0.00000000000E+00 0.  1.
         -6    2    1    2    0  503  0.34988739487E+02 -0.65122212247E+02 -0.10880527130E+04  0.11041469346E+04  0.17267493346E+03 0.  0.
        -24    2    3    3    0    0 -0.46398730524E+02 -0.37161805340E+01 -0.28164751250E+03  0.29130866146E+03  0.58041043656E+02 0.  0.
          6    2    1    2  501    0 -0.34988739487E+02  0.65122212247E+02  0.55687507138E+02  0.19458788531E+03  0.17116726392E+03 0.  0.
         24    2    5    5    0    0 -0.82830897879E+01  0.99201028539E+01  0.92402448963E+02  0.12296008651E+03  0.80087154298E+02 0.  0.
          5    1    5    5  501    0 -0.26705649699E+02  0.55202109393E+02 -0.36714941824E+02  0.71627798797E+02  0.47000000000E+01 0. -1.
        -13    1    6    6    0    0 -0.35787828219E+02 -0.18771856156E+02  0.37121970509E+02  0.54874328485E+02  0.00000000000E+00 0.  1.
         14    1    6    6    0    0  0.27504738432E+02  0.28691959009E+02  0.55280478453E+02  0.68085758026E+02  0.00000000000E+00 0. -1.
         -5    1    3    3    0  503  0.81387470011E+02 -0.61406031713E+02 -0.80640520046E+03  0.81283827317E+03  0.47000000000E+01 0.  1.
         11    1    4    4    0    0  0.60900801185E+01  0.83203141419E+01 -0.12954354299E+03  0.12995324633E+03  0.00000000000E+00 0. -1.
        -12    1    4    4    0    0 -0.52488810643E+02 -0.12036494676E+02 -0.15210396951E+03  0.16135541512E+03  0.00000000000E+00 0.  1.
</event>
<event>
12    1  0.8258923E-002  0.2137002E+03  0.7818608E-02  0.1138777E+00
         21   -1    0    0  503  502  0.00000000000E+00  0.00000000000E+00  0.60802591733E+02  0.60802591733E+02  0.00000000000E+00 0. -1.
         21   -1    0    0  501  503 -0.00000000000E+00 -0.00000000000E+00 -0.10349822714E+04  0.10349822714E+04  0.00000000000E+00 0. -1.
          6    2    1    2  501    0  0.12839369887E+02  0.12788183075E+03 -0.19960949140E+03  0.29242385182E+03  0.17073121566E+03 0.  0.
         24    2    3    3    0    0  0.33669128005E+02  0.42016407713E+02 -0.17562853667E+03  0.20075092296E+03  0.80972597069E+02 0.  0.
         -6    2    1    2    0  502 -0.12839369887E+02 -0.12788183075E+03 -0.77457018825E+03  0.80336101130E+03  0.17003330821E+03 0.  0.
        -24    2    5    5    0    0 -0.19706574263E+02 -0.34517865203E+02 -0.17815762098E+03  0.19962760246E+03  0.80815899810E+02 0.  0.
          5    1    3    3  501    0 -0.20829758118E+02  0.85865423034E+02 -0.23980954729E+02  0.91672928860E+02  0.47000000000E+01 0. -1.
        -13    1    4    4    0    0 -0.24737295779E+02 -0.50710540585E+00 -0.38741050411E+02  0.45968031775E+02  0.00000000000E+00 0.  1.
         14    1    4    4    0    0  0.58406423784E+02  0.42523513119E+02 -0.13688748626E+03  0.15478289118E+03  0.00000000000E+00 0. -1.
         -5    1    5    5    0  502  0.68672043754E+01 -0.93363965544E+02 -0.59641256727E+03  0.60373340884E+03  0.47000000000E+01 0.  1.
         11    1    6    6    0    0 -0.15599378666E+02 -0.53377884076E+02 -0.68247944965E+02  0.88035908101E+02  0.00000000000E+00 0. -1.
        -12    1    6    6    0    0 -0.41071955969E+01  0.18860018873E+02 -0.10990967601E+03  0.11159169436E+03  0.00000000000E+00 0.  1.
</event>
<event>
12    1  0.8258923E-002  0.2023395E+03  0.7818608E-02  0.1147795E+00
         21   -1    0    0  503  502  0.00000000000E+00  0.00000000000E+00  0.55015965800E+03  0.55015965800E+03  0.00000000000E+00 0.  1.
         21   -1    0    0  501  503 -0.00000000000E+00 -0.00000000000E+00 -0.92417246673E+02  0.92417246673E+02  0.00000000000E+00 0.  1.
          6    2    1    2  501    0  0.14780403165E+02  0.10667414499E+03  0.86940302233E+02  0.22016065752E+03  0.17121409241E+03 0.  0.
         24    2    3    3    0    0 -0.20082583092E+02  0.10548573697E+03  0.11417155958E+03  0.17565816881E+03  0.79310128022E+02 0.  0.
         -6    2    1    2    0  502 -0.14780403165E+02 -0.10667414499E+03  0.37080210910E+03  0.42241624716E+03  0.17129929429E+03 0.  0.
        -24    2    5    5    0    0 -0.18513321920E+02  0.11417557749E+02  0.20387354102E+03  0.21785128980E+03  0.73631922607E+02 0.  0.
          5    1    3    3  501    0  0.34862986257E+02  0.11884080180E+01 -0.27231257342E+02  0.44502488704E+02  0.47000000000E+01 0. -1.
        -13    1    4    4    0    0  0.22380106494E+02  0.23891548503E+02  0.53509031281E+01  0.33170882123E+02  0.00000000000E+00 0.  1.
         14    1    4    4    0    0 -0.42462689586E+02  0.81594188468E+02  0.10882065645E+03  0.14248728669E+03  0.00000000000E+00 0. -1.
         -5    1    5    5    0  502  0.37329187550E+01 -0.11809170274E+03  0.16692856808E+03  0.20456495736E+03  0.47000000000E+01 0.  1.
         11    1    6    6    0    0 -0.29541267167E+02  0.13367701388E+02  0.31808052358E+02  0.45421735998E+02  0.00000000000E+00 0. -1.
        -12    1    6    6    0    0  0.11027945247E+02 -0.19501436388E+01  0.17206548866E+03  0.17242955380E+03  0.00000000000E+00 0.  1.
</event>
<event>
12    1  0.8258923E-002  0.1800505E+03  0.7818608E-02  0.1167815E+00
         21   -1    0    0  503  502  0.00000000000E+00  0.00000000000E+00  0.78016023482E+02  0.78016023482E+02  0.00000000000E+00 0. -1.
         21   -1    0    0  501  503 -0.00000000000E+00 -0.00000000000E+00 -0.59104777946E+03  0.59104777946E+03  0.00000000000E+00 0. -1.
          6    2    1    2  501    0 -0.25977264743E+02 -0.46039932724E+02 -0.43923922856E+03  0.47470968768E+03  0.17211535080E+03 0.  0.
         24    2    3    3    0    0 -0.44963646778E+02 -0.41591863062E+02 -0.12760335705E+03  0.16242892548E+03  0.79680151216E+02 0.  0.
         -6    2    1    2    0  502  0.25977264743E+02  0.46039932724E+02 -0.73792527410E+02  0.19435411526E+03  0.17185369163E+03 0.  0.
        -24    2    5    5    0    0 -0.31150788581E+02  0.76403798094E+02 -0.44329175098E+02  0.12310976161E+03  0.79893839855E+02 0.  0.
          5    1    3    3  501    0  0.18986382035E+02 -0.44480696619E+01 -0.31163587152E+03  0.31228076220E+03  0.47000000000E+01 0. -1.
        -11    1    4    4    0    0 -0.34282715912E+02  0.79705025604E+01 -0.13732600671E+02  0.37781183710E+02  0.00000000000E+00 0.  1.
         12    1    4    4    0    0 -0.10680930866E+02 -0.49562365622E+02 -0.11387075638E+03  0.12464774177E+03  0.00000000000E+00 0. -1.
         -5    1    5    5    0  502  0.57128053324E+02 -0.30363865370E+02 -0.29463352312E+02  0.71244353644E+02  0.47000000000E+01 0.  1.
         11    1    6    6    0    0 -0.15271349131E+02 -0.31146768589E+01  0.15774276118E+02  0.22175281357E+02  0.00000000000E+00 0. -1.
        -12    1    6    6    0    0 -0.15879439450E+02  0.79518474953E+02 -0.60103451216E+02  0.10093448025E+03  0.00000000000E+00 0.  1.
</event>
<event>
12    1  0.8258923E-002  0.2264099E+03  0.7818608E-02  0.1129541E+00
         21   -1    0    0  501  502  0.00000000000E+00  0.00000000000E+00  0.15174208952E+03  0.15174208952E+03  0.00000000000E+00 0. -1.
         21   -1    0    0  502  503 -0.00000000000E+00 -0.00000000000E+00 -0.36061522613E+03  0.36061522613E+03  0.00000000000E+00 0. -1.
         -6    2    1    2    0  503 -0.13475301862E+03 -0.51544902641E+02 -0.17237200539E+03  0.28302399010E+03  0.17197446820E+03 0.  0.
        -24    2    3    3    0    0 -0.53091241413E+01 -0.26443193441E+02 -0.33634538125E+02  0.91566442723E+02  0.80781817259E+02 0.  0.
          6    2    1    2  501    0  0.13475301862E+03  0.51544902641E+02 -0.36501131222E+02  0.22933332556E+03  0.17448836241E+03 0.  0.
         24    2    5    5    0    0  0.88680672466E+02 -0.35774274487E+02 -0.40359855863E+02  0.13041780842E+03  0.78967248938E+02 0.  0.
          5    1    5    5  501    0  0.46072346153E+02  0.87319177128E+02  0.38587246414E+01  0.98915517135E+02  0.47000000000E+01 0. -1.
        -11    1    6    6    0    0  0.39268283784E+02 -0.42475039997E+02  0.10945933376E+02  0.58872239567E+02  0.00000000000E+00 0.  1.
         12    1    6    6    0    0  0.49412388682E+02  0.67007655105E+01 -0.51305789239E+02  0.71545568857E+02  0.00000000000E+00 0. -1.
         -5    1    3    3    0  503 -0.12944389448E+03 -0.25101709200E+02 -0.13873746727E+03  0.19145754737E+03  0.47000000000E+01 0.  1.
         11    1    4    4    0    0 -0.32679418060E+02 -0.17085980847E+02 -0.46968648228E+02  0.59715400213E+02  0.00000000000E+00 0. -1.
        -12    1    4    4    0    0  0.27370293919E+02 -0.93572125948E+01  0.13334110103E+02  0.31851042510E+02  0.00000000000E+00 0.  1.
</event>
<event>
12    1  0.8258923E-002  0.2916014E+03  0.7818608E-02  0.1090497E+00
         21   -1    0    0  503  502  0.00000000000E+00  0.00000000000E+00  0.19480816383E+03  0.19480816383E+03  0.00000000000E+00 0.  1.
         21   -1    0    0  501  503 -0.00000000000E+00 -0.00000000000E+00 -0.60991304885E+03  0.60991304885E+03  0.00000000000E+00 0.  1.
          6    2    1    2  501    0 -0.22981025509E+03  0.43250653366E+02 -0.42697783078E+03  0.51287823677E+03  0.16140212332E+03 0.  0.
         24    2    3    3    0    0 -0.12076572176E+03 -0.66530555558E+01 -0.15061369845E+03  0.21158052013E+03  0.86331961850E+02 0.  0.
         -6    2    1    2    0  502  0.22981025509E+03 -0.43250653366E+02  0.11872945768E+02  0.29184297591E+03  0.17420672601E+03 0.  0.
        -24    2    5    5    0    0  0.18262242279E+03 -0.83144800826E+02 -0.28325476775E+02  0.21797662570E+03  0.80296136312E+02 0.  0.
          5    1    3    3  501    0 -0.10904453333E+03  0.49903708922E+02 -0.27636413233E+03  0.30129771664E+03  0.47000000000E+01 0. -1.
        -11    1    4    4    0    0 -0.99738859817E+02  0.27731871244E+02 -0.82246150799E+02  0.13221696624E+03  0.00000000000E+00 0.  1.
         12    1    4    4    0    0 -0.21026861941E+02 -0.34384926800E+02 -0.68367547648E+02  0.79363553886E+02  0.00000000000E+00 0. -1.
         -5    1    5    5    0  502  0.47187832298E+02  0.39894147460E+02  0.40198422544E+02  0.73866350211E+02  0.47000000000E+01 0.  1.
         11    1    6    6    0    0  0.25080487967E+01  0.95367669278E+01 -0.10852043940E+02  0.14663120060E+02  0.00000000000E+00 0. -1.
        -12    1    6    6    0    0  0.18011437400E+03 -0.92681567754E+02 -0.17473432835E+02  0.20331350564E+03  0.00000000000E+00 0.  1.
</event>
<event>
12    1  0.8258923E-002  0.1956903E+03  0.7818608E-02  0.1153439E+00
         21   -1    0    0  501  502  0.00000000000E+00  0.00000000000E+00  0.54205112370E+02  0.54205112370E+02  0.00000000000E+00 0.  1.
         21   -1    0    0  502  503 -0.00000000000E+00 -0.00000000000E+00 -0.76173274407E+03  0.76173274407E+03  0.00000000000E+00 0.  1.
         -6    2    1    2    0  503  0.15610963268E+02 -0.90876967265E+02 -0.46389615314E+03  0.50348218944E+03  0.17260460259E+03 0.  0.
        -24    2    3    3    0    0 -0.51798655162E+02 -0.40795421094E+02 -0.19074052267E+03  0.21767052701E+03  0.81554547895E+02 0.  0.
          6    2    1    2  501    0 -0.15610963268E+02  0.90876967265E+02 -0.24363147856E+03  0.31245566700E+03  0.17253962194E+03 0.  0.
         24    2    5    5    0    0 -0.26459772716E+02  0.12943197650E+03 -0.18300482206E+03  0.23964174744E+03  0.80527300355E+02 0.  0.
          5    1    5    5  501    0  0.10848809448E+02 -0.38555009237E+02 -0.60626656498E+02  0.72813919561E+02  0.47000000000E+01 0. -1.
        -11    1    6    6    0    0  0.24146287493E+02  0.31722669151E+02 -0.24863787314E+02  0.46984879029E+02  0.00000000000E+00 0.  1.
         12    1    6    6    0    0 -0.50606060210E+02  0.97709307352E+02 -0.15814103475E+03  0.19265686841E+03  0.00000000000E+00 0. -1.
         -5    1    3    3    0  503  0.67409618430E+02 -0.50081546171E+02 -0.27315563047E+03  0.28581166243E+03  0.47000000000E+01 0.  1.
         13    1    4    4    0    0 -0.37949207205E+02  0.15782682094E+02 -0.46207343188E+02  0.61841361128E+02  0.00000000000E+00 0. -1.
        -14    1    4    4    0    0 -0.13849447957E+02 -0.56578103189E+02 -0.14453317948E+03  0.15582916588E+03  0.00000000000E+00 0.  1.
</event>
<event>
12    1  0.8258923E-002  0.1790721E+03  0.7818608E-02  0.1170992E+00
         21   -1    0    0  503  502  0.00000000000E+00  0.00000000000E+00  0.69016219487E+02  0.69016219487E+02  0.00000000000E+00 0. -1.
         21   -1    0    0  501  503 -0.00000000000E+00 -0.00000000000E+00 -0.64892349045E+03  0.64892349045E+03  0.00000000000E+00 0. -1.
          6    2    1    2  501    0 -0.18177124202E+02  0.16903435035E+02 -0.48782868899E+03  0.51658114710E+03  0.16811638165E+03 0.  0.
         24    2    3    3    0    0  0.19718697003E+02  0.70007341874E+01 -0.46144557452E+03  0.46912258119E+03  0.81891029124E+02 0.  0.
         -6    2    1    2    0  502  0.18177124202E+02 -0.16903435035E+02 -0.92078581970E+02  0.20135856283E+03  0.17734337204E+03 0.  0.
        -24    2    5    5    0    0 -0.48342772708E+02 -0.48547067458E+02 -0.63335614318E+02  0.12214704633E+03  0.78833111401E+02 0.  0.
          5    1    3    3  501    0 -0.37895821205E+02  0.99027008474E+01 -0.26383114469E+02  0.47458565907E+02  0.47000000000E+01 0. -1.
        -11    1    4    4    0    0  0.20915497605E+02 -0.22480484481E+02 -0.68457065059E+02  0.75027994636E+02  0.00000000000E+00 0.  1.
         12    1    4    4    0    0 -0.11968006024E+01  0.29481218668E+02 -0.39298850946E+03  0.39409458656E+03  0.00000000000E+00 0. -1.
         -5    1    5    5    0  502  0.66519896911E+02  0.31643632423E+02 -0.28742967652E+02  0.79211516507E+02  0.47000000000E+01 0.  1.
         11    1    6    6    0    0  0.14114239335E+02 -0.37754442069E+02 -0.17574048654E+02  0.43971090890E+02  0.00000000000E+00 0. -1.
        -12    1    6    6    0    0 -0.62457012044E+02 -0.10792625388E+02 -0.45761565663E+02  0.78175955435E+02  0.00000000000E+00 0.  1.
</event>
<event>
12    1  0.8258923E-002  0.2816079E+03  0.7818608E-02  0.1094842E+00
         21   -1    0    0  503  502  0.00000000000E+00  0.00000000000E+00  0.15421617050E+04  0.15421617050E+04  0.00000000000E+00 0. -1.
         21   -1    0    0  501  503 -0.00000000000E+00 -0.00000000000E+00 -0.15971426082E+03  0.15971426082E+03  0.00000000000E+00 0.  1.
          6    2    1    2  501    0  0.15252627678E+03  0.16281860509E+03 -0.95005057564E+01  0.28176816153E+03  0.17183967519E+03 0.  0.
         24    2    3    3    0    0  0.13308002035E+03  0.19109969183E+03 -0.11994028775E+02  0.24703655614E+03  0.81570946475E+02 0.  0.
         -6    2    1    2    0  502 -0.15252627678E+03 -0.16281860509E+03  0.13919479499E+04  0.14201078043E+04  0.17150194515E+03 0.  0.
        -24    2    5    5    0    0 -0.81595259645E+02 -0.20081560548E+02  0.74727986023E+03  0.75601134370E+03  0.77877511690E+02 0.  0.
          5    1    3    3  501    0  0.19446256432E+02 -0.28281086736E+02  0.24935230188E+01  0.34731605394E+02  0.47000000000E+01 0. -1.
        -13    1    4    4    0    0  0.81631523737E+02  0.16333839374E+03  0.13834808157E+02  0.18312437973E+03  0.00000000000E+00 0.  1.
         14    1    4    4    0    0  0.51448496612E+02  0.27761298093E+02 -0.25828836932E+02  0.63912176404E+02  0.00000000000E+00 0. -1.
         -5    1    5    5    0  502 -0.70931017136E+02 -0.14273704455E+03  0.64466808967E+03  0.66409646055E+03  0.47000000000E+01 0.  1.
         13    1    6    6    0    0 -0.42409710829E+02 -0.30579071280E+02  0.62488872965E+03  0.62707223477E+03  0.00000000000E+00 0. -1.
        -14    1    6    6    0    0 -0.39185548817E+02  0.10497510731E+02  0.12239113058E+03  0.12893910893E+03  0.00000000000E+00 0.  1.
</event>
<event>
12    1  0.8258923E-002  0.2589875E+03  0.7818608E-02  0.1108394E+00
         21   -1    0    0  503  502  0.00000000000E+00  0.00000000000E+00  0.21266179099E+04  0.21266179099E+04  0.00000000000E+00 0. -1.
         21   -1    0    0  501  503 -0.00000000000E+00 -0.00000000000E+00 -0.36687149316E+02  0.36687149316E+02  0.00000000000E+00 0. -1.
          6    2    1    2  501    0  0.17482523614E+03 -0.70511242574E+02  0.61297885201E+03  0.66381798983E+03  0.17139297563E+03 0.  0.
         24    2    3    3    0    0  0.17298497348E+03 -0.32404120694E+02  0.36602773658E+03  0.41389303566E+03  0.79732759501E+02 0.  0.
         -6    2    1    2    0  502 -0.17482523614E+03  0.70511242574E+02  0.14769519086E+04  0.14994870694E+04  0.17759175794E+03 0.  0.
        -24    2    5    5    0    0 -0.18584035210E+03  0.63695581524E+02  0.10029526779E+04  0.10252875895E+04  0.81895076528E+02 0.  0.
          5    1    3    3  501    0  0.18402626616E+01 -0.38107121880E+02  0.24695111543E+03  0.24992495417E+03  0.47000000000E+01 0. -1.
        -13    1    4    4    0    0  0.70195891545E+02  0.18684813648E+02  0.19334910832E+03  0.20654409490E+03  0.00000000000E+00 0.  1.
         14    1    4    4    0    0  0.10278908193E+03 -0.51088934343E+02  0.17267862826E+03  0.20734894076E+03  0.00000000000E+00 0. -1.
         -5    1    5    5    0  502  0.11015115963E+02  0.68156610503E+01  0.47399923071E+03  0.47419947989E+03  0.47000000000E+01 0.  1.
         13    1    6    6    0    0 -0.14322386046E+03  0.94250718637E+01  0.70241651637E+03  0.71693156484E+03  0.00000000000E+00 0. -1.
        -14    1    6    6    0    0 -0.42616491638E+02  0.54270509660E+02  0.30053616152E+03  0.30835602468E+03  0.00000000000E+00 0.  1.
</event>
<event>
12    1  0.8258923E-002  0.2094852E+03  0.7818608E-02  0.1143800E+00
         21   -1    0    0  501  502  0.00000000000E+00  0.00000000000E+00  0.79179312430E+03  0.79179312430E+03  0.00000000000E+00 0. -1.
         21   -1    0    0  502  503 -0.00000000000E+00 -0.00000000000E+00 -0.59202085066E+02  0.59202085066E+02  0.00000000000E+00 0. -1.
         -6    2    1    2    0  503 -0.11270678022E+03  0.40339701865E+02  0.22222213267E+03  0.29930645953E+03  0.16084641934E+03 0.  0.
        -24    2    3    3    0    0 -0.14432403471E+03  0.33493064462E+02  0.18027181332E+03  0.24612331823E+03  0.78278660813E+02 0.  0.
          6    2    1    2  501    0  0.11270678022E+03 -0.40339701865E+02  0.51036890656E+03  0.55168874983E+03  0.17191261167E+03 0.  0.
         24    2    5    5    0    0  0.73759457321E+02  0.31164321541E+02  0.18585266734E+03  0.21708062255E+03  0.78556414428E+02 0.  0.
          5    1    5    5  501    0  0.38947322904E+02 -0.71504023407E+02  0.32451623922E+03  0.33460812728E+03  0.47000000000E+01 0. -1.
        -13    1    6    6    0    0  0.79545410043E+02  0.33977724106E+02  0.19045040172E+03  0.20917292729E+03  0.00000000000E+00 0.  1.
         14    1    6    6    0    0 -0.57859527219E+01 -0.28134025650E+01 -0.45977343823E+01  0.79076952611E+01  0.00000000000E+00 0. -1.
         -5    1    3    3    0  503  0.31617254484E+02  0.68466374031E+01  0.41950319351E+02  0.53183141300E+02  0.47000000000E+01 0.  1.
         13    1    4    4    0    0 -0.41982000791E+02  0.46836708542E+02  0.84379935319E+02  0.10524323799E+03  0.00000000000E+00 0. -1.
        -14    1    4    4    0    0 -0.10234203392E+03 -0.13343644080E+02  0.95891878003E+02  0.14088008025E+03  0.00000000000E+00 0.  1.
</event>
<event>
12    1  0.8258923E-002  0.2401327E+03  0.7818608E-02  0.1120087E+00
         21   -1    0    0  503  502  0.00000000000E+00  0.00000000000E+00  0.68344291241E+02  0.68344291241E+02  0.00000000000E+00 0. -1.
         21   -1    0    0  501  503 -0.00000000000E+00 -0.00000000000E+00 -0.12222576474E+04  0.12222576474E+04  0.00000000000E+00 0.  1.
          6    2    1    2  501    0 -0.87142808875E+01 -0.16712258281E+03 -0.93796570614E+03  0.96765131304E+03  0.16900740029E+03 0.  0.
         24    2    3    3    0    0 -0.16015595129E+02 -0.16426459317E+03 -0.55520018872E+03  0.58477664866E+03  0.80480577837E+02 0.  0.
         -6    2    1    2    0  502  0.87142808875E+01  0.16712258281E+03 -0.21594765005E+03  0.32295062563E+03  0.17221446704E+03 0.  0.
        -24    2    5    5    0    0 -0.45785542083E+02  0.63044620573E+02 -0.54600218170E+02  0.12330710157E+03  0.78437984583E+02 0.  0.
          5    1    3    3  501    0  0.73013142414E+01 -0.28579896380E+01 -0.38276551743E+03  0.38287466438E+03  0.47000000000E+01 0. -1.
        -11    1    4    4    0    0  0.65734308243E+01 -0.52599769668E+02 -0.30875570476E+03  0.31327309330E+03  0.00000000000E+00 0.  1.
         12    1    4    4    0    0 -0.22589025953E+02 -0.11166482351E+03 -0.24644448395E+03  0.27150355536E+03  0.00000000000E+00 0. -1.
         -5    1    5    5    0  502  0.54499822971E+02  0.10407796224E+03 -0.16134743188E+03  0.19964352407E+03  0.47000000000E+01 0.  1.
         11    1    6    6    0    0 -0.12059062918E+02 -0.12326019465E+02  0.86517301992E+01  0.19292594169E+02  0.00000000000E+00 0. -1.
        -12    1    6    6    0    0 -0.33726479165E+02  0.75370640038E+02 -0.63251948369E+02  0.10401450740E+03  0.00000000000E+00 0.  1.
</event>
<event>
12    1  0.8258923E-002  0.1964628E+03  0.7818608E-02  0.1153393E+00
         21   -1    0    0  501  502  0.00000000000E+00  0.00000000000E+00  0.41959457238E+02  0.41959457238E+02  0.00000000000E+00 0.  1.
         21   -1    0    0  502  503 -0.00000000000E+00 -0.00000000000E+00 -0.10070779283E+04  0.10070779283E+04  0.00000000000E+00 0. -1.
         -6    2    1    2    0  503 -0.50605699630E+02 -0.84026092049E+02 -0.64525165222E+03  0.67365438453E+03  0.16685087387E+03 0.  0.
        -24    2    3    3    0    0 -0.83423905651E+02 -0.23759669834E+02 -0.32687095270E+03  0.34792837064E+03  0.81764671048E+02 0.  0.
          6    2    1    2  501    0  0.50605699630E+02  0.84026092049E+02 -0.31986681883E+03  0.37538300101E+03  0.17022424820E+03 0.  0.
         24    2    5    5    0    0 -0.40214845584E+01  0.10710624182E+03 -0.24846205174E+03  0.28244456262E+03  0.80954434262E+02 0.  0.
          5    1    5    5  501    0  0.54627184188E+02 -0.23080149767E+02 -0.71404767094E+02  0.92938438384E+02  0.47000000000E+01 0. -1.
        -11    1    6    6    0    0  0.91723556062E+01  0.72694524123E+02 -0.74019423282E+02  0.10415133685E+03  0.00000000000E+00 0.  1.
         12    1    6    6    0    0 -0.13193840165E+02  0.34411717693E+02 -0.17444262846E+03  0.17829322577E+03  0.00000000000E+00 0. -1.
         -5    1    3    3    0  503  0.32818206022E+02 -0.60266422215E+02 -0.31838069953E+03  0.32572601389E+03  0.47000000000E+01 0.  1.
         13    1    4    4    0    0  0.59681002029E+01  0.16188900062E+02 -0.89648761980E+02  0.91294026255E+02  0.00000000000E+00 0. -1.
        -14    1    4    4    0    0 -0.89392005854E+02 -0.39948569896E+02 -0.23722219072E+03  0.25663434438E+03  0.00000000000E+00 0.  1.
</event>
<event>
12    1  0.8258923E-002  0.2948593E+03  0.7818608E-02  0.1088038E+00
         21   -1    0    0  503  502  0.00000000000E+00  0.00000000000E+00  0.11180027338E+04  0.11180027338E+04  0.00000000000E+00 0.  1.
         21   -1    0    0  501  503 -0.00000000000E+00 -0.00000000000E+00 -0.13060562512E+03  0.13060562512E+03  0.00000000000E+00 0.  1.
          6    2    1    2  501    0  0.22429926121E+03 -0.79533114869E+02  0.95840519476E+02  0.31004421290E+03  0.17408714438E+03 0.  0.
         24    2    3    3    0    0  0.60352521456E+02 -0.75518497131E+02  0.13256686561E+02  0.12636832964E+03  0.80297850179E+02 0.  0.
         -6    2    1    2    0  502 -0.22429926121E+03  0.79533114869E+02  0.89155658918E+03  0.93856414600E+03  0.17144628753E+03 0.  0.
        -24    2    5    5    0    0 -0.16921743289E+03 -0.15376623069E+01  0.47509745044E+03  0.51070110370E+03  0.80381129069E+02 0.  0.
          5    1    3    3  501    0  0.16394673975E+03 -0.40146177379E+01  0.82583832915E+02  0.18367588325E+03  0.47000000000E+01 0. -1.
        -13    1    4    4    0    0  0.29133172493E+02  0.95965664190E+01 -0.10888286248E+02  0.32548281122E+02  0.00000000000E+00 0.  1.
         14    1    4    4    0    0  0.31219348962E+02 -0.85115063550E+02  0.24144972809E+02  0.93820048522E+02  0.00000000000E+00 0. -1.
         -5    1    5    5    0  502 -0.55081828314E+02  0.81070777176E+02  0.41645913874E+03  0.42786304230E+03  0.47000000000E+01 0.  1.
         11    1    6    6    0    0 -0.82418277471E+02 -0.11772045220E+02  0.33809038823E+03  0.34819027000E+03  0.00000000000E+00 0. -1.
        -12    1    6    6    0    0 -0.86799155421E+02  0.10234382913E+02  0.13700706221E+03  0.16251083370E+03  0.00000000000E+00 0.  1.
</event>
<event>
12    1  0.8258923E-002  0.2167523E+03  0.7818608E-02  0.1136970E+00
         21   -1    0    0  501  502  0.00000000000E+00  0.00000000000E+00  0.60812147422E+02  0.60812147422E+02  0.00000000000E+00 0.  1.
         21   -1    0    0  502  503 -0.00000000000E+00 -0.00000000000E+00 -0.12687205528E+04  0.12687205528E+04  0.00000000000E+00 0. -1.
         -6    2    1    2    0  503  0.12779615308E+03  0.22671646505E+02 -0.10217926018E+04  0.10438393957E+04  0.16939510810E+03 0.  0.
        -24    2    3    3    0    0  0.15948763791E+03  0.12008818630E+02 -0.84814531084E+03  0.86693965640E+03  0.81568260860E+02 0.  0.
          6    2    1    2  501    0 -0.12779615308E+03 -0.22671646505E+02 -0.18611580357E+03  0.28569330450E+03  0.17359640434E+03 0.  0.
         24    2    5    5    0    0 -0.14488874196E+03 -0.47375650549E+02 -0.18658015406E+03  0.25528360158E+03  0.84382246567E+02 0.  0.
          5    1    5    5  501    0  0.17092588872E+02  0.24704004044E+02  0.46435049320E+00  0.30409702918E+02  0.47000000000E+01 0. -1.
        -11    1    6    6    0    0 -0.43266111866E+02  0.13427464343E+02 -0.16872382812E+02  0.48341809404E+02  0.00000000000E+00 0.  1.
         12    1    6    6    0    0 -0.10162263009E+03 -0.60803114892E+02 -0.16970777125E+03  0.20694179218E+03  0.00000000000E+00 0. -1.
         -5    1    3    3    0  503 -0.31691484824E+02  0.10662827875E+02 -0.17364729095E+03  0.17689973930E+03  0.47000000000E+01 0.  1.
         11    1    4    4    0    0  0.11676327402E+03 -0.97503007135E+00 -0.40344180076E+03  0.41999988029E+03  0.00000000000E+00 0. -1.
        -12    1    4    4    0    0  0.42724363886E+02  0.12983848702E+02 -0.44470351008E+03  0.44693977611E+03  0.00000000000E+00 0.  1.
</event>
<event>
12    1  0.8258923E-002  0.1793742E+03  0.7818608E-02  0.1168494E+00
         21   -1    0    0  501  502  0.00000000000E+00  0.00000000000E+00  0.48583031749E+03  0.48583031749E+03  0.00000000000E+00 0.  1.
         21   -1    0    0  502  503 -0.00000000000E+00 -0.00000000000E+00 -0.81721058591E+02  0.81721058591E+02  0.00000000000E+00 0.  1.
         -6    2    1    2    0  503 -0.31028443256E+02  0.59101496741E+02  0.77823848355E+02  0.19521112024E+03  0.16611766578E+03 0.  0.
        -24    2    3    3    0    0 -0.33199656544E+02 -0.21292356440E+02  0.10385711978E+02  0.90149814162E+02  0.80396171194E+02 0.  0.
          6    2    1    2  501    0  0.31028443256E+02 -0.59101496741E+02  0.32628541054E+03  0.37234025584E+03  0.16649127839E+03 0.  0.
         24    2    5    5    0    0  0.49791283924E+02 -0.65894275788E+02  0.33165525099E+03  0.35114801142E+03  0.80551181734E+02 0.  0.
          5    1    5    5  501    0 -0.18762840668E+02  0.67927790472E+01 -0.53698404486E+01  0.21192244420E+02  0.47000000000E+01 0. -1.
        -11    1    6    6    0    0 -0.19383209134E+02 -0.31244851295E+02  0.13204510808E+03  0.13706881518E+03  0.00000000000E+00 0.  1.
         12    1    6    6    0    0  0.69174493058E+02 -0.34649424493E+02  0.19961014292E+03  0.21407919624E+03  0.00000000000E+00 0. -1.
         -5    1    3    3    0  503  0.21712132887E+01  0.80393853181E+02  0.67438136376E+02  0.10506130608E+03  0.47000000000E+01 0.  1.
         11    1    4    4    0    0 -0.27093542007E+02 -0.70590672779E+01  0.44562213466E+02  0.52627761859E+02  0.00000000000E+00 0. -1.
        -12    1    4    4    0    0 -0.61061145378E+01 -0.14233289162E+02 -0.34176501487E+02  0.37522052303E+02  0.00000000000E+00 0.  1.
</event>
<event>
12    1  0.8258923E-002  0.1871993E+03  0.7818608E-02  0.1165590E+00
         21   -1    0    0  503  502  0.00000000000E+00  0.00000000000E+00  0.45269864421E+03  0.45269864421E+03  0.00000000000E+00 0.  1.
         21   -1    0    0  501  503 -0.00000000000E+00 -0.00000000000E+00 -0.16618206084E+03  0.16618206084E+03  0.00000000000E+00 0. -1.
          6    2    1    2  501    0  0.73697796713E+02 -0.13531283858E+02 -0.95418874867E+02  0.19353583487E+03  0.15078758840E+03 0.  0.
         24    2    3    3    0    0  0.10756412255E+03 -0.16990505256E+02 -0.78192463344E+02  0.15509453557E+03  0.77984202962E+02 0.  0.
         -6    2    1    2    0  502 -0.73697796713E+02  0.13531283858E+02  0.38193545824E+03  0.42534487017E+03  0.17154912836E+03 0.  0.
        -24    2    5    5    0    0  0.20385107862E+02 -0.14234567927E+02  0.23716892634E+03  0.25041067050E+03  0.76408302766E+02 0.  0.
          5    1    3    3  501    0 -0.33866325833E+02  0.34592213988E+01 -0.17226411523E+02  0.38441299302E+02  0.47000000000E+01 0. -1.
        -11    1    4    4    0    0  0.30759438046E+02 -0.14975438928E+02  0.12327296145E+02  0.36364392339E+02  0.00000000000E+00 0.  1.
         12    1    4    4    0    0  0.76804684500E+02 -0.20150663289E+01 -0.90519759489E+02  0.11873014323E+03  0.00000000000E+00 0. -1.
         -5    1    5    5    0  502 -0.94082904575E+02  0.27765851784E+02  0.14476653189E+03  0.17493419967E+03  0.47000000000E+01 0.  1.
         13    1    6    6    0    0  0.12854465789E+01 -0.38900010738E+02  0.67668058978E+02  0.78062983636E+02  0.00000000000E+00 0. -1.
        -14    1    6    6    0    0  0.19099661283E+02  0.24665442811E+02  0.16950086737E+03  0.17234768687E+03  0.00000000000E+00 0.  1.
</event>
<event>
12    1  0.8258923E-002  0.1766143E+03  0.7818608E-02  0.1171338E+00
         21   -1    0    0  501  502  0.00000000000E+00  0.00000000000E+00  0.44486284166E+02  0.44486284166E+02  0.00000000000E+00 0. -1.
         21   -1    0    0  502  503 -0.00000000000E+00 -0.00000000000E+00 -0.93204146208E+03  0.93204146208E+03  0.00000000000E+00 0. -1.
         -6    2    1    2    0  503  0.26820061110E+02  0.25839085754E+02 -0.68777758107E+03  0.70987499077E+03  0.17174844243E+03 0.  0.
        -24    2    3    3    0    0 -0.49788472861E+02  0.10776168513E+01 -0.39263318149E+03  0.40391044312E+03  0.80639801373E+02 0.  0.
          6    2    1    2  501    0 -0.26820061110E+02 -0.25839085754E+02 -0.19977759685E+03  0.26665275548E+03  0.17264307044E+03 0.  0.
         24    2    5    5    0    0 -0.51850853274E+02 -0.48090137377E+02 -0.58535287191E+02  0.12141801482E+03  0.79465603749E+02 0.  0.
          5    1    5    5  501    0  0.25030792164E+02  0.22251051623E+02 -0.14124230966E+03  0.14523474065E+03  0.47000000000E+01 0. -1.
        -11    1    6    6    0    0 -0.39897822342E+02  0.45991000513E+01  0.20842295448E+01  0.40216065965E+02  0.00000000000E+00 0.  1.
         12    1    6    6    0    0 -0.11953030931E+02 -0.52689237429E+02 -0.60619516736E+02  0.81201948859E+02  0.00000000000E+00 0. -1.
         -5    1    3    3    0  503  0.76608533971E+02  0.24761468903E+02 -0.29514439958E+03  0.30596454765E+03  0.47000000000E+01 0.  1.
         13    1    4    4    0    0 -0.18328480809E+02  0.38326181655E+02 -0.12926256996E+03  0.13606484263E+03  0.00000000000E+00 0. -1.
        -14    1    4    4    0    0 -0.31459992052E+02 -0.37248564804E+02 -0.26337061153E+03  0.26784560048E+03  0.00000000000E+00 0.  1.
</event>
<event>
12    1  0.8258923E-002  0.1823916E+03  0.7818608E-02  0.1165545E+00
         21   -1    0    0  501  502  0.00000000000E+00  0.00000000000E+00  0.26182561661E+03  0.26182561661E+03  0.00000000000E+00 0.  1.
         21   -1    0    0  502  503 -0.00000000000E+00 -0.00000000000E+00 -0.15638287413E+03  0.15638287413E+03  0.00000000000E+00 0.  1.
         -6    2    1    2    0  503 -0.53641656124E+02 -0.26018762979E+02 -0.37979280149E+02  0.18630386509E+03  0.17237256490E+03 0.  0.
        -24    2    3    3    0    0 -0.44638780184E+02 -0.46262586313E+02  0.36145079861E+02  0.10879660798E+03  0.79983670339E+02 0.  0.
          6    2    1    2  501    0  0.53641656124E+02  0.26018762979E+02  0.14342202263E+03  0.23190462565E+03  0.17220765235E+03 0.  0.
         24    2    5    5    0    0  0.69143864219E+01  0.66365755925E+02  0.39124609698E+02  0.11061423891E+03  0.79073083067E+02 0.  0.
          5    1    5    5  501    0  0.46727269702E+02 -0.40346992946E+02  0.10429741293E+03  0.12129038675E+03  0.47000000000E+01 0. -1.
        -11    1    6    6    0    0 -0.26108822096E+02  0.22577950020E+02  0.43574888267E+02  0.55589615090E+02  0.00000000000E+00 0.  1.
         12    1    6    6    0    0  0.33023208518E+02  0.43787805905E+02 -0.44502785692E+01  0.55024623816E+02  0.00000000000E+00 0. -1.
         -5    1    3    3    0  503 -0.90028759399E+01  0.20243823334E+02 -0.74124360011E+02  0.77507257114E+02  0.47000000000E+01 0.  1.
         11    1    4    4    0    0 -0.88078317349E+01  0.22914331790E+02  0.11303410932E+02  0.27026128097E+02  0.00000000000E+00 0. -1.
        -12    1    4    4    0    0 -0.35830948449E+02 -0.69176918102E+02  0.24841668929E+02  0.81770479882E+02  0.00000000000E+00 0.  1.
</event>
<event>
12    1  0.8258923E-002  0.2141348E+03  0.7818608E-02  0.1139397E+00
         21   -1    0    0  503  502  0.00000000000E+00  0.00000000000E+00  0.14976294222E+03  0.14976294222E+03  0.00000000000E+00 0. -1.
         21   -1    0    0  501  503 -0.00000000000E+00 -0.00000000000E+00 -0.29968703339E+03  0.29968703339E+03  0.00000000000E+00 0.  1.
          6    2    1    2  501    0 -0.51815967953E+02 -0.10863711190E+03 -0.59548564630E+02  0.21702481370E+03  0.17048994573E+03 0.  0.
         24    2    3    3    0    0 -0.43366272285E+02 -0.66579286319E+02  0.30478980334E+02  0.11718841301E+03  0.80565010793E+02 0.  0.
         -6    2    1    2    0  502  0.51815967953E+02  0.10863711190E+03 -0.90375526539E+02  0.23242516190E+03  0.17710675726E+03 0.  0.
        -24    2    5    5    0    0  0.71492299125E+02  0.13151204977E+03 -0.10134783002E+03  0.19997670686E+03  0.85514516703E+02 0.  0.
          5    1    3    3  501    0 -0.84496956677E+01 -0.42057825585E+02 -0.90027544964E+02  0.99836400687E+02  0.47000000000E+01 0. -1.
        -11    1    4    4    0    0 -0.18374457277E+02  0.17639617530E+01 -0.21068857659E+02  0.28011229968E+02  0.00000000000E+00 0.  1.
         12    1    4    4    0    0 -0.24991815008E+02 -0.68343248072E+02  0.51547837993E+02  0.89177183047E+02  0.00000000000E+00 0. -1.
         -5    1    5    5    0  502 -0.19676331172E+02 -0.22874937866E+02  0.10972303483E+02  0.32448455040E+02  0.47000000000E+01 0.  1.
         11    1    6    6    0    0  0.29095422983E+02 -0.10118337543E+01 -0.23417493369E+01  0.29207040865E+02  0.00000000000E+00 0. -1.
        -12    1    6    6    0    0  0.42396876142E+02  0.13252388352E+03 -0.99006080685E+02  0.17076966599E+03  0.00000000000E+00 0.  1.
</event>
<event>
12    1  0.8258923E-002  0.2343779E+03  0.7818608E-02  0.1125479E+00
         21   -1    0    0  501  502  0.00000000000E+00  0.00000000000E+00  0.99512176241E+02  0.99512176241E+02  0.00000000000E+00 0. -1.
         21   -1    0    0  502  503 -0.00000000000E+00 -0.00000000000E+00 -0.10131583351E+04  0.10131583351E+04  0.00000000000E+00 0. -1.
         -6    2    1    2    0  503 -0.11116095161E+03  0.89631374789E+02 -0.84764662362E+03  0.87945313267E+03  0.18585605591E+03 0.  0.
        -24    2    3    3    0    0 -0.14568577196E+03  0.10458556925E+03 -0.69285772645E+03  0.72008787974E+03  0.79449606716E+02 0.  0.
          6    2    1    2  501    0  0.11116095161E+03 -0.89631374789E+02 -0.65999535283E+02  0.23321737872E+03  0.17217394276E+03 0.  0.
         24    2    5    5    0    0  0.73624113850E+02 -0.12941927153E+03 -0.51128471560E+02  0.17633742221E+03  0.79441222828E+02 0.  0.
          5    1    5    5  501    0  0.37536837764E+02  0.39787896737E+02 -0.14871063724E+02  0.56879956508E+02  0.47000000000E+01 0. -1.
        -11    1    6    6    0    0  0.17497173805E+02 -0.53399838138E+02 -0.59046531551E+02  0.81511880684E+02  0.00000000000E+00 0.  1.
         12    1    6    6    0    0  0.56126940044E+02 -0.76019433387E+02  0.79180599915E+01  0.94825541524E+02  0.00000000000E+00 0. -1.
         -5    1    3    3    0  503  0.34524820349E+02 -0.14954194465E+02 -0.15478889717E+03  0.15936525292E+03  0.47000000000E+01 0.  1.
         11    1    4    4    0    0 -0.85558038422E+02  0.60177338370E+02 -0.25054963875E+03  0.27150803205E+03  0.00000000000E+00 0. -1.
        -12    1    4    4    0    0 -0.60127733540E+02  0.44408230884E+02 -0.44230808770E+03  0.44857984769E+03  0.00000000000E+00 0.  1.
</event>
<event>
12    1  0.8258923E-002  0.1981697E+03  0.7818608E-02  0.1152281E+00
         21   -1    0    0  503  502  0.00000000000E+00  0.00000000000E+00  0.10658816185E+03  0.10658816185E+03  0.00000000000E+00 0. -1.
         21   -1    0    0  501  503 -0.00000000000E+00 -0.00000000000E+00 -0.36610949811E+03  0.36610949811E+03  0.00000000000E+00 0. -1.
          6    2    1    2  501    0  0.49356076704E+01 -0.87963569064E+02 -0.15883685402E+03  0.25041718888E+03  0.17238814514E+03 0.  0.
         24    2    3    3    0    0  0.21090790018E+02 -0.11229578635E+03 -0.16919189009E+03  0.21907451052E+03  0.79451749091E+02 0.  0.
         -6    2    1    2    0  502 -0.49356076704E+01  0.87963569064E+02 -0.10068448224E+03  0.22228047109E+03  0.17750857207E+03 0.  0.
        -24    2    5    5    0    0  0.51484565891E+02  0.17162094633E+02 -0.10388520152E+02  0.94329169667E+02  0.76451768338E+02 0.  0.
          5    1    3    3  501    0 -0.16155182348E+02  0.24332217282E+02  0.10355036067E+02  0.31342678356E+02  0.47000000000E+01 0. -1.
        -13    1    4    4    0    0  0.40280756218E+01 -0.45428280965E+02 -0.11635348663E+02  0.47067350075E+02  0.00000000000E+00 0.  1.
         14    1    4    4    0    0  0.17062714397E+02 -0.66867505381E+02 -0.15755654143E+03  0.17200716045E+03  0.00000000000E+00 0. -1.
         -5    1    5    5    0  502 -0.56420173561E+02  0.70801474431E+02 -0.90295962085E+02  0.12795130142E+03  0.47000000000E+01 0.  1.
         13    1    6    6    0    0  0.18351624091E+02 -0.30566541819E+02 -0.41812530337E+01  0.35896775099E+02  0.00000000000E+00 0. -1.
        -14    1    6    6    0    0  0.33132941800E+02  0.47728636452E+02 -0.62072671179E+01  0.58432394568E+02  0.00000000000E+00 0.  1.
</event>
<event>
12    1  0.8258923E-002  0.1923933E+03  0.7818608E-02  0.1156669E+00
         21   -1    0    0  501  502  0.00000000000E+00  0.00000000000E+00  0.27581612228E+02  0.27581612228E+02  0.00000000000E+00 0.  1.
         21   -1    0    0  502  503 -0.00000000000E+00 -0.00000000000E+00 -0.15538755207E+04  0.15538755207E+04  0.00000000000E+00 0.  1.
         -6    2    1    2    0  503 -0.58051379496E+02  0.59088658945E+02 -0.46643490154E+03  0.50455595486E+03  0.17364838590E+03 0.  0.
        -24    2    3    3    0    0  0.26366642897E+02  0.84975775682E+01 -0.13793797305E+03  0.16160088193E+03  0.79501899021E+02 0.  0.
          6    2    1    2  501    0  0.58051379496E+02 -0.59088658945E+02 -0.10598590069E+04  0.10769011780E+04  0.17191160660E+03 0.  0.
         24    2    5    5    0    0  0.92845799352E+01 -0.76589689822E+02 -0.40299065275E+03  0.41797583212E+03  0.79687803438E+02 0.  0.
          5    1    5    5  501    0  0.48766799561E+02  0.17501030877E+02 -0.65686835413E+03  0.65892534591E+03  0.47000000000E+01 0. -1.
        -13    1    6    6    0    0  0.16981441635E+02  0.10234830371E+02 -0.39714617375E+02  0.44388871871E+02  0.00000000000E+00 0.  1.
         14    1    6    6    0    0 -0.76968616997E+01 -0.86824520193E+02 -0.36327603538E+03  0.37358696025E+03  0.00000000000E+00 0. -1.
         -5    1    3    3    0  503 -0.84418022393E+02  0.50591081377E+02 -0.32849692849E+03  0.34295507293E+03  0.47000000000E+01 0.  1.
         13    1    4    4    0    0  0.77031044984E+01  0.42497241997E+02 -0.90868985169E+02  0.10061076415E+03  0.00000000000E+00 0. -1.
        -14    1    4    4    0    0  0.18663538398E+02 -0.33999664429E+02 -0.47068987884E+02  0.60990117783E+02  0.00000000000E+00 0.  1.
</event>
<event>
12    1  0.8258923E-002  0.2243479E+03  0.7818608E-02  0.1130834E+00
         21   -1    0    0  501  502  0.00000000000E+00  0.00000000000E+00  0.16566057740E+04  0.16566057740E+04  0.00000000000E+00 0. -1.
         21   -1    0    0  502  503 -0.00000000000E+00 -0.00000000000E+00 -0.30725001493E+02  0.30725001493E+02  0.00000000000E+00 0. -1.
         -6    2    1    2    0  503  0.79313801653E+02 -0.11985509058E+03  0.71175035888E+03  0.74627108482E+03  0.17226734109E+03 0.  0.
        -24    2    3    3    0    0 -0.14594369912E+02 -0.33725996671E+02  0.39999729439E+03  0.40944913079E+03  0.79374534301E+02 0.  0.
          6    2    1    2  501    0 -0.79313801653E+02  0.11985509058E+03  0.91413041359E+03  0.94105969063E+03  0.17118120929E+03 0.  0.
         24    2    5    5    0    0 -0.64147477956E+01  0.89244646255E+02  0.32223071110E+03  0.34388415600E+03  0.80111957272E+02 0.  0.
          5    1    5    5  501    0 -0.72899053857E+02  0.30610444321E+02  0.59189970249E+03  0.59717553463E+03  0.47000000000E+01 0. -1.
        -13    1    6    6    0    0  0.25313650034E+02  0.70376683194E+01  0.37195644342E+02  0.45539275482E+02  0.00000000000E+00 0.  1.
         14    1    6    6    0    0 -0.31728397829E+02  0.82206977935E+02  0.28503506676E+03  0.29834488052E+03  0.00000000000E+00 0. -1.
         -5    1    3    3    0  503  0.93908171565E+02 -0.86129093904E+02  0.31175306448E+03  0.33682195403E+03  0.47000000000E+01 0.  1.
         13    1    4    4    0    0 -0.16086684280E+01 -0.54678798876E+02  0.18145984033E+03  0.18952580962E+03  0.00000000000E+00 0. -1.
        -14    1    4    4    0    0 -0.12985701485E+02  0.20952802204E+02  0.21853745407E+03  0.21992332117E+03  0.00000000000E+00 0.  1.
</event>
<event>
12    1  0.8258923E-002  0.1801353E+03  0.7818608E-02  0.1168562E+00
         21   -1    0    0  503  502  0.00000000000E+00  0.00000000000E+00  0.51130246860E+03  0.51130246860E+03  0.00000000000E+00 0.  1.
         21   -1    0    0  501  503 -0.00000000000E+00 -0.00000000000E+00 -0.63884022364E+02  0.63884022364E+02  0.00000000000E+00 0.  1.
          6    2    1    2  501    0 -0.41340123959E+02 -0.83883682529E+00  0.27280282164E+03  0.32690991286E+03  0.17532541782E+03 0.  0.
         24    2    3    3    0    0  0.37927332139E+02 -0.29533710194E+02  0.16653572243E+03  0.19118404307E+03  0.80662686052E+02 0.  0.
         -6    2    1    2    0  502  0.41340123959E+02  0.83883682529E+00  0.17461562459E+03  0.24827657810E+03  0.17158360465E+03 0.  0.
        -24    2    5    5    0    0  0.90959867845E+02 -0.19595798025E+02  0.12517131629E+03  0.17515665668E+03  0.79713882726E+02 0.  0.
          5    1    3    3  501    0 -0.79267456097E+02  0.28694873368E+02  0.10626709922E+03  0.13572586979E+03  0.47000000000E+01 0. -1.
        -13    1    4    4    0    0  0.51697935081E+02 -0.82353067127E+00  0.56291829984E+02  0.76433793687E+02  0.00000000000E+00 0.  1.
         14    1    4    4    0    0 -0.13770602943E+02 -0.28710179522E+02  0.11024389244E+03  0.11475024939E+03  0.00000000000E+00 0. -1.
         -5    1    5    5    0  502 -0.49619743886E+02  0.20434634850E+02  0.49444308305E+02  0.73119921421E+02  0.47000000000E+01 0.  1.
         11    1    6    6    0    0  0.53586773958E+02 -0.46276976053E+02  0.10076687962E+03  0.12315463810E+03  0.00000000000E+00 0. -1.
        -12    1    6    6    0    0  0.37373093887E+02  0.26681178028E+02  0.24404436661E+02  0.52002018580E+02  0.00000000000E+00 0.  1.
</event>
<event>
12    1  0.8258923E-002  0.3168751E+03  0.7818608E-02  0.1077309E+00
         21   -1    0    0  501  502  0.00000000000E+00  0.00000000000E+00  0.38302792116E+03  0.38302792116E+03  0.00000000000E+00 0. -1.
         21   -1    0    0  502  503 -0.00000000000E+00 -0.00000000000E+00 -0.66604353849E+03  0.66604353849E+03  0.00000000000E+00 0.  1.
         -6    2    1    2    0  503  0.14491745972E+03  0.22181448634E+03 -0.55057475523E+03  0.63434537338E+03  0.17046628742E+03 0.  0.
        -24    2    3    3    0    0  0.13920233931E+03  0.21359893676E+03 -0.55915348407E+03  0.62035100148E+03  0.84740481674E+02 0.  0.
          6    2    1    2  501    0 -0.14491745972E+03 -0.22181448634E+03  0.26755913790E+03  0.41472608627E+03  0.17380189261E+03 0.  0.
         24    2    5    5    0    0 -0.67172314983E+02 -0.43440143604E+02  0.53178701322E+02  0.12516991682E+03  0.80251902320E+02 0.  0.
          5    1    5    5  501    0 -0.77745144741E+02 -0.17837434274E+03  0.21438043658E+03  0.28955616945E+03  0.47000000000E+01 0. -1.
        -11    1    6    6    0    0 -0.70586699440E+01 -0.31501633969E+02 -0.13152566147E+02  0.34859256452E+02  0.00000000000E+00 0.  1.
         12    1    6    6    0    0 -0.60113645039E+02 -0.11938509635E+02  0.66331267470E+02  0.90310660369E+02  0.00000000000E+00 0. -1.
         -5    1    3    3    0  503  0.57151204192E+01  0.82155495774E+01  0.85787288426E+01  0.13994371898E+02  0.47000000000E+01 0.  1.
         13    1    4    4    0    0  0.43970294261E+02  0.14440949453E+03 -0.31368060158E+03  0.34811349973E+03  0.00000000000E+00 0. -1.
        -14    1    4    4    0    0  0.95232045045E+02  0.69189442234E+02 -0.24547288249E+03  0.27223750175E+03  0.00000000000E+00 0.  1.
</event>
<event>
12    1  0.8258923E-002  0.2220785E+03  0.7818608E-02  0.1132585E+00
         21   -1    0    0  503  502  0.00000000000E+00  0.00000000000E+00  0.17954305968E+03  0.17954305968E+03  0.00000000000E+00 0. -1.
         21   -1    0    0  501  503 -0.00000000000E+00 -0.00000000000E+00 -0.33302140064E+03  0.33302140064E+03  0.00000000000E+00 0. -1.
          6    2    1    2  501    0  0.10227695695E+03 -0.95557698199E+02 -0.18529025929E+03  0.28821910290E+03  0.17072176627E+03 0.  0.
         24    2    3    3    0    0  0.22070110042E+02 -0.10774672467E+03 -0.90335247573E+02  0.16323808471E+03  0.79936030122E+02 0.  0.
         -6    2    1    2    0  502 -0.10227695695E+03  0.95557698199E+02  0.31811918331E+02  0.22434535742E+03  0.17241517230E+03 0.  0.
        -24    2    5    5    0    0 -0.39717317710E+02 -0.19524115004E+02  0.98045264308E+01  0.91439573156E+02  0.79412910838E+02 0.  0.
          5    1    3    3  501    0  0.80206846906E+02  0.12189026467E+02 -0.94955011718E+02  0.12498101819E+03  0.47000000000E+01 0. -1.
        -13    1    4    4    0    0  0.80015417201E+01 -0.33018162426E+02  0.11746477792E+02  0.35947231610E+02  0.00000000000E+00 0.  1.
         14    1    4    4    0    0  0.14068568322E+02 -0.74728562240E+02 -0.10208172536E+03  0.12729085310E+03  0.00000000000E+00 0. -1.
         -5    1    5    5    0  502 -0.62559639238E+02  0.11508181320E+03  0.22007391900E+02  0.13290578426E+03  0.47000000000E+01 0.  1.
         11    1    6    6    0    0 -0.34971475877E+02  0.24601084062E+02  0.17854453760E+02  0.46335720358E+02  0.00000000000E+00 0. -1.
        -12    1    6    6    0    0 -0.47458418331E+01 -0.44125199065E+02 -0.80499273293E+01  0.45103852798E+02  0.00000000000E+00 0.  1.
</event>
<event>
12    1  0.8258923E-002  0.1811456E+03  0.7818608E-02  0.1167815E+00
         21   -1    0    0  501  502  0.00000000000E+00  0.00000000000E+00  0.75525139155E+02  0.75525139155E+02  0.00000000000E+00 0.  1.
         21   -1    0    0  502  503 -0.00000000000E+00 -0.00000000000E+00 -0.87198157547E+03  0.87198157547E+03  0.00000000000E+00 0.  1.
         -6    2    1    2    0  503  0.35610431990E+02 -0.22991607253E+02 -0.73547722955E+03  0.75637274555E+03  0.17139503538E+03 0.  0.
        -24    2    3    3    0    0 -0.17979957596E+02 -0.55527644965E+02 -0.28160734012E+03  0.29816919893E+03  0.78712000031E+02 0.  0.
          6    2    1    2  501    0 -0.35610431990E+02  0.22991607253E+02 -0.60979206764E+02  0.19113396907E+03  0.17611647738E+03 0.  0.
         24    2    5    5    0    0 -0.70312385533E+02 -0.34694190813E+02 -0.36817502257E+02  0.11945583543E+03  0.82259648126E+02 0.  0.
          5    1    5    5  501    0  0.34701953543E+02  0.57685798066E+02 -0.24161704507E+02  0.71678133645E+02  0.47000000000E+01 0. -1.
        -11    1    6    6    0    0 -0.37779609015E+01  0.95249083716E+01  0.19283414034E+02  0.21836824972E+02  0.00000000000E+00 0.  1.
         12    1    6    6    0    0 -0.66534424632E+02 -0.44219099184E+02 -0.56100916291E+02  0.97619010456E+02  0.00000000000E+00 0. -1.
         -5    1    3    3    0  503  0.53590389586E+02  0.32536037711E+02 -0.45386988943E+03  0.45820354662E+03  0.47000000000E+01 0.  1.
         13    1    4    4    0    0 -0.36934563612E+02 -0.28265773380E+02 -0.70451993743E+02  0.84419188318E+02  0.00000000000E+00 0. -1.
        -14    1    4    4    0    0  0.18954606017E+02 -0.27261871584E+02 -0.21115534638E+03  0.21375001061E+03  0.00000000000E+00 0.  1.
</event>
<event>
12    1  0.8258923E-002  0.2581844E+03  0.7818608E-02  0.1108275E+00
         21   -1    0    0  503  502  0.00000000000E+00  0.00000000000E+00  0.60541977552E+03  0.60541977552E+03  0.00000000000E+00 0. -1.
         21   -1    0    0  501  503 -0.00000000000E+00 -0.00000000000E+00 -0.28249572988E+03  0.28249572988E+03  0.00000000000E+00 0.  1.
          6    2    1    2  501    0  0.11007491625E+03  0.15791028270E+03 -0.18548173164E+03  0.31770885910E+03  0.17170702317E+03 0.  0.
         24    2    3    3    0    0  0.39812766671E+02  0.14314950343E+03 -0.72759940054E+02  0.18398173931E+03  0.80488724681E+02 0.  0.
         -6    2    1    2    0  502 -0.11007491625E+03 -0.15791028270E+03  0.50840577728E+03  0.57020664629E+03  0.17206696527E+03 0.  0.
        -24    2    5    5    0    0 -0.11508521387E+03 -0.18062226481E+03  0.48812021295E+03  0.53898916187E+03  0.79868425060E+02 0.  0.
          5    1    3    3  501    0  0.70262149581E+02  0.14760779272E+02 -0.11272179159E+03  0.13372711979E+03  0.47000000000E+01 0. -1.
        -11    1    4    4    0    0  0.13477334933E+02  0.82395135793E+02 -0.82118522235E+02  0.11710699660E+03  0.00000000000E+00 0.  1.
         12    1    4    4    0    0  0.26335431737E+02  0.60754367637E+02  0.93585821811E+01  0.66874742707E+02  0.00000000000E+00 0. -1.
         -5    1    5    5    0  502  0.50102976184E+01  0.22711982113E+02  0.20285564326E+02  0.31217484424E+02  0.47000000000E+01 0.  1.
         13    1    6    6    0    0 -0.26154464019E+02 -0.95171642822E+02  0.28218082995E+03  0.29894433993E+03  0.00000000000E+00 0. -1.
        -14    1    6    6    0    0 -0.88930749851E+02 -0.85450621993E+02  0.20593938300E+03  0.24004482194E+03  0.00000000000E+00 0.  1.
</event>
<event>
12    1  0.8258923E-002  0.3285608E+03  0.7818608E-02  0.1071785E+00
         21   -1    0    0  501  502  0.00000000000E+00  0.00000000000E+00  0.27514496722E+03  0.27514496722E+03  0.00000000000E+00 0.  1.
         21   -1    0    0  502  503 -0.00000000000E+00 -0.00000000000E+00 -0.45987114977E+03  0.45987114977E+03  0.00000000000E+00 0. -1.
         -6    2    1    2    0  503 -0.27788396784E+03  0.35035371301E+02  0.48578528609E+02  0.33204798357E+03  0.17160714764E+03 0.  0.
        -24    2    3    3    0    0 -0.29128004289E+03  0.55883487616E+02  0.38387992718E+02  0.30484438450E+03  0.59071424589E+02 0.  0.
          6    2    1    2  501    0  0.27788396784E+03 -0.35035371301E+02 -0.23330471116E+03  0.40296813343E+03  0.17177092736E+03 0.  0.
         24    2    5    5    0    0  0.13754646760E+03 -0.39457561096E+02 -0.50252703641E+02  0.17222087517E+03  0.81601260688E+02 0.  0.
          5    1    5    5  501    0  0.14033750024E+03  0.44221897951E+01 -0.18305200752E+03  0.23074725826E+03  0.47000000000E+01 0. -1.
        -13    1    6    6    0    0  0.14533985312E+03 -0.25646915425E+02 -0.51503139432E+02  0.15631382072E+03  0.00000000000E+00 0.  1.
         14    1    6    6    0    0 -0.77933855232E+01 -0.13810645671E+02  0.12504357907E+01  0.15907054455E+02  0.00000000000E+00 0. -1.
         -5    1    3    3    0  503  0.13396075045E+02 -0.20848116314E+02  0.10190535891E+02  0.27203599067E+02  0.47000000000E+01 0.  1.
         11    1    4    4    0    0 -0.22483074089E+03  0.54028933399E+02  0.51960828847E+02  0.23699771186E+03  0.00000000000E+00 0. -1.
        -12    1    4    4    0    0 -0.66449301994E+02  0.18545542165E+01 -0.13572836129E+02  0.67846672633E+02  0.00000000000E+00 0.  1.
</event>
<event>
12    1  0.8258923E-002  0.1897772E+03  0.7818608E-02  0.1160170E+00
         21   -1    0    0  501  502  0.00000000000E+00  0.00000000000E+00  0.16964855203E+04  0.16964855203E+04  0.00000000000E+00 0. -1.
         21   -1    0    0  502  503 -0.00000000000E+00 -0.00000000000E+00 -0.45126536600E+02  0.45126536600E+02  0.00000000000E+00 0. -1.
         -6    2    1    2    0  503  0.58959984074E+02  0.23421769018E+02  0.17588739560E+03  0.25398582381E+03  0.17189404812E+03 0.  0.
        -24    2    3    3    0    0  0.15720109280E+02  0.71929244370E+02  0.67605782824E+02  0.12761470526E+03  0.79334942464E+02 0.  0.
          6    2    1    2  501    0 -0.58959984074E+02 -0.23421769018E+02  0.14754715881E+04  0.14876262331E+04  0.17885900345E+03 0.  0.
         24    2    5    5    0    0 -0.52281045230E+02 -0.78308439784E+02  0.75103268527E+03  0.76106517662E+03  0.79401443868E+02 0.  0.
          5    1    5    5  501    0 -0.66789388437E+01  0.54886670766E+02  0.72443890281E+03  0.72656105645E+03  0.47000000000E+01 0. -1.
        -13    1    6    6    0    0 -0.56182256149E+02 -0.12937634521E+02  0.34365013780E+03  0.34845264456E+03  0.00000000000E+00 0.  1.
         14    1    6    6    0    0  0.39012109193E+01 -0.65370805263E+02  0.40738254748E+03  0.41261253206E+03  0.00000000000E+00 0. -1.
         -5    1    3    3    0  503  0.43239874794E+02 -0.48507475352E+02  0.10828161278E+03  0.12637111855E+03  0.47000000000E+01 0.  1.
         13    1    4    4    0    0  0.10189102420E+02  0.25685990835E+02 -0.15986377610E+02  0.31924163300E+02  0.00000000000E+00 0. -1.
        -14    1    4    4    0    0  0.55310068598E+01  0.46243253535E+02  0.83592160434E+02  0.95690541959E+02  0.00000000000E+00 0.  1.
</event>
<event>
12    1  0.8258923E-002  0.2403240E+03  0.7818608E-02  0.1119687E+00
         21   -1    0    0  503  502  0.00000000000E+00  0.00000000000E+00  0.10506335241E+04  0.10506335241E+04  0.00000000000E+00 0. -1.
         21   -1    0    0  501  503 -0.00000000000E+00 -0.00000000000E+00 -0.87732476294E+02  0.87732476294E+02  0.00000000000E+00 0. -1.
          6    2    1    2  501    0  0.91137747427E+02 -0.14153983627E+03  0.13325250092E+03  0.27479416798E+03  0.17151090781E+03 0.  0.
         24    2    3    3    0    0  0.98320853908E+02 -0.11162137326E+03  0.16093019098E+03  0.23314256568E+03  0.79565119747E+02 0.  0.
         -6    2    1    2    0  502 -0.91137747427E+02  0.14153983627E+03  0.82964854684E+03  0.86357183237E+03  0.17058717457E+03 0.  0.
        -24    2    5    5    0    0 -0.11197224383E+03  0.52392942307E+02  0.54529462196E+03  0.56480689209E+03  0.79861109569E+02 0.  0.
          5    1    3    3  501    0 -0.71831064818E+01 -0.29918463009E+02 -0.27677690060E+02  0.41651602305E+02  0.47000000000E+01 0. -1.
        -13    1    4    4    0    0  0.23862510357E+01 -0.27904453655E+02  0.73591408563E+02  0.78740384442E+02  0.00000000000E+00 0.  1.
         14    1    4    4    0    0  0.95934602873E+02 -0.83716919603E+02  0.87338782418E+02  0.15440218124E+03  0.00000000000E+00 0. -1.
         -5    1    5    5    0  502  0.20834496407E+02  0.89146893960E+02  0.28435392488E+03  0.29876494028E+03  0.47000000000E+01 0.  1.
         13    1    6    6    0    0 -0.75211208395E+02  0.68775778298E+02  0.44935494012E+03  0.46076750727E+03  0.00000000000E+00 0. -1.
        -14    1    6    6    0    0 -0.36761035439E+02 -0.16382835990E+02  0.95939681845E+02  0.10403938482E+03  0.00000000000E+00 0.  1.
</event>
<event>
12    1  0.8258923E-002  0.2150640E+03  0.7818608E-02  0.1137767E+00
         21   -1    0    0  503  502  0.00000000000E+00  0.00000000000E+00  0.50088359320E+03  0.50088359320E+03  0.00000000000E+00 0.  1.
         21   -1    0    0  501  503 -0.00000000000E+00 -0.00000000000E+00 -0.14687298407E+03  0.14687298407E+03  0.00000000000E+00 0.  1.
          6    2    1    2  501    0  0.11932021130E+03 -0.46240203059E+02 -0.20743186484E+02  0.21606202546E+03  0.17284978986E+03 0.  0.
         24    2    3    3    0    0  0.84603364471E+02 -0.90963569970E+02 -0.42554861267E+02  0.15520745982E+03  0.82742607073E+02 0.  0.
         -6    2    1    2    0  502 -0.11932021130E+03  0.46240203059E+02  0.37475379561E+03  0.43169455182E+03  0.17188458204E+03 0.  0.
        -24    2    5    5    0    0 -0.91348976360E+02  0.38038859375E+02  0.11459886854E+03  0.16986955664E+03  0.77014124017E+02 0.  0.
          5    1    3    3  501    0  0.34716846830E+02  0.44723366911E+02  0.21811674783E+02  0.60854565634E+02  0.47000000000E+01 0. -1.
        -13    1    4    4    0    0  0.54224193050E+02 -0.14005222566E+02  0.10418643940E+02  0.56964528547E+02  0.00000000000E+00 0.  1.
         14    1    4    4    0    0  0.30379171421E+02 -0.76958347404E+02 -0.52973505208E+02  0.98242931274E+02  0.00000000000E+00 0. -1.
         -5    1    5    5    0  502 -0.27971234942E+02  0.82013436838E+01  0.26015492707E+03  0.26182499518E+03  0.47000000000E+01 0.  1.
         13    1    6    6    0    0 -0.80358805318E+01 -0.34412026106E+01 -0.10681616969E+02  0.13802687869E+02  0.00000000000E+00 0. -1.
        -14    1    6    6    0    0 -0.83313095828E+02  0.41480061986E+02  0.12528048551E+03  0.15606686877E+03  0.00000000000E+00 0.  1.
</event>
<event>
12    1  0.8258923E-002  0.2478751E+03  0.7818608E-02  0.1114802E+00
         21   -1    0    0  503  502  0.00000000000E+00  0.00000000000E+00  0.81751331143E+03  0.81751331143E+03  0.00000000000E+00 0. -1.
         21   -1    0    0  501  503 -0.00000000000E+00 -0.00000000000E+00 -0.16534645116E+03  0.16534645116E+03  0.00000000000E+00 0. -1.
          6    2    1    2  501    0  0.12765280148E+03 -0.12417685940E+03 -0.37146309224E+02  0.25064302932E+03  0.17241505073E+03 0.  0.
         24    2    3    3    0    0  0.46180835013E+02 -0.13673264101E+03 -0.24615538510E+02  0.16712992144E+03  0.80610180906E+02 0.  0.
         -6    2    1    2    0  502 -0.12765280148E+03  0.12417685940E+03  0.68931316950E+03  0.73221673328E+03  0.17109520365E+03 0.  0.
        -24    2    5    5    0    0 -0.76205769839E+02  0.11360914792E+03  0.64144013278E+03  0.66099601132E+03  0.82194435326E+02 0.  0.
          5    1    3    3  501    0  0.81471966470E+02  0.12555781607E+02 -0.12530770714E+02  0.83513107875E+02  0.47000000000E+01 0. -1.
        -13    1    4    4    0    0 -0.20410723722E+02 -0.55524858599E+02  0.45497134024E+00  0.59159230592E+02  0.00000000000E+00 0.  1.
         14    1    4    4    0    0  0.66591558736E+02 -0.81207782407E+02 -0.25070509850E+02  0.10797069085E+03  0.00000000000E+00 0. -1.
         -5    1    5    5    0  502 -0.51447031644E+02  0.10567711475E+02  0.47873036721E+02  0.71220721954E+02  0.47000000000E+01 0.  1.
         11    1    6    6    0    0  0.28034310449E+01  0.50203523550E+02  0.32127423441E+03  0.32518515757E+03  0.00000000000E+00 0. -1.
        -12    1    6    6    0    0 -0.79009200884E+02  0.63405624374E+02  0.32016589836E+03  0.33581085376E+03  0.00000000000E+00 0.  1.
</event>
<event>
12    1  0.8258923E-002  0.3093213E+03  0.7818608E-02  0.1080775E+00
         21   -1    0    0  503  502  0.00000000000E+00  0.00000000000E+00  0.28328178058E+03  0.28328178058E+03  0.00000000000E+00 0. -1.
         21   -1    0    0  501  503 -0.00000000000E+00 -0.00000000000E+00 -0.43729530746E+03  0.43729530746E+03  0.00000000000E+00 0.  1.
          6    2    1    2  501    0  0.79187473347E+02 -0.24415830108E+03 -0.24962968202E+03  0.39681468095E+03  0.17106425970E+03 0.  0.
         24    2    3    3    0    0  0.12655134017E+02 -0.22496731637E+03 -0.19025770216E+03  0.30548030591E+03  0.79685495641E+02 0.  0.
         -6    2    1    2    0  502 -0.79187473347E+02  0.24415830108E+03  0.95616155150E+02  0.32376240709E+03  0.17261435396E+03 0.  0.
        -24    2    5    5    0    0 -0.10509772552E+03  0.12016052131E+03  0.80904673352E+02  0.19614850403E+03  0.80278183049E+02 0.  0.
          5    1    3    3  501    0  0.66532339330E+02 -0.19190984710E+02 -0.59371979867E+02  0.91334375041E+02  0.47000000000E+01 0. -1.
        -11    1    4    4    0    0 -0.39237201545E+01 -0.12578811074E+03 -0.15331857467E+03  0.19835480766E+03  0.00000000000E+00 0.  1.
         12    1    4    4    0    0  0.16578854172E+02 -0.99179205630E+02 -0.36939127487E+02  0.10712549825E+03  0.00000000000E+00 0. -1.
         -5    1    5    5    0  502  0.25910252170E+02  0.12399777977E+03  0.14711481799E+02  0.12761390305E+03  0.47000000000E+01 0.  1.
         11    1    6    6    0    0 -0.29588431727E+02  0.92728344391E+02  0.54661769148E+02  0.11163301551E+03  0.00000000000E+00 0. -1.
        -12    1    6    6    0    0 -0.75509293790E+02  0.27432176922E+02  0.26242904204E+02  0.84515488524E+02  0.00000000000E+00 0.  1.
</event>
<event>
12    1  0.8258923E-002  0.2552262E+03  0.7818608E-02  0.1110065E+00
         21   -1    0    0  503  502  0.00000000000E+00  0.00000000000E+00  0.82499291429E+03  0.82499291429E+03  0.00000000000E+00 0.  1.
         21   -1    0    0  501  503 -0.00000000000E+00 -0.00000000000E+00 -0.17052580622E+03  0.17052580622E+03  0.00000000000E+00 0. -1.
          6    2    1    2  501    0  0.18804222838E+03 -0.41923765965E+01 -0.37631994975E+02  0.25785918305E+03  0.17233030946E+03 0.  0.
         24    2    3    3    0    0  0.51770166900E+02 -0.29665769936E+02  0.30854392908E+02  0.10316127151E+03  0.78294612144E+02 0.  0.
         -6    2    1    2    0  502 -0.18804222838E+03  0.41923765965E+01  0.69209910305E+03  0.73765953746E+03  0.17251947452E+03 0.  0.
        -24    2    5    5    0    0 -0.62882858429E+02 -0.42773053562E+02  0.20291756434E+03  0.23051923406E+03  0.78611649007E+02 0.  0.
          5    1    3    3  501    0  0.13627206148E+03  0.25473393340E+02 -0.68486387883E+02  0.15469791154E+03  0.47000000000E+01 0. -1.
        -13    1    4    4    0    0  0.16715814747E+02  0.26496032946E+02  0.34793230898E+01  0.31520848873E+02  0.00000000000E+00 0.  1.
         14    1    4    4    0    0  0.35054352153E+02 -0.56161802882E+02  0.27375069818E+02  0.71640422636E+02  0.00000000000E+00 0. -1.
         -5    1    5    5    0  502 -0.12515936995E+03  0.46965430159E+02  0.48918153871E+03  0.50714030340E+03  0.47000000000E+01 0.  1.
         13    1    6    6    0    0 -0.24043491735E+02 -0.21968043549E+02  0.17578048663E+03  0.17877210048E+03  0.00000000000E+00 0. -1.
        -14    1    6    6    0    0 -0.38839366694E+02 -0.20805010013E+02  0.27137077712E+02  0.51747133579E+02  0.00000000000E+00 0.  1.
</event>
<event>
12    1  0.8258923E-002  0.1747106E+03  0.7818608E-02  0.1173599E+00
         21   -1    0    0  503  502  0.00000000000E+00  0.00000000000E+00  0.10339184871E+03  0.10339184871E+03  0.00000000000E+00 0.  1.
         21   -1    0    0  501  503 -0.00000000000E+00 -0.00000000000E+00 -0.34203719752E+03  0.34203719752E+03  0.00000000000E+00 0.  1.
          6    2    1    2  501    0 -0.24523383559E+02 -0.12327932118E+02 -0.34290405648E+02  0.17804390903E+03  0.17254108894E+03 0.  0.
         24    2    3    3    0    0 -0.25611146142E+02 -0.29781162219E+02 -0.83441908558E+02  0.12566300882E+03  0.85356846549E+02 0.  0.
         -6    2    1    2    0  502  0.24523383559E+02  0.12327932118E+02 -0.20435494316E+03  0.26738513720E+03  0.17023658405E+03 0.  0.
        -24    2    5    5    0    0 -0.44660549774E+02 -0.20760062883E+02 -0.91478665822E+02  0.13084072673E+03  0.79532411972E+02 0.  0.
          5    1    3    3  501    0  0.10877625831E+01  0.17453230101E+02  0.49151502910E+02  0.52380900209E+02  0.47000000000E+01 0. -1.
        -13    1    4    4    0    0  0.12463885151E+02  0.40514159608E+00  0.12787926804E+02  0.17861792875E+02  0.00000000000E+00 0.  1.
         14    1    4    4    0    0 -0.38075031293E+02 -0.30186303815E+02 -0.96229835362E+02  0.10780121595E+03  0.00000000000E+00 0. -1.
         -5    1    5    5    0  502  0.69183933334E+02  0.33087995001E+02 -0.11287627734E+03  0.13654441047E+03  0.47000000000E+01 0.  1.
         11    1    6    6    0    0 -0.24989103046E+02 -0.17172698588E+02 -0.10326858088E+03  0.10762786185E+03  0.00000000000E+00 0. -1.
        -12    1    6    6    0    0 -0.19671446729E+02 -0.35873642954E+01  0.11789915063E+02  0.23212864885E+02  0.00000000000E+00 0.  1.
</event>
<event>
12    1  0.8258923E-002  0.2898145E+03  0.7818608E-02  0.1090465E+00
         21   -1    0    0  501  502  0.00000000000E+00  0.00000000000E+00  0.31147452031E+03  0.31147452031E+03  0.00000000000E+00 0. -1.
         21   -1    0    0  502  503 -0.00000000000E+00 -0.00000000000E+00 -0.65425177457E+03  0.65425177457E+03  0.00000000000E+00 0.  1.
         -6    2    1    2    0  503  0.51362920657E+02 -0.22718516066E+03 -0.54164853703E+03  0.61424051491E+03  0.17221215300E+03 0.  0.
        -24    2    3    3    0    0  0.49394327366E+02 -0.14744635572E+03 -0.23070144641E+03  0.29319170937E+03  0.92509424792E+02 0.  0.
          6    2    1    2  501    0 -0.51362920657E+02  0.22718516066E+03  0.19887128277E+03  0.35148577997E+03  0.17245642802E+03 0.  0.
         24    2    5    5    0    0  0.31017125881E+02  0.16360980434E+03  0.11149265659E+03  0.21552471086E+03  0.79309888062E+02 0.  0.
          5    1    5    5  501    0 -0.82380046539E+02  0.63575356324E+02  0.87378626180E+02  0.13596106911E+03  0.47000000000E+01 0. -1.
        -11    1    6    6    0    0  0.38995482134E+01  0.87342054790E+02  0.13567325665E+02  0.88475495686E+02  0.00000000000E+00 0.  1.
         12    1    6    6    0    0  0.27117577668E+02  0.76267749550E+02  0.97925330925E+02  0.12704921518E+03  0.00000000000E+00 0. -1.
         -5    1    3    3    0  503  0.19685932908E+01 -0.79738804947E+02 -0.31094709062E+03  0.32104880554E+03  0.47000000000E+01 0.  1.
         13    1    4    4    0    0  0.53981970474E+02 -0.79950364265E+02 -0.71083488337E+02  0.11982894557E+03  0.00000000000E+00 0. -1.
        -14    1    4    4    0    0 -0.45876431076E+01 -0.67495991451E+02 -0.15961795808E+03  0.17336276380E+03  0.00000000000E+00 0.  1.
</event>
<event>
12    1  0.8258923E-002  0.1950116E+03  0.7818608E-02  0.1154030E+00
         21   -1    0    0  501  502  0.00000000000E+00  0.00000000000E+00  0.46584189122E+03  0.46584189122E+03  0.00000000000E+00 0.  1.
         21   -1    0    0  502  503 -0.00000000000E+00 -0.00000000000E+00 -0.10477183715E+03  0.10477183715E+03  0.00000000000E+00 0. -1.
         -6    2    1    2    0  503  0.52322473282E+02  0.76799029023E+02  0.46372098033E+02  0.20039173860E+03  0.17137895248E+03 0.  0.
        -24    2    3    3    0    0 -0.14671372325E+02  0.35433397264E+02  0.75094072081E+02  0.11644930217E+03  0.80315288125E+02 0.  0.
          6    2    1    2  501    0 -0.52322473282E+02 -0.76799029023E+02  0.31469795603E+03  0.37022198978E+03  0.17144616098E+03 0.  0.
         24    2    5    5    0    0 -0.43243454388E+02 -0.74625174194E+02  0.94403228136E+02  0.14967945110E+03  0.77801385771E+02 0.  0.
          5    1    5    5  501    0 -0.90790188941E+01 -0.21738548291E+01  0.22029472790E+03  0.22054253868E+03  0.47000000000E+01 0. -1.
        -13    1    6    6    0    0 -0.33932402724E+02 -0.83141176346E+02  0.10124093947E+03  0.13532771698E+03  0.00000000000E+00 0.  1.
         14    1    6    6    0    0 -0.93110516642E+01  0.85160021526E+01 -0.68377113369E+01  0.14351734114E+02  0.00000000000E+00 0. -1.
         -5    1    3    3    0  503  0.66993845607E+02  0.41365631759E+02 -0.28721974047E+02  0.83942436426E+02  0.47000000000E+01 0.  1.
         11    1    4    4    0    0 -0.75480033065E+01  0.38936376199E+02 -0.12623907459E+01  0.39681322758E+02  0.00000000000E+00 0. -1.
        -12    1    4    4    0    0 -0.71233690183E+01 -0.35029789348E+01  0.76356462827E+02  0.76767979412E+02  0.00000000000E+00 0.  1.
</event>
<event>
12    1  0.8258923E-002  0.2188951E+03  0.7818608E-02  0.1135529E+00
         21   -1    0    0  501  502  0.00000000000E+00  0.00000000000E+00  0.20694838580E+03  0.20694838580E+03  0.00000000000E+00 0.  1.
         21   -1    0    0  502  503 -0.00000000000E+00 -0.00000000000E+00 -0.25018625355E+03  0.25018625355E+03  0.00000000000E+00 0. -1.
         -6    2    1    2    0  503 -0.78955480867E+02  0.10149262113E+03  0.48183931072E+02  0.21991533005E+03  0.17177409896E+03 0.  0.
        -24    2    3    3    0    0  0.19138570654E+02  0.43591710410E+02 -0.11844768849E+01  0.95680519667E+02  0.82986967381E+02 0.  0.
          6    2    1    2  501    0  0.78955480867E+02 -0.10149262113E+03 -0.91421798822E+02  0.23721930929E+03  0.17714495561E+03 0.  0.
         24    2    5    5    0    0  0.93876981819E+01 -0.11857472055E+03 -0.80836662266E+02  0.16465478887E+03  0.80178178467E+02 0.  0.
          5    1    5    5  501    0  0.69567782686E+02  0.17082099415E+02 -0.10585136556E+02  0.72564520422E+02  0.47000000000E+01 0. -1.
        -13    1    6    6    0    0 -0.35465943205E+02 -0.47002985827E+02 -0.36212053926E+02  0.69126164754E+02  0.00000000000E+00 0.  1.
         14    1    6    6    0    0  0.44853641386E+02 -0.71571734718E+02 -0.44624608339E+02  0.95528624117E+02  0.00000000000E+00 0. -1.
         -5    1    3    3    0  503 -0.98094051521E+02  0.57900910720E+02  0.49368407957E+02  0.12423481038E+03  0.47000000000E+01 0.  1.
         11    1    4    4    0    0 -0.10935550844E+02  0.60278055873E+02  0.13415757224E+00  0.61262127700E+02  0.00000000000E+00 0. -1.
        -12    1    4    4    0    0  0.30074121498E+02 -0.16686345463E+02 -0.13186344571E+01  0.34418391967E+02  0.00000000000E+00 0.  1.
</event>
<event>
12    1  0.8258923E-002  0.2224742E+03  0.7818608E-02  0.1132130E+00
         21   -1    0    0  503  502  0.00000000000E+00  0.00000000000E+00  0.11912550815E+03  0.11912550815E+03  0.00000000000E+00 0. -1.
         21   -1    0    0  501  503 -0.00000000000E+00 -0.00000000000E+00 -0.49870161640E+03  0.49870161640E+03  0.00000000000E+00 0.  1.
          6    2    1    2  501    0  0.13463742820E+03  0.40419147059E+02 -0.31672972832E+03  0.38705616848E+03  0.17243495076E+03 0.  0.
         24    2    3    3    0    0  0.91016072620E+01 -0.15534407405E+02 -0.14380060749E+03  0.16611134862E+03  0.81180098287E+02 0.  0.
         -6    2    1    2    0  502 -0.13463742820E+03 -0.40419147059E+02 -0.62846379936E+02  0.23077095606E+03  0.17188549145E+03 0.  0.
        -24    2    5    5    0    0 -0.65062832926E+02 -0.46804745563E+02  0.27424379415E+02  0.11652429235E+03  0.80012234600E+02 0.  0.
          5    1    3    3  501    0  0.12553582094E+03  0.55953554465E+02 -0.17292912082E+03  0.22094481986E+03  0.47000000000E+01 0. -1.
        -11    1    4    4    0    0  0.37423881094E+02  0.94879999854E+00 -0.11974432176E+03  0.12545975327E+03  0.00000000000E+00 0.  1.
         12    1    4    4    0    0 -0.28322273832E+02 -0.16483207404E+02 -0.24056285736E+02  0.40651595353E+02  0.00000000000E+00 0. -1.
         -5    1    5    5    0  502 -0.69574595272E+02  0.63855985035E+01 -0.90270759351E+02  0.11424666371E+03  0.47000000000E+01 0.  1.
         11    1    6    6    0    0  0.88792144383E+01 -0.37098812268E+02  0.14643543513E+02  0.40860686330E+02  0.00000000000E+00 0. -1.
        -12    1    6    6    0    0 -0.73942047364E+02 -0.97059332950E+01  0.12780835902E+02  0.75663606019E+02  0.00000000000E+00 0.  1.
</event>
<event>
12    1  0.8258923E-002  0.2916236E+03  0.7818608E-02  0.1089586E+00
         21   -1    0    0  503  502  0.00000000000E+00  0.00000000000E+00  0.37836158158E+03  0.37836158158E+03  0.00000000000E+00 0.  1.
         21   -1    0    0  501  503 -0.00000000000E+00 -0.00000000000E+00 -0.22455309502E+03  0.22455309502E+03  0.00000000000E+00 0.  1.
          6    2    1    2  501    0  0.92672677259E+02 -0.21593219163E+03  0.87184052418E+02  0.30377736487E+03  0.17165282381E+03 0.  0.
         24    2    3    3    0    0  0.92136099196E+02 -0.22754168879E+03  0.10751486727E+03  0.27989221525E+03  0.80721277001E+02 0.  0.
         -6    2    1    2    0  502 -0.92672677259E+02  0.21593219163E+03  0.66624434139E+02  0.29913731173E+03  0.17271183964E+03 0.  0.
        -24    2    5    5    0    0 -0.44540382827E+02  0.20509284374E+03  0.93056189845E+02  0.24296848639E+03  0.79544394258E+02 0.  0.
          5    1    3    3  501    0  0.53657806345E+00  0.11609497158E+02 -0.20330814848E+02  0.23885149626E+02  0.47000000000E+01 0. -1.
        -11    1    4    4    0    0  0.11020326247E+02 -0.11762433473E+03  0.26523020490E+02  0.12108014836E+03  0.00000000000E+00 0.  1.
         12    1    4    4    0    0  0.81115772948E+02 -0.10991735406E+03  0.80991846777E+02  0.15881206689E+03  0.00000000000E+00 0. -1.
         -5    1    5    5    0  502 -0.48132294432E+02  0.10839347896E+02 -0.26431755706E+02  0.56168825337E+02  0.47000000000E+01 0.  1.
         13    1    6    6    0    0  0.38505200040E+01 -0.44932795137E+01 -0.38370233018E+01  0.70525749133E+01  0.00000000000E+00 0. -1.
        -14    1    6    6    0    0 -0.48390902831E+02  0.20958612325E+03  0.96893213146E+02  0.23591591148E+03  0.00000000000E+00 0.  1.
</event>
<event>
12    1  0.8258923E-002  0.2037226E+03  0.7818608E-02  0.1147459E+00
         21   -1    0    0  503  502  0.00000000000E+00  0.00000000000E+00  0.41533454292E+02  0.41533454292E+02  0.00000000000E+00 0. -1.
         21   -1    0    0  501  503 -0.00000000000E+00 -0.00000000000E+00 -0.12750900604E+04  0.12750900604E+04  0.00000000000E+00 0. -1.
          6    2    1    2  501    0 -0.10481272344E+03 -0.24710595950E+02 -0.92883827473E+03  0.95007726960E+03  0.16825563014E+03 0.  0.
         24    2    3    3    0    0 -0.70696689476E+02 -0.77127673059E+01 -0.88704183092E+03  0.89331581555E+03  0.78182017251E+02 0.  0.
         -6    2    1    2    0  502  0.10481272344E+03  0.24710595950E+02 -0.30471833142E+03  0.36654624513E+03  0.17293515481E+03 0.  0.
        -24    2    5    5    0    0  0.17109301816E+02 -0.42174627000E+02 -0.11611002236E+03  0.14800401246E+03  0.79700834629E+02 0.  0.
          5    1    3    3  501    0 -0.34116033959E+02 -0.16997828644E+02 -0.41796443806E+02  0.56761454056E+02  0.47000000000E+01 0. -1.
        -11    1    4    4    0    0 -0.33143081391E+01 -0.60265706612E+01 -0.45342612239E+01  0.82379437496E+01  0.00000000000E+00 0.  1.
         12    1    4    4    0    0 -0.67382381337E+02 -0.16861966447E+01 -0.88250756970E+03  0.88507787180E+03  0.00000000000E+00 0. -1.
         -5    1    5    5    0  502  0.87703421620E+02  0.66885222950E+02 -0.18860830906E+03  0.21854223267E+03  0.47000000000E+01 0.  1.
         13    1    6    6    0    0  0.37827471402E+02 -0.64016340842E+01 -0.19749308815E+02  0.43150129899E+02  0.00000000000E+00 0. -1.
        -14    1    6    6    0    0 -0.20718169586E+02 -0.35772992916E+02 -0.96360713544E+02  0.10485388256E+03  0.00000000000E+00 0.  1.
</event>
<event>
12    1  0.8258923E-002  0.2159917E+03  0.7818608E-02  0.1136979E+00
         21   -1    0    0  503  502  0.00000000000E+00  0.00000000000E+00  0.38181513323E+03  0.38181513323E+03  0.00000000000E+00 0.  1.
         21   -1    0    0  501  503 -0.00000000000E+00 -0.00000000000E+00 -0.39542712154E+03  0.39542712154E+03  0.00000000000E+00 0.  1.
          6    2    1    2  501    0 -0.23368466360E+02 -0.12879687536E+03 -0.32997656155E+03  0.39417702505E+03  0.17133673156E+03 0.  0.
         24    2    3    3    0    0  0.99497522396E+01  0.93418716894E+00 -0.13778465817E+03  0.15986938539E+03  0.80459543148E+02 0.  0.
         -6    2    1    2    0  502  0.23368466360E+02  0.12879687536E+03  0.31636457325E+03  0.38306522972E+03  0.17180717881E+03 0.  0.
        -24    2    5    5    0    0 -0.34121342830E+01  0.88030963272E+02  0.84216306244E+02  0.14580173056E+03  0.80029152459E+02 0.  0.
          5    1    3    3  501    0 -0.33318218600E+02 -0.12973106253E+03 -0.19219190338E+03  0.23430763966E+03  0.47000000000E+01 0. -1.
        -13    1    4    4    0    0 -0.16966323999E+02 -0.31208049274E+02 -0.40112641858E+02  0.53580057170E+02  0.00000000000E+00 0.  1.
         14    1    4    4    0    0  0.26916076239E+02  0.32142236442E+02 -0.97672016312E+02  0.10628932822E+03  0.00000000000E+00 0. -1.
         -5    1    5    5    0  502  0.26780600643E+02  0.40765912089E+02  0.23214826700E+03  0.23726349916E+03  0.47000000000E+01 0.  1.
         13    1    6    6    0    0 -0.14157905193E+02 -0.37383356316E+01 -0.67650184528E+01  0.16130310208E+02  0.00000000000E+00 0. -1.
        -14    1    6    6    0    0  0.10745770910E+02  0.91769298903E+02  0.90981324697E+02  0.12967142036E+03  0.00000000000E+00 0.  1.
</event>
<event>
12    1  0.8258923E-002  0.2693098E+03  0.7818608E-02  0.1101888E+00
         21   -1    0    0  503  502  0.00000000000E+00  0.00000000000E+00  0.24107619042E+03  0.24107619042E+03  0.00000000000E+00 0.  1.
         21   -1    0    0  501  503 -0.00000000000E+00 -0.00000000000E+00 -0.38780885897E+03  0.38780885897E+03  0.00000000000E+00 0. -1.
          6    2    1    2  501    0 -0.69574684415E+02  0.19409822129E+03 -0.22382716908E+03  0.35018045540E+03  0.17324258573E+03 0.  0.
         24    2    3    3    0    0  0.12551611771E+02  0.31010435528E+02 -0.69375393686E+02  0.11097385994E+03  0.79894069065E+02 0.  0.
         -6    2    1    2    0  502  0.69574684415E+02 -0.19409822129E+03  0.77094500530E+02  0.27870459399E+03  0.17093253781E+03 0.  0.
        -24    2    5    5    0    0  0.39927750488E+02 -0.20988933254E+03  0.58725888287E+02  0.24013263784E+03  0.92559152035E+02 0.  0.
          5    1    3    3  501    0 -0.82126296187E+02  0.16308778576E+03 -0.15445177540E+03  0.23920659546E+03  0.47000000000E+01 0. -1.
        -11    1    4    4    0    0 -0.93584288201E+01 -0.23224130335E+02 -0.35302090353E+02  0.43280226467E+02  0.00000000000E+00 0.  1.
         12    1    4    4    0    0  0.21910040591E+02  0.54234565863E+02 -0.34073303334E+02  0.67693633476E+02  0.00000000000E+00 0. -1.
         -5    1    5    5    0  502  0.29646933927E+02  0.15791111253E+02  0.18368612243E+02  0.38571956155E+02  0.47000000000E+01 0.  1.
         13    1    6    6    0    0  0.23662258880E+02 -0.41758492120E+02 -0.22141122669E+02  0.52857388059E+02  0.00000000000E+00 0. -1.
        -14    1    6    6    0    0  0.16265491608E+02 -0.16813084042E+03  0.80867010955E+02  0.18727524978E+03  0.00000000000E+00 0.  1.
</event>
<event>
12    1  0.8258923E-002  0.1827085E+03  0.7818608E-02  0.1165300E+00
         21   -1    0    0  501  502  0.00000000000E+00  0.00000000000E+00  0.15478201426E+02  0.15478201426E+02  0.00000000000E+00 0. -1.
         21   -1    0    0  502  503 -0.00000000000E+00 -0.00000000000E+00 -0.25455050622E+04  0.25455050622E+04  0.00000000000E+00 0. -1.
         -6    2    1    2    0  503 -0.62020479418E+02  0.16450817401E+02 -0.17672438180E+04  0.17766234160E+04  0.17065427250E+03 0.  0.
        -24    2    3    3    0    0  0.13222725183E+02  0.55933898794E+02 -0.92395902110E+03  0.92905525222E+03  0.78357817149E+02 0.  0.
          6    2    1    2  501    0  0.62020479418E+02 -0.16450817401E+02 -0.76278304280E+03  0.78435984767E+03  0.17107083615E+03 0.  0.
         24    2    5    5    0    0  0.59003531417E+02 -0.70439666837E+02 -0.62099430726E+03  0.63253747328E+03  0.77630934962E+02 0.  0.
          5    1    5    5  501    0  0.30169480015E+01  0.53988849436E+02 -0.14178873554E+03  0.15182237439E+03  0.47000000000E+01 0. -1.
        -13    1    6    6    0    0 -0.13055585745E+02 -0.15988694178E+02 -0.45043743542E+02  0.49548213822E+02  0.00000000000E+00 0.  1.
         14    1    6    6    0    0  0.72059117161E+02 -0.54450972659E+02 -0.57595056372E+03  0.58298925946E+03  0.00000000000E+00 0. -1.
         -5    1    3    3    0  503 -0.75243204601E+02 -0.39483081393E+02 -0.84328479689E+03  0.84756816376E+03  0.47000000000E+01 0.  1.
         13    1    4    4    0    0 -0.74274898643E+01 -0.16707150632E+02 -0.29739426004E+03  0.29795577254E+03  0.00000000000E+00 0. -1.
        -14    1    4    4    0    0  0.20650215047E+02  0.72641049426E+02 -0.62656476107E+03  0.63109947968E+03  0.00000000000E+00 0.  1.
</event>
<event>
12    1  0.8258923E-002  0.2176458E+03  0.7818608E-02  0.1136096E+00
         21   -1    0    0  503  502  0.00000000000E+00  0.00000000000E+00  0.11009007745E+04  0.11009007745E+04  0.00000000000E+00 0.  1.
         21   -1    0    0  501  503 -0.00000000000E+00 -0.00000000000E+00 -0.46848690632E+02  0.46848690632E+02  0.00000000000E+00 0. -1.
          6    2    1    2  501    0 -0.78239613558E+02 -0.10651228844E+03  0.35091400046E+03  0.41169725082E+03  0.16996377819E+03 0.  0.
         24    2    3    3    0    0 -0.55844731397E+02 -0.14148665691E+03  0.28538660011E+03  0.33397552031E+03  0.83408803713E+02 0.  0.
         -6    2    1    2    0  502  0.78239613558E+02  0.10651228844E+03  0.70313808337E+03  0.73605221427E+03  0.17292597588E+03 0.  0.
        -24    2    5    5    0    0  0.75622441285E+02  0.82136716251E+01  0.44906616992E+03  0.46357451819E+03  0.86340552021E+02 0.  0.
          5    1    3    3  501    0 -0.22394882162E+02  0.34974368467E+02  0.65527400348E+02  0.77721730507E+02  0.47000000000E+01 0. -1.
        -11    1    4    4    0    0 -0.10518118554E+02 -0.58070424031E+01  0.95409826258E+02  0.96163337639E+02  0.00000000000E+00 0.  1.
         12    1    4    4    0    0 -0.45326612843E+02 -0.13567961450E+03  0.18997677386E+03  0.23781218267E+03  0.00000000000E+00 0. -1.
         -5    1    5    5    0  502  0.26171722736E+01  0.98298616814E+02  0.25407191345E+03  0.27247769608E+03  0.47000000000E+01 0.  1.
         13    1    6    6    0    0 -0.18802478650E+01  0.25529699360E+02  0.44938911953E+02  0.51718533322E+02  0.00000000000E+00 0. -1.
        -14    1    6    6    0    0  0.77502689150E+02 -0.17316027735E+02  0.40412725796E+03  0.41185598487E+03  0.00000000000E+00 0.  1.
</event>
<event>
12    1  0.8258923E-002  0.2082602E+03  0.7818608E-02  0.1142987E+00
         21   -1    0    0  503  502  0.00000000000E+00  0.00000000000E+00  0.27521871585E+03  0.27521871585E+03  0.00000000000E+00 0.  1.
         21   -1    0    0  501  503 -0.00000000000E+00 -0.00000000000E+00 -0.38980455809E+03  0.38980455809E+03  0.00000000000E+00 0.  1.
          6    2    1    2  501    0  0.63030114979E+02 -0.98363349018E+02 -0.31401972915E+03  0.37680327772E+03  0.17240700676E+03 0.  0.
         24    2    3    3    0    0  0.93644483029E+02 -0.11921108009E+03 -0.26102598614E+03  0.31197817285E+03  0.78836819317E+02 0.  0.
         -6    2    1    2    0  502 -0.63030114979E+02  0.98363349018E+02  0.19943388690E+03  0.28821999623E+03  0.17218811561E+03 0.  0.
        -24    2    5    5    0    0 -0.89384416688E+02  0.11792663091E+03  0.12703327748E+03  0.20858828482E+03  0.73995640080E+02 0.  0.
          5    1    3    3  501    0 -0.30614368050E+02  0.20847731074E+02 -0.52993743009E+02  0.64825104860E+02  0.47000000000E+01 0. -1.
        -13    1    4    4    0    0  0.78776998185E+02 -0.87711630050E+02 -0.12609624712E+03  0.17262505330E+03  0.00000000000E+00 0.  1.
         14    1    4    4    0    0  0.14867484845E+02 -0.31499450042E+02 -0.13492973901E+03  0.13935311955E+03  0.00000000000E+00 0. -1.
         -5    1    5    5    0  502  0.26354301709E+02 -0.19563281897E+02  0.72400609425E+02  0.79631711411E+02  0.47000000000E+01 0.  1.
         11    1    6    6    0    0 -0.14013012689E+02  0.79718449164E+02  0.62336575454E+02  0.10216283229E+03  0.00000000000E+00 0. -1.
        -12    1    6    6    0    0 -0.75371403999E+02  0.38208181751E+02  0.64696702021E+02  0.10642545253E+03  0.00000000000E+00 0.  1.
</event>
<event>
12    1  0.8258923E-002  0.2025752E+03  0.7818608E-02  0.1148528E+00
         21   -1    0    0  501  502  0.00000000000E+00  0.00000000000E+00  0.20047032765E+04  0.20047032765E+04  0.00000000000E+00 0. -1.
         21   -1    0    0  502  503 -0.00000000000E+00 -0.00000000000E+00 -0.21109604530E+02  0.21109604530E+02  0.00000000000E+00 0. -1.
         -6    2    1    2    0  503  0.41338564877E+02  0.95719184889E+02  0.77207770591E+03  0.79821094497E+03  0.17368272626E+03 0.  0.
        -24    2    3    3    0    0  0.16061393312E+02 -0.18705497272E+02  0.27298166773E+03  0.28552108880E+03  0.79971477728E+02 0.  0.
          6    2    1    2  501    0 -0.41338564877E+02 -0.95719184889E+02  0.12115159660E+04  0.12276019360E+04  0.16841774878E+03 0.  0.
         24    2    5    5    0    0 -0.71626640932E+02 -0.27636821990E+02  0.49940192622E+03  0.51158442829E+03  0.80138466062E+02 0.  0.
          5    1    5    5  501    0  0.30288076055E+02 -0.68082362900E+02  0.71211403981E+03  0.71601750773E+03  0.47000000000E+01 0. -1.
        -11    1    6    6    0    0 -0.24221500508E+02 -0.42576569814E+01  0.28158544591E+02  0.37385991539E+02  0.00000000000E+00 0.  1.
         12    1    6    6    0    0 -0.47405140424E+02 -0.23379165008E+02  0.47124338163E+03  0.47419843676E+03  0.00000000000E+00 0. -1.
         -5    1    3    3    0  503  0.25277171565E+02  0.11442468216E+03  0.49909603818E+03  0.51268985617E+03  0.47000000000E+01 0.  1.
         13    1    4    4    0    0 -0.22224860313E+02 -0.21353389215E+02  0.46342352868E+02  0.55655415875E+02  0.00000000000E+00 0. -1.
        -14    1    4    4    0    0  0.38286253625E+02  0.26478919431E+01  0.22663931486E+03  0.22986567292E+03  0.00000000000E+00 0.  1.
</event>
<event>
12    1  0.8258923E-002  0.3075605E+03  0.7818608E-02  0.1081533E+00
         21   -1    0    0  501  502  0.00000000000E+00  0.00000000000E+00  0.35568259189E+03  0.35568259189E+03  0.00000000000E+00 0.  1.
         21   -1    0    0  502  503 -0.00000000000E+00 -0.00000000000E+00 -0.27966627528E+03  0.27966627528E+03  0.00000000000E+00 0.  1.
         -6    2    1    2    0  503 -0.87016045409E+02 -0.23956502333E+03 -0.32565020912E+02  0.30918426307E+03  0.17196288955E+03 0.  0.
        -24    2    3    3    0    0 -0.63668418090E+02 -0.77333509395E+02 -0.62708522515E+02  0.14246624813E+03  0.79562138760E+02 0.  0.
          6    2    1    2  501    0  0.87016045409E+02  0.23956502333E+03  0.10858133753E+03  0.32616460410E+03  0.17213439385E+03 0.  0.
         24    2    5    5    0    0  0.10742637132E+03  0.24431024826E+03  0.11836659872E+03  0.30256502995E+03  0.79416767715E+02 0.  0.
          5    1    5    5  501    0 -0.20410325915E+02 -0.47452249283E+01 -0.97852611936E+01  0.23599574153E+02  0.47000000000E+01 0. -1.
        -13    1    6    6    0    0  0.10443149511E+02  0.83128443709E+02  0.67796062197E+02  0.10777617350E+03  0.00000000000E+00 0.  1.
         14    1    6    6    0    0  0.96983221813E+02  0.16118180455E+03  0.50570536523E+02  0.19478885645E+03  0.00000000000E+00 0. -1.
         -5    1    3    3    0  503 -0.23347627318E+02 -0.16223151394E+03  0.30143501603E+02  0.16671801494E+03  0.47000000000E+01 0.  1.
         13    1    4    4    0    0  0.42768624641E+01  0.11700785027E+02 -0.17962862946E+02  0.21860109057E+02  0.00000000000E+00 0. -1.
        -14    1    4    4    0    0 -0.67945280554E+02 -0.89034294422E+02 -0.44745659569E+02  0.12060613908E+03  0.00000000000E+00 0.  1.
</event>
