<event>
12    1  0.9246030E-003  0.1890994E+03  0.7818608E-02  0.1160677E+00
         21   -1    0    0  501  502  0.00000000000E+00  0.00000000000E+00  0.26391773569E+02  0.26391773569E+02  0.00000000000E+00 0.  1.
         21   -1    0    0  502  503 -0.00000000000E+00 -0.00000000000E+00 -0.13225560861E+04  0.13225560861E+04  0.00000000000E+00 0.  1.
          6    2    1    2  501    0  0.56486982598E+02  0.56016553219E+02 -0.59773608045E+03  0.62693461656E+03  0.17155161945E+03 0.  0.
         24    2    3    3    0    0  0.11092331643E+02  0.98361495973E+02 -0.39542330778E+03  0.41525959088E+03  0.79264820521E+02 0.  0.
         -6    2    1    2    0  503 -0.56486982598E+02 -0.56016553219E+02 -0.69842823210E+03  0.72201324312E+03  0.16484081538E+03 0.  0.
        -24    2    5    5    0    0  0.18389269229E+02 -0.38874975497E+02 -0.24062759532E+03  0.25778937492E+03  0.81879748714E+02 0.  0.
          5    1    3    3  501    0  0.45394650954E+02 -0.42344942754E+02 -0.20231277267E+03  0.21167502568E+03  0.47000000000E+01 0. -1.
        -13    1    4    4    0    0  0.37196690894E+02  0.17453056855E+02 -0.10905969659E+03  0.11654278368E+03  0.00000000000E+00 0.  1.
         14    1    4    4    0    0 -0.26104359251E+02  0.80908439118E+02 -0.28636361119E+03  0.29871680720E+03  0.00000000000E+00 0. -1.
         -5    1    5    5    0  503 -0.74876251827E+02 -0.17141577722E+02 -0.45780063678E+03  0.46422386821E+03  0.47000000000E+01 0.  1.
         13    1    6    6    0    0 -0.30175652395E+01 -0.61338909971E+02 -0.16352843013E+03  0.17468003617E+03  0.00000000000E+00 0. -1.
        -14    1    6    6    0    0  0.21406834469E+02  0.22463934474E+02 -0.77099165185E+02  0.83109338743E+02  0.00000000000E+00 0.  1.
</event>
<event>
12    1  0.9246030E-003  0.2004457E+03  0.7818608E-02  0.1149923E+00
         21   -1    0    0  501  502  0.00000000000E+00  0.00000000000E+00  0.32677218206E+03  0.32677218206E+03  0.00000000000E+00 0.  1.
         21   -1    0    0  502  503 -0.00000000000E+00 -0.00000000000E+00 -0.13153149888E+03  0.13153149888E+03  0.00000000000E+00 0. -1.
          6    2    1    2  501    0 -0.96427987295E+02  0.22108544934E+02  0.34435306559E+02  0.20338208943E+03  0.17433112020E+03 0.  0.
         24    2    3    3    0    0 -0.19299890547E+02 -0.48387058521E+02  0.10618576509E+02  0.96108140850E+02  0.80063895503E+02 0.  0.
         -6    2    1    2    0  503  0.96427987295E+02 -0.22108544934E+02  0.16080537663E+03  0.25492159150E+03  0.17128778173E+03 0.  0.
        -24    2    5    5    0    0  0.54029017441E+02 -0.80239023400E+02  0.98048979247E+02  0.15933246773E+03  0.80098672525E+02 0.  0.
          5    1    3    3  501    0 -0.77128096748E+02  0.70495603456E+02  0.23816730051E+02  0.10727394858E+03  0.47000000000E+01 0. -1.
        -13    1    4    4    0    0 -0.15586217271E+02 -0.16012151177E+02  0.44067763922E+02  0.49409381409E+02  0.00000000000E+00 0.  1.
         14    1    4    4    0    0 -0.37136732767E+01 -0.32374907344E+02 -0.33449187413E+02  0.46698759441E+02  0.00000000000E+00 0. -1.
         -5    1    5    5    0  503  0.42398969854E+02  0.58130478465E+02  0.62756397379E+02  0.95589123771E+02  0.47000000000E+01 0.  1.
         13    1    6    6    0    0 -0.29452375507E+01 -0.46483628336E+02  0.76734035584E+02  0.89763658262E+02  0.00000000000E+00 0. -1.
        -14    1    6    6    0    0  0.56974254992E+02 -0.33755395063E+02  0.21314943664E+02  0.69568809470E+02  0.00000000000E+00 0.  1.
</event>
<event>
12    1  0.9246030E-003  0.1826588E+03  0.7818608E-02  0.1165333E+00
         21   -1    0    0  503  502  0.00000000000E+00  0.00000000000E+00  0.85873957169E+02  0.85873957169E+02  0.00000000000E+00 0. -1.
         21   -1    0    0  501  503 -0.00000000000E+00 -0.00000000000E+00 -0.40413450696E+03  0.40413450696E+03  0.00000000000E+00 0. -1.
          6    2    1    2  501    0 -0.51094558719E+02 -0.32068656687E+02 -0.11004039686E+03  0.21324424573E+03  0.17240988000E+03 0.  0.
         24    2    3    3    0    0  0.19844526525E+02 -0.17654691995E+01 -0.23969645622E+01  0.80730716215E+02  0.78197065079E+02 0.  0.
         -6    2    1    2    0  502  0.51094558719E+02  0.32068656687E+02 -0.20822015293E+03  0.27676421840E+03  0.17205739690E+03 0.  0.
        -24    2    5    5    0    0  0.93228211560E+02  0.33825502995E+01 -0.10806784395E+03  0.16428883267E+03  0.81297112902E+02 0.  0.
          5    1    3    3  501    0 -0.70939085244E+02 -0.30303187488E+02 -0.10764343230E+03  0.13251352951E+03  0.47000000000E+01 0. -1.
        -13    1    4    4    0    0 -0.91162701662E+01  0.28956300800E+02 -0.18492520239E+02  0.35546406887E+02  0.00000000000E+00 0.  1.
         14    1    4    4    0    0  0.28960796691E+02 -0.30721770000E+02  0.16095555677E+02  0.45184309328E+02  0.00000000000E+00 0. -1.
         -5    1    5    5    0  502 -0.42133652841E+02  0.28686106388E+02 -0.10015230898E+03  0.11247538573E+03  0.47000000000E+01 0.  1.
         13    1    6    6    0    0  0.78200622525E+02  0.10278331836E+01 -0.12116726553E+03  0.14421477053E+03  0.00000000000E+00 0. -1.
        -14    1    6    6    0    0  0.15027589035E+02  0.23547171159E+01  0.13099421578E+02  0.20074062135E+02  0.00000000000E+00 0.  1.
</event>
<event>
12    1  0.9246030E-003  0.2095897E+03  0.7818608E-02  0.1142207E+00
         21   -1    0    0  503  502  0.00000000000E+00  0.00000000000E+00  0.23521822377E+03  0.23521822377E+03  0.00000000000E+00 0. -1.
         21   -1    0    0  501  503 -0.00000000000E+00 -0.00000000000E+00 -0.45539784079E+03  0.45539784079E+03  0.00000000000E+00 0. -1.
          6    2    1    2  501    0  0.11895481265E+03  0.88069991870E+01 -0.37616985544E+03  0.43061770694E+03  0.17233699166E+03 0.  0.
         24    2    3    3    0    0  0.95932091816E+02 -0.25112767517E+01 -0.12548163634E+03  0.17857639635E+03  0.83274338921E+02 0.  0.
         -6    2    1    2    0  502 -0.11895481265E+03 -0.88069991870E+01  0.15599023843E+03  0.25999835763E+03  0.17040651629E+03 0.  0.
        -24    2    5    5    0    0  0.66012327055E+01 -0.11192466956E+02  0.50989959653E+02  0.96238901331E+02  0.80579789986E+02 0.  0.
          5    1    3    3  501    0  0.23022720837E+02  0.11318275939E+02 -0.25068821911E+03  0.25204131059E+03  0.47000000000E+01 0. -1.
        -13    1    4    4    0    0  0.24287457475E+02  0.26961621934E+02 -0.69097128641E+01  0.36939867078E+02  0.00000000000E+00 0.  1.
         14    1    4    4    0    0  0.71644634341E+02 -0.29472898685E+02 -0.11857192347E+03  0.14163652927E+03  0.00000000000E+00 0. -1.
         -5    1    5    5    0  502 -0.12555604536E+03  0.23854677693E+01  0.10500027878E+03  0.16375945630E+03  0.47000000000E+01 0.  1.
         13    1    6    6    0    0 -0.21751001498E+02 -0.15436756280E+02  0.60431704040E+02  0.66055963878E+02  0.00000000000E+00 0. -1.
        -14    1    6    6    0    0  0.28352234203E+02  0.42442893239E+01 -0.94417443877E+01  0.30182937453E+02  0.00000000000E+00 0.  1.
</event>
<event>
12    1  0.9246030E-003  0.1875836E+03  0.7818608E-02  0.1161368E+00
         21   -1    0    0  501  502  0.00000000000E+00  0.00000000000E+00  0.87421243771E+03  0.87421243771E+03  0.00000000000E+00 0.  1.
         21   -1    0    0  502  503 -0.00000000000E+00 -0.00000000000E+00 -0.41358664061E+02  0.41358664061E+02  0.00000000000E+00 0.  1.
          6    2    1    2  501    0 -0.43351199557E+02  0.50581012782E+02  0.51422006125E+03  0.54736631941E+03  0.17535635395E+03 0.  0.
         24    2    3    3    0    0  0.34245574617E+02 -0.14356510962E+02  0.23520629185E+03  0.25053486071E+03  0.77889973174E+02 0.  0.
         -6    2    1    2    0  503  0.43351199557E+02 -0.50581012782E+02  0.31863371240E+03  0.36820478236E+03  0.17207426804E+03 0.  0.
        -24    2    5    5    0    0 -0.51660203829E+01 -0.89810282582E+02  0.18948465009E+03  0.22469719882E+03  0.80571855590E+02 0.  0.
          5    1    3    3  501    0 -0.77596774175E+02  0.64937523744E+02  0.27901376940E+03  0.29683145869E+03  0.47000000000E+01 0. -1.
        -11    1    4    4    0    0  0.59918628195E+01 -0.18290185791E+02  0.21431330726E+03  0.21517580483E+03  0.00000000000E+00 0.  1.
         12    1    4    4    0    0  0.28253711798E+02  0.39336748293E+01  0.20892984588E+02  0.35359055884E+02  0.00000000000E+00 0. -1.
         -5    1    5    5    0  503  0.48517219940E+02  0.39229269800E+02  0.12914906230E+03  0.14350758354E+03  0.47000000000E+01 0.  1.
         11    1    6    6    0    0 -0.30809841083E+02 -0.66993062869E+02  0.16981957002E+03  0.18513779501E+03  0.00000000000E+00 0. -1.
        -12    1    6    6    0    0  0.25643820700E+02 -0.22817219713E+02  0.19665080074E+02  0.39559403811E+02  0.00000000000E+00 0.  1.
</event>
<event>
12    1  0.9246030E-003  0.2245620E+03  0.7818608E-02  0.1130785E+00
         21   -1    0    0  503  502  0.00000000000E+00  0.00000000000E+00  0.81071753783E+03  0.81071753783E+03  0.00000000000E+00 0.  1.
         21   -1    0    0  501  503 -0.00000000000E+00 -0.00000000000E+00 -0.61972559675E+02  0.61972559675E+02  0.00000000000E+00 0.  1.
          6    2    1    2  501    0 -0.14425254368E+03 -0.58539018836E+00  0.39793128725E+03  0.45692167188E+03  0.17210161480E+03 0.  0.
         24    2    3    3    0    0 -0.35092087244E+02  0.20116303111E+02  0.28608317385E+03  0.29919831968E+03  0.77716998807E+02 0.  0.
         -6    2    1    2    0  502  0.14425254368E+03  0.58539018836E+00  0.35081369091E+03  0.41576842563E+03  0.17024687658E+03 0.  0.
        -24    2    5    5    0    0  0.23347545195E+02  0.41796232179E+02  0.17906604796E+03  0.20167570036E+03  0.79475818284E+02 0.  0.
          5    1    3    3  501    0 -0.10916045644E+03 -0.20701693299E+02  0.11184811340E+03  0.15772335220E+03  0.47000000000E+01 0. -1.
        -13    1    4    4    0    0 -0.51771578081E+02  0.84452060919E+01  0.10917889824E+03  0.12112658513E+03  0.00000000000E+00 0.  1.
         14    1    4    4    0    0  0.16679490836E+02  0.11671097019E+02  0.17690427560E+03  0.17807173455E+03  0.00000000000E+00 0. -1.
         -5    1    5    5    0  502  0.12090499849E+03 -0.41210841990E+02  0.17174764294E+03  0.21409272527E+03  0.47000000000E+01 0.  1.
         13    1    6    6    0    0  0.18139309132E+01 -0.15258493297E+02  0.10320230931E+03  0.10433996650E+03  0.00000000000E+00 0. -1.
        -14    1    6    6    0    0  0.21533614282E+02  0.57054725475E+02  0.75863738654E+02  0.97335733858E+02  0.00000000000E+00 0.  1.
</event>
<event>
12    1  0.9246030E-003  0.2019165E+03  0.7818608E-02  0.1148216E+00
         21   -1    0    0  503  502  0.00000000000E+00  0.00000000000E+00  0.99507200017E+02  0.99507200017E+02  0.00000000000E+00 0. -1.
         21   -1    0    0  501  503 -0.00000000000E+00 -0.00000000000E+00 -0.69517969784E+03  0.69517969784E+03  0.00000000000E+00 0. -1.
          6    2    1    2  501    0  0.10048935241E+03  0.23998148180E+02 -0.55264385962E+03  0.58823661645E+03  0.17301173455E+03 0.  0.
         24    2    3    3    0    0  0.40667460297E+02  0.23846386127E+02 -0.12190265602E+03  0.15333575845E+03  0.80181698767E+02 0.  0.
         -6    2    1    2    0  502 -0.10048935241E+03 -0.23998148180E+02 -0.43028638208E+02  0.20645028141E+03  0.17348266174E+03 0.  0.
        -24    2    5    5    0    0 -0.11555479401E+03 -0.30347771835E+02 -0.80355032631E+02  0.16543034758E+03  0.81463924264E+02 0.  0.
          5    1    3    3  501    0  0.59821892111E+02  0.15176205321E+00 -0.43074120360E+03  0.43490085799E+03  0.47000000000E+01 0. -1.
        -11    1    4    4    0    0  0.58353697924E+02  0.15952092884E+01 -0.10535321282E+03  0.12044500075E+03  0.00000000000E+00 0.  1.
         12    1    4    4    0    0 -0.17686237627E+02  0.22251176839E+02 -0.16549443203E+02  0.32890757705E+02  0.00000000000E+00 0. -1.
         -5    1    5    5    0  502  0.15065441602E+02  0.63496236554E+01  0.37326394423E+02  0.41019933835E+02  0.47000000000E+01 0.  1.
         13    1    6    6    0    0 -0.17046208679E+02  0.31363302035E+01  0.16025273923E+02  0.23605490924E+02  0.00000000000E+00 0. -1.
        -14    1    6    6    0    0 -0.98508585331E+02 -0.33484102039E+02 -0.96380306554E+02  0.14182485665E+03  0.00000000000E+00 0.  1.
</event>
<event>
12    1  0.9246030E-003  0.2104933E+03  0.7818608E-02  0.1144667E+00
         21   -1    0    0  503  502  0.00000000000E+00  0.00000000000E+00  0.25578130263E+03  0.25578130263E+03  0.00000000000E+00 0.  1.
         21   -1    0    0  501  503 -0.00000000000E+00 -0.00000000000E+00 -0.16853636900E+03  0.16853636900E+03  0.00000000000E+00 0.  1.
          6    2    1    2  501    0 -0.48511321594E+02 -0.76877283143E+02  0.94204715089E+02  0.23061216156E+03  0.18985251046E+03 0.  0.
         24    2    3    3    0    0  0.10022385622E+02 -0.10135525779E+03  0.16516128408E+02  0.13019815544E+03  0.79406805049E+02 0.  0.
         -6    2    1    2    0  502  0.48511321594E+02  0.76877283143E+02 -0.69597814530E+01  0.19370551007E+03  0.17090910183E+03 0.  0.
        -24    2    5    5    0    0  0.81867615885E+01  0.53067059751E+01 -0.55840002157E+02  0.97998751524E+02  0.79940385700E+02 0.  0.
          5    1    3    3  501    0 -0.58533707217E+02  0.24477974648E+02  0.77688586681E+02  0.10041400611E+03  0.47000000000E+01 0. -1.
        -11    1    4    4    0    0  0.19033556133E+02 -0.73843392772E+02  0.45853958491E+02  0.88981506081E+02  0.00000000000E+00 0.  1.
         12    1    4    4    0    0 -0.90111705103E+01 -0.27511865019E+02 -0.29337830083E+02  0.41216649364E+02  0.00000000000E+00 0. -1.
         -5    1    5    5    0  502  0.40324560006E+02  0.71570577168E+02  0.48880220704E+02  0.95706758549E+02  0.47000000000E+01 0.  1.
         11    1    6    6    0    0 -0.35389361217E+02 -0.29955910766E+01 -0.31090320575E+02  0.47201572926E+02  0.00000000000E+00 0. -1.
        -12    1    6    6    0    0  0.43576122806E+02  0.83022970517E+01 -0.24749681582E+02  0.50797178598E+02  0.00000000000E+00 0.  1.
</event>
<event>
12    1  0.9246030E-003  0.1817577E+03  0.7818608E-02  0.1167952E+00
         21   -1    0    0  503  502  0.00000000000E+00  0.00000000000E+00  0.21899928711E+03  0.21899928711E+03  0.00000000000E+00 0.  1.
         21   -1    0    0  501  503 -0.00000000000E+00 -0.00000000000E+00 -0.14468542127E+03  0.14468542127E+03  0.00000000000E+00 0.  1.
          6    2    1    2  501    0  0.26380206912E+02  0.27810039177E+01  0.39899145344E+02  0.18608542461E+03  0.17981155178E+03 0.  0.
         24    2    3    3    0    0  0.23005376920E+02  0.72735976101E+02  0.33084996909E+02  0.11556159722E+03  0.80250209629E+02 0.  0.
         -6    2    1    2    0  502 -0.26380206912E+02 -0.27810039177E+01  0.34414720498E+02  0.17759928377E+03  0.17220186790E+03 0.  0.
        -24    2    5    5    0    0 -0.26860496717E+01 -0.19036897385E+01  0.87177107117E+02  0.11956358605E+03  0.81760407329E+02 0.  0.
          5    1    3    3  501    0  0.33748299919E+01 -0.69954972183E+02  0.68141484343E+01  0.70523827388E+02  0.47000000000E+01 0. -1.
        -11    1    4    4    0    0 -0.25396771729E+02  0.23549416299E+02 -0.75921619245E+01  0.35457184673E+02  0.00000000000E+00 0.  1.
         12    1    4    4    0    0  0.48402148649E+02  0.49186559802E+02  0.40677158834E+02  0.80104412549E+02  0.00000000000E+00 0. -1.
         -5    1    5    5    0  502 -0.23694157240E+02 -0.87731417916E+00 -0.52762386619E+02  0.58035697715E+02  0.47000000000E+01 0.  1.
         11    1    6    6    0    0 -0.13155936123E+02 -0.24475920905E+02  0.90306845897E+02  0.94485320422E+02  0.00000000000E+00 0. -1.
        -12    1    6    6    0    0  0.10469886451E+02  0.22572231166E+02 -0.31297387793E+01  0.25078265629E+02  0.00000000000E+00 0.  1.
</event>
<event>
12    1  0.9246030E-003  0.2673022E+03  0.7818608E-02  0.1102857E+00
         21   -1    0    0  503  502  0.00000000000E+00  0.00000000000E+00  0.24286830797E+03  0.24286830797E+03  0.00000000000E+00 0. -1.
         21   -1    0    0  501  503 -0.00000000000E+00 -0.00000000000E+00 -0.47752417988E+03  0.47752417988E+03  0.00000000000E+00 0.  1.
          6    2    1    2  501    0  0.13982148862E+03 -0.14840879187E+03  0.10598350004E+03  0.28739637975E+03  0.17259478159E+03 0.  0.
         24    2    3    3    0    0  0.19099313611E+02 -0.11381888428E+03  0.51802084341E+02  0.15054601968E+03  0.81615720911E+02 0.  0.
         -6    2    1    2    0  502 -0.13982148862E+03  0.14840879187E+03 -0.34063937196E+03  0.43299610809E+03  0.17284452468E+03 0.  0.
        -24    2    5    5    0    0 -0.16904449599E+03  0.13772174864E+03 -0.27167722688E+03  0.35719330797E+03  0.78963421788E+02 0.  0.
          5    1    3    3  501    0  0.12072217501E+03 -0.34589907591E+02  0.54181415703E+02  0.13685036008E+03  0.47000000000E+01 0. -1.
        -11    1    4    4    0    0 -0.26905372459E+02 -0.16582403905E+02  0.10962234642E+01  0.31623992353E+02  0.00000000000E+00 0.  1.
         12    1    4    4    0    0  0.46004686071E+02 -0.97236480371E+02  0.50705860877E+02  0.11892202732E+03  0.00000000000E+00 0. -1.
         -5    1    5    5    0  502  0.29223007368E+02  0.10687043224E+02 -0.68962145075E+02  0.75802800119E+02  0.47000000000E+01 0.  1.
         13    1    6    6    0    0 -0.34087169531E+02  0.20341672597E+02 -0.11247800911E+02  0.41258111882E+02  0.00000000000E+00 0. -1.
        -14    1    6    6    0    0 -0.13495732646E+03  0.11738007604E+03 -0.26042942597E+03  0.31593519609E+03  0.00000000000E+00 0.  1.
</event>
<event>
12    1  0.9246030E-003  0.2766714E+03  0.7818608E-02  0.1097661E+00
         21   -1    0    0  501  502  0.00000000000E+00  0.00000000000E+00  0.20956038145E+03  0.20956038145E+03  0.00000000000E+00 0. -1.
         21   -1    0    0  502  503 -0.00000000000E+00 -0.00000000000E+00 -0.68848676240E+03  0.68848676240E+03  0.00000000000E+00 0.  1.
          6    2    1    2  501    0 -0.19812645803E+03  0.86727250606E+02  0.69055941893E+02  0.28418094617E+03  0.17092213925E+03 0.  0.
         24    2    3    3    0    0 -0.11991406864E+03  0.10622426074E+03  0.11852695856E+01  0.17870189888E+03  0.79183245518E+02 0.  0.
         -6    2    1    2    0  503  0.19812645803E+03 -0.86727250606E+02 -0.54798232285E+03  0.61386619767E+03  0.17254382959E+03 0.  0.
        -24    2    5    5    0    0  0.34301532186E+02 -0.23944174262E+02 -0.11125737145E+03  0.14319529973E+03  0.79854696611E+02 0.  0.
          5    1    3    3  501    0 -0.78212389387E+02 -0.19497010134E+02  0.67870672307E+02  0.10547904729E+03  0.47000000000E+01 0. -1.
        -11    1    4    4    0    0 -0.75754092284E+02  0.58029854139E+02  0.39110489060E+02  0.10312990266E+03  0.00000000000E+00 0.  1.
         12    1    4    4    0    0 -0.44159976360E+02  0.48194406601E+02 -0.37925219474E+02  0.75571996215E+02  0.00000000000E+00 0. -1.
         -5    1    5    5    0  503  0.16382492584E+03 -0.62783076344E+02 -0.43672495140E+03  0.47067089795E+03  0.47000000000E+01 0.  1.
         13    1    6    6    0    0  0.59379650954E+02 -0.22315148940E+02 -0.66757478492E+02  0.92089466033E+02  0.00000000000E+00 0. -1.
        -14    1    6    6    0    0 -0.25078118768E+02 -0.16290253220E+01 -0.44499892957E+02  0.51105833694E+02  0.00000000000E+00 0.  1.
</event>
<event>
12    1  0.9246030E-003  0.1878857E+03  0.7818608E-02  0.1160719E+00
         21   -1    0    0  501  502  0.00000000000E+00  0.00000000000E+00  0.19455137216E+04  0.19455137216E+04  0.00000000000E+00 0.  1.
         21   -1    0    0  502  503 -0.00000000000E+00 -0.00000000000E+00 -0.19206056495E+02  0.19206056495E+02  0.00000000000E+00 0.  1.
          6    2    1    2  501    0 -0.71268504575E+02 -0.13344219347E+02  0.12054364127E+04  0.12197658111E+04  0.17173939829E+03 0.  0.
         24    2    3    3    0    0 -0.35649362815E+02  0.28980949103E+02  0.10644467788E+04  0.10682392128E+04  0.77312988844E+02 0.  0.
         -6    2    1    2    0  503  0.71268504575E+02  0.13344219347E+02  0.72087125237E+03  0.74495396697E+03  0.17333142377E+03 0.  0.
        -24    2    5    5    0    0  0.97416389572E+02  0.52022070746E+02  0.45659034092E+03  0.47653977540E+03  0.80119718604E+02 0.  0.
          5    1    3    3  501    0 -0.35619141761E+02 -0.42325168449E+02  0.14098963387E+03  0.15152659834E+03  0.47000000000E+01 0. -1.
        -13    1    4    4    0    0 -0.59323503711E+02  0.23401532625E+02  0.85747295585E+03  0.85984113639E+03  0.00000000000E+00 0.  1.
         14    1    4    4    0    0  0.23674140896E+02  0.55794164777E+01  0.20697382298E+03  0.20839807637E+03  0.00000000000E+00 0. -1.
         -5    1    5    5    0  503 -0.26147884997E+02 -0.38677851399E+02  0.26428091145E+03  0.26841419157E+03  0.47000000000E+01 0.  1.
         13    1    6    6    0    0  0.29045523733E+02 -0.55005600292E+01  0.24611961897E+03  0.24788861501E+03  0.00000000000E+00 0. -1.
        -14    1    6    6    0    0  0.68370865840E+02  0.57522630775E+02  0.21047072195E+03  0.22865116039E+03  0.00000000000E+00 0.  1.
</event>
<event>
12    1  0.9246030E-003  0.2075681E+03  0.7818608E-02  0.1143794E+00
         21   -1    0    0  503  502  0.00000000000E+00  0.00000000000E+00  0.60309419527E+02  0.60309419527E+02  0.00000000000E+00 0. -1.
         21   -1    0    0  501  503 -0.00000000000E+00 -0.00000000000E+00 -0.72191165754E+03  0.72191165754E+03  0.00000000000E+00 0. -1.
          6    2    1    2  501    0 -0.11536937103E+03  0.87918226286E+01 -0.38321316599E+03  0.43581743310E+03  0.17232851328E+03 0.  0.
         24    2    3    3    0    0 -0.23454072251E+01  0.37524823227E+02 -0.17733441158E+03  0.19915701555E+03  0.82476724104E+02 0.  0.
         -6    2    1    2    0  502  0.11536937103E+03 -0.87918226286E+01 -0.27838907203E+03  0.34640364397E+03  0.17060955781E+03 0.  0.
        -24    2    5    5    0    0 -0.32703432283E+00 -0.35648046500E+02 -0.12429687296E+03  0.15179272242E+03  0.79501118117E+02 0.  0.
          5    1    3    3  501    0 -0.11302396381E+03 -0.28733000598E+02 -0.20587875441E+03  0.23666041755E+03  0.47000000000E+01 0. -1.
        -13    1    4    4    0    0 -0.32483917661E+01 -0.10394944768E+02 -0.13430855250E+03  0.13474937551E+03  0.00000000000E+00 0.  1.
         14    1    4    4    0    0  0.90298454095E+00  0.47919767995E+02 -0.43025859078E+02  0.64407640037E+02  0.00000000000E+00 0. -1.
         -5    1    5    5    0  502  0.11569640535E+03  0.26856223872E+02 -0.15409219907E+03  0.19461092155E+03  0.47000000000E+01 0.  1.
         11    1    6    6    0    0  0.87459181229E+00  0.72228569204E+01 -0.10415836017E+03  0.10441215718E+03  0.00000000000E+00 0. -1.
        -12    1    6    6    0    0 -0.12016261351E+01 -0.42870903421E+02 -0.20138512786E+02  0.47380565243E+02  0.00000000000E+00 0.  1.
</event>
<event>
12    1  0.9246030E-003  0.2458094E+03  0.7818608E-02  0.1116033E+00
         21   -1    0    0  501  502  0.00000000000E+00  0.00000000000E+00  0.88194572159E+02  0.88194572159E+02  0.00000000000E+00 0. -1.
         21   -1    0    0  502  503 -0.00000000000E+00 -0.00000000000E+00 -0.77496229628E+03  0.77496229628E+03  0.00000000000E+00 0.  1.
          6    2    1    2  501    0 -0.16762947677E+03 -0.51596031679E+02 -0.19589993487E+03  0.31432316380E+03  0.17222216713E+03 0.  0.
         24    2    3    3    0    0 -0.14157596035E+03 -0.89750354865E+02 -0.18698935616E+03  0.26703652183E+03  0.90799812376E+02 0.  0.
         -6    2    1    2    0  503  0.16762947677E+03  0.51596031679E+02 -0.49086778926E+03  0.54883370464E+03  0.17177152515E+03 0.  0.
        -24    2    5    5    0    0  0.20786216485E+02  0.61626661335E+01 -0.24722368312E+03  0.26071623858E+03  0.79895946784E+02 0.  0.
          5    1    3    3  501    0 -0.26053516426E+02  0.38154323186E+02 -0.89105787125E+01  0.47286641971E+02  0.47000000000E+01 0. -1.
        -13    1    4    4    0    0 -0.41165624614E+02 -0.63492094179E+02 -0.35948949054E+02  0.83774588099E+02  0.00000000000E+00 0.  1.
         14    1    4    4    0    0 -0.10041033573E+03 -0.26258260686E+02 -0.15104040710E+03  0.18326193373E+03  0.00000000000E+00 0. -1.
         -5    1    5    5    0  503  0.14684326029E+03  0.45433365545E+02 -0.24364410613E+03  0.28811746606E+03  0.47000000000E+01 0.  1.
         11    1    6    6    0    0 -0.51633190512E+01 -0.20852908440E+02 -0.16811110572E+02  0.27278509723E+02  0.00000000000E+00 0. -1.
        -12    1    6    6    0    0  0.25949535536E+02  0.27015574574E+02 -0.23041257255E+03  0.23343772886E+03  0.00000000000E+00 0.  1.
</event>
<event>
12    1  0.9246030E-003  0.1755713E+03  0.7818608E-02  0.1172261E+00
         21   -1    0    0  503  502  0.00000000000E+00  0.00000000000E+00  0.66435874912E+02  0.66435874912E+02  0.00000000000E+00 0.  1.
         21   -1    0    0  501  503 -0.00000000000E+00 -0.00000000000E+00 -0.70153199235E+03  0.70153199235E+03  0.00000000000E+00 0.  1.
          6    2    1    2  501    0 -0.18925601118E+02 -0.21868818071E+02 -0.54124977761E+03  0.56888893769E+03  0.17276249038E+03 0.  0.
         24    2    3    3    0    0 -0.46616605054E+02  0.39554152981E+02 -0.37129479932E+03  0.38600548377E+03  0.86039331787E+02 0.  0.
         -6    2    1    2    0  502  0.18925601118E+02  0.21868818071E+02 -0.93846339828E+02  0.19907892957E+03  0.17317292259E+03 0.  0.
        -24    2    5    5    0    0  0.51991874794E+02 -0.35033347405E+02 -0.85096980031E+02  0.13252161452E+03  0.79937424456E+02 0.  0.
          5    1    3    3  501    0  0.27691003935E+02 -0.61422971052E+02 -0.16995497829E+03  0.18288345392E+03  0.47000000000E+01 0. -1.
        -13    1    4    4    0    0 -0.44706895320E+02  0.42386953537E+02 -0.37553810581E+03  0.38055778699E+03  0.00000000000E+00 0.  1.
         14    1    4    4    0    0 -0.19097097331E+01 -0.28328005560E+01  0.42433064927E+01  0.54476967836E+01  0.00000000000E+00 0. -1.
         -5    1    5    5    0  502 -0.33066273675E+02  0.56902165477E+02 -0.87493597975E+01  0.66557315057E+02  0.47000000000E+01 0.  1.
         13    1    6    6    0    0 -0.20258636399E+02  0.20748766043E+01 -0.16704626395E+02  0.26339362267E+02  0.00000000000E+00 0. -1.
        -14    1    6    6    0    0  0.72250511193E+02 -0.37108224010E+02 -0.68392353636E+02  0.10618225225E+03  0.00000000000E+00 0.  1.
</event>
<event>
12    1  0.9246030E-003  0.1744139E+03  0.7818608E-02  0.1173500E+00
         21   -1    0    0  503  502  0.00000000000E+00  0.00000000000E+00  0.59044439826E+03  0.59044439826E+03  0.00000000000E+00 0.  1.
         21   -1    0    0  501  503 -0.00000000000E+00 -0.00000000000E+00 -0.53184774566E+02  0.53184774566E+02  0.00000000000E+00 0.  1.
          6    2    1    2  501    0  0.18305814212E+02 -0.14061074529E+02  0.32849260915E+03  0.37159265314E+03  0.17216529544E+03 0.  0.
         24    2    3    3    0    0  0.27841544081E+00 -0.65711838971E+02  0.27883799894E+03  0.29756253165E+03  0.80465565861E+02 0.  0.
         -6    2    1    2    0  502 -0.18305814212E+02  0.14061074529E+02  0.20876701455E+03  0.27203651969E+03  0.17287968368E+03 0.  0.
        -24    2    5    5    0    0 -0.36595413598E+02 -0.38470923064E+02  0.19048477727E+03  0.21329598499E+03  0.79946798711E+02 0.  0.
          5    1    3    3  501    0  0.18027398771E+02  0.51650764442E+02  0.49654610206E+02  0.74030121495E+02  0.47000000000E+01 0. -1.
        -11    1    4    4    0    0 -0.92885355676E+01 -0.25294418859E+02  0.23728809376E+03  0.23881315700E+03  0.00000000000E+00 0.  1.
         12    1    4    4    0    0  0.95669510084E+01 -0.40417420113E+02  0.41549905185E+02  0.58749374644E+02  0.00000000000E+00 0. -1.
         -5    1    5    5    0  502  0.18289599386E+02  0.52531997593E+02  0.18282237284E+02  0.58740534701E+02  0.47000000000E+01 0.  1.
         11    1    6    6    0    0 -0.44166578767E+02 -0.29615151455E+02  0.52181119509E+02  0.74502436933E+02  0.00000000000E+00 0. -1.
        -12    1    6    6    0    0  0.75711651698E+01 -0.88557716099E+01  0.13830365776E+03  0.13879354806E+03  0.00000000000E+00 0.  1.
</event>
<event>
12    1  0.9246030E-003  0.2020656E+03  0.7818608E-02  0.1148071E+00
         21   -1    0    0  503  502  0.00000000000E+00  0.00000000000E+00  0.15064595303E+03  0.15064595303E+03  0.00000000000E+00 0.  1.
         21   -1    0    0  501  503 -0.00000000000E+00 -0.00000000000E+00 -0.47683165077E+03  0.47683165077E+03  0.00000000000E+00 0. -1.
          6    2    1    2  501    0 -0.10591310222E+03  0.68861354081E+01  0.43153470232E+02  0.20662220245E+03  0.17194623715E+03 0.  0.
         24    2    3    3    0    0 -0.92545157140E+02 -0.56482056122E+02  0.18152956815E+02  0.13704242576E+03  0.81830726760E+02 0.  0.
         -6    2    1    2    0  502  0.10591310222E+03 -0.68861354081E+01 -0.36933916797E+03  0.42085540135E+03  0.17158917148E+03 0.  0.
        -24    2    5    5    0    0 -0.12947039591E+02 -0.64228478180E+01 -0.11285944292E+03  0.13813312188E+03  0.78323857779E+02 0.  0.
          5    1    3    3  501    0 -0.13367945079E+02  0.63368191530E+02  0.25000513417E+02  0.69579776693E+02  0.47000000000E+01 0. -1.
        -13    1    4    4    0    0 -0.83666005576E+02 -0.68751540391E+02  0.35550273449E+02  0.11397629902E+03  0.00000000000E+00 0.  1.
         14    1    4    4    0    0 -0.88791515642E+01  0.12269484269E+02 -0.17397316634E+02  0.23066126740E+02  0.00000000000E+00 0. -1.
         -5    1    5    5    0  502  0.11886014181E+03 -0.46328759009E+00 -0.25647972505E+03  0.28272227947E+03  0.47000000000E+01 0.  1.
         11    1    6    6    0    0  0.60233825747E+01  0.19416083230E+02 -0.10242440108E+03  0.10442233173E+03  0.00000000000E+00 0. -1.
        -12    1    6    6    0    0 -0.18970422166E+02 -0.25838931049E+02 -0.10435041831E+02  0.33710790155E+02  0.00000000000E+00 0.  1.
</event>
<event>
12    1  0.9246030E-003  0.2285522E+03  0.7818608E-02  0.1127804E+00
         21   -1    0    0  501  502  0.00000000000E+00  0.00000000000E+00  0.59365389656E+03  0.59365389656E+03  0.00000000000E+00 0. -1.
         21   -1    0    0  502  503 -0.00000000000E+00 -0.00000000000E+00 -0.92891271627E+02  0.92891271627E+02  0.00000000000E+00 0. -1.
          6    2    1    2  501    0  0.14532232192E+03 -0.36319603381E+02  0.33123281142E+03  0.40198149658E+03  0.17156997813E+03 0.  0.
         24    2    3    3    0    0  0.88881832904E+02 -0.45547341090E+02  0.31848077803E+03  0.34319897963E+03  0.79881118817E+02 0.  0.
         -6    2    1    2    0  503 -0.14532232192E+03  0.36319603381E+02  0.16952981351E+03  0.28456367161E+03  0.17262223116E+03 0.  0.
        -24    2    5    5    0    0 -0.11582734741E+03 -0.39795774939E+02  0.93092708716E+02  0.17263411640E+03  0.78336502468E+02 0.  0.
          5    1    3    3  501    0  0.56440489013E+02  0.92277377094E+01  0.12752033386E+02  0.58782516948E+02  0.47000000000E+01 0. -1.
        -11    1    4    4    0    0  0.20976015465E+02  0.22914792823E+02  0.89697806944E+02  0.94925115357E+02  0.00000000000E+00 0.  1.
         12    1    4    4    0    0  0.67905817439E+02 -0.68462133914E+02  0.22878297109E+03  0.24827386427E+03  0.00000000000E+00 0. -1.
         -5    1    5    5    0  503 -0.29494974503E+02  0.76115378320E+02  0.76437104797E+02  0.11192955520E+03  0.47000000000E+01 0.  1.
         13    1    6    6    0    0 -0.67539899326E+02  0.71691385163E+01  0.78329505307E+02  0.10367519448E+03  0.00000000000E+00 0. -1.
        -14    1    6    6    0    0 -0.48287448087E+02 -0.46964913456E+02  0.14763203410E+02  0.68958921929E+02  0.00000000000E+00 0.  1.
</event>
<event>
12    1  0.9246030E-003  0.2022740E+03  0.7818608E-02  0.1148383E+00
         21   -1    0    0  501  502  0.00000000000E+00  0.00000000000E+00  0.42650037700E+03  0.42650037700E+03  0.00000000000E+00 0. -1.
         21   -1    0    0  502  503 -0.00000000000E+00 -0.00000000000E+00 -0.94715913382E+02  0.94715913382E+02  0.00000000000E+00 0. -1.
          6    2    1    2  501    0  0.16875745676E+02 -0.10347780525E+03  0.16285626952E+03  0.25968625091E+03  0.17298074291E+03 0.  0.
         24    2    3    3    0    0 -0.41176356501E+02 -0.19350798247E+02  0.10935814089E+03  0.14422396425E+03  0.82288535992E+02 0.  0.
         -6    2    1    2    0  503 -0.16875745676E+02  0.10347780525E+03  0.16892819410E+03  0.26153003947E+03  0.16990815110E+03 0.  0.
        -24    2    5    5    0    0  0.44152382386E+02  0.23934576824E+02  0.54204136464E+02  0.10909888450E+03  0.80263200486E+02 0.  0.
          5    1    3    3  501    0  0.58052102177E+02 -0.84127007007E+02  0.53498128624E+02  0.11546228666E+03  0.47000000000E+01 0. -1.
        -11    1    4    4    0    0 -0.25497118303E+02  0.24981192205E+02  0.14844881543E+02  0.38659197014E+02  0.00000000000E+00 0.  1.
         12    1    4    4    0    0 -0.15679238198E+02 -0.44331990451E+02  0.94513259349E+02  0.10556476723E+03  0.00000000000E+00 0. -1.
         -5    1    5    5    0  503 -0.61028128062E+02  0.79543228430E+02  0.11472405764E+03  0.15243115497E+03  0.47000000000E+01 0.  1.
         13    1    6    6    0    0 -0.13352845018E+02  0.18818994592E+02 -0.78199078015E+01  0.24363989524E+02  0.00000000000E+00 0. -1.
        -14    1    6    6    0    0  0.57505227404E+02  0.51155822320E+01  0.62024044266E+02  0.84734894981E+02  0.00000000000E+00 0.  1.
</event>
<event>
12    1  0.9246030E-003  0.2097568E+03  0.7818608E-02  0.1141900E+00
         21   -1    0    0  503  502  0.00000000000E+00  0.00000000000E+00  0.20469581052E+03  0.20469581052E+03  0.00000000000E+00 0. -1.
         21   -1    0    0  501  503 -0.00000000000E+00 -0.00000000000E+00 -0.41545542477E+03  0.41545542477E+03  0.00000000000E+00 0. -1.
          6    2    1    2  501    0  0.17709339953E+02 -0.11787864561E+03 -0.32109268076E+03  0.38314639230E+03  0.17173133810E+03 0.  0.
         24    2    3    3    0    0 -0.63429789110E+01  0.39726528886E+01 -0.12123720416E+03  0.14779441225E+03  0.84194496657E+02 0.  0.
         -6    2    1    2    0  502 -0.17709339953E+02  0.11787864561E+03  0.11033306651E+03  0.23700484299E+03  0.17259465294E+03 0.  0.
        -24    2    5    5    0    0  0.26667653863E+02  0.78428593782E+02  0.13080988070E+03  0.17402060616E+03  0.79433861757E+02 0.  0.
          5    1    3    3  501    0  0.24052318864E+02 -0.12185129849E+03 -0.19985547660E+03  0.23535198005E+03  0.47000000000E+01 0. -1.
        -11    1    4    4    0    0  0.16421703997E+02 -0.34540090358E+02 -0.42030766598E+02  0.56826715063E+02  0.00000000000E+00 0.  1.
         12    1    4    4    0    0 -0.22764682908E+02  0.38512743246E+02 -0.79206437558E+02  0.90967697183E+02  0.00000000000E+00 0. -1.
         -5    1    5    5    0  502 -0.44376993816E+02  0.39450051823E+02 -0.20476814196E+02  0.62984236827E+02  0.47000000000E+01 0.  1.
         13    1    6    6    0    0  0.86313301251E+00  0.82889440793E+02  0.11963885076E+03  0.14555019411E+03  0.00000000000E+00 0. -1.
        -14    1    6    6    0    0  0.25804520851E+02 -0.44608470102E+01  0.11171029939E+02  0.28470412050E+02  0.00000000000E+00 0.  1.
</event>
<event>
12    1  0.9246030E-003  0.1768228E+03  0.7818608E-02  0.1172034E+00
         21   -1    0    0  503  502  0.00000000000E+00  0.00000000000E+00  0.17515107806E+04  0.17515107806E+04  0.00000000000E+00 0.  1.
         21   -1    0    0  501  503 -0.00000000000E+00 -0.00000000000E+00 -0.21887176787E+02  0.21887176787E+02  0.00000000000E+00 0.  1.
          6    2    1    2  501    0 -0.24868230240E+02  0.17965838739E+02  0.45472691900E+03  0.48629739103E+03  0.16960949686E+03 0.  0.
         24    2    3    3    0    0 -0.29689834656E+02 -0.20334808545E+02  0.12473754047E+03  0.15402451012E+03  0.82880063907E+02 0.  0.
         -6    2    1    2    0  502  0.24868230240E+02 -0.17965838739E+02  0.12748966848E+04  0.12871005664E+04  0.17414106559E+03 0.  0.
        -24    2    5    5    0    0  0.39472359907E+02 -0.53993093803E+02  0.48047469943E+03  0.49171410396E+03  0.80333690687E+02 0.  0.
          5    1    3    3  501    0  0.48216044166E+01  0.38300647284E+02  0.32998937853E+03  0.33227288092E+03  0.47000000000E+01 0. -1.
        -11    1    4    4    0    0 -0.39221706042E+02 -0.46833622579E+02  0.73629530530E+02  0.95671511929E+02  0.00000000000E+00 0.  1.
         12    1    4    4    0    0  0.95318713855E+01  0.26498814033E+02  0.51108009943E+02  0.58352998188E+02  0.00000000000E+00 0. -1.
         -5    1    5    5    0  502 -0.14604129667E+02  0.36027255064E+02  0.79442198541E+03  0.79538646242E+03  0.47000000000E+01 0.  1.
         11    1    6    6    0    0 -0.59848995695E+01 -0.25383392268E+02  0.38583383986E+02  0.46570517988E+02  0.00000000000E+00 0. -1.
        -12    1    6    6    0    0  0.45457259476E+02 -0.28609701535E+02  0.44189131545E+03  0.44514358597E+03  0.00000000000E+00 0.  1.
</event>
<event>
12    1  0.9246030E-003  0.3002581E+03  0.7818608E-02  0.1085592E+00
         21   -1    0    0  503  502  0.00000000000E+00  0.00000000000E+00  0.59077441618E+03  0.59077441618E+03  0.00000000000E+00 0. -1.
         21   -1    0    0  501  503 -0.00000000000E+00 -0.00000000000E+00 -0.16908913672E+03  0.16908913672E+03  0.00000000000E+00 0. -1.
          6    2    1    2  501    0 -0.18459949913E+03 -0.15908682785E+03  0.84247572688E+02  0.30817877873E+03  0.16879251252E+03 0.  0.
         24    2    3    3    0    0 -0.13811058096E+03 -0.18393556122E+03  0.62956554759E+02  0.25113426534E+03  0.78727810758E+02 0.  0.
         -6    2    1    2    0  502  0.18459949913E+03  0.15908682785E+03  0.33743770676E+03  0.45168477417E+03  0.17541190209E+03 0.  0.
        -24    2    5    5    0    0  0.18615657976E+03  0.78232007767E+02  0.21955559848E+03  0.30865258239E+03  0.79292096490E+02 0.  0.
          5    1    3    3  501    0 -0.46488918175E+02  0.24848733375E+02  0.21291017928E+02  0.57044513389E+02  0.47000000000E+01 0. -1.
        -11    1    4    4    0    0 -0.49033669918E+02 -0.12991370661E+03  0.32823578390E+02  0.14268587614E+03  0.00000000000E+00 0.  1.
         12    1    4    4    0    0 -0.89076911040E+02 -0.54021854613E+02  0.30132976369E+02  0.10844838920E+03  0.00000000000E+00 0. -1.
         -5    1    5    5    0  502 -0.15570806298E+01  0.80854820080E+02  0.11788210828E+03  0.14303219177E+03  0.47000000000E+01 0.  1.
         11    1    6    6    0    0  0.46465086282E+02  0.45401261491E+02  0.11140888422E+03  0.12896595780E+03  0.00000000000E+00 0. -1.
        -12    1    6    6    0    0  0.13969149348E+03  0.32830746276E+02  0.10814671426E+03  0.17968662459E+03  0.00000000000E+00 0.  1.
</event>
<event>
12    1  0.9246030E-003  0.1891949E+03  0.7818608E-02  0.1160123E+00
         21   -1    0    0  503  502  0.00000000000E+00  0.00000000000E+00  0.42399273314E+03  0.42399273314E+03  0.00000000000E+00 0. -1.
         21   -1    0    0  501  503 -0.00000000000E+00 -0.00000000000E+00 -0.90938780913E+02  0.90938780913E+02  0.00000000000E+00 0. -1.
          6    2    1    2  501    0 -0.63485125101E+02 -0.28216241033E+02  0.87004383685E+02  0.20455253293E+03  0.17159679071E+03 0.  0.
         24    2    3    3    0    0 -0.42586542712E+02  0.98965553845E+01 -0.21057122151E+02  0.87981888942E+02  0.73388384367E+02 0.  0.
         -6    2    1    2    0  502  0.63485125101E+02  0.28216241033E+02  0.24604956855E+03  0.31037898112E+03  0.17597785195E+03 0.  0.
        -24    2    5    5    0    0  0.17915188795E+02  0.29597491807E+02  0.24999062430E+03  0.26437736301E+03  0.78759839535E+02 0.  0.
          5    1    3    3  501    0 -0.20898582389E+02 -0.38112796418E+02  0.10806150584E+03  0.11657064399E+03  0.47000000000E+01 0. -1.
        -11    1    4    4    0    0 -0.18322368890E+02  0.26319205911E+01  0.27538681967E+02  0.33181549274E+02  0.00000000000E+00 0.  1.
         12    1    4    4    0    0 -0.24264173822E+02  0.72646347934E+01 -0.48595804118E+02  0.54800339669E+02  0.00000000000E+00 0. -1.
         -5    1    5    5    0  502  0.45569936306E+02 -0.13812507734E+01 -0.39410557548E+01  0.46001618114E+02  0.47000000000E+01 0.  1.
         11    1    6    6    0    0  0.10052585210E+01  0.58560794758E+01  0.22745787674E+03  0.22753546955E+03  0.00000000000E+00 0. -1.
        -12    1    6    6    0    0  0.16909930274E+02  0.23741412331E+02  0.22532747563E+02  0.36841893465E+02  0.00000000000E+00 0.  1.
</event>
<event>
12    1  0.9246030E-003  0.1796297E+03  0.7818608E-02  0.1169304E+00
         21   -1    0    0  503  502  0.00000000000E+00  0.00000000000E+00  0.34910474984E+03  0.34910474984E+03  0.00000000000E+00 0. -1.
         21   -1    0    0  501  503 -0.00000000000E+00 -0.00000000000E+00 -0.10142343549E+03  0.10142343549E+03  0.00000000000E+00 0. -1.
          6    2    1    2  501    0 -0.15742178303E+02 -0.30212837977E+02  0.49867274756E+02  0.18642308691E+03  0.17636947153E+03 0.  0.
         24    2    3    3    0    0  0.13818620235E+02 -0.60386994492E+02 -0.23550140341E+02  0.10159073830E+03  0.76996919610E+02 0.  0.
         -6    2    1    2    0  502  0.15742178303E+02  0.30212837977E+02  0.19781403960E+03  0.26410509841E+03  0.17164054588E+03 0.  0.
        -24    2    5    5    0    0 -0.12598646403E+02  0.48035847747E+02  0.20867072238E+03  0.22859707702E+03  0.79037868663E+02 0.  0.
          5    1    3    3  501    0 -0.29560798538E+02  0.30174156515E+02  0.73417415097E+02  0.84832348613E+02  0.47000000000E+01 0. -1.
        -11    1    4    4    0    0  0.98882226351E+01  0.14926853340E+02  0.82869802831E+01  0.19729722242E+02  0.00000000000E+00 0.  1.
         12    1    4    4    0    0  0.39303975998E+01 -0.75313847832E+02 -0.31837120624E+02  0.81861016059E+02  0.00000000000E+00 0. -1.
         -5    1    5    5    0  502  0.28340824706E+02 -0.17823009770E+02 -0.10856682785E+02  0.35508021395E+02  0.47000000000E+01 0.  1.
         13    1    6    6    0    0  0.64777338930E+01  0.30798178761E+01 -0.54306962516E+01  0.89965980412E+01  0.00000000000E+00 0. -1.
        -14    1    6    6    0    0 -0.19076380296E+02  0.44956029870E+02  0.21410141863E+03  0.21960047898E+03  0.00000000000E+00 0.  1.
</event>
<event>
12    1  0.9246030E-003  0.2192016E+03  0.7818608E-02  0.1135000E+00
         21   -1    0    0  501  502  0.00000000000E+00  0.00000000000E+00  0.25432774571E+03  0.25432774571E+03  0.00000000000E+00 0.  1.
         21   -1    0    0  502  503 -0.00000000000E+00 -0.00000000000E+00 -0.21376342758E+03  0.21376342758E+03  0.00000000000E+00 0. -1.
          6    2    1    2  501    0 -0.13578213666E+03  0.30376849317E+01  0.10366969056E+03  0.23998673044E+03  0.16852361817E+03 0.  0.
         24    2    3    3    0    0 -0.14364065126E+03  0.33994782712E+02  0.46732932507E+02  0.17453459089E+03  0.80560998571E+02 0.  0.
         -6    2    1    2    0  503  0.13578213666E+03 -0.30376849317E+01 -0.63105372435E+02  0.22810444285E+03  0.17205619039E+03 0.  0.
        -24    2    5    5    0    0  0.29690791613E+02 -0.49247906658E+02 -0.36688346034E+02  0.10931594438E+03  0.85422722640E+02 0.  0.
          5    1    3    3  501    0  0.78585145961E+01 -0.30957097780E+02  0.56936758050E+02  0.65452139551E+02  0.47000000000E+01 0. -1.
        -13    1    4    4    0    0 -0.11393823852E+03  0.53991429480E+02  0.55363091179E+02  0.13770282684E+03  0.00000000000E+00 0.  1.
         14    1    4    4    0    0 -0.29702412738E+02 -0.19996646768E+02 -0.86301586713E+01  0.36831764051E+02  0.00000000000E+00 0. -1.
         -5    1    5    5    0  503  0.10609134505E+03  0.46210221726E+02 -0.26417026401E+02  0.11878849848E+03  0.47000000000E+01 0.  1.
         11    1    6    6    0    0  0.59122058290E+02 -0.30495111416E+02 -0.32895705821E+02  0.74212512814E+02  0.00000000000E+00 0. -1.
        -12    1    6    6    0    0 -0.29431266677E+02 -0.18752795242E+02 -0.37926402131E+01  0.35103431561E+02  0.00000000000E+00 0.  1.
</event>
<event>
12    1  0.9246030E-003  0.1765343E+03  0.7818608E-02  0.1171358E+00
         21   -1    0    0  503  502  0.00000000000E+00  0.00000000000E+00  0.17640858970E+03  0.17640858970E+03  0.00000000000E+00 0.  1.
         21   -1    0    0  501  503 -0.00000000000E+00 -0.00000000000E+00 -0.17700477341E+03  0.17700477341E+03  0.00000000000E+00 0. -1.
          6    2    1    2  501    0  0.19895037922E+02 -0.32883761169E+02 -0.13453192993E+02  0.17641145008E+03  0.17164747896E+03 0.  0.
         24    2    3    3    0    0  0.21516354280E+02 -0.33648743909E+00  0.57009315016E+02  0.98636076542E+02  0.77562535232E+02 0.  0.
         -6    2    1    2    0  502 -0.19895037922E+02  0.32883761169E+02  0.12857009285E+02  0.17700191303E+03  0.17229979758E+03 0.  0.
        -24    2    5    5    0    0 -0.12382817153E+02  0.82571689127E+02 -0.19862180123E+02  0.11685244087E+03  0.79300496417E+02 0.  0.
          5    1    3    3  501    0 -0.16213163580E+01 -0.32547273730E+02 -0.70462508009E+02  0.77775373537E+02  0.47000000000E+01 0. -1.
        -13    1    4    4    0    0 -0.22860647736E+02  0.16082813508E+02  0.39055966639E+02  0.48027436277E+02  0.00000000000E+00 0.  1.
         14    1    4    4    0    0  0.44377002016E+02 -0.16419300947E+02  0.17953348377E+02  0.50608640265E+02  0.00000000000E+00 0. -1.
         -5    1    5    5    0  502 -0.75122207687E+01 -0.49687927958E+02  0.32719189408E+02  0.60149472160E+02  0.47000000000E+01 0.  1.
         13    1    6    6    0    0  0.28746081743E+02  0.51066372228E+02  0.60718519105E+01  0.58915014841E+02  0.00000000000E+00 0. -1.
        -14    1    6    6    0    0 -0.41128898896E+02  0.31505316899E+02 -0.25934032033E+02  0.57937426029E+02  0.00000000000E+00 0.  1.
</event>
<event>
12    1  0.9246030E-003  0.1855340E+03  0.7818608E-02  0.1162692E+00
         21   -1    0    0  501  502  0.00000000000E+00  0.00000000000E+00  0.31210483018E+03  0.31210483018E+03  0.00000000000E+00 0.  1.
         21   -1    0    0  502  503 -0.00000000000E+00 -0.00000000000E+00 -0.10998236766E+03  0.10998236766E+03  0.00000000000E+00 0.  1.
          6    2    1    2  501    0 -0.67312455666E+02 -0.10947397099E+02  0.96549778794E+02  0.20861952184E+03  0.17189948492E+03 0.  0.
         24    2    3    3    0    0  0.19485994950E+02  0.25267527400E+02  0.83590097859E+02  0.11356409003E+03  0.69938159428E+02 0.  0.
         -6    2    1    2    0  503  0.67312455666E+02  0.10947397099E+02  0.10557268373E+03  0.21346767601E+03  0.17254577642E+03 0.  0.
        -24    2    5    5    0    0  0.61861345032E+02 -0.57902207033E+02  0.65443240414E+02  0.13345239736E+03  0.79669524015E+02 0.  0.
          5    1    3    3  501    0 -0.86798450616E+02 -0.36214924499E+02  0.12959680935E+02  0.95055431806E+02  0.47000000000E+01 0. -1.
        -11    1    4    4    0    0 -0.11230776924E+02  0.21834809279E+02  0.11868666450E+00  0.24554089946E+02  0.00000000000E+00 0.  1.
         12    1    4    4    0    0  0.30716771875E+02  0.34327181218E+01  0.83471411195E+02  0.89010000084E+02  0.00000000000E+00 0. -1.
         -5    1    5    5    0  503  0.54511106342E+01  0.68849604132E+02  0.40129443316E+02  0.80015278648E+02  0.47000000000E+01 0.  1.
         11    1    6    6    0    0 -0.18537769922E+02 -0.14335561885E+02  0.53717112716E+01  0.24041891153E+02  0.00000000000E+00 0. -1.
        -12    1    6    6    0    0  0.80399114954E+02 -0.43566645148E+02  0.60071529142E+02  0.10941050621E+03  0.00000000000E+00 0.  1.
</event>
<event>
12    1  0.9246030E-003  0.2070435E+03  0.7818608E-02  0.1144889E+00
         21   -1    0    0  503  502  0.00000000000E+00  0.00000000000E+00  0.45459235787E+02  0.45459235787E+02  0.00000000000E+00 0. -1.
         21   -1    0    0  501  503 -0.00000000000E+00 -0.00000000000E+00 -0.10641950885E+04  0.10641950885E+04  0.00000000000E+00 0. -1.
          6    2    1    2  501    0  0.17490755171E+02  0.10272128637E+03 -0.71746914211E+03  0.74674559419E+03  0.17891177540E+03 0.  0.
         24    2    3    3    0    0 -0.12243232182E+02 -0.22174964834E+01 -0.17359374999E+03  0.19202152738E+03  0.81133611506E+02 0.  0.
         -6    2    1    2    0  502 -0.17490755171E+02 -0.10272128637E+03 -0.30126671058E+03  0.36290873007E+03  0.17344603272E+03 0.  0.
        -24    2    5    5    0    0 -0.38368954696E+02  0.10223718403E+02 -0.12240012546E+03  0.15028742683E+03  0.77639029153E+02 0.  0.
          5    1    3    3  501    0  0.29733987353E+02  0.10493878286E+03 -0.54387539211E+03  0.55472406681E+03  0.47000000000E+01 0. -1.
        -11    1    4    4    0    0  0.33833621965E+02 -0.10148548501E+02 -0.75737007145E+02  0.83569140615E+02  0.00000000000E+00 0.  1.
         12    1    4    4    0    0 -0.46076854147E+02  0.79310520178E+01 -0.97856742848E+02  0.10845238676E+03  0.00000000000E+00 0. -1.
         -5    1    5    5    0  502  0.20878199525E+02 -0.11294500478E+03 -0.17886658512E+03  0.21262130324E+03  0.47000000000E+01 0.  1.
         11    1    6    6    0    0 -0.24048313817E+02 -0.31379465200E+02 -0.79741637182E+02  0.89004050100E+02  0.00000000000E+00 0. -1.
        -12    1    6    6    0    0 -0.14320640879E+02  0.41603183603E+02 -0.42658488274E+02  0.61283376726E+02  0.00000000000E+00 0.  1.
</event>
<event>
12    1  0.9246030E-003  0.1821127E+03  0.7818608E-02  0.1165972E+00
         21   -1    0    0  503  502  0.00000000000E+00  0.00000000000E+00  0.70668680195E+03  0.70668680195E+03  0.00000000000E+00 0. -1.
         21   -1    0    0  501  503 -0.00000000000E+00 -0.00000000000E+00 -0.49352989153E+02  0.49352989153E+02  0.00000000000E+00 0. -1.
          6    2    1    2  501    0 -0.40313381572E+02 -0.41051138133E+02  0.24059481309E+03  0.30124707657E+03  0.17191152486E+03 0.  0.
         24    2    3    3    0    0 -0.69176087725E+02 -0.18538059662E+02  0.75232761150E+02  0.13181687640E+03  0.81158670417E+02 0.  0.
         -6    2    1    2    0  502  0.40313381572E+02  0.41051138133E+02  0.41673899971E+03  0.45479271454E+03  0.17278499542E+03 0.  0.
        -24    2    5    5    0    0 -0.63983765139E+01 -0.25524365485E+02  0.11613511865E+03  0.14334597859E+03  0.79801449473E+02 0.  0.
          5    1    3    3  501    0  0.28862706153E+02 -0.22513078471E+02  0.16536205194E+03  0.16943020017E+03  0.47000000000E+01 0. -1.
        -13    1    4    4    0    0 -0.20640193127E+02 -0.42656674511E+02  0.12689215550E+02  0.49057370944E+02  0.00000000000E+00 0.  1.
         14    1    4    4    0    0 -0.48535894598E+02  0.24118614849E+02  0.62543545600E+02  0.82759505453E+02  0.00000000000E+00 0. -1.
         -5    1    5    5    0  502  0.46711758086E+02  0.66575503618E+02  0.30060388106E+03  0.31144673595E+03  0.47000000000E+01 0.  1.
         13    1    6    6    0    0 -0.30290226323E+02  0.81355369061E+01  0.16369833586E+02  0.35378753837E+02  0.00000000000E+00 0. -1.
        -14    1    6    6    0    0  0.23891849809E+02 -0.33659902391E+02  0.99765285066E+02  0.10796722475E+03  0.00000000000E+00 0.  1.
</event>
<event>
12    1  0.9246030E-003  0.1838627E+03  0.7818608E-02  0.1164598E+00
         21   -1    0    0  501  502  0.00000000000E+00  0.00000000000E+00  0.37768132268E+02  0.37768132268E+02  0.00000000000E+00 0.  1.
         21   -1    0    0  502  503 -0.00000000000E+00 -0.00000000000E+00 -0.88520765552E+03  0.88520765552E+03  0.00000000000E+00 0. -1.
          6    2    1    2  501    0 -0.26885252782E+01 -0.61725684027E+02 -0.41966916885E+03  0.45736547007E+03  0.17100781763E+03 0.  0.
         24    2    3    3    0    0 -0.52256638452E+02 -0.35489191087E+02 -0.14670714819E+03  0.17866185307E+03  0.80042685278E+02 0.  0.
         -6    2    1    2    0  503  0.26885252782E+01  0.61725684027E+02 -0.42777035440E+03  0.46561031772E+03  0.17317102420E+03 0.  0.
        -24    2    5    5    0    0  0.25233689623E+02  0.65217018291E+02 -0.13266636424E+03  0.16958847923E+03  0.79182633964E+02 0.  0.
          5    1    3    3  501    0  0.49568113174E+02 -0.26236492941E+02 -0.27296202066E+03  0.27870361699E+03  0.47000000000E+01 0. -1.
        -11    1    4    4    0    0 -0.18051003303E+02 -0.49663774493E+02 -0.41688552438E+02  0.67307240484E+02  0.00000000000E+00 0.  1.
         12    1    4    4    0    0 -0.34205635149E+02  0.14174583406E+02 -0.10501859576E+03  0.11135461259E+03  0.00000000000E+00 0. -1.
         -5    1    5    5    0  503 -0.22545164344E+02 -0.34913342641E+01 -0.29510399016E+03  0.29602183848E+03  0.47000000000E+01 0.  1.
         13    1    6    6    0    0 -0.24940624446E+02  0.34065126608E+01 -0.41662488494E+02  0.48676503816E+02  0.00000000000E+00 0. -1.
        -14    1    6    6    0    0  0.50174314069E+02  0.61810505631E+02 -0.91003875747E+02  0.12091197542E+03  0.00000000000E+00 0.  1.
</event>
<event>
12    1  0.9246030E-003  0.2352877E+03  0.7818608E-02  0.1123911E+00
         21   -1    0    0  503  502  0.00000000000E+00  0.00000000000E+00  0.35202434808E+03  0.35202434808E+03  0.00000000000E+00 0.  1.
         21   -1    0    0  501  503 -0.00000000000E+00 -0.00000000000E+00 -0.31985858069E+03  0.31985858069E+03  0.00000000000E+00 0.  1.
          6    2    1    2  501    0 -0.16828433863E+02 -0.15371342272E+03 -0.22597744634E+03  0.32623015791E+03  0.17733949691E+03 0.  0.
         24    2    3    3    0    0 -0.19791904931E+02 -0.51133452936E+02 -0.19847036719E+03  0.21988091360E+03  0.77141298940E+02 0.  0.
         -6    2    1    2    0  502  0.16828433863E+02  0.15371342272E+03  0.25814321373E+03  0.34565277087E+03  0.17007911895E+03 0.  0.
        -24    2    5    5    0    0  0.43177970899E+02  0.74836337194E+02  0.62730037411E+02  0.13322797900E+03  0.79685771994E+02 0.  0.
          5    1    3    3  501    0  0.29634710681E+01 -0.10257996978E+03 -0.27507079147E+02  0.10634924431E+03  0.47000000000E+01 0. -1.
        -13    1    4    4    0    0 -0.22321702438E+02 -0.71028213153E+02 -0.16097906143E+03  0.17736268965E+03  0.00000000000E+00 0.  1.
         14    1    4    4    0    0  0.25297975068E+01  0.19894760217E+02 -0.37491305768E+02  0.42518223948E+02  0.00000000000E+00 0. -1.
         -5    1    5    5    0  502 -0.26349537037E+02  0.78877085523E+02  0.19541317632E+03  0.21242479187E+03  0.47000000000E+01 0.  1.
         11    1    6    6    0    0 -0.12447763900E+02  0.12297984456E+02 -0.11842003448E+02  0.21128660475E+02  0.00000000000E+00 0. -1.
        -12    1    6    6    0    0  0.55625734800E+02  0.62538352738E+02  0.74572040859E+02  0.11209931852E+03  0.00000000000E+00 0.  1.
</event>
<event>
12    1  0.9246030E-003  0.2552140E+03  0.7818608E-02  0.1110678E+00
         21   -1    0    0  501  502  0.00000000000E+00  0.00000000000E+00  0.34478164445E+03  0.34478164445E+03  0.00000000000E+00 0. -1.
         21   -1    0    0  502  503 -0.00000000000E+00 -0.00000000000E+00 -0.18764148100E+03  0.18764148100E+03  0.00000000000E+00 0.  1.
          6    2    1    2  501    0  0.31648393923E+02  0.17868956019E+03  0.10450403518E+03  0.27578119528E+03  0.17945081370E+03 0.  0.
         24    2    3    3    0    0  0.63563995325E+02  0.88865002992E+02  0.44391805065E+01  0.13749843485E+03  0.83359120707E+02 0.  0.
         -6    2    1    2    0  503 -0.31648393923E+02 -0.17868956019E+03  0.52636128266E+02  0.25664193017E+03  0.17367480694E+03 0.  0.
        -24    2    5    5    0    0 -0.40674206770E+02 -0.19047933067E+03  0.88257373669E+01  0.21014564714E+03  0.78399826936E+02 0.  0.
          5    1    3    3  501    0 -0.31915601402E+02  0.89824557202E+02  0.10006485468E+03  0.13828276042E+03  0.47000000000E+01 0. -1.
        -13    1    4    4    0    0 -0.16230881997E+02 -0.16048256452E+01 -0.32159730151E+01  0.16624063227E+02  0.00000000000E+00 0.  1.
         14    1    4    4    0    0  0.79794877322E+02  0.90469828638E+02  0.76551535215E+01  0.12087437163E+03  0.00000000000E+00 0. -1.
         -5    1    5    5    0  503  0.90258128472E+01  0.11789770473E+02  0.43810390899E+02  0.46496283035E+02  0.47000000000E+01 0.  1.
         13    1    6    6    0    0 -0.23792393787E+01 -0.61957615735E+02  0.38246640244E+02  0.72850617139E+02  0.00000000000E+00 0. -1.
        -14    1    6    6    0    0 -0.38294967391E+02 -0.12852171493E+03 -0.29420902877E+02  0.13729503000E+03  0.00000000000E+00 0.  1.
</event>
<event>
12    1  0.9246030E-003  0.1827083E+03  0.7818608E-02  0.1165645E+00
         21   -1    0    0  503  502  0.00000000000E+00  0.00000000000E+00  0.72757111154E+03  0.72757111154E+03  0.00000000000E+00 0.  1.
         21   -1    0    0  501  503 -0.00000000000E+00 -0.00000000000E+00 -0.54748434285E+02  0.54748434285E+02  0.00000000000E+00 0.  1.
          6    2    1    2  501    0  0.16846333797E+02 -0.52142692161E+02  0.17638029749E+03  0.25395344041E+03  0.17429767997E+03 0.  0.
         24    2    3    3    0    0 -0.55186200081E+02 -0.71898516758E+01  0.94837578140E+02  0.13613685039E+03  0.80261230737E+02 0.  0.
         -6    2    1    2    0  502 -0.16846333797E+02  0.52142692161E+02  0.49644237976E+03  0.52836610541E+03  0.17237472443E+03 0.  0.
        -24    2    5    5    0    0  0.16644660272E+02  0.65312207474E+02  0.16254291948E+03  0.19250002735E+03  0.78059789244E+02 0.  0.
          5    1    3    3  501    0  0.72032533878E+02 -0.44952840485E+02  0.81542719350E+02  0.11781659002E+03  0.47000000000E+01 0. -1.
        -13    1    4    4    0    0 -0.16351786506E+02 -0.41896597348E+02  0.36410950284E+02  0.57865906126E+02  0.00000000000E+00 0.  1.
         14    1    4    4    0    0 -0.38834413575E+02  0.34706745672E+02  0.58426627856E+02  0.78270944261E+02  0.00000000000E+00 0. -1.
         -5    1    5    5    0  502 -0.33490994069E+02 -0.13169515313E+02  0.33389946028E+03  0.33586607806E+03  0.47000000000E+01 0.  1.
         13    1    6    6    0    0  0.72667874398E+01 -0.10449676487E+02  0.76169800070E+02  0.77225904857E+02  0.00000000000E+00 0. -1.
        -14    1    6    6    0    0  0.93778728324E+01  0.75761883962E+02  0.86373119408E+02  0.11527412249E+03  0.00000000000E+00 0.  1.
</event>
<event>
12    1  0.9246030E-003  0.1882653E+03  0.7818608E-02  0.1160235E+00
         21   -1    0    0  503  502  0.00000000000E+00  0.00000000000E+00  0.70038272541E+02  0.70038272541E+02  0.00000000000E+00 0.  1.
         21   -1    0    0  501  503 -0.00000000000E+00 -0.00000000000E+00 -0.61775992908E+03  0.61775992908E+03  0.00000000000E+00 0.  1.
          6    2    1    2  501    0  0.68511796163E+02 -0.32981895920E+02 -0.42110069762E+03  0.46091343848E+03  0.17127092154E+03 0.  0.
         24    2    3    3    0    0  0.43009540571E+02 -0.84660180205E+02 -0.33727281358E+03  0.35907918958E+03  0.78535004406E+02 0.  0.
         -6    2    1    2    0  502 -0.68511796163E+02  0.32981895920E+02 -0.12662095891E+03  0.22688476313E+03  0.17222705024E+03 0.  0.
        -24    2    5    5    0    0 -0.52651643781E+02  0.78380506630E+02 -0.12915204799E+03  0.17850010958E+03  0.79160205957E+02 0.  0.
          5    1    3    3  501    0  0.25502255592E+02  0.51678284285E+02 -0.83827884045E+02  0.10183424891E+03  0.47000000000E+01 0. -1.
        -13    1    4    4    0    0 -0.72034959607E+01  0.47481533181E+01 -0.10282952563E+03  0.10319082641E+03  0.00000000000E+00 0.  1.
         14    1    4    4    0    0  0.50213036532E+02 -0.89408333523E+02 -0.23444328795E+03  0.25588836317E+03  0.00000000000E+00 0. -1.
         -5    1    5    5    0  502 -0.15860152383E+02 -0.45398610710E+02  0.25310890729E+01  0.48384653558E+02  0.47000000000E+01 0.  1.
         11    1    6    6    0    0  0.74823580322E+01  0.59175311664E+02 -0.70313467619E+02  0.92204592732E+02  0.00000000000E+00 0. -1.
        -12    1    6    6    0    0 -0.60134001813E+02  0.19205194966E+02 -0.58838580367E+02  0.86295516844E+02  0.00000000000E+00 0.  1.
</event>
<event>
12    1  0.9246030E-003  0.1936497E+03  0.7818608E-02  0.1155304E+00
         21   -1    0    0  503  502  0.00000000000E+00  0.00000000000E+00  0.63886404013E+03  0.63886404013E+03  0.00000000000E+00 0.  1.
         21   -1    0    0  501  503 -0.00000000000E+00 -0.00000000000E+00 -0.72960952797E+02  0.72960952797E+02  0.00000000000E+00 0.  1.
          6    2    1    2  501    0  0.55668237305E+02 -0.68091762954E+02  0.12512712547E+03  0.23055798555E+03  0.17252462533E+03 0.  0.
         24    2    3    3    0    0 -0.15107393634E+02 -0.39586725671E+02  0.12526409970E+03  0.15411299979E+03  0.79147835340E+02 0.  0.
         -6    2    1    2    0  502 -0.55668237305E+02  0.68091762954E+02  0.44077596187E+03  0.48126700738E+03  0.17204372411E+03 0.  0.
        -24    2    5    5    0    0 -0.89382591032E+02  0.61920201336E+02  0.22528780288E+03  0.26301948166E+03  0.81248351934E+02 0.  0.
          5    1    3    3  501    0  0.70775630939E+02 -0.28505037282E+02 -0.13697423669E+00  0.76444985756E+02  0.47000000000E+01 0. -1.
        -11    1    4    4    0    0  0.30406819050E+02 -0.86182733778E+01  0.66284286590E+02  0.73433343444E+02  0.00000000000E+00 0.  1.
         12    1    4    4    0    0 -0.45514212684E+02 -0.30968452294E+02  0.58979813114E+02  0.80679656349E+02  0.00000000000E+00 0. -1.
         -5    1    5    5    0  502  0.33714353727E+02  0.61715616179E+01  0.21548815899E+03  0.21824752572E+03  0.47000000000E+01 0.  1.
         13    1    6    6    0    0 -0.22280742884E+02 -0.10304444161E+02  0.10329280755E+03  0.10616975635E+03  0.00000000000E+00 0. -1.
        -14    1    6    6    0    0 -0.67101848148E+02  0.72224645497E+02  0.12199499533E+03  0.15684972530E+03  0.00000000000E+00 0.  1.
</event>
<event>
12    1  0.9246030E-003  0.2361526E+03  0.7818608E-02  0.1122558E+00
         21   -1    0    0  501  502  0.00000000000E+00  0.00000000000E+00  0.25789715986E+03  0.25789715986E+03  0.00000000000E+00 0.  1.
         21   -1    0    0  502  503 -0.00000000000E+00 -0.00000000000E+00 -0.23907472908E+03  0.23907472908E+03  0.00000000000E+00 0.  1.
          6    2    1    2  501    0 -0.13219169332E+03 -0.92151293741E+02 -0.68969740777E+02  0.24502840930E+03  0.17121796489E+03 0.  0.
         24    2    3    3    0    0 -0.12951465687E+03 -0.12653071105E+03 -0.70762779744E+02  0.21017993950E+03  0.79900993673E+02 0.  0.
         -6    2    1    2    0  503  0.13219169332E+03  0.92151293741E+02  0.87792171560E+02  0.25194347965E+03  0.17263124522E+03 0.  0.
        -24    2    5    5    0    0  0.12908609814E+03  0.53454201466E+02  0.12018540451E+03  0.20116433813E+03  0.80634899955E+02 0.  0.
          5    1    3    3  501    0 -0.26770364471E+01  0.34379417305E+02  0.17930389663E+01  0.34848469796E+02  0.47000000000E+01 0. -1.
        -13    1    4    4    0    0 -0.63732732627E+02 -0.10449303754E+03 -0.19544010851E+02  0.12394605464E+03  0.00000000000E+00 0.  1.
         14    1    4    4    0    0 -0.65781924246E+02 -0.22037673511E+02 -0.51218768893E+02  0.86233884861E+02  0.00000000000E+00 0. -1.
         -5    1    5    5    0  503  0.31055951831E+01  0.38697092276E+02 -0.32393232952E+02  0.50779141516E+02  0.47000000000E+01 0.  1.
         13    1    6    6    0    0  0.36367619906E+02 -0.17858234732E+02  0.51469114807E+02  0.65502596165E+02  0.00000000000E+00 0. -1.
        -14    1    6    6    0    0  0.92718478232E+02  0.71312436198E+02  0.68716289705E+02  0.13566174196E+03  0.00000000000E+00 0.  1.
</event>
<event>
12    1  0.9246030E-003  0.2314242E+03  0.7818608E-02  0.1125647E+00
         21   -1    0    0  501  502  0.00000000000E+00  0.00000000000E+00  0.12630039109E+04  0.12630039109E+04  0.00000000000E+00 0. -1.
         21   -1    0    0  502  503 -0.00000000000E+00 -0.00000000000E+00 -0.56450588953E+02  0.56450588953E+02  0.00000000000E+00 0. -1.
          6    2    1    2  501    0 -0.15141918445E+03 -0.32480802062E+02  0.93239712639E+03  0.96068049731E+03  0.17192976672E+03 0.  0.
         24    2    3    3    0    0 -0.73249937155E+02 -0.81194890540E+02  0.63811268248E+03  0.65228316015E+03  0.79544716541E+02 0.  0.
         -6    2    1    2    0  503  0.15141918445E+03  0.32480802062E+02  0.27415619553E+03  0.35877400252E+03  0.17197207161E+03 0.  0.
        -24    2    5    5    0    0  0.72035568441E+01  0.11851102211E+01  0.69327798168E+02  0.10627780465E+03  0.80220523835E+02 0.  0.
          5    1    3    3  501    0 -0.78169247295E+02  0.48714088478E+02  0.29428444392E+03  0.30839733716E+03  0.47000000000E+01 0. -1.
        -11    1    4    4    0    0 -0.87070649355E+02 -0.64855003162E+02  0.44792039636E+03  0.46089060621E+03  0.00000000000E+00 0.  1.
         12    1    4    4    0    0  0.13820712200E+02 -0.16339887378E+02  0.19019228611E+03  0.19139255394E+03  0.00000000000E+00 0. -1.
         -5    1    5    5    0  503  0.14421562761E+03  0.31295691841E+02  0.20482839736E+03  0.25249619787E+03  0.47000000000E+01 0.  1.
         11    1    6    6    0    0  0.33826249366E+02 -0.75713010968E+01  0.70142650123E+02  0.78240214166E+02  0.00000000000E+00 0. -1.
        -12    1    6    6    0    0 -0.26622692522E+02  0.87564113179E+01 -0.81485195491E+00  0.28037590481E+02  0.00000000000E+00 0.  1.
</event>
<event>
12    1  0.9246030E-003  0.2048399E+03  0.7818608E-02  0.1145859E+00
         21   -1    0    0  501  502  0.00000000000E+00  0.00000000000E+00  0.21183590804E+03  0.21183590804E+03  0.00000000000E+00 0. -1.
         21   -1    0    0  502  503 -0.00000000000E+00 -0.00000000000E+00 -0.23875696512E+03  0.23875696512E+03  0.00000000000E+00 0. -1.
          6    2    1    2  501    0 -0.48734417963E+02  0.99534599209E+02  0.80311324492E+02  0.21938267615E+03  0.17145457072E+03 0.  0.
         24    2    3    3    0    0  0.34657888603E+02  0.30868197787E+02  0.55506518789E+02  0.10844701974E+03  0.80782223198E+02 0.  0.
         -6    2    1    2    0  503  0.48734417963E+02 -0.99534599209E+02 -0.10723238157E+03  0.23121019700E+03  0.17227069283E+03 0.  0.
        -24    2    5    5    0    0 -0.31095246426E+01  0.97250791875E+01 -0.38328704144E+02  0.91943264565E+02  0.82947139968E+02 0.  0.
          5    1    3    3  501    0 -0.83392306566E+02  0.68666401422E+02  0.24804805703E+02  0.11093565642E+03  0.47000000000E+01 0. -1.
        -11    1    4    4    0    0  0.14351121162E+02  0.32265236864E+02 -0.12499762940E+02  0.37459902056E+02  0.00000000000E+00 0.  1.
         12    1    4    4    0    0  0.20306767441E+02 -0.13970390764E+01  0.68006281729E+02  0.70987117682E+02  0.00000000000E+00 0. -1.
         -5    1    5    5    0  503  0.51843942606E+02 -0.10925967840E+03 -0.68903677423E+02  0.13926693244E+03  0.47000000000E+01 0.  1.
         11    1    6    6    0    0 -0.60548573511E+01 -0.34923371810E+02 -0.29985367019E+02  0.46426559547E+02  0.00000000000E+00 0. -1.
        -12    1    6    6    0    0  0.29453327085E+01  0.44648450998E+02 -0.83433371252E+01  0.45516705018E+02  0.00000000000E+00 0.  1.
</event>
<event>
12    1  0.9246030E-003  0.1848075E+03  0.7818608E-02  0.1163405E+00
         21   -1    0    0  501  502  0.00000000000E+00  0.00000000000E+00  0.43242852174E+03  0.43242852174E+03  0.00000000000E+00 0. -1.
         21   -1    0    0  502  503 -0.00000000000E+00 -0.00000000000E+00 -0.10949124972E+03  0.10949124972E+03  0.00000000000E+00 0. -1.
          6    2    1    2  501    0 -0.45166613828E+02 -0.43694380623E+02  0.30501378507E+03  0.35624514150E+03  0.17299702269E+03 0.  0.
         24    2    3    3    0    0  0.28830016688E+02 -0.64646829789E+02  0.17153617444E+03  0.20212548347E+03  0.80122839827E+02 0.  0.
         -6    2    1    2    0  503  0.45166613828E+02  0.43694380623E+02  0.17923486953E+02  0.18567462996E+03  0.17379469188E+03 0.  0.
        -24    2    5    5    0    0 -0.27116441430E+01  0.58281064527E+02 -0.42340874215E+02  0.10719544699E+03  0.79335230065E+02 0.  0.
          5    1    3    3  501    0 -0.73996630516E+02  0.20952449166E+02  0.13347761063E+03  0.15411965803E+03  0.47000000000E+01 0. -1.
        -11    1    4    4    0    0 -0.47692287132E+01  0.64414866690E+01 -0.45962659974E+01  0.92392615584E+01  0.00000000000E+00 0.  1.
         12    1    4    4    0    0  0.33599245401E+02 -0.71088316458E+02  0.17613244044E+03  0.19288622191E+03  0.00000000000E+00 0. -1.
         -5    1    5    5    0  503  0.47878257971E+02 -0.14586683903E+02  0.60264361168E+02  0.78479182976E+02  0.47000000000E+01 0.  1.
         13    1    6    6    0    0  0.26337994984E+02 -0.11008802247E+01 -0.30018446491E+02  0.39950081937E+02  0.00000000000E+00 0. -1.
        -14    1    6    6    0    0 -0.29049639127E+02  0.59381944751E+02 -0.12322427724E+02  0.67245365051E+02  0.00000000000E+00 0.  1.
</event>
<event>
12    1  0.9246030E-003  0.3411528E+03  0.7818608E-02  0.1066355E+00
         21   -1    0    0  503  502  0.00000000000E+00  0.00000000000E+00  0.68398146079E+03  0.68398146079E+03  0.00000000000E+00 0.  1.
         21   -1    0    0  501  503 -0.00000000000E+00 -0.00000000000E+00 -0.17315757237E+03  0.17315757237E+03  0.00000000000E+00 0.  1.
          6    2    1    2  501    0  0.23378076160E+03 -0.17907507267E+03  0.19706967349E+03  0.39398186604E+03  0.17223219331E+03 0.  0.
         24    2    3    3    0    0  0.56903767965E+02 -0.41681416718E+02  0.10750804184E+03  0.15272295235E+03  0.82407170827E+02 0.  0.
         -6    2    1    2    0  502 -0.23378076160E+03  0.17907507267E+03  0.31375421493E+03  0.46315716713E+03  0.17132287627E+03 0.  0.
        -24    2    5    5    0    0 -0.56261100404E+02  0.17681235414E+02  0.71033216090E+02  0.12184092947E+03  0.79508218449E+02 0.  0.
          5    1    3    3  501    0  0.17687699364E+03 -0.13739365595E+03  0.89561631651E+02  0.24125891369E+03  0.47000000000E+01 0. -1.
        -13    1    4    4    0    0  0.51238885386E+02 -0.61325531043E+02  0.10525484260E+03  0.13215455355E+03  0.00000000000E+00 0.  1.
         14    1    4    4    0    0  0.56648825791E+01  0.19644114325E+02  0.22531992473E+01  0.20568398798E+02  0.00000000000E+00 0. -1.
         -5    1    5    5    0  502 -0.17751966120E+03  0.16139383725E+03  0.24272099884E+03  0.34131623766E+03  0.47000000000E+01 0.  1.
         13    1    6    6    0    0 -0.48907844804E+01  0.36029470975E+02  0.53225059612E+02  0.64458897929E+02  0.00000000000E+00 0. -1.
        -14    1    6    6    0    0 -0.51370315923E+02 -0.18348235561E+02  0.17808156478E+02  0.57382031538E+02  0.00000000000E+00 0.  1.
</event>
<event>
12    1  0.9246030E-003  0.2096604E+03  0.7818608E-02  0.1142627E+00
         21   -1    0    0  503  502  0.00000000000E+00  0.00000000000E+00  0.12175252225E+03  0.12175252225E+03  0.00000000000E+00 0. -1.
         21   -1    0    0  501  503 -0.00000000000E+00 -0.00000000000E+00 -0.36986855088E+03  0.36986855088E+03  0.00000000000E+00 0.  1.
          6    2    1    2  501    0 -0.11413549153E+03 -0.18673995428E+01 -0.74712227662E+02  0.22257451980E+03  0.17586103120E+03 0.  0.
         24    2    3    3    0    0  0.11339389576E+02  0.13943926239E+02 -0.31804271789E+02  0.88943960089E+02  0.81095631802E+02 0.  0.
         -6    2    1    2    0  502  0.11413549153E+03  0.18673995428E+01 -0.17340380097E+03  0.26904655334E+03  0.17113378412E+03 0.  0.
        -24    2    5    5    0    0  0.76985126382E+01 -0.35538735546E+02 -0.10938918607E+03  0.13924666760E+03  0.78111276951E+02 0.  0.
          5    1    3    3  501    0 -0.12547488111E+03 -0.15811325782E+02 -0.42907955873E+02  0.13363055971E+03  0.47000000000E+01 0. -1.
        -11    1    4    4    0    0  0.13348296845E+02  0.52329291001E+01 -0.58791575589E+02  0.60514543177E+02  0.00000000000E+00 0.  1.
         12    1    4    4    0    0 -0.20089072689E+01  0.87109971394E+01  0.26987303800E+02  0.28429416912E+02  0.00000000000E+00 0. -1.
         -5    1    5    5    0  502  0.10643697889E+03  0.37406135088E+02 -0.64014614893E+02  0.12979988574E+03  0.47000000000E+01 0.  1.
         11    1    6    6    0    0  0.32040594306E+02  0.93011760780E+01 -0.29951310618E+02  0.44835171101E+02  0.00000000000E+00 0. -1.
        -12    1    6    6    0    0 -0.24342081668E+02 -0.44839911624E+02 -0.79437875456E+02  0.94411496499E+02  0.00000000000E+00 0.  1.
</event>
<event>
12    1  0.9246030E-003  0.1864577E+03  0.7818608E-02  0.1161857E+00
         21   -1    0    0  503  502  0.00000000000E+00  0.00000000000E+00  0.32976281869E+03  0.32976281869E+03  0.00000000000E+00 0.  1.
         21   -1    0    0  501  503 -0.00000000000E+00 -0.00000000000E+00 -0.11104068329E+03  0.11104068329E+03  0.00000000000E+00 0.  1.
          6    2    1    2  501    0 -0.98700639196E+00 -0.67551326310E+02  0.58296502160E+02  0.19535856558E+03  0.17378817886E+03 0.  0.
         24    2    3    3    0    0 -0.32579615382E+02 -0.50243753723E+02  0.98961221868E+02  0.14083009191E+03  0.80336325703E+02 0.  0.
         -6    2    1    2    0  502  0.98700639196E+00  0.67551326310E+02  0.16042563324E+03  0.24544493640E+03  0.17303952478E+03 0.  0.
        -24    2    5    5    0    0 -0.22511022440E+02  0.74952381407E+02  0.32439563690E+02  0.11502462749E+03  0.77805745468E+02 0.  0.
          5    1    3    3  501    0  0.31592608990E+02 -0.17307572588E+02 -0.40664719707E+02  0.54528473668E+02  0.47000000000E+01 0. -1.
        -13    1    4    4    0    0  0.84465247024E+00  0.59125921521E+00 -0.13195110700E+02  0.13235330432E+02  0.00000000000E+00 0.  1.
         14    1    4    4    0    0 -0.33424267852E+02 -0.50835012938E+02  0.11215633257E+03  0.12759476148E+03  0.00000000000E+00 0. -1.
         -5    1    5    5    0  502  0.23498028832E+02 -0.74010550971E+01  0.12798606955E+03  0.13042030890E+03  0.47000000000E+01 0.  1.
         11    1    6    6    0    0  0.71158084993E+01 -0.14459651324E+02  0.35614830782E+01  0.16504557211E+02  0.00000000000E+00 0. -1.
        -12    1    6    6    0    0 -0.29626830939E+02  0.89412032732E+02  0.28878080611E+02  0.98520070283E+02  0.00000000000E+00 0.  1.
</event>
<event>
12    1  0.9246030E-003  0.1764600E+03  0.7818608E-02  0.1171634E+00
         21   -1    0    0  503  502  0.00000000000E+00  0.00000000000E+00  0.30715350875E+03  0.30715350875E+03  0.00000000000E+00 0. -1.
         21   -1    0    0  501  503 -0.00000000000E+00 -0.00000000000E+00 -0.14221841422E+03  0.14221841422E+03  0.00000000000E+00 0.  1.
          6    2    1    2  501    0  0.26956282227E+02  0.44652170786E+02 -0.39391498531E+02  0.17939509825E+03  0.16706422002E+03 0.  0.
         24    2    3    3    0    0  0.62563809293E+02  0.66048154611E+02 -0.60233641518E+02  0.13268140612E+03  0.75496191957E+02 0.  0.
         -6    2    1    2    0  502 -0.26956282227E+02 -0.44652170786E+02  0.20432659306E+03  0.26997682471E+03  0.16857541856E+03 0.  0.
        -24    2    5    5    0    0 -0.45018444541E+01 -0.51085939728E+02  0.38939686563E+02  0.10288249806E+03  0.80240073385E+02 0.  0.
          5    1    3    3  501    0 -0.35607527065E+02 -0.21395983825E+02  0.20842142986E+02  0.46713692124E+02  0.47000000000E+01 0. -1.
        -11    1    4    4    0    0  0.64421168489E+02  0.14139552023E+02 -0.28797218555E+02  0.71967309783E+02  0.00000000000E+00 0.  1.
         12    1    4    4    0    0 -0.18573591970E+01  0.51908602588E+02 -0.31436422963E+02  0.60714096341E+02  0.00000000000E+00 0. -1.
         -5    1    5    5    0  502 -0.22454437773E+02  0.64337689421E+01  0.16538690650E+03  0.16709432665E+03  0.47000000000E+01 0.  1.
         13    1    6    6    0    0  0.17635774007E+01 -0.16314928046E+02  0.59692749815E+02  0.61907281178E+02  0.00000000000E+00 0. -1.
        -14    1    6    6    0    0 -0.62654218548E+01 -0.34771011683E+02 -0.20753063252E+02  0.40975216885E+02  0.00000000000E+00 0.  1.
</event>
<event>
12    1  0.9246030E-003  0.3034158E+03  0.7818608E-02  0.1083657E+00
         21   -1    0    0  503  502  0.00000000000E+00  0.00000000000E+00  0.35695188759E+03  0.35695188759E+03  0.00000000000E+00 0. -1.
         21   -1    0    0  501  503 -0.00000000000E+00 -0.00000000000E+00 -0.31123566251E+03  0.31123566251E+03  0.00000000000E+00 0.  1.
          6    2    1    2  501    0  0.25025011887E+03 -0.50297853132E+01 -0.11645648892E+03  0.32415103447E+03  0.16988631082E+03 0.  0.
         24    2    3    3    0    0  0.88109224773E+02 -0.30252635567E+02 -0.10073132907E+03  0.15924126410E+03  0.80824019242E+02 0.  0.
         -6    2    1    2    0  502 -0.25025011887E+03  0.50297853132E+01  0.16217271400E+03  0.34403651562E+03  0.17149552234E+03 0.  0.
        -24    2    5    5    0    0 -0.14519395158E+03 -0.28635426907E+01  0.16808813227E+03  0.23841367204E+03  0.86590850290E+02 0.  0.
          5    1    3    3  501    0  0.16214089410E+03  0.25222850253E+02 -0.15725159851E+02  0.16490977038E+03  0.47000000000E+01 0. -1.
        -13    1    4    4    0    0  0.21316535420E+02 -0.27600733327E+02 -0.83083114916E+02  0.90105488993E+02  0.00000000000E+00 0.  1.
         14    1    4    4    0    0  0.66792689353E+02 -0.26519022399E+01 -0.17648214153E+02  0.69135775105E+02  0.00000000000E+00 0. -1.
         -5    1    5    5    0  502 -0.10505616729E+03  0.78933280039E+01 -0.59154182748E+01  0.10562284358E+03  0.47000000000E+01 0.  1.
         11    1    6    6    0    0  0.91050085497E+01  0.37009163074E+01 -0.42241748968E+00  0.98374996183E+01  0.00000000000E+00 0. -1.
        -12    1    6    6    0    0 -0.15429896013E+03 -0.65644589981E+01  0.16851054976E+03  0.22857617243E+03  0.00000000000E+00 0.  1.
</event>
<event>
12    1  0.9246030E-003  0.2038611E+03  0.7818608E-02  0.1146714E+00
         21   -1    0    0  503  502  0.00000000000E+00  0.00000000000E+00  0.83040317036E+02  0.83040317036E+02  0.00000000000E+00 0. -1.
         21   -1    0    0  501  503 -0.00000000000E+00 -0.00000000000E+00 -0.57314569888E+03  0.57314569888E+03  0.00000000000E+00 0. -1.
          6    2    1    2  501    0  0.87893417694E+02  0.64203888224E+02 -0.36419618422E+03  0.41737058632E+03  0.17237155677E+03 0.  0.
         24    2    3    3    0    0 -0.13444889549E+01 -0.14032698721E+02 -0.10200410487E+03  0.12953183980E+03  0.78580759910E+02 0.  0.
         -6    2    1    2    0  502 -0.87893417694E+02 -0.64203888224E+02 -0.12590919762E+03  0.23881542960E+03  0.17126672541E+03 0.  0.
        -24    2    5    5    0    0 -0.24406658231E+02 -0.98823191492E+02 -0.68765176192E+02  0.14653003546E+03  0.79879244447E+02 0.  0.
          5    1    3    3  501    0  0.89237906649E+02  0.78236586944E+02 -0.26219207935E+03  0.28783874652E+03  0.47000000000E+01 0. -1.
        -13    1    4    4    0    0 -0.18712277410E+02 -0.42448773432E+02 -0.55542943926E+02  0.72367577766E+02  0.00000000000E+00 0.  1.
         14    1    4    4    0    0  0.17367788455E+02  0.28416074711E+02 -0.46461160941E+02  0.57164262033E+02  0.00000000000E+00 0. -1.
         -5    1    5    5    0  502 -0.63486759463E+02  0.34619303268E+02 -0.57144021433E+02  0.92285394139E+02  0.47000000000E+01 0.  1.
         11    1    6    6    0    0 -0.19541781560E+02 -0.36417434787E+02  0.13209891775E+02  0.43389077240E+02  0.00000000000E+00 0. -1.
        -12    1    6    6    0    0 -0.48648766705E+01 -0.62405756705E+02 -0.81975067967E+02  0.10314095822E+03  0.00000000000E+00 0.  1.
</event>
<event>
12    1  0.9246030E-003  0.2346865E+03  0.7818608E-02  0.1124191E+00
         21   -1    0    0  501  502  0.00000000000E+00  0.00000000000E+00  0.96023243347E+03  0.96023243347E+03  0.00000000000E+00 0. -1.
         21   -1    0    0  502  503 -0.00000000000E+00 -0.00000000000E+00 -0.99618326644E+02  0.99618326644E+02  0.00000000000E+00 0.  1.
          6    2    1    2  501    0 -0.96573645386E+02  0.12665614108E+03  0.78247469910E+03  0.81691149319E+03  0.17236439863E+03 0.  0.
         24    2    3    3    0    0 -0.92156076257E+02  0.34674842907E+02  0.59798573710E+03  0.61066324173E+03  0.75017104070E+02 0.  0.
         -6    2    1    2    0  503  0.96573645386E+02 -0.12665614108E+03  0.78139407725E+02  0.24293926693E+03  0.16596829010E+03 0.  0.
        -24    2    5    5    0    0  0.74053582344E+01 -0.52911930768E+02  0.82794794704E+02  0.12703864305E+03  0.80183084555E+02 0.  0.
          5    1    3    3  501    0 -0.44175691285E+01  0.91981298170E+02  0.18448896200E+03  0.20624825146E+03  0.47000000000E+01 0. -1.
        -13    1    4    4    0    0 -0.22917250099E+02 -0.23885277427E+02  0.15893115911E+03  0.16234167723E+03  0.00000000000E+00 0.  1.
         14    1    4    4    0    0 -0.69238826159E+02  0.58560120334E+02  0.43905457799E+03  0.44832156450E+03  0.00000000000E+00 0. -1.
         -5    1    5    5    0  503  0.89168287151E+02 -0.73744210309E+02 -0.46553869787E+01  0.11590062388E+03  0.47000000000E+01 0.  1.
         11    1    6    6    0    0  0.10972603603E+02 -0.13693810401E+02  0.85769778205E+02  0.87546406702E+02  0.00000000000E+00 0. -1.
        -12    1    6    6    0    0 -0.35672453689E+01 -0.39218120367E+02 -0.29749835007E+01  0.39492236344E+02  0.00000000000E+00 0.  1.
</event>
<event>
12    1  0.9246030E-003  0.2106081E+03  0.7818608E-02  0.1141619E+00
         21   -1    0    0  501  502  0.00000000000E+00  0.00000000000E+00  0.41389744737E+03  0.41389744737E+03  0.00000000000E+00 0. -1.
         21   -1    0    0  502  503 -0.00000000000E+00 -0.00000000000E+00 -0.10814539722E+03  0.10814539722E+03  0.00000000000E+00 0.  1.
          6    2    1    2  501    0  0.18021112836E+02 -0.12039097908E+03  0.11542090939E+03  0.24016195176E+03  0.17186340039E+03 0.  0.
         24    2    3    3    0    0  0.70210065527E+02 -0.10938837744E+03  0.62159835961E+02  0.16463992869E+03  0.79669256871E+02 0.  0.
         -6    2    1    2    0  503 -0.18021112836E+02  0.12039097908E+03  0.19033114076E+03  0.28188089283E+03  0.16855902897E+03 0.  0.
        -24    2    5    5    0    0  0.86562197349E+01  0.11105182101E+02  0.30687278371E+02  0.86526552483E+02  0.79667308359E+02 0.  0.
          5    1    3    3  501    0 -0.52188952690E+02 -0.11002601640E+02  0.53261073433E+02  0.75522023073E+02  0.47000000000E+01 0. -1.
        -13    1    4    4    0    0  0.44673290437E+02 -0.32888917710E+02 -0.10062391949E+02  0.56379389127E+02  0.00000000000E+00 0.  1.
         14    1    4    4    0    0  0.25536775090E+02 -0.76499459734E+02  0.72222227911E+02  0.10826053956E+03  0.00000000000E+00 0. -1.
         -5    1    5    5    0  503 -0.26677332571E+02  0.10928579698E+03  0.15964386238E+03  0.19535434035E+03  0.47000000000E+01 0.  1.
         13    1    6    6    0    0 -0.27848989162E+02  0.18960227866E+02  0.35423761402E+02  0.48886596424E+02  0.00000000000E+00 0. -1.
        -14    1    6    6    0    0  0.36505208897E+02 -0.78550457652E+01 -0.47364830311E+01  0.37639956058E+02  0.00000000000E+00 0.  1.
</event>
<event>
12    1  0.9246030E-003  0.1835836E+03  0.7818608E-02  0.1164684E+00
         21   -1    0    0  501  502  0.00000000000E+00  0.00000000000E+00  0.50381113275E+02  0.50381113275E+02  0.00000000000E+00 0. -1.
         21   -1    0    0  502  503 -0.00000000000E+00 -0.00000000000E+00 -0.87018388347E+03  0.87018388347E+03  0.00000000000E+00 0.  1.
          6    2    1    2  501    0  0.60134343371E+02 -0.14164716677E+02 -0.18489936456E+03  0.25965254629E+03  0.17150770049E+03 0.  0.
         24    2    3    3    0    0  0.13644300272E+02 -0.52560841514E+02 -0.46192989119E+02  0.10833455298E+03  0.81570669580E+02 0.  0.
         -6    2    1    2    0  503 -0.60134343371E+02  0.14164716677E+02 -0.63490340564E+03  0.66091245046E+03  0.17287612394E+03 0.  0.
        -24    2    5    5    0    0 -0.15866086192E+02  0.86897523744E+01 -0.13420536270E+03  0.15820948246E+03  0.81804134841E+02 0.  0.
          5    1    3    3  501    0  0.46490043099E+02  0.38396124838E+02 -0.13870637544E+03  0.15131799330E+03  0.47000000000E+01 0. -1.
        -13    1    4    4    0    0 -0.26608242556E+02 -0.40914466154E+02 -0.45044409286E+02  0.66415291316E+02  0.00000000000E+00 0.  1.
         14    1    4    4    0    0  0.40252542827E+02 -0.11646375360E+02 -0.11485798323E+01  0.41919261667E+02  0.00000000000E+00 0. -1.
         -5    1    5    5    0  503 -0.44268257178E+02  0.54749643022E+01 -0.50069804294E+03  0.50270296800E+03  0.47000000000E+01 0.  1.
         13    1    6    6    0    0  0.66556668457E+01  0.41035124208E+02 -0.48516980571E+02  0.63891131807E+02  0.00000000000E+00 0. -1.
        -14    1    6    6    0    0 -0.22521753038E+02 -0.32345371833E+02 -0.85688382127E+02  0.94318350656E+02  0.00000000000E+00 0.  1.
</event>
<event>
12    1  0.9246030E-003  0.2274021E+03  0.7818608E-02  0.1129037E+00
         21   -1    0    0  503  502  0.00000000000E+00  0.00000000000E+00  0.44409916638E+03  0.44409916638E+03  0.00000000000E+00 0. -1.
         21   -1    0    0  501  503 -0.00000000000E+00 -0.00000000000E+00 -0.13935268500E+03  0.13935268500E+03  0.00000000000E+00 0. -1.
          6    2    1    2  501    0 -0.73720150351E+02 -0.11528399433E+03  0.29232754374E+02  0.22621310443E+03  0.17774350838E+03 0.  0.
         24    2    3    3    0    0  0.51898692558E+01 -0.30203826901E+02  0.62473127672E+02  0.10541393845E+03  0.79183336860E+02 0.  0.
         -6    2    1    2    0  502  0.73720150351E+02  0.11528399433E+03  0.27551372701E+03  0.35723874695E+03  0.18162226911E+03 0.  0.
        -24    2    5    5    0    0  0.45454737520E+02  0.15363978124E+03  0.22798052590E+03  0.28977323606E+03  0.79511587847E+02 0.  0.
          5    1    3    3  501    0 -0.78910019607E+02 -0.85080167427E+02 -0.33240373298E+02  0.12079916598E+03  0.47000000000E+01 0. -1.
        -13    1    4    4    0    0  0.17562091430E+02  0.16993965571E+02  0.49062686841E+02  0.54812126042E+02  0.00000000000E+00 0.  1.
         14    1    4    4    0    0 -0.12372222174E+02 -0.47197792473E+02  0.13410440831E+02  0.50601812409E+02  0.00000000000E+00 0. -1.
         -5    1    5    5    0  502  0.28265412831E+02 -0.38355786914E+02  0.47533201105E+02  0.67465510890E+02  0.47000000000E+01 0.  1.
         11    1    6    6    0    0 -0.33710694561E+00  0.49669796857E+02  0.21546518660E+02  0.54142911145E+02  0.00000000000E+00 0. -1.
        -12    1    6    6    0    0  0.45791844466E+02  0.10396998439E+03  0.20643400724E+03  0.23563032491E+03  0.00000000000E+00 0.  1.
</event>
<event>
12    1  0.9246030E-003  0.1828126E+03  0.7818608E-02  0.1166182E+00
         21   -1    0    0  501  502  0.00000000000E+00  0.00000000000E+00  0.97802263921E+02  0.97802263921E+02  0.00000000000E+00 0. -1.
         21   -1    0    0  502  503 -0.00000000000E+00 -0.00000000000E+00 -0.38174100093E+03  0.38174100093E+03  0.00000000000E+00 0. -1.
          6    2    1    2  501    0  0.41143930686E+02  0.21672925199E+02 -0.58196632643E+02  0.19185223613E+03  0.17679902075E+03 0.  0.
         24    2    3    3    0    0  0.15219880809E+02 -0.25724207692E+02 -0.93559937520E+02  0.12711277443E+03  0.80689626857E+02 0.  0.
         -6    2    1    2    0  503 -0.41143930686E+02 -0.21672925199E+02 -0.22574210437E+03  0.28769102873E+03  0.17217459629E+03 0.  0.
        -24    2    5    5    0    0  0.23412587035E+02 -0.54787150623E+02 -0.10047861603E+03  0.14285620067E+03  0.82232357909E+02 0.  0.
          5    1    3    3  501    0  0.25924049878E+02  0.47397132890E+02  0.35363304877E+02  0.64739461692E+02  0.47000000000E+01 0. -1.
        -13    1    4    4    0    0 -0.22965433037E+02 -0.37038559060E+02 -0.33148477421E+02  0.54754794559E+02  0.00000000000E+00 0.  1.
         14    1    4    4    0    0  0.38185313845E+02  0.11314351369E+02 -0.60411460099E+02  0.72357979875E+02  0.00000000000E+00 0. -1.
         -5    1    5    5    0  503 -0.64556517721E+02  0.33114225425E+02 -0.12526348834E+03  0.14483482805E+03  0.47000000000E+01 0.  1.
         11    1    6    6    0    0  0.14056744633E+02  0.20406069259E+01 -0.80732358876E+02  0.81972372882E+02  0.00000000000E+00 0. -1.
        -12    1    6    6    0    0  0.93558424016E+01 -0.56827757549E+02 -0.19746257152E+02  0.60883827792E+02  0.00000000000E+00 0.  1.
</event>
<event>
12    1  0.9246030E-003  0.4736991E+03  0.7818608E-02  0.1021154E+00
         21   -1    0    0  503  502  0.00000000000E+00  0.00000000000E+00  0.60210095168E+03  0.60210095168E+03  0.00000000000E+00 0.  1.
         21   -1    0    0  501  503 -0.00000000000E+00 -0.00000000000E+00 -0.49786092318E+03  0.49786092318E+03  0.00000000000E+00 0. -1.
          6    2    1    2  501    0 -0.28620182375E+03  0.33389646108E+03 -0.22715535496E+03  0.52184962805E+03  0.16531529988E+03 0.  0.
         24    2    3    3    0    0 -0.96781960988E+02  0.12065090492E+03 -0.30997609388E+02  0.17565098164E+03  0.77259476653E+02 0.  0.
         -6    2    1    2    0  502  0.28620182375E+03 -0.33389646108E+03  0.33139538346E+03  0.57811224680E+03  0.17604697976E+03 0.  0.
        -24    2    5    5    0    0  0.26959624063E+03 -0.24526864385E+03  0.31064860906E+03  0.48546693377E+03  0.79603673662E+02 0.  0.
          5    1    3    3  501    0 -0.18941986276E+03  0.21324555617E+03 -0.19615774557E+03  0.34619864642E+03  0.47000000000E+01 0. -1.
        -11    1    4    4    0    0 -0.84977712367E+01 -0.82542849817E+01 -0.14228258027E+02  0.18514552737E+02  0.00000000000E+00 0.  1.
         12    1    4    4    0    0 -0.88284189751E+02  0.12890518990E+03 -0.16769351361E+02  0.15713642890E+03  0.00000000000E+00 0. -1.
         -5    1    5    5    0  502  0.16605583122E+02 -0.88627817233E+02  0.20746774402E+02  0.92645313029E+02  0.47000000000E+01 0.  1.
         13    1    6    6    0    0  0.12518817325E+03 -0.64237378902E+02  0.13281020220E+03  0.19348661292E+03  0.00000000000E+00 0. -1.
        -14    1    6    6    0    0  0.14440806737E+03 -0.18103126495E+03  0.17783840685E+03  0.29198032085E+03  0.00000000000E+00 0.  1.
</event>
<event>
12    1  0.9246030E-003  0.1861986E+03  0.7818608E-02  0.1162406E+00
         21   -1    0    0  503  502  0.00000000000E+00  0.00000000000E+00  0.17974908636E+02  0.17974908636E+02  0.00000000000E+00 0. -1.
         21   -1    0    0  501  503 -0.00000000000E+00 -0.00000000000E+00 -0.19616937715E+04  0.19616937715E+04  0.00000000000E+00 0. -1.
          6    2    1    2  501    0  0.72072621952E+02  0.59011858467E+01 -0.11305933175E+04  0.11454965860E+04  0.16938681220E+03 0.  0.
         24    2    3    3    0    0 -0.16532327715E+02  0.29056686477E+02 -0.41394929040E+03  0.42300937789E+03  0.80407150619E+02 0.  0.
         -6    2    1    2    0  502 -0.72072621952E+02 -0.59011858467E+01 -0.81312554539E+03  0.83417209415E+03  0.17158275925E+03 0.  0.
        -24    2    5    5    0    0 -0.57633836816E+02 -0.66428481751E+02 -0.43543923177E+03  0.45136525832E+03  0.79930404231E+02 0.  0.
          5    1    3    3  501    0  0.88604949668E+02 -0.23155500630E+02 -0.71664402709E+03  0.72248720811E+03  0.47000000000E+01 0. -1.
        -13    1    4    4    0    0 -0.35770325163E+02  0.96673062411E+01 -0.82529616451E+02  0.90466074104E+02  0.00000000000E+00 0.  1.
         14    1    4    4    0    0  0.19237997448E+02  0.19389380236E+02 -0.33141967395E+03  0.33254330379E+03  0.00000000000E+00 0. -1.
         -5    1    5    5    0  502 -0.14438785136E+02  0.60527295904E+02 -0.37768631361E+03  0.38280683583E+03  0.47000000000E+01 0.  1.
         13    1    6    6    0    0 -0.75370915558E+02 -0.54841686164E+02 -0.29610859010E+03  0.31043305652E+03  0.00000000000E+00 0. -1.
        -14    1    6    6    0    0  0.17737078743E+02 -0.11586795587E+02 -0.13933064167E+03  0.14093220180E+03  0.00000000000E+00 0.  1.
</event>
<event>
12    1  0.9246030E-003  0.2113067E+03  0.7818608E-02  0.1140568E+00
         21   -1    0    0  503  502  0.00000000000E+00  0.00000000000E+00  0.15191063230E+04  0.15191063230E+04  0.00000000000E+00 0.  1.
         21   -1    0    0  501  503 -0.00000000000E+00 -0.00000000000E+00 -0.31420008887E+02  0.31420008887E+02  0.00000000000E+00 0. -1.
          6    2    1    2  501    0  0.11500130142E+03  0.44891785697E+02  0.94162781141E+03  0.96500910273E+03  0.17128648916E+03 0.  0.
         24    2    3    3    0    0  0.44768923415E+02  0.70341613389E+02  0.75593330259E+03  0.76479716188E+03  0.80791966071E+02 0.  0.
         -6    2    1    2    0  502 -0.11500130142E+03 -0.44891785697E+02  0.54605850274E+03  0.58551722919E+03  0.17149333958E+03 0.  0.
        -24    2    5    5    0    0 -0.13755488000E+02 -0.26732868825E+02  0.39692968639E+03  0.40429373496E+03  0.70685136095E+02 0.  0.
          5    1    3    3  501    0  0.70232378007E+02 -0.25449827692E+02  0.18569450883E+03  0.20021194085E+03  0.47000000000E+01 0. -1.
        -13    1    4    4    0    0 -0.54766588959E+01  0.50650182461E+02  0.20534208598E+03  0.21156749999E+03  0.00000000000E+00 0.  1.
         14    1    4    4    0    0  0.50245582311E+02  0.19691430928E+02  0.55059121661E+03  0.55322966190E+03  0.00000000000E+00 0. -1.
         -5    1    5    5    0  502 -0.10124581342E+03 -0.18158916871E+02  0.14912881634E+03  0.18122349423E+03  0.47000000000E+01 0.  1.
         11    1    6    6    0    0 -0.64577010510E+00 -0.78159808318E+01  0.12456747732E+01  0.79409244445E+01  0.00000000000E+00 0. -1.
        -12    1    6    6    0    0 -0.13109717894E+02 -0.18916887993E+02  0.39568401162E+03  0.39635281052E+03  0.00000000000E+00 0.  1.
</event>
<event>
12    1  0.9246030E-003  0.1819585E+03  0.7818608E-02  0.1166486E+00
         21   -1    0    0  501  502  0.00000000000E+00  0.00000000000E+00  0.90059150295E+02  0.90059150295E+02  0.00000000000E+00 0. -1.
         21   -1    0    0  502  503 -0.00000000000E+00 -0.00000000000E+00 -0.36699772420E+03  0.36699772420E+03  0.00000000000E+00 0. -1.
          6    2    1    2  501    0  0.56641819879E+02  0.12334567367E+01 -0.11519817392E+03  0.21535905673E+03  0.17291352425E+03 0.  0.
         24    2    3    3    0    0  0.10159879532E+03  0.20074017721E+02 -0.70265370702E+02  0.14889746494E+03  0.80671874570E+02 0.  0.
         -6    2    1    2    0  503 -0.56641819879E+02 -0.12334567367E+01 -0.16174039998E+03  0.24169781776E+03  0.17043491705E+03 0.  0.
        -24    2    5    5    0    0 -0.34874065739E+02 -0.75916619767E+00 -0.18842416206E+03  0.20693903138E+03  0.78123754811E+02 0.  0.
          5    1    3    3  501    0 -0.44956975442E+02 -0.18840560984E+02 -0.44932803219E+02  0.66461591797E+02  0.47000000000E+01 0. -1.
        -11    1    4    4    0    0  0.69047581320E+02  0.27412503942E+02 -0.84593070941E+02  0.11258330920E+03  0.00000000000E+00 0.  1.
         12    1    4    4    0    0  0.32551214001E+02 -0.73384862212E+01  0.14327700239E+02  0.36314155740E+02  0.00000000000E+00 0. -1.
         -5    1    5    5    0  503 -0.21767754139E+02 -0.47429053898E+00  0.26683762079E+02  0.34758786378E+02  0.47000000000E+01 0.  1.
         11    1    6    6    0    0  0.12666694002E+01 -0.35237755420E+02 -0.87285333426E+02  0.94138373098E+02  0.00000000000E+00 0. -1.
        -12    1    6    6    0    0 -0.36140735139E+02  0.34478589222E+02 -0.10113882864E+03  0.11280065828E+03  0.00000000000E+00 0.  1.
</event>
<event>
12    1  0.9246030E-003  0.2030859E+03  0.7818608E-02  0.1147343E+00
         21   -1    0    0  501  502  0.00000000000E+00  0.00000000000E+00  0.75158049025E+02  0.75158049025E+02  0.00000000000E+00 0. -1.
         21   -1    0    0  502  503 -0.00000000000E+00 -0.00000000000E+00 -0.54715077357E+03  0.54715077357E+03  0.00000000000E+00 0.  1.
          6    2    1    2  501    0  0.20700295914E+02 -0.10451214689E+03 -0.24706099416E+03  0.31926069818E+03  0.17186322314E+03 0.  0.
         24    2    3    3    0    0 -0.45862704722E+01 -0.12132864137E+03 -0.24979083305E+03  0.28841030197E+03  0.77739108008E+02 0.  0.
         -6    2    1    2    0  503 -0.20700295914E+02  0.10451214689E+03 -0.22493173039E+03  0.30304812442E+03  0.17289474046E+03 0.  0.
        -24    2    5    5    0    0  0.24697401533E+02  0.88814825322E+02 -0.60660995330E+02  0.13183386907E+03  0.72127510978E+02 0.  0.
          5    1    3    3  501    0  0.25286566386E+02  0.16816494474E+02  0.27298388895E+01  0.30850396211E+02  0.47000000000E+01 0. -1.
        -13    1    4    4    0    0  0.24153404291E+02 -0.11084268559E+03 -0.20168144088E+03  0.23139769118E+03  0.00000000000E+00 0.  1.
         14    1    4    4    0    0 -0.28739674764E+02 -0.10485955773E+02 -0.48109392167E+02  0.57012610787E+02  0.00000000000E+00 0. -1.
         -5    1    5    5    0  503 -0.45397697447E+02  0.15697321571E+02 -0.16427073506E+03  0.17121425535E+03  0.47000000000E+01 0.  1.
         11    1    6    6    0    0 -0.79532816228E+01 -0.55844293922E+01  0.62984030238E+01  0.11580605375E+02  0.00000000000E+00 0. -1.
        -12    1    6    6    0    0  0.32650683156E+02  0.94399254714E+02 -0.66959398354E+02  0.12025326369E+03  0.00000000000E+00 0.  1.
</event>
<event>
12    1  0.9246030E-003  0.1993818E+03  0.7818608E-02  0.1151052E+00
         21   -1    0    0  503  502  0.00000000000E+00  0.00000000000E+00  0.26975743428E+02  0.26975743428E+02  0.00000000000E+00 0. -1.
         21   -1    0    0  501  503 -0.00000000000E+00 -0.00000000000E+00 -0.14597480246E+04  0.14597480246E+04  0.00000000000E+00 0. -1.
          6    2    1    2  501    0 -0.52377284122E+02 -0.84985507009E+02 -0.79386125328E+03  0.81851622167E+03  0.17258968505E+03 0.  0.
         24    2    3    3    0    0 -0.58570677362E+02  0.34120405393E+01 -0.28447746560E+03  0.30146069498E+03  0.80678100590E+02 0.  0.
         -6    2    1    2    0  502  0.52377284122E+02  0.84985507009E+02 -0.63891102793E+03  0.66820754639E+03  0.16830955753E+03 0.  0.
        -24    2    5    5    0    0 -0.79910824031E+01  0.39388209502E+02 -0.51532612994E+03  0.52322902996E+03  0.81193036323E+02 0.  0.
          5    1    3    3  501    0  0.61933932405E+01 -0.88397547549E+02 -0.50938378767E+03  0.51705552668E+03  0.47000000000E+01 0. -1.
        -11    1    4    4    0    0 -0.39073838015E+02  0.18726833576E+02 -0.26848218720E+03  0.27195614344E+03  0.00000000000E+00 0.  1.
         12    1    4    4    0    0 -0.19496839347E+02 -0.15314793036E+02 -0.15995278406E+02  0.29504551540E+02  0.00000000000E+00 0. -1.
         -5    1    5    5    0  502  0.60368366525E+02  0.45597297507E+02 -0.12358489799E+03  0.14497851643E+03  0.47000000000E+01 0.  1.
         13    1    6    6    0    0  0.36187272000E+02  0.25352295002E+02 -0.24221918904E+03  0.24621615109E+03  0.00000000000E+00 0. -1.
        -14    1    6    6    0    0 -0.44178354403E+02  0.14035914500E+02 -0.27310694090E+03  0.27701287887E+03  0.00000000000E+00 0.  1.
</event>
<event>
12    1  0.9246030E-003  0.3048277E+03  0.7818608E-02  0.1082901E+00
         21   -1    0    0  501  502  0.00000000000E+00  0.00000000000E+00  0.10141765624E+04  0.10141765624E+04  0.00000000000E+00 0. -1.
         21   -1    0    0  502  503 -0.00000000000E+00 -0.00000000000E+00 -0.10059931166E+03  0.10059931166E+03  0.00000000000E+00 0.  1.
          6    2    1    2  501    0 -0.23994297018E+03 -0.73139242003E+02  0.62470465900E+03  0.69510851048E+03  0.17319917060E+03 0.  0.
         24    2    3    3    0    0 -0.10789757687E+03 -0.73667535577E+02  0.20628762520E+03  0.25632477199E+03  0.77968016074E+02 0.  0.
         -6    2    1    2    0  503  0.23994297018E+03  0.73139242003E+02  0.28887259175E+03  0.41966736360E+03  0.17248577955E+03 0.  0.
        -24    2    5    5    0    0  0.45485753997E+02  0.18066716491E+02  0.14251084545E+03  0.17008682996E+03  0.78897582933E+02 0.  0.
          5    1    3    3  501    0 -0.13204539332E+03  0.52829357430E+00  0.41841703380E+03  0.43878373849E+03  0.47000000000E+01 0. -1.
        -13    1    4    4    0    0 -0.91578786029E+02 -0.57234268837E+02  0.20664557004E+03  0.23316266252E+03  0.00000000000E+00 0.  1.
         14    1    4    4    0    0 -0.16318790839E+02 -0.16433266740E+02 -0.35794483527E+00  0.23162109461E+02  0.00000000000E+00 0. -1.
         -5    1    5    5    0  503  0.19445721619E+03  0.55072525512E+02  0.14636174630E+03  0.24958053364E+03  0.47000000000E+01 0.  1.
         11    1    6    6    0    0 -0.15047941988E+02  0.26947353881E+02  0.37664668688E+02  0.48695253430E+02  0.00000000000E+00 0. -1.
        -12    1    6    6    0    0  0.60533695985E+02 -0.88806373905E+01  0.10484617676E+03  0.12139157653E+03  0.00000000000E+00 0.  1.
</event>
<event>
12    1  0.9246030E-003  0.2203408E+03  0.7818608E-02  0.1133647E+00
         21   -1    0    0  501  502  0.00000000000E+00  0.00000000000E+00  0.89709709806E+03  0.89709709806E+03  0.00000000000E+00 0. -1.
         21   -1    0    0  502  503 -0.00000000000E+00 -0.00000000000E+00 -0.55283865966E+02  0.55283865966E+02  0.00000000000E+00 0. -1.
          6    2    1    2  501    0 -0.10506500617E+03 -0.89882456391E+02  0.49081849721E+03  0.53800823366E+03  0.17155917577E+03 0.  0.
         24    2    3    3    0    0 -0.24048739795E+02 -0.50336393237E+02  0.39300945155E+03  0.40490591985E+03  0.79876658361E+02 0.  0.
         -6    2    1    2    0  503  0.10506500617E+03  0.89882456391E+02  0.35099473489E+03  0.41437273038E+03  0.17143495639E+03 0.  0.
        -24    2    5    5    0    0  0.58905879233E+02 -0.24484669392E+02  0.17822088774E+03  0.20204421906E+03  0.70638374736E+02 0.  0.
          5    1    3    3  501    0 -0.81016266371E+02 -0.39546063153E+02  0.97809045656E+02  0.13310231380E+03  0.47000000000E+01 0. -1.
        -11    1    4    4    0    0 -0.89071457964E+01  0.19682204888E+02  0.49545592858E+02  0.54050829847E+02  0.00000000000E+00 0.  1.
         12    1    4    4    0    0 -0.15141593998E+02 -0.70018598126E+02  0.34346385870E+03  0.35085509000E+03  0.00000000000E+00 0. -1.
         -5    1    5    5    0  503  0.46159126932E+02  0.11436712578E+03  0.17277384715E+03  0.21232851132E+03  0.47000000000E+01 0.  1.
         11    1    6    6    0    0  0.47499125356E+02  0.15509255455E+02  0.12415907603E+03  0.13383639294E+03  0.00000000000E+00 0. -1.
        -12    1    6    6    0    0  0.11406753877E+02 -0.39993924847E+02  0.54061811705E+02  0.68207826117E+02  0.00000000000E+00 0.  1.
</event>
<event>
12    1  0.9246030E-003  0.2049856E+03  0.7818608E-02  0.1145861E+00
         21   -1    0    0  503  502  0.00000000000E+00  0.00000000000E+00  0.10514621615E+03  0.10514621615E+03  0.00000000000E+00 0. -1.
         21   -1    0    0  501  503 -0.00000000000E+00 -0.00000000000E+00 -0.40237523676E+03  0.40237523676E+03  0.00000000000E+00 0. -1.
          6    2    1    2  501    0 -0.97019614272E+02  0.49309225734E+02 -0.11920402145E+03  0.23602189615E+03  0.17219910405E+03 0.  0.
         24    2    3    3    0    0 -0.11580979397E+03  0.72096107044E+02 -0.12869864784E+03  0.20464434457E+03  0.81891445072E+02 0.  0.
         -6    2    1    2    0  502  0.97019614272E+02 -0.49309225734E+02 -0.17802499915E+03  0.27149955676E+03  0.17370925048E+03 0.  0.
        -24    2    5    5    0    0  0.10320709837E+02 -0.80414895182E+02 -0.92809947928E+02  0.14592902815E+03  0.78157036807E+02 0.  0.
          5    1    3    3  501    0  0.18790179699E+02 -0.22786881311E+02  0.94946263911E+01  0.31377551582E+02  0.47000000000E+01 0. -1.
        -11    1    4    4    0    0  0.50695726059E+01  0.28282314379E+02 -0.12470644890E+02  0.31322625321E+02  0.00000000000E+00 0.  1.
         12    1    4    4    0    0 -0.12087936658E+03  0.43813792665E+02 -0.11622800295E+03  0.17332171925E+03  0.00000000000E+00 0. -1.
         -5    1    5    5    0  502  0.86698904435E+02  0.31105669448E+02 -0.85215051225E+02  0.12557052862E+03  0.47000000000E+01 0.  1.
         13    1    6    6    0    0  0.24364893202E+02 -0.23258563905E+01 -0.50248056956E+02  0.55892082235E+02  0.00000000000E+00 0. -1.
        -14    1    6    6    0    0 -0.14044183365E+02 -0.78089038791E+02 -0.42561890972E+02  0.90036945910E+02  0.00000000000E+00 0.  1.
</event>
<event>
12    1  0.9246030E-003  0.2640992E+03  0.7818608E-02  0.1104956E+00
         21   -1    0    0  501  502  0.00000000000E+00  0.00000000000E+00  0.63475605351E+03  0.63475605351E+03  0.00000000000E+00 0. -1.
         21   -1    0    0  502  503 -0.00000000000E+00 -0.00000000000E+00 -0.12228840048E+03  0.12228840048E+03  0.00000000000E+00 0.  1.
          6    2    1    2  501    0 -0.35584673769E+02 -0.19586318296E+03  0.38091898686E+03  0.46351662461E+03  0.17355037104E+03 0.  0.
         24    2    3    3    0    0 -0.44071866078E+02 -0.95833570700E+02  0.10251130637E+03  0.16752526946E+03  0.80185692755E+02 0.  0.
         -6    2    1    2    0  503  0.35584673769E+02  0.19586318296E+03  0.13154866617E+03  0.29352782938E+03  0.17095285784E+03 0.  0.
        -24    2    5    5    0    0 -0.17816989613E+02  0.79638519153E+02  0.11679007433E+03  0.16468755555E+03  0.82597400916E+02 0.  0.
          5    1    3    3  501    0  0.84871923085E+01 -0.10002961226E+03  0.27840768049E+03  0.29599135514E+03  0.47000000000E+01 0. -1.
        -11    1    4    4    0    0 -0.53612198858E+02 -0.40515478990E+02  0.24734869998E+02  0.71607162337E+02  0.00000000000E+00 0.  1.
         12    1    4    4    0    0  0.95403327800E+01 -0.55318091710E+02  0.77776436374E+02  0.95918107127E+02  0.00000000000E+00 0. -1.
         -5    1    5    5    0  503  0.53401663382E+02  0.11622466380E+03  0.14758591840E+02  0.12884027383E+03  0.47000000000E+01 0.  1.
         11    1    6    6    0    0 -0.47773805007E+02  0.66464262925E+02  0.70687198473E+02  0.10815042635E+03  0.00000000000E+00 0. -1.
        -12    1    6    6    0    0  0.29956815395E+02  0.13174256228E+02  0.46102875860E+02  0.56537129201E+02  0.00000000000E+00 0.  1.
</event>
<event>
12    1  0.9246030E-003  0.2319940E+03  0.7818608E-02  0.1126095E+00
         21   -1    0    0  501  502  0.00000000000E+00  0.00000000000E+00  0.28220385799E+03  0.28220385799E+03  0.00000000000E+00 0. -1.
         21   -1    0    0  502  503 -0.00000000000E+00 -0.00000000000E+00 -0.21238625411E+03  0.21238625411E+03  0.00000000000E+00 0.  1.
          6    2    1    2  501    0 -0.14727434080E+03 -0.18899004329E+02  0.12112261670E+03  0.26170954080E+03  0.17825344778E+03 0.  0.
         24    2    3    3    0    0 -0.10136629680E+03 -0.13759729475E+02 -0.19989480130E+01  0.13012318000E+03  0.80396454517E+02 0.  0.
         -6    2    1    2    0  503  0.14727434080E+03  0.18899004329E+02 -0.51305012826E+02  0.23288057130E+03  0.17191350245E+03 0.  0.
        -24    2    5    5    0    0  0.13864244179E+03 -0.15054820808E+02 -0.86826692629E+02  0.18276818103E+03  0.80105924573E+02 0.  0.
          5    1    3    3  501    0 -0.45908044004E+02 -0.51392748539E+01  0.12312156471E+03  0.13158636080E+03  0.47000000000E+01 0. -1.
        -11    1    4    4    0    0 -0.62716960912E+00 -0.25675932133E+02 -0.11692026429E+02  0.28219679563E+02  0.00000000000E+00 0.  1.
         12    1    4    4    0    0 -0.10073912719E+03  0.11916202658E+02  0.96930784157E+01  0.10190350044E+03  0.00000000000E+00 0. -1.
         -5    1    5    5    0  503  0.86318990160E+01  0.33953825137E+02  0.35521679803E+02  0.50112390265E+02  0.47000000000E+01 0.  1.
         13    1    6    6    0    0  0.26988847248E+02  0.28753665743E+02 -0.32480734956E+02  0.51089816135E+02  0.00000000000E+00 0. -1.
        -14    1    6    6    0    0  0.11165359454E+03 -0.43808486551E+02 -0.54345957673E+02  0.13167836490E+03  0.00000000000E+00 0.  1.
</event>
<event>
12    1  0.9246030E-003  0.1753393E+03  0.7818608E-02  0.1173387E+00
         21   -1    0    0  503  502  0.00000000000E+00  0.00000000000E+00  0.10208802769E+03  0.10208802769E+03  0.00000000000E+00 0. -1.
         21   -1    0    0  501  503 -0.00000000000E+00 -0.00000000000E+00 -0.29500400102E+03  0.29500400102E+03  0.00000000000E+00 0. -1.
          6    2    1    2  501    0 -0.23938459759E+02 -0.38031229134E+01 -0.10622164289E+03  0.20500464534E+03  0.17365584814E+03 0.  0.
         24    2    3    3    0    0  0.64457723204E+01 -0.34304971418E+02  0.25175000055E+01  0.87958263424E+02  0.80696587620E+02 0.  0.
         -6    2    1    2    0  502  0.23938459759E+02  0.38031229134E+01 -0.86694330436E+02  0.19208738337E+03  0.16968836826E+03 0.  0.
        -24    2    5    5    0    0 -0.41156984164E+02 -0.36956115438E+02 -0.47523009868E+02  0.10574379829E+03  0.76574555795E+02 0.  0.
          5    1    3    3  501    0 -0.30384232079E+02  0.30501848504E+02 -0.10873914290E+03  0.11704638192E+03  0.47000000000E+01 0. -1.
        -11    1    4    4    0    0 -0.24337089706E+02  0.15758336457E+02 -0.16522434960E+01  0.29040471962E+02  0.00000000000E+00 0.  1.
         12    1    4    4    0    0  0.30782862026E+02 -0.50063307874E+02  0.41697435014E+01  0.58917791462E+02  0.00000000000E+00 0. -1.
         -5    1    5    5    0  502  0.65095443923E+02  0.40759238351E+02 -0.39171320568E+02  0.86343585087E+02  0.47000000000E+01 0.  1.
         13    1    6    6    0    0 -0.51252399848E+02 -0.40387444941E+01 -0.59349563402E+01  0.51752716393E+02  0.00000000000E+00 0. -1.
        -14    1    6    6    0    0  0.10095415684E+02 -0.32917370944E+02 -0.41588053528E+02  0.53991081892E+02  0.00000000000E+00 0.  1.
</event>
<event>
12    1  0.9246030E-003  0.1731674E+03  0.7818608E-02  0.1174899E+00
         21   -1    0    0  501  502  0.00000000000E+00  0.00000000000E+00  0.19527843789E+03  0.19527843789E+03  0.00000000000E+00 0.  1.
         21   -1    0    0  502  503 -0.00000000000E+00 -0.00000000000E+00 -0.15270653780E+03  0.15270653780E+03  0.00000000000E+00 0.  1.
          6    2    1    2  501    0 -0.11304198535E+02 -0.19518121998E+02  0.14360838272E+02  0.17253462148E+03  0.17045005116E+03 0.  0.
         24    2    3    3    0    0 -0.52867024288E+00 -0.22006363881E+02 -0.56345948151E+02  0.10081403166E+03  0.80647650693E+02 0.  0.
         -6    2    1    2    0  503  0.11304198535E+02  0.19518121998E+02  0.28211061821E+02  0.17545035422E+03  0.17169222695E+03 0.  0.
        -24    2    5    5    0    0  0.76603652056E+02  0.13207253728E+02  0.76596964190E+01  0.10654248596E+03  0.72457430989E+02 0.  0.
          5    1    3    3  501    0 -0.10775528292E+02  0.24882418826E+01  0.70706786423E+02  0.71720589819E+02  0.47000000000E+01 0. -1.
        -11    1    4    4    0    0 -0.30343442272E+02 -0.17292781506E+02 -0.60982061360E+02  0.70275006858E+02  0.00000000000E+00 0.  1.
         12    1    4    4    0    0  0.29814772030E+02 -0.47135823751E+01  0.46361132088E+01  0.30539024799E+02  0.00000000000E+00 0. -1.
         -5    1    5    5    0  503 -0.65299453521E+02  0.63108682702E+01  0.20551365402E+02  0.68907868262E+02  0.47000000000E+01 0.  1.
         11    1    6    6    0    0 -0.10154357816E+02 -0.38769986064E+01 -0.11757125798E+02  0.16011624149E+02  0.00000000000E+00 0. -1.
        -12    1    6    6    0    0  0.86758009873E+02  0.17084252334E+02  0.19416822217E+02  0.90530861809E+02  0.00000000000E+00 0.  1.
</event>
<event>
12    1  0.9246030E-003  0.1795768E+03  0.7818608E-02  0.1168323E+00
         21   -1    0    0  503  502  0.00000000000E+00  0.00000000000E+00  0.18191868122E+03  0.18191868122E+03  0.00000000000E+00 0. -1.
         21   -1    0    0  501  503 -0.00000000000E+00 -0.00000000000E+00 -0.18983369771E+03  0.18983369771E+03  0.00000000000E+00 0. -1.
          6    2    1    2  501    0  0.22385753083E+02 -0.41672564925E+02 -0.52633188344E+02  0.18713115115E+03  0.17323420738E+03 0.  0.
         24    2    3    3    0    0  0.25345014004E+01  0.17498307283E+02  0.25862226216E+02  0.86737503846E+02  0.80882169688E+02 0.  0.
         -6    2    1    2    0  502 -0.22385753083E+02  0.41672564925E+02  0.44718171848E+02  0.18462122778E+03  0.17276445886E+03 0.  0.
        -24    2    5    5    0    0 -0.44864923477E+02 -0.34118517632E+02  0.95334037278E+01  0.97962937903E+02  0.79554489577E+02 0.  0.
          5    1    3    3  501    0  0.19851251683E+02 -0.59170872209E+02 -0.78495414559E+02  0.10039364730E+03  0.47000000000E+01 0. -1.
        -13    1    4    4    0    0  0.25706269337E+02  0.29178137437E+02 -0.12125189427E+02  0.40733232208E+02  0.00000000000E+00 0.  1.
         14    1    4    4    0    0 -0.23171767936E+02 -0.11679830153E+02  0.37987415643E+02  0.46004271638E+02  0.00000000000E+00 0. -1.
         -5    1    5    5    0  502  0.22479170394E+02  0.75791082558E+02  0.35184768121E+02  0.86658289878E+02  0.47000000000E+01 0.  1.
         13    1    6    6    0    0  0.16218702850E+02  0.90192156851E+01  0.13699797132E+02  0.23066794644E+02  0.00000000000E+00 0. -1.
        -14    1    6    6    0    0 -0.61083626327E+02 -0.43137733317E+02 -0.41663934046E+01  0.74896143258E+02  0.00000000000E+00 0.  1.
</event>
<event>
12    1  0.9246030E-003  0.1978584E+03  0.7818608E-02  0.1151800E+00
         21   -1    0    0  501  502  0.00000000000E+00  0.00000000000E+00  0.78319319158E+02  0.78319319158E+02  0.00000000000E+00 0.  1.
         21   -1    0    0  502  503 -0.00000000000E+00 -0.00000000000E+00 -0.67184425171E+03  0.67184425171E+03  0.00000000000E+00 0. -1.
          6    2    1    2  501    0 -0.76886491242E+02  0.58487456825E+02 -0.10480006739E+03  0.22290655935E+03  0.17138251058E+03 0.  0.
         24    2    3    3    0    0 -0.45051738766E+02 -0.22352784859E+02 -0.11946288922E+02  0.95656764389E+02  0.80487244937E+02 0.  0.
         -6    2    1    2    0  503  0.76886491242E+02 -0.58487456825E+02 -0.48872486516E+03  0.52725701152E+03  0.17267208006E+03 0.  0.
        -24    2    5    5    0    0 -0.62021651062E+01  0.13065181486E+02 -0.14280074223E+03  0.16433953649E+03  0.80039149491E+02 0.  0.
          5    1    3    3  501    0 -0.31834752475E+02  0.80840241684E+02 -0.92853778471E+02  0.12724979496E+03  0.47000000000E+01 0. -1.
        -13    1    4    4    0    0  0.18814480562E+02 -0.24628848253E+02 -0.44886694025E+01  0.31316337558E+02  0.00000000000E+00 0.  1.
         14    1    4    4    0    0 -0.63866219328E+02  0.22760633937E+01 -0.74576195197E+01  0.64340426830E+02  0.00000000000E+00 0. -1.
         -5    1    5    5    0  503  0.83088656348E+02 -0.71552638311E+02 -0.34592412293E+03  0.36291747503E+03  0.47000000000E+01 0.  1.
         13    1    6    6    0    0 -0.30918963021E+02 -0.20587560075E+02 -0.47553160672E+02  0.60341801382E+02  0.00000000000E+00 0. -1.
        -14    1    6    6    0    0  0.24716797915E+02  0.33652741562E+02 -0.95247581561E+02  0.10399773510E+03  0.00000000000E+00 0.  1.
</event>
<event>
12    1  0.9246030E-003  0.1824290E+03  0.7818608E-02  0.1165838E+00
         21   -1    0    0  501  502  0.00000000000E+00  0.00000000000E+00  0.25629737233E+03  0.25629737233E+03  0.00000000000E+00 0.  1.
         21   -1    0    0  502  503 -0.00000000000E+00 -0.00000000000E+00 -0.16943386313E+03  0.16943386313E+03  0.00000000000E+00 0.  1.
          6    2    1    2  501    0  0.64221970491E+02  0.88579678647E+00  0.14786121438E+03  0.23482602236E+03  0.17074857520E+03 0.  0.
         24    2    3    3    0    0 -0.32446498687E+02 -0.35693339356E+01  0.79460997721E+02  0.11622871733E+03  0.78291437279E+02 0.  0.
         -6    2    1    2    0  503 -0.64221970491E+02 -0.88579678647E+00 -0.60997705176E+02  0.19090521310E+03  0.16911189852E+03 0.  0.
        -24    2    5    5    0    0 -0.85844606367E+01  0.41659787387E+02 -0.74748572251E+02  0.11937315329E+03  0.82785082127E+02 0.  0.
          5    1    3    3  501    0  0.96668469177E+02  0.44551307220E+01  0.68400216655E+02  0.11859730503E+03  0.47000000000E+01 0. -1.
        -13    1    4    4    0    0  0.12733927605E+02  0.11383410287E+02  0.63923490272E+02  0.66166060413E+02  0.00000000000E+00 0.  1.
         14    1    4    4    0    0 -0.45180426291E+02 -0.14952744223E+02  0.15537507448E+02  0.50062656915E+02  0.00000000000E+00 0. -1.
         -5    1    5    5    0  503 -0.55637509854E+02 -0.42545584173E+02  0.13750867075E+02  0.71532059810E+02  0.47000000000E+01 0.  1.
         11    1    6    6    0    0 -0.89821527817E+01  0.51223822787E+01  0.17402208110E+02  0.20242398966E+02  0.00000000000E+00 0. -1.
        -12    1    6    6    0    0  0.39769214499E+00  0.36537405108E+02 -0.92150780361E+02  0.99130754321E+02  0.00000000000E+00 0.  1.
</event>
<event>
12    1  0.9246030E-003  0.1809441E+03  0.7818608E-02  0.1168708E+00
         21   -1    0    0  501  502  0.00000000000E+00  0.00000000000E+00  0.40027001001E+02  0.40027001001E+02  0.00000000000E+00 0.  1.
         21   -1    0    0  502  503 -0.00000000000E+00 -0.00000000000E+00 -0.78646246752E+03  0.78646246752E+03  0.00000000000E+00 0. -1.
          6    2    1    2  501    0  0.47727619197E+02  0.15040591388E+02 -0.38380341023E+03  0.42122071393E+03  0.16618570071E+03 0.  0.
         24    2    3    3    0    0  0.91074137202E+02  0.31909864200E+02 -0.29269842865E+03  0.31882100369E+03  0.81619387185E+02 0.  0.
         -6    2    1    2    0  503 -0.47727619197E+02 -0.15040591388E+02 -0.36263205629E+03  0.40526875459E+03  0.17388677399E+03 0.  0.
        -24    2    5    5    0    0 -0.59654537638E+01  0.50916789009E+02 -0.14187030432E+03  0.17106308509E+03  0.80667774181E+02 0.  0.
          5    1    3    3  501    0 -0.43346518004E+02 -0.16869272812E+02 -0.91104981581E+02  0.10239971024E+03  0.47000000000E+01 0. -1.
        -13    1    4    4    0    0  0.65382577508E+02  0.45768278717E+01 -0.82822580254E+02  0.10561916774E+03  0.00000000000E+00 0.  1.
         14    1    4    4    0    0  0.25691559694E+02  0.27333036329E+02 -0.20987584839E+03  0.21320183595E+03  0.00000000000E+00 0. -1.
         -5    1    5    5    0  503 -0.41762165434E+02 -0.65957380397E+02 -0.22076175197E+03  0.23420566949E+03  0.47000000000E+01 0.  1.
         13    1    6    6    0    0 -0.35734001528E+02  0.20567967219E+02 -0.11132782058E+03  0.11871749566E+03  0.00000000000E+00 0. -1.
        -14    1    6    6    0    0  0.29768547764E+02  0.30348821789E+02 -0.30542483745E+02  0.52345589435E+02  0.00000000000E+00 0.  1.
</event>
<event>
12    1  0.9246030E-003  0.2059289E+03  0.7818608E-02  0.1145014E+00
         21   -1    0    0  501  502  0.00000000000E+00  0.00000000000E+00  0.43091385111E+03  0.43091385111E+03  0.00000000000E+00 0. -1.
         21   -1    0    0  502  503 -0.00000000000E+00 -0.00000000000E+00 -0.11514454244E+03  0.11514454244E+03  0.00000000000E+00 0. -1.
          6    2    1    2  501    0 -0.90634276370E+02  0.66338785011E+02  0.26299810094E+03  0.33347540511E+03  0.17152970083E+03 0.  0.
         24    2    3    3    0    0 -0.17875282572E+02  0.13898721141E+02  0.21810043559E+03  0.23306762737E+03  0.78993789282E+02 0.  0.
         -6    2    1    2    0  503  0.90634276370E+02 -0.66338785011E+02  0.52771207732E+02  0.21258298845E+03  0.17260162271E+03 0.  0.
        -24    2    5    5    0    0  0.87707278991E+02 -0.48015941560E+02  0.96617579144E+02  0.16474066208E+03  0.88354013562E+02 0.  0.
          5    1    3    3  501    0 -0.72758993798E+02  0.52440063870E+02  0.44897665344E+02  0.10040777774E+03  0.47000000000E+01 0. -1.
        -13    1    4    4    0    0 -0.42548156886E+02 -0.13453126912E+02  0.10402800237E+03  0.11319521878E+03  0.00000000000E+00 0.  1.
         14    1    4    4    0    0  0.24672874315E+02  0.27351848052E+02  0.11407243323E+03  0.11987240859E+03  0.00000000000E+00 0. -1.
         -5    1    5    5    0  503  0.29269973788E+01 -0.18322843451E+02 -0.43846371413E+02  0.47842326363E+02  0.47000000000E+01 0.  1.
         11    1    6    6    0    0  0.65952939240E+02 -0.40961251319E+02  0.13839578429E+02  0.78861576418E+02  0.00000000000E+00 0. -1.
        -12    1    6    6    0    0  0.21754339751E+02 -0.70546902401E+01  0.82778000716E+02  0.85879085666E+02  0.00000000000E+00 0.  1.
</event>
<event>
12    1  0.9246030E-003  0.2698461E+03  0.7818608E-02  0.1101446E+00
         21   -1    0    0  503  502  0.00000000000E+00  0.00000000000E+00  0.26385436192E+04  0.26385436192E+04  0.00000000000E+00 0.  1.
         21   -1    0    0  501  503 -0.00000000000E+00 -0.00000000000E+00 -0.32419522000E+02  0.32419522000E+02  0.00000000000E+00 0.  1.
          6    2    1    2  501    0  0.14951615199E+03 -0.14412469812E+03  0.78391777096E+03  0.82888475160E+03  0.17145218428E+03 0.  0.
         24    2    3    3    0    0  0.48240143408E+02 -0.37253948663E+02  0.48904632294E+03  0.49926459466E+03  0.79899069917E+02 0.  0.
         -6    2    1    2    0  502 -0.14951615199E+03  0.14412469812E+03  0.18222063262E+04  0.18420783896E+04  0.17230754401E+03 0.  0.
        -24    2    5    5    0    0 -0.15542217173E+03  0.14893808268E+03  0.18173133079E+04  0.18318763619E+04  0.82490862395E+02 0.  0.
          5    1    3    3  501    0  0.10127600858E+03 -0.10687074946E+03  0.29487144802E+03  0.32962015694E+03  0.47000000000E+01 0. -1.
        -11    1    4    4    0    0  0.63095513906E+02 -0.23953714124E+02  0.23675097967E+03  0.24618255558E+03  0.00000000000E+00 0.  1.
         12    1    4    4    0    0 -0.14855370498E+02 -0.13300234538E+02  0.25229534326E+03  0.25308203908E+03  0.00000000000E+00 0. -1.
         -5    1    5    5    0  502  0.59060197407E+01 -0.48133845602E+01  0.48930183365E+01  0.10202027668E+02  0.47000000000E+01 0.  1.
         11    1    6    6    0    0 -0.55252474565E+02  0.34768649698E+02  0.87189904400E+03  0.87433954381E+03  0.00000000000E+00 0. -1.
        -12    1    6    6    0    0 -0.10016969717E+03  0.11416943299E+03  0.94541426391E+03  0.95753681812E+03  0.00000000000E+00 0.  1.
</event>
<event>
12    1  0.9246030E-003  0.2010523E+03  0.7818608E-02  0.1149091E+00
         21   -1    0    0  501  502  0.00000000000E+00  0.00000000000E+00  0.23517078872E+03  0.23517078872E+03  0.00000000000E+00 0. -1.
         21   -1    0    0  502  503 -0.00000000000E+00 -0.00000000000E+00 -0.18524006565E+03  0.18524006565E+03  0.00000000000E+00 0. -1.
          6    2    1    2  501    0 -0.76395615608E+02  0.66452092015E+02  0.83471055493E+02  0.21769113410E+03  0.17369468082E+03 0.  0.
         24    2    3    3    0    0 -0.62073464898E+02 -0.24849463866E+02  0.66405515693E+02  0.12359320237E+03  0.79968595457E+02 0.  0.
         -6    2    1    2    0  503  0.76395615608E+02 -0.66452092015E+02 -0.33540332423E+02  0.20271972027E+03  0.17238956021E+03 0.  0.
        -24    2    5    5    0    0  0.67279056226E+02  0.70761051075E+01 -0.63861416946E+02  0.12252641884E+03  0.79736441285E+02 0.  0.
          5    1    3    3  501    0 -0.14322150711E+02  0.91301555881E+02  0.17065539800E+02  0.94097931730E+02  0.47000000000E+01 0. -1.
        -13    1    4    4    0    0 -0.43432906337E+02  0.19533594515E+02  0.57460886726E+02  0.74630638285E+02  0.00000000000E+00 0.  1.
         14    1    4    4    0    0 -0.18640558560E+02 -0.44383058381E+02  0.89446289676E+01  0.48962564088E+02  0.00000000000E+00 0. -1.
         -5    1    5    5    0  503  0.91165593825E+01 -0.73528197122E+02  0.30321084523E+02  0.80193301427E+02  0.47000000000E+01 0.  1.
         13    1    6    6    0    0 -0.95407038766E+01  0.16968692474E+02  0.36182726669E+01  0.19800339690E+02  0.00000000000E+00 0. -1.
        -14    1    6    6    0    0  0.76819760102E+02 -0.98925873663E+01 -0.67479689613E+02  0.10272607915E+03  0.00000000000E+00 0.  1.
</event>
<event>
12    1  0.9246030E-003  0.2268677E+03  0.7818608E-02  0.1129156E+00
         21   -1    0    0  501  502  0.00000000000E+00  0.00000000000E+00  0.91907600508E+02  0.91907600508E+02  0.00000000000E+00 0.  1.
         21   -1    0    0  502  503 -0.00000000000E+00 -0.00000000000E+00 -0.57418453209E+03  0.57418453209E+03  0.00000000000E+00 0. -1.
          6    2    1    2  501    0 -0.13630944916E+03 -0.47297177654E+02 -0.18103007511E+03  0.28897326116E+03  0.17296348929E+03 0.  0.
         24    2    3    3    0    0 -0.77476824335E+02 -0.96086832256E+02 -0.10122377641E+03  0.17837107560E+03  0.79590514868E+02 0.  0.
         -6    2    1    2    0  503  0.13630944916E+03  0.47297177654E+02 -0.30124685648E+03  0.37711887144E+03  0.17507622830E+03 0.  0.
        -24    2    5    5    0    0  0.64122223504E+02  0.94517390329E+02 -0.21967483335E+03  0.25830460887E+03  0.73614142224E+02 0.  0.
          5    1    3    3  501    0 -0.58832624821E+02  0.48789654602E+02 -0.79806298699E+02  0.11060218556E+03  0.47000000000E+01 0. -1.
        -11    1    4    4    0    0 -0.78329207715E+02 -0.36549300492E+02 -0.69444259644E+02  0.11087750604E+03  0.00000000000E+00 0.  1.
         12    1    4    4    0    0  0.85238337932E+00 -0.59537531764E+02 -0.31779516764E+02  0.67493569558E+02  0.00000000000E+00 0. -1.
         -5    1    5    5    0  503  0.72187225653E+02 -0.47220212676E+02 -0.81572023131E+02  0.11881426257E+03  0.47000000000E+01 0.  1.
         13    1    6    6    0    0  0.36599113481E+02  0.43254239590E+02 -0.17782257717E+03  0.18663143707E+03  0.00000000000E+00 0. -1.
        -14    1    6    6    0    0  0.27523110023E+02  0.51263150739E+02 -0.41852256174E+02  0.71673171800E+02  0.00000000000E+00 0.  1.
</event>
<event>
12    1  0.9246030E-003  0.1749897E+03  0.7818608E-02  0.1173002E+00
         21   -1    0    0  501  502  0.00000000000E+00  0.00000000000E+00  0.14391662842E+03  0.14391662842E+03  0.00000000000E+00 0. -1.
         21   -1    0    0  502  503 -0.00000000000E+00 -0.00000000000E+00 -0.35408839577E+03  0.35408839577E+03  0.00000000000E+00 0. -1.
          6    2    1    2  501    0 -0.75925730814E+01  0.22140194826E+02  0.52729857116E+02  0.18276168115E+03  0.17341729692E+03 0.  0.
         24    2    3    3    0    0 -0.71641799374E+02  0.46089440858E+01  0.30894441831E+02  0.11270082544E+03  0.81198643686E+02 0.  0.
         -6    2    1    2    0  503  0.75925730814E+01 -0.22140194826E+02 -0.26290162447E+03  0.31524334305E+03  0.17237536307E+03 0.  0.
        -24    2    5    5    0    0  0.27418782553E+01 -0.77115309992E+02 -0.12737811337E+03  0.16883806791E+03  0.79541313031E+02 0.  0.
          5    1    3    3  501    0  0.64049226293E+02  0.17531250740E+02  0.21835415284E+02  0.70060855703E+02  0.47000000000E+01 0. -1.
        -11    1    4    4    0    0 -0.77646557396E+01 -0.16447946166E+02  0.40843760254E+02  0.44710597888E+02  0.00000000000E+00 0.  1.
         12    1    4    4    0    0 -0.63877143635E+02  0.21056890251E+02 -0.99493184224E+01  0.67990227556E+02  0.00000000000E+00 0. -1.
         -5    1    5    5    0  503  0.48506948260E+01  0.54975115166E+02 -0.13552351109E+03  0.14640527513E+03  0.47000000000E+01 0.  1.
         13    1    6    6    0    0  0.67456627902E+01 -0.95318169131E+00 -0.77299204811E+02  0.77598837531E+02  0.00000000000E+00 0. -1.
        -14    1    6    6    0    0 -0.40037845349E+01 -0.76162128301E+02 -0.50078908563E+02  0.91239230383E+02  0.00000000000E+00 0.  1.
</event>
<event>
12    1  0.9246030E-003  0.3105348E+03  0.7818608E-02  0.1080245E+00
         21   -1    0    0  501  502  0.00000000000E+00  0.00000000000E+00  0.53682886543E+03  0.53682886543E+03  0.00000000000E+00 0. -1.
         21   -1    0    0  502  503 -0.00000000000E+00 -0.00000000000E+00 -0.19279303380E+03  0.19279303380E+03  0.00000000000E+00 0.  1.
          6    2    1    2  501    0 -0.66283018239E+02 -0.24987690658E+03  0.27033157461E+03  0.41171713174E+03  0.17204630014E+03 0.  0.
         24    2    3    3    0    0 -0.49242119595E+02 -0.26310143165E+03  0.27164215792E+03  0.38960179954E+03  0.79705398617E+02 0.  0.
         -6    2    1    2    0  503  0.66283018239E+02  0.24987690658E+03  0.73704257021E+02  0.31790476748E+03  0.16970331975E+03 0.  0.
        -24    2    5    5    0    0  0.51868085180E+02  0.23834238025E+03  0.16658709468E+02  0.25776226929E+03  0.81648554101E+02 0.  0.
          5    1    3    3  501    0 -0.17040898644E+02  0.13224525068E+02 -0.13105833116E+01  0.22115332203E+02  0.47000000000E+01 0. -1.
        -11    1    4    4    0    0 -0.27580914463E+02 -0.15392381163E+03  0.10198868692E+03  0.18669477467E+03  0.00000000000E+00 0.  1.
         12    1    4    4    0    0 -0.21661205132E+02 -0.10917762002E+03  0.16965347100E+03  0.20290702487E+03  0.00000000000E+00 0. -1.
         -5    1    5    5    0  503  0.14414933059E+02  0.11534526332E+02  0.57045547553E+02  0.60142498189E+02  0.47000000000E+01 0.  1.
         13    1    6    6    0    0  0.42667042555E+02  0.23024581068E+03  0.33901834872E+02  0.23660715176E+03  0.00000000000E+00 0. -1.
        -14    1    6    6    0    0  0.92010426246E+01  0.80965695697E+01 -0.17243125404E+02  0.21155117534E+02  0.00000000000E+00 0.  1.
</event>
<event>
12    1  0.9246030E-003  0.2398727E+03  0.7818608E-02  0.1119951E+00
         21   -1    0    0  503  502  0.00000000000E+00  0.00000000000E+00  0.80614217883E+02  0.80614217883E+02  0.00000000000E+00 0.  1.
         21   -1    0    0  501  503 -0.00000000000E+00 -0.00000000000E+00 -0.77161261026E+03  0.77161261026E+03  0.00000000000E+00 0.  1.
          6    2    1    2  501    0 -0.15202513931E+03  0.66981095751E+02 -0.22721507044E+03  0.33008328910E+03  0.17242441631E+03 0.  0.
         24    2    3    3    0    0 -0.94237313324E+02  0.47820044473E+02 -0.23353148821E+03  0.26869464316E+03  0.80575600520E+02 0.  0.
         -6    2    1    2    0  502  0.15202513931E+03 -0.66981095751E+02 -0.46378332193E+03  0.52214353904E+03  0.17303408764E+03 0.  0.
        -24    2    5    5    0    0  0.12196364876E+03  0.14999992880E+02 -0.22965263486E+03  0.27221582801E+03  0.79126436280E+02 0.  0.
          5    1    3    3  501    0 -0.57787825982E+02  0.19161051278E+02  0.63164177693E+01  0.61388645947E+02  0.47000000000E+01 0. -1.
        -11    1    4    4    0    0 -0.88182357309E+02  0.13227164822E+02 -0.11774178522E+03  0.14769635749E+03  0.00000000000E+00 0.  1.
         12    1    4    4    0    0 -0.60549560150E+01  0.34592879651E+02 -0.11578970299E+03  0.12099828566E+03  0.00000000000E+00 0. -1.
         -5    1    5    5    0  502  0.30061490545E+02 -0.81981088631E+02 -0.23413068708E+03  0.24992771102E+03  0.47000000000E+01 0.  1.
         11    1    6    6    0    0  0.85562259618E+02  0.30458523441E+02 -0.93143949099E+02  0.13009387832E+03  0.00000000000E+00 0. -1.
        -12    1    6    6    0    0  0.36401389142E+02 -0.15458530561E+02 -0.13650868576E+03  0.14212194970E+03  0.00000000000E+00 0.  1.
</event>
<event>
12    1  0.9246030E-003  0.1794260E+03  0.7818608E-02  0.1168466E+00
         21   -1    0    0  503  502  0.00000000000E+00  0.00000000000E+00  0.73150461596E+02  0.73150461596E+02  0.00000000000E+00 0. -1.
         21   -1    0    0  501  503 -0.00000000000E+00 -0.00000000000E+00 -0.50672798535E+03  0.50672798535E+03  0.00000000000E+00 0. -1.
          6    2    1    2  501    0 -0.13863236192E+02  0.48673724019E+02 -0.32299557009E+03  0.36948591639E+03  0.17214059191E+03 0.  0.
         24    2    3    3    0    0 -0.11837571191E+02 -0.22802945980E+02 -0.84152355989E+02  0.12012435441E+03  0.81781043438E+02 0.  0.
         -6    2    1    2    0  502  0.13863236192E+02 -0.48673724019E+02 -0.11058195366E+03  0.21039253055E+03  0.17168380154E+03 0.  0.
        -24    2    5    5    0    0  0.46228813617E+02 -0.85968405074E+02 -0.95677410148E+02  0.15859813651E+03  0.80445834026E+02 0.  0.
          5    1    3    3  501    0 -0.20256650008E+01  0.71476669998E+02 -0.23884321410E+03  0.24936156199E+03  0.47000000000E+01 0. -1.
        -11    1    4    4    0    0  0.14181093838E+02  0.25389178842E+02 -0.17829226439E+02  0.34111510376E+02  0.00000000000E+00 0.  1.
         12    1    4    4    0    0 -0.26018665029E+02 -0.48192124821E+02 -0.66323129551E+02  0.86012844030E+02  0.00000000000E+00 0. -1.
         -5    1    5    5    0  502 -0.32365577425E+02  0.37294681055E+02 -0.14904543511E+02  0.51794394044E+02  0.47000000000E+01 0.  1.
         11    1    6    6    0    0 -0.22600232482E+02 -0.12953192042E+02 -0.17259812110E+02  0.31248308857E+02  0.00000000000E+00 0. -1.
        -12    1    6    6    0    0  0.68829046099E+02 -0.73015213032E+02 -0.78417598037E+02  0.12734982765E+03  0.00000000000E+00 0.  1.
</event>
<event>
12    1  0.9246030E-003  0.2236221E+03  0.7818608E-02  0.1131362E+00
         21   -1    0    0  501  502  0.00000000000E+00  0.00000000000E+00  0.24725222303E+02  0.24725222303E+02  0.00000000000E+00 0. -1.
         21   -1    0    0  502  503 -0.00000000000E+00 -0.00000000000E+00 -0.20277053451E+04  0.20277053451E+04  0.00000000000E+00 0. -1.
          6    2    1    2  501    0 -0.14118014988E+03 -0.12222645588E+02 -0.91848685847E+03  0.94512190664E+03  0.17191882221E+03 0.  0.
         24    2    3    3    0    0 -0.13680047256E+03  0.31512511535E+02 -0.83949569070E+03  0.85460317858E+03  0.76721382080E+02 0.  0.
         -6    2    1    2    0  503  0.14118014988E+03  0.12222645588E+02 -0.10844932643E+04  0.11073086607E+04  0.17299017907E+03 0.  0.
        -24    2    5    5    0    0  0.10560612510E+03 -0.11991937221E+02 -0.10250340215E+04  0.10337603853E+04  0.81665958998E+02 0.  0.
          5    1    3    3  501    0 -0.43796773241E+01 -0.43735157123E+02 -0.78991167774E+02  0.90518728053E+02  0.47000000000E+01 0. -1.
        -11    1    4    4    0    0 -0.16311689981E+02 -0.22578909537E+02 -0.15463780117E+03  0.15712647115E+03  0.00000000000E+00 0.  1.
         12    1    4    4    0    0 -0.12048878257E+03  0.54091421072E+02 -0.68485788953E+03  0.69747670743E+03  0.00000000000E+00 0. -1.
         -5    1    5    5    0  503  0.35574024784E+02  0.24214582809E+02 -0.59459242815E+02  0.73548275412E+02  0.47000000000E+01 0.  1.
         13    1    6    6    0    0  0.80989964203E+02 -0.13844980239E+02 -0.40580781795E+03  0.41404232017E+03  0.00000000000E+00 0. -1.
        -14    1    6    6    0    0  0.24616160893E+02  0.18530430181E+01 -0.61922620351E+03  0.61971806514E+03  0.00000000000E+00 0.  1.
</event>
<event>
12    1  0.9246030E-003  0.1850881E+03  0.7818608E-02  0.1163388E+00
         21   -1    0    0  501  502  0.00000000000E+00  0.00000000000E+00  0.92583785553E+03  0.92583785553E+03  0.00000000000E+00 0.  1.
         21   -1    0    0  502  503 -0.00000000000E+00 -0.00000000000E+00 -0.77039397675E+02  0.77039397675E+02  0.00000000000E+00 0.  1.
          6    2    1    2  501    0 -0.68750792219E+02 -0.73391562879E+01  0.78847823233E+03  0.80991081253E+03  0.17168886612E+03 0.  0.
         24    2    3    3    0    0 -0.66179674152E+02  0.11635368397E+02  0.78240695968E+03  0.78928089283E+03  0.79300354094E+02 0.  0.
         -6    2    1    2    0  503  0.68750792219E+02  0.73391562879E+01  0.60320225530E+02  0.19296644068E+03  0.16975565668E+03 0.  0.
        -24    2    5    5    0    0  0.64038370387E+02  0.53608023041E+02  0.82931237574E+02  0.14103992707E+03  0.77717037036E+02 0.  0.
          5    1    3    3  501    0 -0.25711180675E+01 -0.18974524685E+02  0.60712726430E+01  0.20629919696E+02  0.47000000000E+01 0. -1.
        -13    1    4    4    0    0 -0.39031539404E+02  0.39250435922E+02  0.61347556323E+03  0.61596779499E+03  0.00000000000E+00 0.  1.
         14    1    4    4    0    0 -0.27148134748E+02 -0.27615067525E+02  0.16893139646E+03  0.17331309784E+03  0.00000000000E+00 0. -1.
         -5    1    5    5    0  503  0.47124218327E+01 -0.46268866753E+02 -0.22611012044E+02  0.51926513611E+02  0.47000000000E+01 0.  1.
         13    1    6    6    0    0  0.43735844566E+02 -0.75518746727E+01  0.55342020489E+02  0.70940779125E+02  0.00000000000E+00 0. -1.
        -14    1    6    6    0    0  0.20302525821E+02  0.61159897714E+02  0.27589217085E+02  0.70099147944E+02  0.00000000000E+00 0.  1.
</event>
<event>
12    1  0.9246030E-003  0.2235296E+03  0.7818608E-02  0.1134719E+00
         21   -1    0    0  501  502  0.00000000000E+00  0.00000000000E+00  0.12778176510E+04  0.12778176510E+04  0.00000000000E+00 0. -1.
         21   -1    0    0  502  503 -0.00000000000E+00 -0.00000000000E+00 -0.36162760017E+02  0.36162760017E+02  0.00000000000E+00 0.  1.
          6    2    1    2  501    0 -0.10917184553E+03  0.48337627370E+02  0.60467071546E+03  0.64466439101E+03  0.18897218003E+03 0.  0.
         24    2    3    3    0    0  0.48358285194E+01  0.68906155723E+02  0.33162021898E+03  0.34801733181E+03  0.79828879948E+02 0.  0.
         -6    2    1    2    0  503  0.10917184553E+03 -0.48337627370E+02  0.63698417548E+03  0.66931601996E+03  0.16727246244E+03 0.  0.
        -24    2    5    5    0    0  0.12429765562E+03 -0.16395648666E+02  0.34900388767E+03  0.37913708154E+03  0.78882751644E+02 0.  0.
          5    1    3    3  501    0 -0.11400767405E+03 -0.20568528353E+02  0.27305049648E+03  0.29664705920E+03  0.47000000000E+01 0. -1.
        -11    1    4    4    0    0  0.27755034500E+02  0.17385211002E+02  0.43606311917E+02  0.54535290782E+02  0.00000000000E+00 0.  1.
         12    1    4    4    0    0 -0.22919205980E+02  0.51520944721E+02  0.28801390706E+03  0.29348204103E+03  0.00000000000E+00 0. -1.
         -5    1    5    5    0  503 -0.15125810082E+02 -0.31941978704E+02  0.28798028781E+03  0.29017893842E+03  0.47000000000E+01 0.  1.
         11    1    6    6    0    0 -0.49042191965E+01  0.14266723847E+02  0.29399961120E+02  0.33044643879E+02  0.00000000000E+00 0. -1.
        -12    1    6    6    0    0  0.12920187481E+03 -0.30662372513E+02  0.31960392655E+03  0.34609243766E+03  0.00000000000E+00 0.  1.
</event>
<event>
12    1  0.9246030E-003  0.2252933E+03  0.7818608E-02  0.1130005E+00
         21   -1    0    0  501  502  0.00000000000E+00  0.00000000000E+00  0.52907423234E+03  0.52907423234E+03  0.00000000000E+00 0.  1.
         21   -1    0    0  502  503 -0.00000000000E+00 -0.00000000000E+00 -0.15186995770E+03  0.15186995770E+03  0.00000000000E+00 0.  1.
          6    2    1    2  501    0 -0.11814503875E+03  0.84526930035E+02  0.39525225846E+03  0.45492912225E+03  0.17214269191E+03 0.  0.
         24    2    3    3    0    0 -0.11539454046E+03  0.28726623582E+02  0.16574200004E+03  0.21867017922E+03  0.78772570330E+02 0.  0.
         -6    2    1    2    0  503  0.11814503875E+03 -0.84526930035E+02 -0.18047983812E+02  0.22601506779E+03  0.17220345254E+03 0.  0.
        -24    2    5    5    0    0 -0.65594056892E+01 -0.52358694176E+02 -0.10456807486E+02  0.96919328825E+02  0.80619804132E+02 0.  0.
          5    1    3    3  501    0 -0.27504982927E+01  0.55800306453E+02  0.22951025842E+03  0.23625894303E+03  0.47000000000E+01 0. -1.
        -13    1    4    4    0    0 -0.52069630910E+02  0.52519954650E+02  0.99651742618E+02  0.12409698589E+03  0.00000000000E+00 0.  1.
         14    1    4    4    0    0 -0.63324909546E+02 -0.23793331068E+02  0.66090257419E+02  0.94573193337E+02  0.00000000000E+00 0. -1.
         -5    1    5    5    0  503  0.12470444444E+03 -0.32168235859E+02 -0.75911763263E+01  0.12909573896E+03  0.47000000000E+01 0.  1.
         11    1    6    6    0    0 -0.19137365905E+02 -0.18038975533E+02  0.31656633833E+02  0.41155629964E+02  0.00000000000E+00 0. -1.
        -12    1    6    6    0    0  0.12577960216E+02 -0.34319718643E+02 -0.42113441319E+02  0.55763698861E+02  0.00000000000E+00 0.  1.
</event>
<event>
12    1  0.9246030E-003  0.2853622E+03  0.7818608E-02  0.1093068E+00
         21   -1    0    0  503  502  0.00000000000E+00  0.00000000000E+00  0.99037237881E+03  0.99037237881E+03  0.00000000000E+00 0. -1.
         21   -1    0    0  501  503 -0.00000000000E+00 -0.00000000000E+00 -0.81693512124E+02  0.81693512124E+02  0.00000000000E+00 0.  1.
          6    2    1    2  501    0 -0.13513988843E+03  0.17940646912E+03  0.44197494791E+03  0.52609259725E+03  0.17601731647E+03 0.  0.
         24    2    3    3    0    0 -0.34641408550E+02  0.15214309113E+03  0.32411366714E+03  0.36875027064E+03  0.81114397654E+02 0.  0.
         -6    2    1    2    0  502  0.13513988843E+03 -0.17940646912E+03  0.46670391878E+03  0.54597329369E+03  0.17269863638E+03 0.  0.
        -24    2    5    5    0    0  0.13326707858E+03 -0.12269863390E+03  0.44125042895E+03  0.48360939278E+03  0.79756095369E+02 0.  0.
          5    1    3    3  501    0 -0.10049847988E+03  0.27263377982E+02  0.11786128076E+03  0.15734232660E+03  0.47000000000E+01 0. -1.
        -11    1    4    4    0    0 -0.15429018657E+02  0.10110133545E+03  0.28160996151E+03  0.29960591628E+03  0.00000000000E+00 0.  1.
         12    1    4    4    0    0 -0.19212389893E+02  0.51041755679E+02  0.42503705628E+02  0.69144354363E+02  0.00000000000E+00 0. -1.
         -5    1    5    5    0  502  0.18728098555E+01 -0.56707835210E+02  0.25453489830E+02  0.62363900900E+02  0.47000000000E+01 0.  1.
         13    1    6    6    0    0  0.11791507959E+03 -0.11038092367E+03  0.29749897875E+03  0.33851670072E+03  0.00000000000E+00 0. -1.
        -14    1    6    6    0    0  0.15351998985E+02 -0.12317710234E+02  0.14375145020E+03  0.14509269207E+03  0.00000000000E+00 0.  1.
</event>
<event>
12    1  0.9246030E-003  0.2007300E+03  0.7818608E-02  0.1149933E+00
         21   -1    0    0  501  502  0.00000000000E+00  0.00000000000E+00  0.38958269490E+02  0.38958269490E+02  0.00000000000E+00 0.  1.
         21   -1    0    0  502  503 -0.00000000000E+00 -0.00000000000E+00 -0.10301615837E+04  0.10301615837E+04  0.00000000000E+00 0. -1.
          6    2    1    2  501    0 -0.92760609298E+02  0.35828531404E+02 -0.56578291506E+03  0.60033561294E+03  0.17436836552E+03 0.  0.
         24    2    3    3    0    0 -0.31031784558E+02  0.83295613183E+02 -0.29611393555E+03  0.31960973212E+03  0.81029545281E+02 0.  0.
         -6    2    1    2    0  503  0.92760609298E+02 -0.35828531404E+02 -0.42542039918E+03  0.46878424027E+03  0.16996450686E+03 0.  0.
        -24    2    5    5    0    0 -0.16681267447E+02 -0.43351659330E+01 -0.20641336181E+03  0.22189250515E+03  0.79578574771E+02 0.  0.
          5    1    3    3  501    0 -0.61728824739E+02 -0.47467081779E+02 -0.26966897951E+03  0.28072588082E+03  0.47000000000E+01 0. -1.
        -13    1    4    4    0    0  0.19051181331E+02  0.28701363908E+02 -0.16905171631E+03  0.17252593599E+03  0.00000000000E+00 0.  1.
         14    1    4    4    0    0 -0.50082965890E+02  0.54594249274E+02 -0.12706221924E+03  0.14708379613E+03  0.00000000000E+00 0. -1.
         -5    1    5    5    0  503  0.10944187674E+03 -0.31493365471E+02 -0.21900703737E+03  0.24689173512E+03  0.47000000000E+01 0.  1.
         11    1    6    6    0    0  0.26876353496E+02  0.12570122496E+02 -0.12046580212E+03  0.12406593343E+03  0.00000000000E+00 0. -1.
        -12    1    6    6    0    0 -0.43557620943E+02 -0.16905288429E+02 -0.85947559689E+02  0.97826571726E+02  0.00000000000E+00 0.  1.
</event>
<event>
12    1  0.9246030E-003  0.2413409E+03  0.7818608E-02  0.1118942E+00
         21   -1    0    0  501  502  0.00000000000E+00  0.00000000000E+00  0.20829302326E+04  0.20829302326E+04  0.00000000000E+00 0. -1.
         21   -1    0    0  502  503 -0.00000000000E+00 -0.00000000000E+00 -0.29193003139E+02  0.29193003139E+02  0.00000000000E+00 0. -1.
          6    2    1    2  501    0 -0.12635240135E+03 -0.11212128184E+03  0.80818541958E+03  0.84345070654E+03  0.17236389056E+03 0.  0.
         24    2    3    3    0    0  0.33871963440E+01 -0.46414896168E+02  0.38699070457E+03  0.39783117119E+03  0.79636798438E+02 0.  0.
         -6    2    1    2    0  503  0.12635240135E+03  0.11212128184E+03  0.12455518098E+04  0.12686725292E+04  0.17203070680E+03 0.  0.
        -24    2    5    5    0    0  0.14703780299E+03  0.60703688813E+02  0.10695010291E+04  0.10840441941E+04  0.77551983450E+02 0.  0.
          5    1    3    3  501    0 -0.12973959769E+03 -0.65706385672E+02  0.42119471502E+03  0.44561953535E+03  0.47000000000E+01 0. -1.
        -11    1    4    4    0    0 -0.60657226601E+01 -0.19245039863E+02  0.35180132556E+03  0.35237953575E+03  0.00000000000E+00 0.  1.
         12    1    4    4    0    0  0.94529190040E+01 -0.27169856305E+02  0.35189379008E+02  0.45451635442E+02  0.00000000000E+00 0. -1.
         -5    1    5    5    0  503 -0.20685401647E+02  0.51417593028E+02  0.17605078077E+03  0.18462833511E+03  0.47000000000E+01 0.  1.
         13    1    6    6    0    0  0.12058939217E+03  0.24868550285E+02  0.60430801217E+03  0.61672394138E+03  0.00000000000E+00 0. -1.
        -14    1    6    6    0    0  0.26448410824E+02  0.35835138528E+02  0.46519301690E+03  0.46732025267E+03  0.00000000000E+00 0.  1.
</event>
<event>
12    1  0.9246030E-003  0.1916328E+03  0.7818608E-02  0.1157556E+00
         21   -1    0    0  501  502  0.00000000000E+00  0.00000000000E+00  0.39200730936E+02  0.39200730936E+02  0.00000000000E+00 0.  1.
         21   -1    0    0  502  503 -0.00000000000E+00 -0.00000000000E+00 -0.99453449738E+03  0.99453449738E+03  0.00000000000E+00 0.  1.
          6    2    1    2  501    0 -0.97050698135E+01  0.82897621631E+02 -0.61175127735E+03  0.64032441709E+03  0.16973370240E+03 0.  0.
         24    2    3    3    0    0  0.85179245196E+01  0.11343206271E+03 -0.56392166285E+03  0.58053987362E+03  0.77971245623E+02 0.  0.
         -6    2    1    2    0  503  0.97050698135E+01 -0.82897621631E+02 -0.34358248909E+03  0.39341081123E+03  0.17250198702E+03 0.  0.
        -24    2    5    5    0    0 -0.25417227773E+02 -0.10567045181E+03 -0.31523514857E+03  0.34263838468E+03  0.78838974578E+02 0.  0.
          5    1    3    3  501    0 -0.18222994333E+02 -0.30534441079E+02 -0.47829614500E+02  0.59784543468E+02  0.47000000000E+01 0. -1.
        -11    1    4    4    0    0 -0.21773102364E+02  0.77598644676E+02 -0.23842123783E+03  0.25167499735E+03  0.00000000000E+00 0.  1.
         12    1    4    4    0    0  0.30291026883E+02  0.35833418034E+02 -0.32550042502E+03  0.32886487627E+03  0.00000000000E+00 0. -1.
         -5    1    5    5    0  503  0.35122297587E+02  0.22772830179E+02 -0.28347340526E+02  0.50772426542E+02  0.47000000000E+01 0.  1.
         13    1    6    6    0    0  0.13912431802E+01 -0.74353694215E+01 -0.13820454205E+03  0.13841140025E+03  0.00000000000E+00 0. -1.
        -14    1    6    6    0    0 -0.26808470953E+02 -0.98235082388E+02 -0.17703060652E+03  0.20422698444E+03  0.00000000000E+00 0.  1.
</event>
<event>
12    1  0.9246030E-003  0.2098793E+03  0.7818608E-02  0.1142335E+00
         21   -1    0    0  501  502  0.00000000000E+00  0.00000000000E+00  0.21021797040E+04  0.21021797040E+04  0.00000000000E+00 0. -1.
         21   -1    0    0  502  503 -0.00000000000E+00 -0.00000000000E+00 -0.23979038718E+02  0.23979038718E+02  0.00000000000E+00 0.  1.
          6    2    1    2  501    0 -0.79967313302E+02 -0.84653848531E+02  0.14442714267E+04  0.14594414219E+04  0.17460889126E+03 0.  0.
         24    2    3    3    0    0  0.22678037405E+02 -0.49418971544E+01  0.40876181860E+03  0.41579766010E+03  0.72544841814E+02 0.  0.
         -6    2    1    2    0  503  0.79967313302E+02  0.84653848531E+02  0.63392923865E+03  0.66671732082E+03  0.17054225574E+03 0.  0.
        -24    2    5    5    0    0  0.27792444819E+02 -0.10675805142E+02  0.39378609532E+03  0.40308731673E+03  0.80780586963E+02 0.  0.
          5    1    3    3  501    0 -0.10264535071E+03 -0.79711951377E+02  0.10355096081E+04  0.10436437618E+04  0.47000000000E+01 0. -1.
        -11    1    4    4    0    0 -0.13956760698E+02  0.85679478471E+01  0.23973236365E+02  0.29033032245E+02  0.00000000000E+00 0.  1.
         12    1    4    4    0    0  0.36634798103E+02 -0.13509845001E+02  0.38478858224E+03  0.38676462786E+03  0.00000000000E+00 0. -1.
         -5    1    5    5    0  503  0.52174868484E+02  0.95329653673E+02  0.24014314333E+03  0.26363000410E+03  0.47000000000E+01 0.  1.
         13    1    6    6    0    0 -0.12014402453E+02 -0.17540066218E+02  0.30270438334E+03  0.30345006753E+03  0.00000000000E+00 0. -1.
        -14    1    6    6    0    0  0.39806847272E+02  0.68642610765E+01  0.91081711986E+02  0.99637249200E+02  0.00000000000E+00 0.  1.
</event>
<event>
12    1  0.9246030E-003  0.1971942E+03  0.7818608E-02  0.1153338E+00
         21   -1    0    0  501  502  0.00000000000E+00  0.00000000000E+00  0.61569968178E+03  0.61569968178E+03  0.00000000000E+00 0.  1.
         21   -1    0    0  502  503 -0.00000000000E+00 -0.00000000000E+00 -0.72062493579E+02  0.72062493579E+02  0.00000000000E+00 0.  1.
          6    2    1    2  501    0 -0.78007422136E+02 -0.34222424498E+02  0.40082339040E+03  0.44428457944E+03  0.17167721160E+03 0.  0.
         24    2    3    3    0    0 -0.84949180410E+01  0.21272419825E+02  0.29262108345E+03  0.30413646064E+03  0.79669371368E+02 0.  0.
         -6    2    1    2    0  503  0.78007422136E+02  0.34222424498E+02  0.14281379779E+03  0.24347759592E+03  0.17784607566E+03 0.  0.
        -24    2    5    5    0    0  0.11300753180E+03 -0.10690491009E+02  0.11224155857E+03  0.17867844880E+03  0.80267252066E+02 0.  0.
          5    1    3    3  501    0 -0.69512504095E+02 -0.55494844323E+02  0.10820230695E+03  0.14014811880E+03  0.47000000000E+01 0. -1.
        -11    1    4    4    0    0  0.10532078964E+02 -0.27636245473E+02  0.85513922554E+02  0.90483798007E+02  0.00000000000E+00 0.  1.
         12    1    4    4    0    0 -0.19026997005E+02  0.48908665298E+02  0.20710716089E+03  0.21365266263E+03  0.00000000000E+00 0. -1.
         -5    1    5    5    0  503 -0.35000109665E+02  0.44912915507E+02  0.30572239228E+02  0.64799147118E+02  0.47000000000E+01 0.  1.
         11    1    6    6    0    0  0.27035970830E+02 -0.30215798194E+02  0.70058772258E+02  0.80945473928E+02  0.00000000000E+00 0. -1.
        -12    1    6    6    0    0  0.85971560971E+02  0.19525307185E+02  0.42182786309E+02  0.97732974872E+02  0.00000000000E+00 0.  1.
</event>
<event>
12    1  0.9246030E-003  0.1754765E+03  0.7818608E-02  0.1174317E+00
         21   -1    0    0  501  502  0.00000000000E+00  0.00000000000E+00  0.15700203546E+03  0.15700203546E+03  0.00000000000E+00 0.  1.
         21   -1    0    0  502  503 -0.00000000000E+00 -0.00000000000E+00 -0.18730527665E+03  0.18730527665E+03  0.00000000000E+00 0.  1.
          6    2    1    2  501    0  0.25061855276E+02  0.29183358079E+02 -0.12321869049E+02  0.17590857048E+03  0.17120815323E+03 0.  0.
         24    2    3    3    0    0  0.54404353447E+02  0.67243164918E+02  0.16389629042E+02  0.11973053903E+03  0.81149892998E+02 0.  0.
         -6    2    1    2    0  503 -0.25061855276E+02 -0.29183358079E+02 -0.17981372135E+02  0.16839874163E+03  0.16295717677E+03 0.  0.
        -24    2    5    5    0    0 -0.13515054022E+01  0.27785932897E+02  0.88095514029E+01  0.10096340676E+03  0.96654625725E+02 0.  0.
          5    1    3    3  501    0 -0.29342498171E+02 -0.38059806838E+02 -0.28711498091E+02  0.56178031455E+02  0.47000000000E+01 0. -1.
        -13    1    4    4    0    0  0.54555258991E+02  0.20313914387E+02  0.36459776958E+02  0.68689495100E+02  0.00000000000E+00 0.  1.
         14    1    4    4    0    0 -0.15090554398E+00  0.46929250530E+02 -0.20070147916E+02  0.51041043927E+02  0.00000000000E+00 0. -1.
         -5    1    5    5    0  503 -0.23710349874E+02 -0.56969290976E+02 -0.26790923538E+02  0.67435334873E+02  0.47000000000E+01 0.  1.
         11    1    6    6    0    0 -0.63791587180E+01  0.58700466039E+02 -0.15808664249E+02  0.61125708540E+02  0.00000000000E+00 0. -1.
        -12    1    6    6    0    0  0.50276533157E+01 -0.30914533142E+02  0.24618215652E+02  0.39837698216E+02  0.00000000000E+00 0.  1.
</event>
<event>
12    1  0.9246030E-003  0.2869063E+03  0.7818608E-02  0.1092061E+00
         21   -1    0    0  501  502  0.00000000000E+00  0.00000000000E+00  0.11396705143E+03  0.11396705143E+03  0.00000000000E+00 0.  1.
         21   -1    0    0  502  503 -0.00000000000E+00 -0.00000000000E+00 -0.77379831591E+03  0.77379831591E+03  0.00000000000E+00 0.  1.
          6    2    1    2  501    0 -0.21668653472E+03 -0.75089650377E+02 -0.21322928235E+03  0.35694659598E+03  0.17132610894E+03 0.  0.
         24    2    3    3    0    0 -0.22265817174E+03 -0.94804190431E+02 -0.21800440931E+03  0.33528521616E+03  0.79534632289E+02 0.  0.
         -6    2    1    2    0  503  0.21668653472E+03  0.75089650377E+02 -0.44660198213E+03  0.53081877137E+03  0.17240570661E+03 0.  0.
        -24    2    5    5    0    0  0.34432867818E+02 -0.75930894164E+01 -0.13013566630E+03  0.15635134473E+03  0.79165484664E+02 0.  0.
          5    1    3    3  501    0  0.59716370141E+01  0.19714540054E+02  0.47751269574E+01  0.21661379819E+02  0.47000000000E+01 0.  1.
        -11    1    4    4    0    0 -0.90814507286E+02 -0.81428406454E+02 -0.11176911195E+03  0.16543939826E+03  0.00000000000E+00 0.  1.
         12    1    4    4    0    0 -0.13184366445E+03 -0.13375783977E+02 -0.10623529736E+03  0.16984581790E+03  0.00000000000E+00 0. -1.
         -5    1    5    5    0  503  0.18225366690E+03  0.82682739793E+02 -0.31646631582E+03  0.37446742663E+03  0.47000000000E+01 0.  1.
         13    1    6    6    0    0  0.11886655957E+02  0.25353631749E+02 -0.99639044918E+01  0.29721686113E+02  0.00000000000E+00 0. -1.
        -14    1    6    6    0    0  0.22546211861E+02 -0.32946721165E+02 -0.12017176181E+03  0.12662965862E+03  0.00000000000E+00 0.  1.
</event>
<event>
12    1  0.9246030E-003  0.2123684E+03  0.7818608E-02  0.1140240E+00
         21   -1    0    0  503  502  0.00000000000E+00  0.00000000000E+00  0.23908039965E+03  0.23908039965E+03  0.00000000000E+00 0.  1.
         21   -1    0    0  501  503 -0.00000000000E+00 -0.00000000000E+00 -0.20034471913E+03  0.20034471913E+03  0.00000000000E+00 0.  1.
          6    2    1    2  501    0 -0.11199067169E+03  0.43610707276E+02  0.77808427429E+02  0.22617358168E+03  0.17509007207E+03 0.  0.
         24    2    3    3    0    0 -0.98150776275E+02  0.67400911898E+02  0.11161436685E+03  0.18232785120E+03  0.81297113281E+02 0.  0.
         -6    2    1    2    0  502  0.11199067169E+03 -0.43610707276E+02 -0.39072746907E+02  0.21325153710E+03  0.17177233243E+03 0.  0.
        -24    2    5    5    0    0 -0.40980687261E+01 -0.38781268883E+01 -0.36926387501E+02  0.90442862918E+02  0.82368193639E+02 0.  0.
          5    1    3    3  501    0 -0.13839895415E+02 -0.23790204622E+02 -0.33805939422E+02  0.43845730479E+02  0.47000000000E+01 0. -1.
        -11    1    4    4    0    0 -0.97088625407E+02  0.33551950708E+02  0.10669421487E+03  0.14810668474E+03  0.00000000000E+00 0.  1.
         12    1    4    4    0    0 -0.10621508685E+01  0.33848961191E+02  0.49201519842E+01  0.34221166457E+02  0.00000000000E+00 0. -1.
         -5    1    5    5    0  502  0.11608874042E+03 -0.39732580387E+02 -0.21463594058E+01  0.12280867418E+03  0.47000000000E+01 0.  1.
         11    1    6    6    0    0 -0.25847176309E+02 -0.37762863658E+01  0.17761981982E+02  0.31588365988E+02  0.00000000000E+00 0. -1.
        -12    1    6    6    0    0  0.21749107582E+02 -0.10184052253E+00 -0.54688369484E+02  0.58854496930E+02  0.00000000000E+00 0.  1.
</event>
<event>
12    1  0.9246030E-003  0.1816938E+03  0.7818608E-02  0.1166214E+00
         21   -1    0    0  503  502  0.00000000000E+00  0.00000000000E+00  0.18132157778E+03  0.18132157778E+03  0.00000000000E+00 0. -1.
         21   -1    0    0  501  503 -0.00000000000E+00 -0.00000000000E+00 -0.19335489596E+03  0.19335489596E+03  0.00000000000E+00 0. -1.
          6    2    1    2  501    0 -0.57748955184E+02 -0.43367293469E+01  0.39578143808E+02  0.18595448252E+03  0.17221756895E+03 0.  0.
         24    2    3    3    0    0 -0.83582558096E+02 -0.29193138129E+02 -0.12157170824E+02  0.12283674431E+03  0.84278025715E+02 0.  0.
         -6    2    1    2    0  502  0.57748955184E+02  0.43367293469E+01 -0.51611461989E+02  0.18872199122E+03  0.17204213994E+03 0.  0.
        -24    2    5    5    0    0 -0.35603102243E+02 -0.14766889295E+01 -0.20005041968E+02  0.89881421391E+02  0.80054398428E+02 0.  0.
          5    1    3    3  501    0  0.25833602912E+02  0.24856408782E+02  0.51735314632E+02  0.63117738213E+02  0.47000000000E+01 0. -1.
        -13    1    4    4    0    0  0.15825368629E+02 -0.61496192768E+01  0.80844036106E+01  0.18804725237E+02  0.00000000000E+00 0.  1.
         14    1    4    4    0    0 -0.99407926725E+02 -0.23043518852E+02 -0.20241574435E+02  0.10403201907E+03  0.00000000000E+00 0. -1.
         -5    1    5    5    0  502  0.93352057427E+02  0.58134182764E+01 -0.31606420021E+02  0.98840569831E+02  0.47000000000E+01 0.  1.
         13    1    6    6    0    0  0.98067191129E+01 -0.31260517754E+02 -0.26493844836E+01  0.32869605232E+02  0.00000000000E+00 0. -1.
        -14    1    6    6    0    0 -0.45409821356E+02  0.29783828824E+02 -0.17355657484E+02  0.57011816159E+02  0.00000000000E+00 0.  1.
</event>
<event>
12    1  0.9246030E-003  0.2472566E+03  0.7818608E-02  0.1115136E+00
         21   -1    0    0  503  502  0.00000000000E+00  0.00000000000E+00  0.42314376656E+03  0.42314376656E+03  0.00000000000E+00 0.  1.
         21   -1    0    0  501  503 -0.00000000000E+00 -0.00000000000E+00 -0.16976061420E+03  0.16976061420E+03  0.00000000000E+00 0. -1.
          6    2    1    2  501    0  0.15603331579E+03  0.83693496318E+02  0.11478798033E+02  0.24699465850E+03  0.17182433344E+03 0.  0.
         24    2    3    3    0    0  0.15009625595E+03  0.74877082471E+02 -0.43465843561E+02  0.19083433913E+03  0.79956249932E+02 0.  0.
         -6    2    1    2    0  502 -0.15603331579E+03 -0.83693496318E+02  0.24190435432E+03  0.34590972225E+03  0.17258279851E+03 0.  0.
        -24    2    5    5    0    0 -0.14062463537E+03 -0.43189207419E+01  0.19081792780E+03  0.25015136149E+03  0.79814039717E+02 0.  0.
          5    1    3    3  501    0  0.59370598373E+01  0.88164138474E+01  0.54944641594E+02  0.56160319377E+02  0.47000000000E+01 0. -1.
        -13    1    4    4    0    0  0.14814863315E+02  0.33390137266E+02  0.12586534972E+02  0.38636799871E+02  0.00000000000E+00 0.  1.
         14    1    4    4    0    0  0.13528139264E+03  0.41486945205E+02 -0.56052378533E+02  0.15219753926E+03  0.00000000000E+00 0. -1.
         -5    1    5    5    0  502 -0.15408680416E+02 -0.79374575576E+02  0.51086426528E+02  0.95758360760E+02  0.47000000000E+01 0.  1.
         11    1    6    6    0    0 -0.12208008974E+03  0.15980029456E+02  0.11114502126E+03  0.16586779496E+03  0.00000000000E+00 0. -1.
        -12    1    6    6    0    0 -0.18544545634E+02 -0.20298950198E+02  0.79672906532E+02  0.84283566531E+02  0.00000000000E+00 0.  1.
</event>
<event>
12    1  0.9246030E-003  0.3194360E+03  0.7818608E-02  0.1075935E+00
         21   -1    0    0  503  502  0.00000000000E+00  0.00000000000E+00  0.42127679062E+03  0.42127679062E+03  0.00000000000E+00 0. -1.
         21   -1    0    0  501  503 -0.00000000000E+00 -0.00000000000E+00 -0.24204357078E+03  0.24204357078E+03  0.00000000000E+00 0.  1.
          6    2    1    2  501    0  0.26668922488E+03  0.36363183367E+02  0.88737245895E+02  0.33153232391E+03  0.17202894877E+03 0.  0.
         24    2    3    3    0    0  0.11911487410E+03 -0.19967254873E+02 -0.11122146249E+02  0.14459571572E+03  0.78722133921E+02 0.  0.
         -6    2    1    2    0  502 -0.26668922488E+03 -0.36363183367E+02  0.90495973942E+02  0.33178803749E+03  0.17160523521E+03 0.  0.
        -24    2    5    5    0    0 -0.18935853103E+03  0.22904507769E+02  0.13629776667E+02  0.20759786998E+03  0.80807394821E+02 0.  0.
          5    1    3    3  501    0  0.14757435078E+03  0.56330438240E+02  0.99859392144E+02  0.18693660818E+03  0.47000000000E+01 0. -1.
        -13    1    4    4    0    0 -0.32412212238E+01 -0.39098768544E-01  0.17142322964E+02  0.17446096421E+02  0.00000000000E+00 0.  1.
         14    1    4    4    0    0  0.12235609532E+03 -0.19928156105E+02 -0.28264469213E+02  0.12714961930E+03  0.00000000000E+00 0. -1.
         -5    1    5    5    0  502 -0.77330693846E+02 -0.59267691136E+02  0.76866197274E+02  0.12419016751E+03  0.47000000000E+01 0.  1.
         11    1    6    6    0    0 -0.15056635160E+02 -0.43008374669E+01 -0.22608864898E+02  0.27502004240E+02  0.00000000000E+00 0. -1.
        -12    1    6    6    0    0 -0.17430189587E+03  0.27205345236E+02  0.36238641566E+02  0.18009586574E+03  0.00000000000E+00 0.  1.
</event>
<event>
12    1  0.9246030E-003  0.1961377E+03  0.7818608E-02  0.1153192E+00
         21   -1    0    0  503  502  0.00000000000E+00  0.00000000000E+00  0.45689472904E+02  0.45689472904E+02  0.00000000000E+00 0. -1.
         21   -1    0    0  501  503 -0.00000000000E+00 -0.00000000000E+00 -0.86424727294E+03  0.86424727294E+03  0.00000000000E+00 0. -1.
          6    2    1    2  501    0 -0.93993948169E+02 -0.20721224963E+01 -0.48780742631E+03  0.52576239744E+03  0.17213615951E+03 0.  0.
         24    2    3    3    0    0 -0.72258812115E+02 -0.22467255483E+02 -0.14592772971E+03  0.18255372252E+03  0.79403059203E+02 0.  0.
         -6    2    1    2    0  502  0.93993948169E+02  0.20721224963E+01 -0.33075037372E+03  0.38417434841E+03  0.17133290481E+03 0.  0.
        -24    2    5    5    0    0  0.26997612100E+02  0.59328412685E+02 -0.22651136882E+03  0.24759231461E+03  0.75801203404E+02 0.  0.
          5    1    3    3  501    0 -0.21735136055E+02  0.20395132986E+02 -0.34187969661E+03  0.34320867492E+03  0.47000000000E+01 0. -1.
        -11    1    4    4    0    0 -0.54863564933E+02 -0.50113806131E+02 -0.81304619339E+02  0.11014465692E+03  0.00000000000E+00 0.  1.
         12    1    4    4    0    0 -0.17395247182E+02  0.27646550648E+02 -0.64623110368E+02  0.72409065599E+02  0.00000000000E+00 0. -1.
         -5    1    5    5    0  502  0.66996336069E+02 -0.57256290189E+02 -0.10423900490E+03  0.13658203380E+03  0.47000000000E+01 0.  1.
         13    1    6    6    0    0  0.79529923117E+00  0.31463692252E+01  0.60743277048E+01  0.68869149286E+01  0.00000000000E+00 0. -1.
        -14    1    6    6    0    0  0.26202312869E+02  0.56182043460E+02 -0.23258569653E+03  0.24070539968E+03  0.00000000000E+00 0.  1.
</event>
<event>
12    1  0.9246030E-003  0.1947367E+03  0.7818608E-02  0.1154291E+00
         21   -1    0    0  501  502  0.00000000000E+00  0.00000000000E+00  0.31109011277E+03  0.31109011277E+03  0.00000000000E+00 0. -1.
         21   -1    0    0  502  503 -0.00000000000E+00 -0.00000000000E+00 -0.12726142557E+03  0.12726142557E+03  0.00000000000E+00 0. -1.
          6    2    1    2  501    0 -0.25581948688E+02 -0.87789278528E+02  0.13726736178E+03  0.23812583525E+03  0.17175619721E+03 0.  0.
         24    2    3    3    0    0  0.26569065274E+02 -0.15283841099E+02  0.12097345775E+03  0.14721737568E+03  0.78095244371E+02 0.  0.
         -6    2    1    2    0  503  0.25581948688E+02  0.87789278528E+02  0.46561325419E+02  0.20022570308E+03  0.17193307310E+03 0.  0.
        -24    2    5    5    0    0  0.69602691000E+02  0.80234711422E+01  0.24811640844E+02  0.10644111714E+03  0.76191752914E+02 0.  0.
          5    1    3    3  501    0 -0.52151013963E+02 -0.72505437429E+02  0.16293904035E+02  0.90908459578E+02  0.47000000000E+01 0. -1.
        -13    1    4    4    0    0  0.38038178820E+01  0.24361007738E+02  0.89596189920E+01  0.26233613952E+02  0.00000000000E+00 0.  1.
         14    1    4    4    0    0  0.22765247392E+02 -0.39644848837E+02  0.11201383876E+03  0.12098376172E+03  0.00000000000E+00 0. -1.
         -5    1    5    5    0  503 -0.44020742312E+02  0.79765807386E+02  0.21749684575E+02  0.93784585944E+02  0.47000000000E+01 0.  1.
         11    1    6    6    0    0  0.31724595382E+02  0.38024654966E+02  0.29910362705E+02  0.57852866261E+02  0.00000000000E+00 0. -1.
        -12    1    6    6    0    0  0.37878095618E+02 -0.30001183824E+02 -0.50987218610E+01  0.48588250875E+02  0.00000000000E+00 0.  1.
</event>
<event>
12    1  0.9246030E-003  0.1785285E+03  0.7818608E-02  0.1169465E+00
         21   -1    0    0  501  502  0.00000000000E+00  0.00000000000E+00  0.80186987156E+02  0.80186987156E+02  0.00000000000E+00 0. -1.
         21   -1    0    0  502  503 -0.00000000000E+00 -0.00000000000E+00 -0.39820883134E+03  0.39820883134E+03  0.00000000000E+00 0. -1.
          6    2    1    2  501    0 -0.38246623888E+02 -0.26276211319E+02 -0.13846625686E+03  0.22519107624E+03  0.17142016512E+03 0.  0.
         24    2    3    3    0    0 -0.82880358983E+01  0.25322197677E+02 -0.14432382539E+02  0.87472505289E+02  0.82056323836E+02 0.  0.
         -6    2    1    2    0  503  0.38246623888E+02  0.26276211319E+02 -0.17955558732E+03  0.25320474225E+03  0.17239254346E+03 0.  0.
        -24    2    5    5    0    0  0.10265318830E+02  0.84678565072E+02 -0.12171468844E+03  0.16624815573E+03  0.74485889594E+02 0.  0.
          5    1    3    3  501    0 -0.29958587990E+02 -0.51598408997E+02 -0.12403387432E+03  0.13771857095E+03  0.47000000000E+01 0. -1.
        -13    1    4    4    0    0  0.23255448048E+02 -0.19007800987E+02 -0.13819395306E+02  0.33061882113E+02  0.00000000000E+00 0.  1.
         14    1    4    4    0    0 -0.31543483946E+02  0.44329998664E+02 -0.61298723291E+00  0.54410623175E+02  0.00000000000E+00 0. -1.
         -5    1    5    5    0  503  0.27981305059E+02 -0.58402353752E+02 -0.57840898883E+02  0.86956586526E+02  0.47000000000E+01 0.  1.
         11    1    6    6    0    0 -0.32663598816E+01  0.68013771653E+01  0.10065687703E+02  0.12579582948E+02  0.00000000000E+00 0. -1.
        -12    1    6    6    0    0  0.13531678711E+02  0.77877187906E+02 -0.13178037614E+03  0.15366857278E+03  0.00000000000E+00 0.  1.
</event>
<event>
12    1  0.9246030E-003  0.1800570E+03  0.7818608E-02  0.1167815E+00
         21   -1    0    0  503  502  0.00000000000E+00  0.00000000000E+00  0.88964081237E+02  0.88964081237E+02  0.00000000000E+00 0.  1.
         21   -1    0    0  501  503 -0.00000000000E+00 -0.00000000000E+00 -0.41298920734E+03  0.41298920734E+03  0.00000000000E+00 0.  1.
          6    2    1    2  501    0 -0.52658266252E+02 -0.92806746432E+01 -0.24846612714E+03  0.30668509001E+03  0.17164295551E+03 0.  0.
         24    2    3    3    0    0 -0.55346580698E+02  0.32866937251E+02 -0.71777923541E+02  0.12495875865E+03  0.79493027965E+02 0.  0.
         -6    2    1    2    0  502  0.52658266252E+02  0.92806746432E+01 -0.75558998963E+02  0.19526819856E+03  0.17193453149E+03 0.  0.
        -24    2    5    5    0    0  0.14868437772E+02 -0.45026868073E+02  0.25428093966E+01  0.92801800158E+02  0.79732170062E+02 0.  0.
          5    1    3    3  501    0  0.26883144459E+01 -0.42147611894E+02 -0.17668820359E+03  0.18172633137E+03  0.47000000000E+01 0. -1.
        -13    1    4    4    0    0  0.38831169551E+01  0.15449396208E+02 -0.60037317598E+02  0.62114748207E+02  0.00000000000E+00 0.  1.
         14    1    4    4    0    0 -0.59229697653E+02  0.17417541043E+02 -0.11740605944E+02  0.62844010439E+02  0.00000000000E+00 0. -1.
         -5    1    5    5    0  502  0.37789828480E+02  0.54307542716E+02 -0.78101808360E+02  0.10246639840E+03  0.47000000000E+01 0.  1.
         11    1    6    6    0    0 -0.20921004655E+02 -0.14889853989E+02 -0.27163541523E+02  0.37379863238E+02  0.00000000000E+00 0. -1.
        -12    1    6    6    0    0  0.35789442427E+02 -0.30137014083E+02  0.29706350920E+02  0.55421936921E+02  0.00000000000E+00 0.  1.
</event>
<event>
12    1  0.9246030E-003  0.3483254E+03  0.7818608E-02  0.1063726E+00
         21   -1    0    0  501  502  0.00000000000E+00  0.00000000000E+00  0.68565360631E+03  0.68565360631E+03  0.00000000000E+00 0. -1.
         21   -1    0    0  502  503 -0.00000000000E+00 -0.00000000000E+00 -0.18840228058E+03  0.18840228058E+03  0.00000000000E+00 0.  1.
          6    2    1    2  501    0 -0.47513957174E+02 -0.29221102959E+03  0.13027190807E+03  0.36808706269E+03  0.17570558827E+03 0.  0.
         24    2    3    3    0    0 -0.13216894898E+02 -0.25043660188E+03  0.15905738616E+03  0.30666976025E+03  0.76510861227E+02 0.  0.
         -6    2    1    2    0  503  0.47513957174E+02  0.29221102959E+03  0.36697941766E+03  0.50596882419E+03  0.18353663429E+03 0.  0.
        -24    2    5    5    0    0  0.33846436481E+01  0.23531676827E+03  0.18609362479E+03  0.31122254478E+03  0.82723623883E+02 0.  0.
          5    1    3    3  501    0 -0.34297062277E+02 -0.41774427703E+02 -0.28785478086E+02  0.61417302443E+02  0.47000000000E+01 0. -1.
        -13    1    4    4    0    0 -0.98165490966E+01 -0.20156641427E+00 -0.57211579605E+00  0.98352723231E+01  0.00000000000E+00 0.  1.
         14    1    4    4    0    0 -0.34003458010E+01 -0.25023503547E+03  0.15962950195E+03  0.29683448792E+03  0.00000000000E+00 0. -1.
         -5    1    5    5    0  503  0.44129313526E+02  0.56894261318E+02  0.18088579287E+03  0.19474627942E+03  0.47000000000E+01 0.  1.
         13    1    6    6    0    0  0.11305598729E+02  0.55997187138E+02  0.92689111746E+02  0.10887962604E+03  0.00000000000E+00 0. -1.
        -14    1    6    6    0    0 -0.79209550809E+01  0.17931958113E+03  0.93404513044E+02  0.20234291874E+03  0.00000000000E+00 0.  1.
</event>
<event>
12    1  0.9246030E-003  0.2168346E+03  0.7818608E-02  0.1136458E+00
         21   -1    0    0  501  502  0.00000000000E+00  0.00000000000E+00  0.10863896396E+03  0.10863896396E+03  0.00000000000E+00 0.  1.
         21   -1    0    0  502  503 -0.00000000000E+00 -0.00000000000E+00 -0.48341322005E+03  0.48341322005E+03  0.00000000000E+00 0.  1.
          6    2    1    2  501    0  0.30759278978E+02  0.12720113302E+03 -0.90086548396E+02  0.23480377558E+03  0.17289003829E+03 0.  0.
         24    2    3    3    0    0  0.64794332219E+02  0.41891465435E+02 -0.10493691231E+02  0.11317632332E+03  0.82131371839E+02 0.  0.
         -6    2    1    2    0  503 -0.30759278978E+02 -0.12720113302E+03 -0.28468770769E+03  0.35724840843E+03  0.17161897602E+03 0.  0.
        -24    2    5    5    0    0 -0.72820599566E+02 -0.12271940542E+03 -0.16711602654E+03  0.23221069099E+03  0.75040965466E+02 0.  0.
          5    1    3    3  501    0 -0.34035053241E+02  0.85309667582E+02 -0.79592857164E+02  0.12162745226E+03  0.47000000000E+01 0. -1.
        -13    1    4    4    0    0  0.38367336263E+02  0.66339755523E+02 -0.55388993144E+01  0.76835506508E+02  0.00000000000E+00 0.  1.
         14    1    4    4    0    0  0.26426995956E+02 -0.24448290088E+02 -0.49547919171E+01  0.36340816810E+02  0.00000000000E+00 0. -1.
         -5    1    5    5    0  503  0.42061320588E+02 -0.44817275993E+01 -0.11757168115E+03  0.12503771744E+03  0.47000000000E+01 0.  1.
         13    1    6    6    0    0 -0.31267642401E+02 -0.46819434496E+01 -0.14311740196E+02  0.34704638929E+02  0.00000000000E+00 0. -1.
        -14    1    6    6    0    0 -0.41552957165E+02 -0.11803746197E+03 -0.15280428634E+03  0.19750605206E+03  0.00000000000E+00 0.  1.
</event>
<event>
12    1  0.9246030E-003  0.1957209E+03  0.7818608E-02  0.1154294E+00
         21   -1    0    0  503  502  0.00000000000E+00  0.00000000000E+00  0.37920701434E+03  0.37920701434E+03  0.00000000000E+00 0. -1.
         21   -1    0    0  501  503 -0.00000000000E+00 -0.00000000000E+00 -0.10269290787E+03  0.10269290787E+03  0.00000000000E+00 0.  1.
          6    2    1    2  501    0 -0.79118605976E+02 -0.37552218126E+02  0.90710262946E+02  0.21203006694E+03  0.17046546449E+03 0.  0.
         24    2    3    3    0    0  0.87540783859E+00  0.34421990946E+01 -0.41216903129E+01  0.81283082846E+02  0.81100777755E+02 0.  0.
         -6    2    1    2    0  502  0.79118605976E+02  0.37552218126E+02  0.18580384353E+03  0.26986985527E+03  0.17503356140E+03 0.  0.
        -24    2    5    5    0    0  0.63237042678E+02  0.84868749967E+02  0.17383272917E+03  0.21832884425E+03  0.79044533091E+02 0.  0.
          5    1    3    3  501    0 -0.79994013815E+02 -0.40994417221E+02  0.94831953259E+02  0.13074698409E+03  0.47000000000E+01 0. -1.
        -11    1    4    4    0    0 -0.21440767045E+02  0.35846316277E+02 -0.37377423412E+01  0.41936089469E+02  0.00000000000E+00 0.  1.
         12    1    4    4    0    0  0.22316174883E+02 -0.32404117183E+02 -0.38394797165E+00  0.39346993378E+02  0.00000000000E+00 0. -1.
         -5    1    5    5    0  502  0.15881563298E+02 -0.47316531841E+02  0.11971114357E+02  0.51541011022E+02  0.47000000000E+01 0.  1.
         13    1    6    6    0    0 -0.44901825056E+01  0.14462303029E+02  0.84831867811E+02  0.86172882881E+02  0.00000000000E+00 0. -1.
        -14    1    6    6    0    0  0.67727225183E+02  0.70406446939E+02  0.89000861359E+02  0.13215596136E+03  0.00000000000E+00 0.  1.
</event>
<event>
12    1  0.9246030E-003  0.1962772E+03  0.7818608E-02  0.1153146E+00
         21   -1    0    0  503  502  0.00000000000E+00  0.00000000000E+00  0.20335662219E+03  0.20335662219E+03  0.00000000000E+00 0.  1.
         21   -1    0    0  501  503 -0.00000000000E+00 -0.00000000000E+00 -0.20924960440E+03  0.20924960440E+03  0.00000000000E+00 0. -1.
          6    2    1    2  501    0  0.64087899406E+02 -0.68395513565E+02 -0.68009474818E+02  0.20673444176E+03  0.17125605279E+03 0.  0.
         24    2    3    3    0    0  0.53259644853E+02  0.17523560890E+02 -0.73244746566E+02  0.11985040109E+03  0.76522289476E+02 0.  0.
         -6    2    1    2    0  502 -0.64087899406E+02  0.68395513565E+02  0.62116492610E+02  0.20587178483E+03  0.17245152365E+03 0.  0.
        -24    2    5    5    0    0 -0.32066845212E+02 -0.28555574424E+02  0.93346920082E+01  0.90837573189E+02  0.79502357420E+02 0.  0.
          5    1    3    3  501    0  0.10828254553E+02 -0.85919074455E+02  0.52352717485E+01  0.86884040664E+02  0.47000000000E+01 0. -1.
        -13    1    4    4    0    0 -0.13546122003E+02  0.20522021125E+02 -0.35121498382E+02  0.42873889734E+02  0.00000000000E+00 0.  1.
         14    1    4    4    0    0  0.66805766856E+02 -0.29984602344E+01 -0.38123248184E+02  0.76976511359E+02  0.00000000000E+00 0. -1.
         -5    1    5    5    0  502 -0.32021054194E+02  0.96951087989E+02  0.52781800602E+02  0.11503421164E+03  0.47000000000E+01 0.  1.
         11    1    6    6    0    0 -0.21235971070E+02 -0.42400801938E+02  0.35554983708E+02  0.59270155549E+02  0.00000000000E+00 0. -1.
        -12    1    6    6    0    0 -0.10830874141E+02  0.13845227514E+02 -0.26220291700E+02  0.31567417640E+02  0.00000000000E+00 0.  1.
</event>
<event>
12    1  0.9246030E-003  0.2120392E+03  0.7818608E-02  0.1140511E+00
         21   -1    0    0  503  502  0.00000000000E+00  0.00000000000E+00  0.14780083277E+03  0.14780083277E+03  0.00000000000E+00 0. -1.
         21   -1    0    0  501  503 -0.00000000000E+00 -0.00000000000E+00 -0.31219573495E+03  0.31219573495E+03  0.00000000000E+00 0. -1.
          6    2    1    2  501    0 -0.11795056769E+03  0.14772284351E+02 -0.12674550064E+03  0.24464078450E+03  0.17220375927E+03 0.  0.
         24    2    3    3    0    0 -0.12884405593E+03  0.98669144190E+01 -0.40883038768E+02  0.15782383283E+03  0.80862801098E+02 0.  0.
         -6    2    1    2    0  502  0.11795056769E+03 -0.14772284351E+02 -0.37649401543E+02  0.21535578321E+03  0.17558496269E+03 0.  0.
        -24    2    5    5    0    0  0.80570202619E+02  0.61335072535E+02 -0.27229734474E+02  0.12979714293E+03  0.76500269276E+02 0.  0.
          5    1    3    3  501    0  0.10893488232E+02  0.49053699323E+01 -0.85862461870E+02  0.86816951677E+02  0.47000000000E+01 0. -1.
        -13    1    4    4    0    0 -0.53583014254E+00  0.19217988953E+02 -0.19548516224E+02  0.27418291338E+02  0.00000000000E+00 0.  1.
         14    1    4    4    0    0 -0.12830822578E+03 -0.93510745340E+01 -0.21334522543E+02  0.13040554149E+03  0.00000000000E+00 0. -1.
         -5    1    5    5    0  502  0.37380365074E+02 -0.76107356886E+02 -0.10419667069E+02  0.85558640283E+02  0.47000000000E+01 0.  1.
         11    1    6    6    0    0  0.72908062181E+02  0.34244343384E+02 -0.48934104413E+02  0.94248645398E+02  0.00000000000E+00 0. -1.
        -12    1    6    6    0    0  0.76621404385E+01  0.27090729151E+02  0.21704369939E+02  0.35548497528E+02  0.00000000000E+00 0.  1.
</event>
<event>
12    1  0.9246030E-003  0.2117875E+03  0.7818608E-02  0.1140317E+00
         21   -1    0    0  503  502  0.00000000000E+00  0.00000000000E+00  0.17834613945E+03  0.17834613945E+03  0.00000000000E+00 0. -1.
         21   -1    0    0  501  503 -0.00000000000E+00 -0.00000000000E+00 -0.26843553426E+03  0.26843553426E+03  0.00000000000E+00 0. -1.
          6    2    1    2  501    0  0.11810087007E+03  0.35060148236E+02 -0.10280912806E+03  0.23542230277E+03  0.17226988803E+03 0.  0.
         24    2    3    3    0    0  0.45623452487E+00  0.30606635385E+02 -0.77559496020E+01  0.84037723681E+02  0.77879457931E+02 0.  0.
         -6    2    1    2    0  502 -0.11810087007E+03 -0.35060148236E+02  0.12719733256E+02  0.21135937094E+03  0.17127160466E+03 0.  0.
        -24    2    5    5    0    0 -0.76261479399E+02 -0.85876701324E+02  0.26570513898E+02  0.14392947546E+03  0.82577724769E+02 0.  0.
          5    1    3    3  501    0  0.11764463554E+03  0.44535128503E+01 -0.95053178462E+02  0.15138457909E+03  0.47000000000E+01 0. -1.
        -13    1    4    4    0    0  0.17287190514E+02  0.46325443335E+02  0.14990802179E+02  0.51668344332E+02  0.00000000000E+00 0.  1.
         14    1    4    4    0    0 -0.16830955989E+02 -0.15718807950E+02 -0.22746751781E+02  0.32369379349E+02  0.00000000000E+00 0. -1.
         -5    1    5    5    0  502 -0.41839390670E+02  0.50816553088E+02 -0.13850780642E+02  0.67429895475E+02  0.47000000000E+01 0.  1.
         11    1    6    6    0    0 -0.91891948062E+02 -0.55975971966E+02  0.17715348173E+02  0.10904711421E+03  0.00000000000E+00 0. -1.
        -12    1    6    6    0    0  0.15630468663E+02 -0.29900729358E+02  0.88551657258E+01  0.34882361256E+02  0.00000000000E+00 0.  1.
</event>
<event>
12    1  0.9246030E-003  0.2398066E+03  0.7818608E-02  0.1120175E+00
         21   -1    0    0  501  502  0.00000000000E+00  0.00000000000E+00  0.35596998654E+03  0.35596998654E+03  0.00000000000E+00 0. -1.
         21   -1    0    0  502  503 -0.00000000000E+00 -0.00000000000E+00 -0.26426773955E+03  0.26426773955E+03  0.00000000000E+00 0. -1.
          6    2    1    2  501    0  0.74429965822E+02 -0.14738591130E+03  0.24006089257E+03  0.33824926992E+03  0.17181650037E+03 0.  0.
         24    2    3    3    0    0  0.17792131659E+02 -0.28841524675E+01  0.84296279828E+02  0.11830994386E+03  0.81033954241E+02 0.  0.
         -6    2    1    2    0  503 -0.74429965822E+02  0.14738591130E+03 -0.14835864557E+03  0.28198845617E+03  0.17391024994E+03 0.  0.
        -24    2    5    5    0    0  0.11409955869E+02  0.96953383622E+02 -0.34834339773E+02  0.13091963076E+03  0.79977326798E+02 0.  0.
          5    1    3    3  501    0  0.56637834163E+02 -0.14450175883E+03  0.15576461274E+03  0.21993932606E+03  0.47000000000E+01 0. -1.
        -13    1    4    4    0    0  0.35359206669E+02 -0.91698387390E+01  0.50253971038E+01  0.36872944754E+02  0.00000000000E+00 0.  1.
         14    1    4    4    0    0 -0.17567075010E+02  0.62856862715E+01  0.79270882724E+02  0.81436999111E+02  0.00000000000E+00 0. -1.
         -5    1    5    5    0  503 -0.85839921690E+02  0.50432527679E+02 -0.11352430580E+03  0.15106882541E+03  0.47000000000E+01 0.  1.
         13    1    6    6    0    0  0.27920998875E+02  0.11567298040E+02 -0.31841088486E+02  0.43900335740E+02  0.00000000000E+00 0. -1.
        -14    1    6    6    0    0 -0.16511043006E+02  0.85386085582E+02 -0.29932512874E+01  0.87019295019E+02  0.00000000000E+00 0.  1.
</event>
<event>
12    1  0.9246030E-003  0.1791934E+03  0.7818608E-02  0.1168675E+00
         21   -1    0    0  503  502  0.00000000000E+00  0.00000000000E+00  0.20395677384E+03  0.20395677384E+03  0.00000000000E+00 0.  1.
         21   -1    0    0  501  503 -0.00000000000E+00 -0.00000000000E+00 -0.16409499931E+03  0.16409499931E+03  0.00000000000E+00 0.  1.
          6    2    1    2  501    0 -0.53278167074E+01  0.47866661204E+02  0.57902097783E+02  0.18831602060E+03  0.17259973292E+03 0.  0.
         24    2    3    3    0    0  0.41144753104E+01  0.75513752034E+02  0.92634153263E+02  0.14268791317E+03  0.77842781051E+02 0.  0.
         -6    2    1    2    0  502  0.53278167074E+01 -0.47866661204E+02 -0.18040323251E+02  0.17973575255E+03  0.17222045348E+03 0.  0.
        -24    2    5    5    0    0 -0.50687905557E+01 -0.77727178368E+02  0.36600043812E+02  0.11643172708E+03  0.78419238516E+02 0.  0.
          5    1    3    3  501    0 -0.94422920177E+01 -0.27647090829E+02 -0.34732055480E+02  0.45628107431E+02  0.47000000000E+01 0. -1.
        -13    1    4    4    0    0 -0.68242620969E+01  0.83444643000E+01  0.70212659686E+02  0.71035330771E+02  0.00000000000E+00 0.  1.
         14    1    4    4    0    0  0.10938737407E+02  0.67169287734E+02  0.22421493577E+02  0.71652582403E+02  0.00000000000E+00 0. -1.
         -5    1    5    5    0  502  0.10396607263E+02  0.29860517163E+02 -0.54640367064E+02  0.63304025470E+02  0.47000000000E+01 0.  1.
         13    1    6    6    0    0 -0.40665835869E+02 -0.32739804143E+02  0.98256575248E+01  0.53123897900E+02  0.00000000000E+00 0. -1.
        -14    1    6    6    0    0  0.35597045314E+02 -0.44987374225E+02  0.26774386287E+02  0.63307829182E+02  0.00000000000E+00 0.  1.
</event>
<event>
12    1  0.9246030E-003  0.2466440E+03  0.7818608E-02  0.1115574E+00
         21   -1    0    0  501  502  0.00000000000E+00  0.00000000000E+00  0.13559865914E+03  0.13559865914E+03  0.00000000000E+00 0. -1.
         21   -1    0    0  502  503 -0.00000000000E+00 -0.00000000000E+00 -0.44715832726E+03  0.44715832726E+03  0.00000000000E+00 0. -1.
          6    2    1    2  501    0  0.77649721944E+02 -0.15794051101E+03 -0.15544288328E+03  0.29085683157E+03  0.17164067751E+03 0.  0.
         24    2    3    3    0    0  0.16356830330E+02 -0.15811238153E+03 -0.85053526911E+02  0.19740310189E+03  0.80416485266E+02 0.  0.
         -6    2    1    2    0  503 -0.77649721944E+02  0.15794051101E+03 -0.15611678484E+03  0.29190015483E+03  0.17279631230E+03 0.  0.
        -24    2    5    5    0    0 -0.70103265348E+02  0.20474787641E+02 -0.51991253800E+02  0.11922129010E+03  0.78593516278E+02 0.  0.
          5    1    3    3  501    0  0.61292891614E+02  0.17187052876E+00 -0.70389356367E+02  0.93453729683E+02  0.47000000000E+01 0. -1.
        -13    1    4    4    0    0 -0.21625822921E+02 -0.72399171618E+02 -0.68924787248E+02  0.10227386062E+03  0.00000000000E+00 0.  1.
         14    1    4    4    0    0  0.37982653251E+02 -0.85713209916E+02 -0.16128739663E+02  0.95129241273E+02  0.00000000000E+00 0. -1.
         -5    1    5    5    0  503 -0.75464565959E+01  0.13746572336E+03 -0.10412553104E+03  0.17267886472E+03  0.47000000000E+01 0.  1.
         11    1    6    6    0    0 -0.21289544038E+02  0.44247290792E+02 -0.88950817156E+01  0.49901802638E+02  0.00000000000E+00 0. -1.
        -12    1    6    6    0    0 -0.48813721310E+02 -0.23772503151E+02 -0.43096172084E+02  0.69319487465E+02  0.00000000000E+00 0.  1.
</event>
<event>
12    1  0.9246030E-003  0.2474921E+03  0.7818608E-02  0.1114936E+00
         21   -1    0    0  503  502  0.00000000000E+00  0.00000000000E+00  0.10120216814E+04  0.10120216814E+04  0.00000000000E+00 0. -1.
         21   -1    0    0  501  503 -0.00000000000E+00 -0.00000000000E+00 -0.65617004175E+02  0.65617004175E+02  0.00000000000E+00 0.  1.
          6    2    1    2  501    0  0.15571380909E+03  0.86824038137E+02  0.32209445406E+03  0.40606175371E+03  0.17133623829E+03 0.  0.
         24    2    3    3    0    0  0.15993318017E+03  0.24150821791E+02  0.20378435537E+03  0.27202778566E+03  0.79430273589E+02 0.  0.
         -6    2    1    2    0  502 -0.15571380909E+03 -0.86824038137E+02  0.62431022317E+03  0.67157693187E+03  0.17165988678E+03 0.  0.
        -24    2    5    5    0    0 -0.66150428372E+02 -0.11047523762E+03  0.43613006765E+03  0.46177979334E+03  0.80314907284E+02 0.  0.
          5    1    3    3  501    0 -0.42193710867E+01  0.62673216347E+02  0.11831009870E+03  0.13403396806E+03  0.47000000000E+01 0. -1.
        -11    1    4    4    0    0  0.24106615752E+02  0.35511829559E+02  0.37290005953E+02  0.56857396226E+02  0.00000000000E+00 0.  1.
         12    1    4    4    0    0  0.13582656442E+03 -0.11361007768E+02  0.16649434942E+03  0.21517038943E+03  0.00000000000E+00 0. -1.
         -5    1    5    5    0  502 -0.89563380716E+02  0.23651199484E+02  0.18818015552E+03  0.20979713853E+03  0.47000000000E+01 0.  1.
         11    1    6    6    0    0 -0.44640556563E+02 -0.61390899982E+02  0.36450990048E+03  0.37232927556E+03  0.00000000000E+00 0. -1.
        -12    1    6    6    0    0 -0.21509871809E+02 -0.49084337639E+02  0.71620167172E+02  0.89450517788E+02  0.00000000000E+00 0.  1.
</event>
<event>
12    1  0.9246030E-003  0.2123277E+03  0.7818608E-02  0.1140437E+00
         21   -1    0    0  503  502  0.00000000000E+00  0.00000000000E+00  0.57986572564E+03  0.57986572564E+03  0.00000000000E+00 0.  1.
         21   -1    0    0  501  503 -0.00000000000E+00 -0.00000000000E+00 -0.85568978584E+02  0.85568978584E+02  0.00000000000E+00 0.  1.
          6    2    1    2  501    0  0.67214874173E+02  0.97185720339E+02  0.13666864513E+03  0.24952496949E+03  0.17210894309E+03 0.  0.
         24    2    3    3    0    0  0.92868906899E+01  0.10573090679E+03  0.50565617920E+02  0.14529209188E+03  0.85367671029E+02 0.  0.
         -6    2    1    2    0  502 -0.67214874173E+02 -0.97185720339E+02  0.35762810193E+03  0.41590973474E+03  0.17640902643E+03 0.  0.
        -24    2    5    5    0    0 -0.20781018254E+02 -0.21951712036E+02  0.28988078335E+03  0.30442857868E+03  0.87932716210E+02 0.  0.
          5    1    3    3  501    0  0.57927983483E+02 -0.85451864504E+01  0.86103027207E+02  0.10423287762E+03  0.47000000000E+01 0. -1.
        -13    1    4    4    0    0  0.36951269652E+02  0.14704406660E+02  0.59483559912E+01  0.40211924141E+02  0.00000000000E+00 0.  1.
         14    1    4    4    0    0 -0.27664378962E+02  0.91026500129E+02  0.44617261929E+02  0.10508016773E+03  0.00000000000E+00 0. -1.
         -5    1    5    5    0  502 -0.46433855920E+02 -0.75234008302E+02  0.67747318589E+02  0.11148115606E+03  0.47000000000E+01 0.  1.
         13    1    6    6    0    0 -0.27925152925E+02 -0.27982945398E+02  0.47203849827E+02  0.61571607398E+02  0.00000000000E+00 0. -1.
        -14    1    6    6    0    0  0.71441346713E+01  0.60312333618E+01  0.24267693352E+03  0.24285697128E+03  0.00000000000E+00 0.  1.
</event>
<event>
12    1  0.9246030E-003  0.1907398E+03  0.7818608E-02  0.1158522E+00
         21   -1    0    0  503  502  0.00000000000E+00  0.00000000000E+00  0.11667918618E+03  0.11667918618E+03  0.00000000000E+00 0. -1.
         21   -1    0    0  501  503 -0.00000000000E+00 -0.00000000000E+00 -0.30740296175E+03  0.30740296175E+03  0.00000000000E+00 0. -1.
          6    2    1    2  501    0 -0.43871064115E+01  0.77939755125E+02 -0.10547290034E+03  0.21515778853E+03  0.17051243100E+03 0.  0.
         24    2    3    3    0    0 -0.17420042410E+02  0.39271058520E+02 -0.13622959102E+03  0.16384317522E+03  0.80252169315E+02 0.  0.
         -6    2    1    2    0  502  0.43871064115E+01 -0.77939755125E+02 -0.85250875221E+02  0.20892435940E+03  0.17403397396E+03 0.  0.
        -24    2    5    5    0    0  0.53128533414E+02 -0.82267865266E+02 -0.19822964979E+02  0.12708695547E+03  0.78533442499E+02 0.  0.
          5    1    3    3  501    0  0.13032935998E+02  0.38668696606E+02  0.30756690678E+02  0.51314613312E+02  0.47000000000E+01 0. -1.
        -11    1    4    4    0    0 -0.28300621452E+02  0.92514997960E+01 -0.68106394618E+01  0.30543415541E+02  0.00000000000E+00 0.  1.
         12    1    4    4    0    0  0.10880579042E+02  0.30019558723E+02 -0.12941895156E+03  0.13329975967E+03  0.00000000000E+00 0. -1.
         -5    1    5    5    0  502 -0.48741427003E+02  0.43281101411E+01 -0.65427910242E+02  0.81837403932E+02  0.47000000000E+01 0.  1.
         13    1    6    6    0    0  0.62627807605E+02 -0.74533863640E+02 -0.38551691738E+02  0.10470803241E+03  0.00000000000E+00 0. -1.
        -14    1    6    6    0    0 -0.94992741913E+01 -0.77340016269E+01  0.18728726758E+02  0.22378923060E+02  0.00000000000E+00 0.  1.
</event>
<event>
12    1  0.9246030E-003  0.2271155E+03  0.7818608E-02  0.1128723E+00
         21   -1    0    0  501  502  0.00000000000E+00  0.00000000000E+00  0.19635357948E+03  0.19635357948E+03  0.00000000000E+00 0. -1.
         21   -1    0    0  502  503 -0.00000000000E+00 -0.00000000000E+00 -0.27283019784E+03  0.27283019784E+03  0.00000000000E+00 0. -1.
          6    2    1    2  501    0  0.80807931078E+02 -0.12439337703E+03 -0.83958506874E+02  0.24194506198E+03  0.17171123483E+03 0.  0.
         24    2    3    3    0    0  0.37841115677E+02 -0.14136357266E+03 -0.93274163590E+02  0.19458467531E+03  0.88019978206E+02 0.  0.
         -6    2    1    2    0  503 -0.80807931078E+02  0.12439337703E+03  0.74818885167E+01  0.22723871534E+03  0.17198203721E+03 0.  0.
        -24    2    5    5    0    0 -0.99680045851E+02  0.53142537343E+02  0.42102353021E+02  0.14566969283E+03  0.81772920103E+02 0.  0.
          5    1    3    3  501    0  0.42966815401E+02  0.16970195630E+02  0.93156567160E+01  0.47360386669E+02  0.47000000000E+01 0. -1.
        -11    1    4    4    0    0 -0.24683828358E+02 -0.58181767876E+02 -0.54763295049E+02  0.83626718100E+02  0.00000000000E+00 0.  1.
         12    1    4    4    0    0  0.62524944035E+02 -0.83181804781E+02 -0.38510868541E+02  0.11095795721E+03  0.00000000000E+00 0. -1.
         -5    1    5    5    0  503  0.18872114773E+02  0.71250839685E+02 -0.34620464505E+02  0.81569022516E+02  0.47000000000E+01 0.  1.
         11    1    6    6    0    0 -0.17869328414E+02  0.33691514078E+02 -0.18135245956E+02  0.42229351934E+02  0.00000000000E+00 0. -1.
        -12    1    6    6    0    0 -0.81810717436E+02  0.19451023264E+02  0.60237598977E+02  0.10344034089E+03  0.00000000000E+00 0.  1.
</event>
<event>
12    1  0.9246030E-003  0.1867112E+03  0.7818608E-02  0.1161771E+00
         21   -1    0    0  503  502  0.00000000000E+00  0.00000000000E+00  0.10230395981E+03  0.10230395981E+03  0.00000000000E+00 0. -1.
         21   -1    0    0  501  503 -0.00000000000E+00 -0.00000000000E+00 -0.33840394831E+03  0.33840394831E+03  0.00000000000E+00 0. -1.
          6    2    1    2  501    0 -0.51093144210E+02  0.50096714376E+02 -0.11426906406E+03  0.21776434844E+03  0.17100790121E+03 0.  0.
         24    2    3    3    0    0  0.34685197912E+02  0.54673210060E+01 -0.42986323369E+02  0.97543610425E+02  0.80212077549E+02 0.  0.
         -6    2    1    2    0  502  0.51093144210E+02 -0.50096714376E+02 -0.12183092445E+03  0.22294355968E+03  0.17245540430E+03 0.  0.
        -24    2    5    5    0    0 -0.21007660695E+02  0.19336121079E+02 -0.61491422312E+02  0.10597180999E+03  0.81447050946E+02 0.  0.
          5    1    3    3  501    0 -0.85778342122E+02  0.44629393370E+02 -0.71282740689E+02  0.12022073802E+03  0.47000000000E+01 0. -1.
        -13    1    4    4    0    0  0.27451601278E+02 -0.65811456080E+00  0.19922085204E+02  0.33925108790E+02  0.00000000000E+00 0.  1.
         14    1    4    4    0    0  0.72335966334E+01  0.61254355667E+01 -0.62908408573E+02  0.63618501635E+02  0.00000000000E+00 0. -1.
         -5    1    5    5    0  502  0.72100804905E+02 -0.69432835455E+02 -0.60339502136E+02  0.11697174969E+03  0.47000000000E+01 0.  1.
         13    1    6    6    0    0 -0.60828141365E+01 -0.23883159811E+02  0.51254183432E+01  0.25172919250E+02  0.00000000000E+00 0. -1.
        -14    1    6    6    0    0 -0.14924846559E+02  0.43219280890E+02 -0.66616840656E+02  0.80798890737E+02  0.00000000000E+00 0.  1.
</event>
<event>
12    1  0.9246030E-003  0.1812132E+03  0.7818608E-02  0.1166759E+00
         21   -1    0    0  503  502  0.00000000000E+00  0.00000000000E+00  0.17835260881E+04  0.17835260881E+04  0.00000000000E+00 0.  1.
         21   -1    0    0  501  503 -0.00000000000E+00 -0.00000000000E+00 -0.22169903741E+02  0.22169903741E+02  0.00000000000E+00 0.  1.
          6    2    1    2  501    0  0.17690453382E+02 -0.53140175202E+02  0.50741075764E+03  0.53879858663E+03  0.17234096907E+03 0.  0.
         24    2    3    3    0    0  0.61802806686E+01 -0.10470711446E+03  0.36509693910E+03  0.38692052288E+03  0.73552297035E+02 0.  0.
         -6    2    1    2    0  502 -0.17690453382E+02  0.53140175202E+02  0.12539454267E+04  0.12668974052E+04  0.17179368960E+03 0.  0.
        -24    2    5    5    0    0  0.19929108452E+02 -0.27164658724E+02  0.53292542249E+03  0.54042921301E+03  0.83181369856E+02 0.  0.
          5    1    3    3  501    0  0.11510172713E+02  0.51566939254E+02  0.14231381854E+03  0.15187806375E+03  0.47000000000E+01 0. -1.
        -13    1    4    4    0    0  0.11168125355E+01 -0.82064456211E+02  0.15357216025E+03  0.17412705317E+03  0.00000000000E+00 0.  1.
         14    1    4    4    0    0  0.50634681331E+01 -0.22642658245E+02  0.21152477885E+03  0.21279346971E+03  0.00000000000E+00 0. -1.
         -5    1    5    5    0  502 -0.37619561834E+02  0.80304833926E+02  0.72102000421E+03  0.72646819219E+03  0.47000000000E+01 0.  1.
         11    1    6    6    0    0  0.50133581502E+02 -0.50416506835E+01  0.24907999981E+03  0.25412524578E+03  0.00000000000E+00 0. -1.
        -12    1    6    6    0    0 -0.30204473050E+02 -0.22123008041E+02  0.28384542268E+03  0.28630396723E+03  0.00000000000E+00 0.  1.
</event>
<event>
12    1  0.9246030E-003  0.2869268E+03  0.7818608E-02  0.1092000E+00
         21   -1    0    0  501  502  0.00000000000E+00  0.00000000000E+00  0.12434607147E+04  0.12434607147E+04  0.00000000000E+00 0.  1.
         21   -1    0    0  502  503 -0.00000000000E+00 -0.00000000000E+00 -0.66464104116E+02  0.66464104116E+02  0.00000000000E+00 0. -1.
          6    2    1    2  501    0  0.22000222621E+03  0.66435634289E+02  0.63344787999E+03  0.69529307122E+03  0.17135216713E+03 0.  0.
         24    2    3    3    0    0  0.68060732082E+02 -0.12565500846E+02  0.33596500560E+03  0.35200667833E+03  0.79032028534E+02 0.  0.
         -6    2    1    2    0  503 -0.22000222621E+03 -0.66435634289E+02  0.54354873057E+03  0.61463174757E+03  0.17179141299E+03 0.  0.
        -24    2    5    5    0    0 -0.15184825375E+03 -0.74734494311E+02  0.24449412229E+03  0.30776111722E+03  0.79349811781E+02 0.  0.
          5    1    3    3  501    0  0.15194149413E+03  0.79001135135E+02  0.29748287438E+03  0.34328639289E+03  0.47000000000E+01 0. -1.
        -13    1    4    4    0    0 -0.55318753421E+01  0.19957226663E+02  0.11498043003E+03  0.11683061170E+03  0.00000000000E+00 0.  1.
         14    1    4    4    0    0  0.73592607424E+02 -0.32522727509E+02  0.22098457558E+03  0.23517606663E+03  0.00000000000E+00 0. -1.
         -5    1    5    5    0  503 -0.68153972460E+02  0.82988600230E+01  0.29905460828E+03  0.30687063035E+03  0.47000000000E+01 0.  1.
         11    1    6    6    0    0 -0.11274523663E+02 -0.16432000904E+02  0.18437433013E+00  0.19928861769E+02  0.00000000000E+00 0. -1.
        -12    1    6    6    0    0 -0.14057373009E+03 -0.58302493408E+02  0.24430974796E+03  0.28783225545E+03  0.00000000000E+00 0.  1.
</event>
<event>
12    1  0.9246030E-003  0.1764404E+03  0.7818608E-02  0.1171344E+00
         21   -1    0    0  501  502  0.00000000000E+00  0.00000000000E+00  0.36566341200E+02  0.36566341200E+02  0.00000000000E+00 0. -1.
         21   -1    0    0  502  503 -0.00000000000E+00 -0.00000000000E+00 -0.85756171285E+03  0.85756171285E+03  0.00000000000E+00 0.  1.
          6    2    1    2  501    0 -0.21181244367E+02 -0.33641615506E+02 -0.36981966252E+03  0.40975334416E+03  0.17190351030E+03 0.  0.
         24    2    3    3    0    0 -0.25493963380E+02 -0.45371822921E+02 -0.13212793303E+03  0.17168687113E+03  0.96488582470E+02 0.  0.
         -6    2    1    2    0  503  0.21181244367E+02  0.33641615506E+02 -0.45117570913E+03  0.48437470989E+03  0.17169430879E+03 0.  0.
        -24    2    5    5    0    0 -0.43390259300E+02 -0.12099577618E+02 -0.29196675706E+03  0.30652275952E+03  0.81746562574E+02 0.  0.
          5    1    3    3  501    0  0.43127190129E+01  0.11730207415E+02 -0.23769172949E+03  0.23806647303E+03  0.47000000000E+01 0. -1.
        -11    1    4    4    0    0  0.15932172642E+02 -0.16739938720E+02 -0.11677635096E+03  0.11904106778E+03  0.00000000000E+00 0.  1.
         12    1    4    4    0    0 -0.41426136022E+02 -0.28631884201E+02 -0.15351582071E+02  0.52645803353E+02  0.00000000000E+00 0. -1.
         -5    1    5    5    0  503  0.64571503668E+02  0.45741193124E+02 -0.15920895206E+03  0.17785195037E+03  0.47000000000E+01 0.  1.
         11    1    6    6    0    0 -0.34592047041E+02  0.10723935866E+02 -0.42406814427E+02  0.55766929526E+02  0.00000000000E+00 0. -1.
        -12    1    6    6    0    0 -0.87982122588E+01 -0.22823513484E+02 -0.24955994264E+03  0.25075582999E+03  0.00000000000E+00 0.  1.
</event>
<event>
12    1  0.9246030E-003  0.1808126E+03  0.7818608E-02  0.1167469E+00
         21   -1    0    0  501  502  0.00000000000E+00  0.00000000000E+00  0.20576684315E+03  0.20576684315E+03  0.00000000000E+00 0. -1.
         21   -1    0    0  502  503 -0.00000000000E+00 -0.00000000000E+00 -0.18272704931E+03  0.18272704931E+03  0.00000000000E+00 0. -1.
          6    2    1    2  501    0 -0.73142995377E+01 -0.51730059729E+02 -0.61058250006E+02  0.18908053632E+03  0.17115443688E+03 0.  0.
         24    2    3    3    0    0  0.31861826620E+02 -0.69184210590E+02  0.40511377840E+01  0.11097331116E+03  0.80604175343E+02 0.  0.
         -6    2    1    2    0  503  0.73142995377E+01  0.51730059729E+02  0.84098043852E+02  0.19941335614E+03  0.17310028183E+03 0.  0.
        -24    2    5    5    0    0 -0.67945927704E+01  0.75673873762E+02  0.11349497019E+03  0.15868699673E+03  0.80794511031E+02 0.  0.
          5    1    3    3  501    0 -0.39176126157E+02  0.17454150861E+02 -0.65109387790E+02  0.78107225155E+02  0.47000000000E+01 0. -1.
        -13    1    4    4    0    0 -0.16740824043E+01 -0.22731238136E+02  0.38047908273E+02  0.44352621828E+02  0.00000000000E+00 0.  1.
         14    1    4    4    0    0  0.33535909024E+02 -0.46452972453E+02 -0.33996770489E+02  0.66620689335E+02  0.00000000000E+00 0. -1.
         -5    1    5    5    0  503  0.14108892308E+02 -0.23943814033E+02 -0.29396926338E+02  0.40726359409E+02  0.47000000000E+01 0.  1.
         11    1    6    6    0    0 -0.29477997854E+02  0.76787171608E+02  0.10720249268E+03  0.13512067391E+03  0.00000000000E+00 0. -1.
        -12    1    6    6    0    0  0.22683405084E+02 -0.11132978463E+01  0.62924775140E+01  0.23566322827E+02  0.00000000000E+00 0.  1.
</event>
<event>
12    1  0.9246030E-003  0.1975000E+03  0.7818608E-02  0.1152705E+00
         21   -1    0    0  503  502  0.00000000000E+00  0.00000000000E+00  0.97507307476E+02  0.97507307476E+02  0.00000000000E+00 0. -1.
         21   -1    0    0  501  503 -0.00000000000E+00 -0.00000000000E+00 -0.39570679608E+03  0.39570679608E+03  0.00000000000E+00 0. -1.
          6    2    1    2  501    0  0.77098729923E+02 -0.58513701998E+02 -0.17369295696E+03  0.26301237258E+03  0.17215747837E+03 0.  0.
         24    2    3    3    0    0  0.33427873905E+02  0.20248544876E+02 -0.14203159899E+03  0.16743430613E+03  0.79585459957E+02 0.  0.
         -6    2    1    2    0  502 -0.77098729923E+02  0.58513701998E+02 -0.12450653164E+03  0.23020173097E+03  0.16769881646E+03 0.  0.
        -24    2    5    5    0    0 -0.89458444658E+02  0.25118452398E+02 -0.14738376896E+03  0.18761695397E+03  0.69601696057E+02 0.  0.
          5    1    3    3  501    0  0.43670856018E+02 -0.78762246873E+02 -0.31661357975E+02  0.95578066452E+02  0.47000000000E+01 0. -1.
        -11    1    4    4    0    0  0.61302621255E+00 -0.15741015342E+02 -0.10519713654E+03  0.10637007522E+03  0.00000000000E+00 0.  1.
         12    1    4    4    0    0  0.32814847692E+02  0.35989560218E+02 -0.36834462443E+02  0.61064230915E+02  0.00000000000E+00 0. -1.
         -5    1    5    5    0  502  0.12359714735E+02  0.33395249600E+02  0.22877237321E+02  0.42584776994E+02  0.47000000000E+01 0.  1.
         11    1    6    6    0    0 -0.43947581497E+02  0.30912451818E+02 -0.12604424464E+03  0.13701868925E+03  0.00000000000E+00 0. -1.
        -12    1    6    6    0    0 -0.45510863161E+02 -0.57939994197E+01 -0.21339524321E+02  0.50598264725E+02  0.00000000000E+00 0.  1.
</event>
<event>
12    1  0.9246030E-003  0.2318259E+03  0.7818608E-02  0.1125432E+00
         21   -1    0    0  501  502  0.00000000000E+00  0.00000000000E+00  0.55276927789E+02  0.55276927789E+02  0.00000000000E+00 0. -1.
         21   -1    0    0  502  503 -0.00000000000E+00 -0.00000000000E+00 -0.10284390471E+04  0.10284390471E+04  0.00000000000E+00 0.  1.
          6    2    1    2  501    0  0.14963990556E+03 -0.39368417232E+02 -0.35843938161E+03  0.42687472954E+03  0.17263044580E+03 0.  0.
         24    2    3    3    0    0  0.99571560481E+02 -0.49019446574E+02 -0.34906908663E+03  0.37481827965E+03  0.79511720676E+02 0.  0.
         -6    2    1    2    0  503 -0.14963990556E+03  0.39368417232E+02 -0.61472273767E+03  0.65684124532E+03  0.17208836025E+03 0.  0.
        -24    2    5    5    0    0 -0.12795231396E+03  0.76235517592E+02 -0.36110162891E+03  0.39959565930E+03  0.84253520633E+02 0.  0.
          5    1    3    3  501    0  0.50068345080E+02  0.96510293421E+01 -0.93702949819E+01  0.52056449883E+02  0.47000000000E+01 0. -1.
        -13    1    4    4    0    0  0.14855180947E+01  0.82846609822E+01 -0.10796771736E+03  0.10829529243E+03  0.00000000000E+00 0.  1.
         14    1    4    4    0    0  0.98086042386E+02 -0.57304107556E+02 -0.24110136927E+03  0.26652298722E+03  0.00000000000E+00 0. -1.
         -5    1    5    5    0  503 -0.21687591597E+02 -0.36867100360E+02 -0.25362110875E+03  0.25724558601E+03  0.47000000000E+01 0.  1.
         11    1    6    6    0    0 -0.44494537176E+02 -0.12889402462E+01 -0.43723598094E+02  0.62395338253E+02  0.00000000000E+00 0. -1.
        -12    1    6    6    0    0 -0.83457776788E+02  0.77524457838E+02 -0.31737803082E+03  0.33720032105E+03  0.00000000000E+00 0.  1.
</event>
<event>
12    1  0.9246030E-003  0.1876497E+03  0.7818608E-02  0.1161749E+00
         21   -1    0    0  503  502  0.00000000000E+00  0.00000000000E+00  0.57659325925E+02  0.57659325925E+02  0.00000000000E+00 0.  1.
         21   -1    0    0  501  503 -0.00000000000E+00 -0.00000000000E+00 -0.59469948088E+03  0.59469948088E+03  0.00000000000E+00 0.  1.
          6    2    1    2  501    0 -0.27647161676E+02 -0.56179836186E+02 -0.27276735093E+03  0.33108069470E+03  0.17689505116E+03 0.  0.
         24    2    3    3    0    0  0.41430649053E+02 -0.21245418428E+02 -0.21578028335E+03  0.23484258712E+03  0.80137653806E+02 0.  0.
         -6    2    1    2    0  502  0.27647161676E+02  0.56179836186E+02 -0.26427280403E+03  0.32127811211E+03  0.17163615828E+03 0.  0.
        -24    2    5    5    0    0  0.72593140079E+02  0.22656349218E+02 -0.10457133709E+03  0.15195412179E+03  0.79823658420E+02 0.  0.
          5    1    3    3  501    0 -0.69077810728E+02 -0.34934417758E+02 -0.56987067583E+02  0.96238107581E+02  0.47000000000E+01 0. -1.
        -13    1    4    4    0    0  0.35807105454E+02  0.20720827938E+02 -0.56476291546E+02  0.70007663996E+02  0.00000000000E+00 0.  1.
         14    1    4    4    0    0  0.56235435988E+01 -0.41966246365E+02 -0.15930399180E+03  0.16483492312E+03  0.00000000000E+00 0. -1.
         -5    1    5    5    0  502 -0.44945978403E+02  0.33523486968E+02 -0.15970146694E+03  0.16932399032E+03  0.47000000000E+01 0.  1.
         11    1    6    6    0    0  0.47932217423E+02 -0.24853630682E+02 -0.69295500123E+02  0.87846836952E+02  0.00000000000E+00 0. -1.
        -12    1    6    6    0    0  0.24660922656E+02  0.47509979900E+02 -0.35275836964E+02  0.64107284842E+02  0.00000000000E+00 0.  1.
</event>
<event>
12    1  0.9246030E-003  0.2572777E+03  0.7818608E-02  0.1108984E+00
         21   -1    0    0  501  502  0.00000000000E+00  0.00000000000E+00  0.27514360444E+03  0.27514360444E+03  0.00000000000E+00 0.  1.
         21   -1    0    0  502  503 -0.00000000000E+00 -0.00000000000E+00 -0.23965648061E+03  0.23965648061E+03  0.00000000000E+00 0. -1.
          6    2    1    2  501    0  0.18965607255E+03  0.55930401103E+01  0.26407067401E+02  0.25736222431E+03  0.17186411301E+03 0.  0.
         24    2    3    3    0    0  0.53311322217E+02 -0.49258348803E+02 -0.80792890137E+00  0.10782523279E+03  0.79731713097E+02 0.  0.
         -6    2    1    2    0  503 -0.18965607255E+03 -0.55930401103E+01  0.90800564202E+01  0.25743786074E+03  0.17375585390E+03 0.  0.
        -24    2    5    5    0    0 -0.14870748805E+03  0.55755927378E+02 -0.18817132127E+02  0.17843896510E+03  0.79143789163E+02 0.  0.
          5    1    3    3  501    0  0.13634475033E+03  0.54851388914E+02  0.27214996303E+02  0.14953699152E+03  0.47000000000E+01 0. -1.
        -11    1    4    4    0    0 -0.21024025283E+02 -0.15487011963E+02  0.13799862688E+01  0.26148834406E+02  0.00000000000E+00 0.  1.
         12    1    4    4    0    0  0.74335347501E+02 -0.33771336840E+02 -0.21879151701E+01  0.81676398383E+02  0.00000000000E+00 0. -1.
         -5    1    5    5    0  503 -0.40948584499E+02 -0.61348967489E+02  0.27897188547E+02  0.78998895646E+02  0.47000000000E+01 0.  1.
         11    1    6    6    0    0 -0.57568230282E+02  0.14762179946E+02 -0.45679262115E+02  0.74957441805E+02  0.00000000000E+00 0. -1.
        -12    1    6    6    0    0 -0.91139257769E+02  0.40993747432E+02  0.26862129989E+02  0.10348152329E+03  0.00000000000E+00 0.  1.
</event>
<event>
12    1  0.9246030E-003  0.2080341E+03  0.7818608E-02  0.1143246E+00
         21   -1    0    0  503  502  0.00000000000E+00  0.00000000000E+00  0.20762009947E+03  0.20762009947E+03  0.00000000000E+00 0.  1.
         21   -1    0    0  501  503 -0.00000000000E+00 -0.00000000000E+00 -0.20837561110E+03  0.20837561110E+03  0.00000000000E+00 0.  1.
          6    2    1    2  501    0 -0.84065560478E+02  0.80498900006E+02  0.97512677918E+01  0.20826247543E+03  0.17242702830E+03 0.  0.
         24    2    3    3    0    0 -0.28218226044E+02  0.30197480889E+02  0.68474024389E+02  0.11276582800E+03  0.79493923131E+02 0.  0.
         -6    2    1    2    0  502  0.84065560478E+02 -0.80498900006E+02 -0.10506779417E+02  0.20773323514E+03  0.17174286945E+03 0.  0.
        -24    2    5    5    0    0  0.77865324033E+02 -0.60302209238E+02  0.55721516064E+02  0.13805808625E+03  0.79093506068E+02 0.  0.
          5    1    3    3  501    0 -0.55847334433E+02  0.50301419117E+02 -0.58722756597E+02  0.95496647433E+02  0.47000000000E+01 0. -1.
        -11    1    4    4    0    0  0.22167247594E+02  0.32220108532E+02  0.27854925919E+02  0.48014780617E+02  0.00000000000E+00 0.  1.
         12    1    4    4    0    0 -0.50385473638E+02 -0.20226276433E+01  0.40619098470E+02  0.64751047380E+02  0.00000000000E+00 0. -1.
         -5    1    5    5    0  502  0.62002364443E+01 -0.20196690769E+02 -0.66228295481E+02  0.69675148886E+02  0.47000000000E+01 0.  1.
         13    1    6    6    0    0  0.16206750075E+02  0.19124853842E+02  0.17100333387E+02  0.30345348645E+02  0.00000000000E+00 0. -1.
        -14    1    6    6    0    0  0.61658573958E+02 -0.79427063079E+02  0.38621182677E+02  0.10771273761E+03  0.00000000000E+00 0.  1.
</event>
<event>
12    1  0.9246030E-003  0.2710494E+03  0.7818608E-02  0.1100744E+00
         21   -1    0    0  503  502  0.00000000000E+00  0.00000000000E+00  0.71278287645E+03  0.71278287645E+03  0.00000000000E+00 0. -1.
         21   -1    0    0  501  503 -0.00000000000E+00 -0.00000000000E+00 -0.10658710505E+03  0.10658710505E+03  0.00000000000E+00 0.  1.
          6    2    1    2  501    0  0.13001810998E+03 -0.16470737508E+03  0.37950693910E+03  0.46636176808E+03  0.17156501269E+03 0.  0.
         24    2    3    3    0    0  0.35938416457E+02 -0.14287416536E+03  0.29085270753E+03  0.33517739190E+03  0.77743100385E+02 0.  0.
         -6    2    1    2    0  502 -0.13001810998E+03  0.16470737508E+03  0.22668883231E+03  0.35300821342E+03  0.17086176787E+03 0.  0.
        -24    2    5    5    0    0 -0.92674589135E+02  0.16188227427E+03  0.23891956610E+03  0.31333201662E+03  0.79372182658E+02 0.  0.
          5    1    3    3  501    0  0.94079693522E+02 -0.21833209721E+02  0.88654231564E+02  0.13118437618E+03  0.47000000000E+01 0. -1.
        -11    1    4    4    0    0 -0.14339274849E+02 -0.67705595558E+02  0.17514191848E+03  0.18831981861E+03  0.00000000000E+00 0.  1.
         12    1    4    4    0    0  0.50277691305E+02 -0.75168569804E+02  0.11571078905E+03  0.14685757329E+03  0.00000000000E+00 0. -1.
         -5    1    5    5    0  502 -0.37343520844E+02  0.28251008154E+01 -0.12230733790E+02  0.39676196802E+02  0.47000000000E+01 0.  1.
         13    1    6    6    0    0 -0.57091705783E+02  0.44330013538E+02  0.13199397942E+03  0.15048928059E+03  0.00000000000E+00 0. -1.
        -14    1    6    6    0    0 -0.35582883352E+02  0.11755226073E+03  0.10692558668E+03  0.16284273603E+03  0.00000000000E+00 0.  1.
</event>
<event>
12    1  0.9246030E-003  0.2447520E+03  0.7818608E-02  0.1116746E+00
         21   -1    0    0  501  502  0.00000000000E+00  0.00000000000E+00  0.44958792145E+03  0.44958792145E+03  0.00000000000E+00 0. -1.
         21   -1    0    0  502  503 -0.00000000000E+00 -0.00000000000E+00 -0.14368013484E+03  0.14368013484E+03  0.00000000000E+00 0.  1.
          6    2    1    2  501    0  0.10952141044E+03 -0.13498400144E+03  0.23377008238E+03  0.33810659585E+03  0.17161584646E+03 0.  0.
         24    2    3    3    0    0  0.57529165042E+01 -0.11368160030E+03  0.15194174783E+03  0.20416758375E+03  0.75109954242E+02 0.  0.
         -6    2    1    2    0  503 -0.10952141044E+03  0.13498400144E+03  0.72137704232E+02  0.25516146044E+03  0.17230177751E+03 0.  0.
        -24    2    5    5    0    0 -0.85766136754E+02  0.34462613327E+02  0.87888491681E+02  0.15057159572E+03  0.80024474618E+02 0.  0.
          5    1    3    3  501    0  0.10376849393E+03 -0.21302401137E+02  0.81828334545E+02  0.13393901210E+03  0.47000000000E+01 0. -1.
        -13    1    4    4    0    0 -0.19414745693E+02  0.26534667040E+00  0.26344404458E+02  0.32726600884E+02  0.00000000000E+00 0.  1.
         14    1    4    4    0    0  0.25167662197E+02 -0.11394694697E+03  0.12559734337E+03  0.17144098287E+03  0.00000000000E+00 0. -1.
         -5    1    5    5    0  503 -0.23755273682E+02  0.10052138811E+03 -0.15750787449E+02  0.10458986471E+03  0.47000000000E+01 0.  1.
         11    1    6    6    0    0 -0.14306568044E+02 -0.25094207335E+02  0.25800278525E+02  0.38730498356E+02  0.00000000000E+00 0. -1.
        -12    1    6    6    0    0 -0.71459568710E+02  0.59556820662E+02  0.62088213156E+02  0.11184109737E+03  0.00000000000E+00 0.  1.
</event>
<event>
12    1  0.9246030E-003  0.2262448E+03  0.7818608E-02  0.1130645E+00
         21   -1    0    0  501  502  0.00000000000E+00  0.00000000000E+00  0.10752524519E+03  0.10752524519E+03  0.00000000000E+00 0. -1.
         21   -1    0    0  502  503 -0.00000000000E+00 -0.00000000000E+00 -0.46929343264E+03  0.46929343264E+03  0.00000000000E+00 0.  1.
          6    2    1    2  501    0  0.21677572455E+02 -0.13519047833E+03 -0.14506438440E+03  0.26875713775E+03  0.18011202318E+03 0.  0.
         24    2    3    3    0    0  0.29023818041E+02 -0.83517594779E+02 -0.17277133699E+03  0.20947965939E+03  0.78830337824E+02 0.  0.
         -6    2    1    2    0  503 -0.21677572455E+02  0.13519047833E+03 -0.21670380305E+03  0.30806154008E+03  0.17086541967E+03 0.  0.
        -24    2    5    5    0    0 -0.10051437893E+02  0.36258207331E+02 -0.24939315468E+02  0.91916982088E+02  0.80069177200E+02 0.  0.
          5    1    3    3  501    0 -0.73462455854E+01 -0.51672883553E+02  0.27706952595E+02  0.59277478363E+02  0.47000000000E+01 0. -1.
        -13    1    4    4    0    0 -0.99525911829E+01 -0.37051531893E+02 -0.12927047511E+03  0.13484333807E+03  0.00000000000E+00 0.  1.
         14    1    4    4    0    0  0.38976409224E+02 -0.46466062886E+02 -0.43500861886E+02  0.74636321325E+02  0.00000000000E+00 0. -1.
         -5    1    5    5    0  503 -0.11626134562E+02  0.98932271001E+02 -0.19176448758E+03  0.21614455799E+03  0.47000000000E+01 0.  1.
         11    1    6    6    0    0  0.20184028701E+02 -0.16182569875E+02  0.13864808791E+01  0.25907391061E+02  0.00000000000E+00 0. -1.
        -12    1    6    6    0    0 -0.30235466594E+02  0.52440777207E+02 -0.26325796347E+02  0.66009591027E+02  0.00000000000E+00 0.  1.
</event>
<event>
12    1  0.9246030E-003  0.2122434E+03  0.7818608E-02  0.1139880E+00
         21   -1    0    0  503  502  0.00000000000E+00  0.00000000000E+00  0.34593600338E+03  0.34593600338E+03  0.00000000000E+00 0. -1.
         21   -1    0    0  501  503 -0.00000000000E+00 -0.00000000000E+00 -0.13006800518E+03  0.13006800518E+03  0.00000000000E+00 0.  1.
          6    2    1    2  501    0  0.10704561686E+03  0.64771618405E+02  0.10161780833E+03  0.23531560612E+03  0.17144424420E+03 0.  0.
         24    2    3    3    0    0  0.13994458563E+03  0.74680114147E+02  0.88430973986E+02  0.19821435231E+03  0.79418422321E+02 0.  0.
         -6    2    1    2    0  502 -0.10704561686E+03 -0.64771618405E+02  0.11425018986E+03  0.24068840244E+03  0.17094933328E+03 0.  0.
        -24    2    5    5    0    0 -0.85514273579E+02 -0.28034353819E+02  0.35474916844E+01  0.12198540023E+03  0.82275374147E+02 0.  0.
          5    1    3    3  501    0 -0.32898968770E+02 -0.99084957416E+01  0.13186834348E+02  0.37101253808E+02  0.47000000000E+01 0. -1.
        -11    1    4    4    0    0  0.18310276940E+02 -0.14906849393E+02  0.91277607321E+00  0.23628659729E+02  0.00000000000E+00 0.  1.
         12    1    4    4    0    0  0.12163430869E+03  0.89586963539E+02  0.87518197913E+02  0.17458569258E+03  0.00000000000E+00 0. -1.
         -5    1    5    5    0  502 -0.21531343285E+02 -0.36737264586E+02  0.11070269817E+03  0.11870300222E+03  0.47000000000E+01 0.  1.
         11    1    6    6    0    0 -0.61577740244E+02 -0.21459768819E+02  0.41018560142E+02  0.77038055839E+02  0.00000000000E+00 0. -1.
        -12    1    6    6    0    0 -0.23936533335E+02 -0.65745850000E+01 -0.37471068458E+02  0.44947344386E+02  0.00000000000E+00 0.  1.
</event>
<event>
12    1  0.9246030E-003  0.1922183E+03  0.7818608E-02  0.1157409E+00
         21   -1    0    0  501  502  0.00000000000E+00  0.00000000000E+00  0.93182370299E+03  0.93182370299E+03  0.00000000000E+00 0. -1.
         21   -1    0    0  502  503 -0.00000000000E+00 -0.00000000000E+00 -0.83719962064E+02  0.83719962064E+02  0.00000000000E+00 0.  1.
          6    2    1    2  501    0  0.62851508356E+02 -0.43055951611E+02  0.79383999161E+03  0.81581277010E+03  0.17194306183E+03 0.  0.
         24    2    3    3    0    0  0.42372010294E+02  0.17607410378E+02  0.67662123672E+03  0.68216480032E+03  0.73668912448E+02 0.  0.
         -6    2    1    2    0  503 -0.62851508356E+02  0.43055951611E+02  0.54263749316E+02  0.19973089495E+03  0.17647591574E+03 0.  0.
        -24    2    5    5    0    0 -0.38857514480E+02  0.31221866471E+02 -0.18931934639E+02  0.12165749703E+03  0.10934997511E+03 0.  0.
          5    1    3    3  501    0  0.20479498062E+02 -0.60663361990E+02  0.11721875489E+03  0.13364796978E+03  0.47000000000E+01 0. -1.
        -11    1    4    4    0    0  0.60345265007E+02  0.14087781259E+01  0.54553499865E+03  0.54886425500E+03  0.00000000000E+00 0.  1.
         12    1    4    4    0    0 -0.17973254713E+02  0.16198632252E+02  0.13108623807E+03  0.13330054532E+03  0.00000000000E+00 0. -1.
         -5    1    5    5    0  503 -0.23993993876E+02  0.11834085140E+02  0.73195683955E+02  0.78073397921E+02  0.47000000000E+01 0.  1.
         13    1    6    6    0    0 -0.10907716544E+02 -0.41112979825E+02 -0.90012038823E+01  0.43477316633E+02  0.00000000000E+00 0. -1.
        -14    1    6    6    0    0 -0.27949797936E+02  0.72334846296E+02 -0.99307307572E+01  0.78180180396E+02  0.00000000000E+00 0.  1.
</event>
<event>
12    1  0.9246030E-003  0.1860660E+03  0.7818608E-02  0.1162493E+00
         21   -1    0    0  501  502  0.00000000000E+00  0.00000000000E+00  0.12403724929E+03  0.12403724929E+03  0.00000000000E+00 0. -1.
         21   -1    0    0  502  503 -0.00000000000E+00 -0.00000000000E+00 -0.41737918369E+03  0.41737918369E+03  0.00000000000E+00 0.  1.
          6    2    1    2  501    0 -0.50732346513E+02  0.47236609892E+02  0.10211744480E+02  0.18634603524E+03  0.17267164453E+03 0.  0.
         24    2    3    3    0    0 -0.50822694961E+02  0.11784278079E+01 -0.53610263272E+02  0.10749996385E+03  0.78088711632E+02 0.  0.
         -6    2    1    2    0  503  0.50732346513E+02 -0.47236609892E+02 -0.30355367888E+03  0.35507039774E+03  0.17066072511E+03 0.  0.
        -24    2    5    5    0    0 -0.33594967154E+02  0.24712520656E+01 -0.14142764247E+03  0.16562671468E+03  0.79345457689E+02 0.  0.
          5    1    3    3  501    0  0.90348447864E-01  0.46058182084E+02  0.63822007752E+02  0.78846071387E+02  0.47000000000E+01 0. -1.
        -11    1    4    4    0    0  0.14850852471E+02 -0.19076453319E+02 -0.10392568463E+02  0.26314717737E+02  0.00000000000E+00 0.  1.
         12    1    4    4    0    0 -0.65673547432E+02  0.20254881127E+02 -0.43217694809E+02  0.81185246112E+02  0.00000000000E+00 0. -1.
         -5    1    5    5    0  503  0.84327313667E+02 -0.49707861957E+02 -0.16212603641E+03  0.18944368306E+03  0.47000000000E+01 0.  1.
         13    1    6    6    0    0 -0.47658670904E+02 -0.25721236982E+02 -0.98090983219E+02  0.11204807867E+03  0.00000000000E+00 0. -1.
        -14    1    6    6    0    0  0.14063703750E+02  0.28192489047E+02 -0.43336659250E+02  0.53578636011E+02  0.00000000000E+00 0.  1.
</event>
<event>
12    1  0.9246030E-003  0.2665256E+03  0.7818608E-02  0.1103352E+00
         21   -1    0    0  501  502  0.00000000000E+00  0.00000000000E+00  0.30886053863E+03  0.30886053863E+03  0.00000000000E+00 0. -1.
         21   -1    0    0  502  503 -0.00000000000E+00 -0.00000000000E+00 -0.25973664792E+03  0.25973664792E+03  0.00000000000E+00 0. -1.
          6    2    1    2  501    0 -0.19342432919E+03  0.64339242269E+02  0.12142512395E+03  0.29288215276E+03  0.17170726677E+03 0.  0.
         24    2    3    3    0    0 -0.20028852813E+03  0.94169726901E+02  0.11185176834E+03  0.26046743113E+03  0.79680817223E+02 0.  0.
         -6    2    1    2    0  503  0.19342432919E+03 -0.64339242269E+02 -0.72301233241E+02  0.27571503379E+03  0.17099357389E+03 0.  0.
        -24    2    5    5    0    0  0.21428522671E+03 -0.49314132297E+02 -0.81780552953E+02  0.24791434176E+03  0.80146241222E+02 0.  0.
          5    1    3    3  501    0  0.68641989433E+01 -0.29830484632E+02  0.95733556061E+01  0.32414721626E+02  0.47000000000E+01 0. -1.
        -13    1    4    4    0    0 -0.15553227138E+03  0.34351848862E+02  0.88387487234E+02  0.18216115080E+03  0.00000000000E+00 0.  1.
         14    1    4    4    0    0 -0.44756256748E+02  0.59817878038E+02  0.23464281108E+02  0.78306280329E+02  0.00000000000E+00 0. -1.
         -5    1    5    5    0  503 -0.20860897519E+02 -0.15025109972E+02  0.94793197120E+01  0.27800692027E+02  0.47000000000E+01 0.  1.
         11    1    6    6    0    0  0.10701164711E+03 -0.23678278022E+02  0.16614286915E+01  0.10961256229E+03  0.00000000000E+00 0. -1.
        -12    1    6    6    0    0  0.10727357960E+03 -0.25635854275E+02 -0.83441981645E+02  0.13830177947E+03  0.00000000000E+00 0.  1.
</event>
<event>
12    1  0.9246030E-003  0.3471445E+03  0.7818608E-02  0.1063805E+00
         21   -1    0    0  501  502  0.00000000000E+00  0.00000000000E+00  0.49780924395E+03  0.49780924395E+03  0.00000000000E+00 0.  1.
         21   -1    0    0  502  503 -0.00000000000E+00 -0.00000000000E+00 -0.38205326469E+03  0.38205326469E+03  0.00000000000E+00 0. -1.
          6    2    1    2  501    0  0.28320046692E+02  0.30040112315E+03  0.32423200033E+03  0.47492851976E+03  0.17142884534E+03 0.  0.
         24    2    3    3    0    0  0.58470664143E+02  0.15445587726E+03  0.24434330877E+03  0.30577365708E+03  0.80736857985E+02 0.  0.
         -6    2    1    2    0  503 -0.28320046692E+02 -0.30040112315E+03 -0.20847602107E+03  0.40493398888E+03  0.17165786948E+03 0.  0.
        -24    2    5    5    0    0 -0.57134892691E+02 -0.26427740618E+03 -0.12333651184E+03  0.30794922559E+03  0.80708655106E+02 0.  0.
          5    1    3    3  501    0 -0.30150617451E+02  0.14594524589E+03  0.79888691561E+02  0.16915486269E+03  0.47000000000E+01 0. -1.
        -13    1    4    4    0    0 -0.14847260458E+02  0.70615464362E+02  0.10461082346E+03  0.12708426077E+03  0.00000000000E+00 0.  1.
         14    1    4    4    0    0  0.73317924601E+02  0.83840412894E+02  0.13973248531E+03  0.17868939630E+03  0.00000000000E+00 0. -1.
         -5    1    5    5    0  503  0.28814845999E+02 -0.36123716966E+02 -0.85139509229E+02  0.96984763283E+02  0.47000000000E+01 0.  1.
         11    1    6    6    0    0 -0.67781785449E+00 -0.12519928257E+03 -0.22720841985E+02  0.12724604691E+03  0.00000000000E+00 0. -1.
        -12    1    6    6    0    0 -0.56457074837E+02 -0.13907812361E+03 -0.10061566985E+03  0.18070317868E+03  0.00000000000E+00 0.  1.
</event>
<event>
12    1  0.9246030E-003  0.2470009E+03  0.7818608E-02  0.1115238E+00
         21   -1    0    0  503  502  0.00000000000E+00  0.00000000000E+00  0.42790482610E+03  0.42790482610E+03  0.00000000000E+00 0.  1.
         21   -1    0    0  501  503 -0.00000000000E+00 -0.00000000000E+00 -0.14465377003E+03  0.14465377003E+03  0.00000000000E+00 0. -1.
          6    2    1    2  501    0 -0.17032328362E+03  0.49003958122E+02  0.17655998539E+03  0.30350017128E+03  0.17183572582E+03 0.  0.
         24    2    3    3    0    0 -0.95351510371E+02 -0.68102260551E+01  0.28060165092E+02  0.12797160788E+03  0.80318552339E+02 0.  0.
         -6    2    1    2    0  502  0.17032328362E+03 -0.49003958122E+02  0.10669107068E+03  0.26905842486E+03  0.17204081658E+03 0.  0.
        -24    2    5    5    0    0  0.40064040420E+02 -0.28837417821E+02 -0.84002832400E+01  0.94009090286E+02  0.79563938417E+02 0.  0.
          5    1    3    3  501    0 -0.74971773252E+02  0.55814184178E+02  0.14849982030E+03  0.17552856340E+03  0.47000000000E+01 0. -1.
        -11    1    4    4    0    0 -0.83205133280E+02  0.24281423404E+02  0.35681044703E+02  0.93732698019E+02  0.00000000000E+00 0.  1.
         12    1    4    4    0    0 -0.12146377090E+02 -0.31091649459E+02 -0.76208796108E+01  0.34238909863E+02  0.00000000000E+00 0. -1.
         -5    1    5    5    0  502  0.13025924320E+03 -0.20166540301E+02  0.11509135392E+03  0.17504933457E+03  0.47000000000E+01 0.  1.
         13    1    6    6    0    0  0.25633485802E+02  0.18809441840E+01  0.32129993055E+02  0.41145473616E+02  0.00000000000E+00 0. -1.
        -14    1    6    6    0    0  0.14430554617E+02 -0.30718362005E+02 -0.40530276295E+02  0.52863616670E+02  0.00000000000E+00 0.  1.
</event>
<event>
12    1  0.9246030E-003  0.2510872E+03  0.7818608E-02  0.1112654E+00
         21   -1    0    0  501  502  0.00000000000E+00  0.00000000000E+00  0.10789299861E+04  0.10789299861E+04  0.00000000000E+00 0. -1.
         21   -1    0    0  502  503 -0.00000000000E+00 -0.00000000000E+00 -0.58389286625E+02  0.58389286625E+02  0.00000000000E+00 0. -1.
          6    2    1    2  501    0  0.16261361547E+03  0.78847710137E+02  0.50414739280E+03  0.56321343844E+03  0.17431188784E+03 0.  0.
         24    2    3    3    0    0  0.15950852106E+03  0.10270411246E+03  0.34250369436E+03  0.39972171146E+03  0.80483308580E+02 0.  0.
         -6    2    1    2    0  503 -0.16261361547E+03 -0.78847710137E+02  0.51639330666E+03  0.57410583427E+03  0.17399802427E+03 0.  0.
        -24    2    5    5    0    0 -0.14596835297E+03  0.21666627652E+01  0.37282544396E+03  0.40835235895E+03  0.80258226364E+02 0.  0.
          5    1    3    3  501    0  0.31050944055E+01 -0.23856402325E+02  0.16164369844E+03  0.16349172697E+03  0.47000000000E+01 0. -1.
        -13    1    4    4    0    0  0.26573829401E+02 -0.83985184028E+01  0.84240579060E+02  0.88730934182E+02  0.00000000000E+00 0.  1.
         14    1    4    4    0    0  0.13293469166E+03  0.11110263087E+03  0.25826311530E+03  0.31099077728E+03  0.00000000000E+00 0. -1.
         -5    1    5    5    0  503 -0.16645262492E+02 -0.81014372903E+02  0.14356786270E+03  0.16575347532E+03  0.47000000000E+01 0.  1.
         11    1    6    6    0    0 -0.90352294287E+02 -0.26082250492E+02  0.28864884174E+03  0.30358190774E+03  0.00000000000E+00 0. -1.
        -12    1    6    6    0    0 -0.55616058688E+02  0.28248913257E+02  0.84176602219E+02  0.10477045120E+03  0.00000000000E+00 0.  1.
</event>
<event>
12    1  0.9246030E-003  0.2104534E+03  0.7818608E-02  0.1142794E+00
         21   -1    0    0  503  502  0.00000000000E+00  0.00000000000E+00  0.93652919690E+03  0.93652919690E+03  0.00000000000E+00 0.  1.
         21   -1    0    0  501  503 -0.00000000000E+00 -0.00000000000E+00 -0.57991620150E+02  0.57991620150E+02  0.00000000000E+00 0.  1.
          6    2    1    2  501    0  0.34311856206E+02  0.10166565236E+03  0.20230011467E+03  0.28629221566E+03  0.17182749491E+03 0.  0.
         24    2    3    3    0    0 -0.28053505343E+01  0.12835735095E+03  0.18068651036E+03  0.23550470045E+03  0.79569902451E+02 0.  0.
         -6    2    1    2    0  502 -0.34311856206E+02 -0.10166565236E+03  0.67623746208E+03  0.70822860139E+03  0.18104540413E+03 0.  0.
        -24    2    5    5    0    0 -0.66600577702E+02 -0.88302785809E+01  0.44231548459E+03  0.45445202699E+03  0.79812568918E+02 0.  0.
          5    1    3    3  501    0  0.37117206741E+02 -0.26691698585E+02  0.21613604309E+02  0.50787515206E+02  0.47000000000E+01 0. -1.
        -13    1    4    4    0    0 -0.34533094734E+02  0.37398356752E+02  0.38796665899E+02  0.64002757788E+02  0.00000000000E+00 0.  1.
         14    1    4    4    0    0  0.31727744199E+02  0.90958994195E+02  0.14188984446E+03  0.17150194266E+03  0.00000000000E+00 0. -1.
         -5    1    5    5    0  502  0.32288721496E+02 -0.92835373781E+02  0.23392197749E+03  0.25377657440E+03  0.47000000000E+01 0.  1.
         13    1    6    6    0    0 -0.14864345555E+02 -0.49660053186E+01  0.90618816308E+01  0.18103250434E+02  0.00000000000E+00 0. -1.
        -14    1    6    6    0    0 -0.51736232147E+02 -0.38642732623E+01  0.43325360296E+03  0.43634877655E+03  0.00000000000E+00 0.  1.
</event>
<event>
12    1  0.9246030E-003  0.1867762E+03  0.7818608E-02  0.1161432E+00
         21   -1    0    0  503  502  0.00000000000E+00  0.00000000000E+00  0.24252986739E+02  0.24252986739E+02  0.00000000000E+00 0. -1.
         21   -1    0    0  501  503 -0.00000000000E+00 -0.00000000000E+00 -0.14802367125E+04  0.14802367125E+04  0.00000000000E+00 0. -1.
          6    2    1    2  501    0  0.30397289570E+02 -0.66240396464E+02 -0.85574688069E+03  0.87586452901E+03  0.17182597021E+03 0.  0.
         24    2    3    3    0    0  0.81583963389E+01 -0.10982371684E+03 -0.68202230540E+03  0.69531981919E+03  0.78660140363E+02 0.  0.
         -6    2    1    2    0  502 -0.30397289570E+02  0.66240396464E+02 -0.60023684507E+03  0.62862517022E+03  0.17196961685E+03 0.  0.
        -24    2    5    5    0    0  0.72621525507E+01 -0.17509302656E+02 -0.32439868637E+03  0.33786577575E+03  0.92517350590E+02 0.  0.
          5    1    3    3  501    0  0.22238893231E+02  0.43583320374E+02 -0.17372457528E+03  0.18054470982E+03  0.47000000000E+01 0. -1.
        -13    1    4    4    0    0  0.10214632911E+02  0.89906119977E+01 -0.36567808734E+02  0.39017617369E+02  0.00000000000E+00 0.  1.
         14    1    4    4    0    0 -0.20562365723E+01 -0.11881432884E+03 -0.64545449667E+03  0.65630220182E+03  0.00000000000E+00 0. -1.
         -5    1    5    5    0  502 -0.37659442121E+02  0.83749699120E+02 -0.27583815869E+03  0.29075939448E+03  0.47000000000E+01 0.  1.
         11    1    6    6    0    0 -0.39798089395E+02  0.53488250961E+01 -0.17574622351E+03  0.18027543628E+03  0.00000000000E+00 0. -1.
        -12    1    6    6    0    0  0.47060241945E+02 -0.22858127752E+02 -0.14865246286E+03  0.15759033946E+03  0.00000000000E+00 0.  1.
</event>
<event>
12    1  0.9246030E-003  0.1736123E+03  0.7818608E-02  0.1174362E+00
         21   -1    0    0  501  502  0.00000000000E+00  0.00000000000E+00  0.43634602710E+03  0.43634602710E+03  0.00000000000E+00 0. -1.
         21   -1    0    0  502  503 -0.00000000000E+00 -0.00000000000E+00 -0.77068867543E+02  0.77068867543E+02  0.00000000000E+00 0. -1.
          6    2    1    2  501    0 -0.32026995515E+02  0.32054265117E+01  0.26456311774E+03  0.31644094055E+03  0.17060252748E+03 0.  0.
         24    2    3    3    0    0  0.41985298086E+02  0.94701435701E+01  0.20381049387E+03  0.22036785591E+03  0.71908453135E+02 0.  0.
         -6    2    1    2    0  503  0.32026995515E+02 -0.32054265117E+01  0.94714041810E+02  0.19697395409E+03  0.16968201341E+03 0.  0.
        -24    2    5    5    0    0  0.19655061375E+02 -0.68923843093E+02  0.57209603989E+02  0.12015827934E+03  0.77641842584E+02 0.  0.
          5    1    3    3  501    0 -0.74012293601E+02 -0.62647170584E+01  0.60752623876E+02  0.96073084638E+02  0.47000000000E+01 0. -1.
        -11    1    4    4    0    0 -0.94511398766E+01  0.15489039736E+02  0.12157389038E+02  0.21841165379E+02  0.00000000000E+00 0.  1.
         12    1    4    4    0    0  0.51436437962E+02 -0.60188961659E+01  0.19165310483E+03  0.19852669053E+03  0.00000000000E+00 0. -1.
         -5    1    5    5    0  503  0.12371934140E+02  0.65718416581E+02  0.37504437821E+02  0.76815674758E+02  0.47000000000E+01 0.  1.
         11    1    6    6    0    0  0.24950059147E+02 -0.39905100131E+02 -0.87808036571E+01  0.47875097711E+02  0.00000000000E+00 0. -1.
        -12    1    6    6    0    0 -0.52949977717E+01 -0.29018742962E+02  0.65990407646E+02  0.72283181625E+02  0.00000000000E+00 0.  1.
</event>
<event>
12    1  0.9246030E-003  0.1953582E+03  0.7818608E-02  0.1154136E+00
         21   -1    0    0  503  502  0.00000000000E+00  0.00000000000E+00  0.48866955749E+03  0.48866955749E+03  0.00000000000E+00 0. -1.
         21   -1    0    0  501  503 -0.00000000000E+00 -0.00000000000E+00 -0.78726312834E+02  0.78726312834E+02  0.00000000000E+00 0. -1.
          6    2    1    2  501    0 -0.50547736392E+02  0.82464113691E+02  0.16621501104E+03  0.25503667927E+03  0.16751380294E+03 0.  0.
         24    2    3    3    0    0  0.11259823528E+02  0.98797265294E+02  0.10226899292E+03  0.16449315637E+03  0.81922941388E+02 0.  0.
         -6    2    1    2    0  502  0.50547736392E+02 -0.82464113691E+02  0.24372823361E+03  0.31235919105E+03  0.16973334579E+03 0.  0.
        -24    2    5    5    0    0  0.97090008662E+02 -0.42142784004E+02  0.17800267791E+03  0.22217088024E+03  0.80451616856E+02 0.  0.
          5    1    3    3  501    0 -0.61807559921E+02 -0.16333151603E+02  0.63946018125E+02  0.90543522897E+02  0.47000000000E+01 0. -1.
        -13    1    4    4    0    0 -0.15026667773E+02  0.61452013021E+02  0.13531674351E+02  0.64693561190E+02  0.00000000000E+00 0.  1.
         14    1    4    4    0    0  0.26286491302E+02  0.37345252272E+02  0.88737318567E+02  0.99799595183E+02  0.00000000000E+00 0. -1.
         -5    1    5    5    0  502 -0.46542272270E+02 -0.40321329687E+02  0.65725555694E+02  0.90188310812E+02  0.47000000000E+01 0.  1.
         11    1    6    6    0    0  0.24704885451E+02 -0.18106478988E+02  0.24048765933E+01  0.30723921917E+02  0.00000000000E+00 0. -1.
        -12    1    6    6    0    0  0.72385123211E+02 -0.24036305016E+02  0.17559780132E+03  0.19144695832E+03  0.00000000000E+00 0.  1.
</event>
<event>
12    1  0.9246030E-003  0.1883638E+03  0.7818608E-02  0.1160732E+00
         21   -1    0    0  501  502  0.00000000000E+00  0.00000000000E+00  0.10536893032E+03  0.10536893032E+03  0.00000000000E+00 0.  1.
         21   -1    0    0  502  503 -0.00000000000E+00 -0.00000000000E+00 -0.33254698612E+03  0.33254698612E+03  0.00000000000E+00 0.  1.
          6    2    1    2  501    0 -0.66262523185E+02 -0.23270783662E+02 -0.13113380976E+03  0.22951466766E+03  0.17478173605E+03 0.  0.
         24    2    3    3    0    0 -0.10946279733E+03 -0.33927275081E+02 -0.11924397172E+03  0.18321906587E+03  0.78847557440E+02 0.  0.
         -6    2    1    2    0  503  0.66262523185E+02  0.23270783662E+02 -0.96044246043E+02  0.20840124878E+03  0.17109743407E+03 0.  0.
        -24    2    5    5    0    0 -0.97828650359E+01 -0.23840706241E+02 -0.83557299539E+02  0.11795564423E+03  0.79168352113E+02 0.  0.
          5    1    3    3  501    0  0.43200274150E+02  0.10656491419E+02 -0.11889838043E+02  0.46295601786E+02  0.47000000000E+01 0. -1.
        -11    1    4    4    0    0 -0.30429161209E+02 -0.41707135330E+02 -0.78515362464E+02  0.93968511386E+02  0.00000000000E+00 0.  1.
         12    1    4    4    0    0 -0.79033636125E+02  0.77798602495E+01 -0.40728609253E+02  0.89250554488E+02  0.00000000000E+00 0. -1.
         -5    1    5    5    0  503  0.76045388220E+02  0.47111489903E+02 -0.12486946504E+02  0.90445604556E+02  0.47000000000E+01 0.  1.
         11    1    6    6    0    0  0.30116363956E+02  0.82941045328E+01 -0.39701819784E+02  0.50517541924E+02  0.00000000000E+00 0. -1.
        -12    1    6    6    0    0 -0.39899228992E+02 -0.32134810774E+02 -0.43855479755E+02  0.67438102302E+02  0.00000000000E+00 0.  1.
</event>
<event>
12    1  0.9246030E-003  0.2227154E+03  0.7818608E-02  0.1131881E+00
         21   -1    0    0  503  502  0.00000000000E+00  0.00000000000E+00  0.97175094670E+02  0.97175094670E+02  0.00000000000E+00 0. -1.
         21   -1    0    0  501  503 -0.00000000000E+00 -0.00000000000E+00 -0.56171368195E+03  0.56171368195E+03  0.00000000000E+00 0. -1.
          6    2    1    2  501    0  0.14142058896E+03 -0.86095222516E+01 -0.33189342938E+03  0.39969414653E+03  0.17183787548E+03 0.  0.
         24    2    3    3    0    0  0.43069306220E+02  0.44766176030E+02 -0.21505289142E+03  0.23784316169E+03  0.80390595211E+02 0.  0.
         -6    2    1    2    0  502 -0.14142058896E+03  0.86095222516E+01 -0.13264515789E+03  0.25919463009E+03  0.17179409623E+03 0.  0.
        -24    2    5    5    0    0 -0.79930195651E+02 -0.60838361461E+02 -0.91245845972E+02  0.15750849510E+03  0.79956108084E+02 0.  0.
          5    1    3    3  501    0  0.98351282736E+02 -0.53375698281E+02 -0.11684053796E+03  0.16185098484E+03  0.47000000000E+01 0. -1.
        -13    1    4    4    0    0 -0.80040295205E+01 -0.65129844244E+01 -0.10876889333E+03  0.10925729088E+03  0.00000000000E+00 0.  1.
         14    1    4    4    0    0  0.51073335741E+02  0.51279160454E+02 -0.10628399809E+03  0.12858587081E+03  0.00000000000E+00 0. -1.
         -5    1    5    5    0  502 -0.61490393306E+02  0.69447883712E+02 -0.41399311922E+02  0.10168613499E+03  0.47000000000E+01 0.  1.
         13    1    6    6    0    0 -0.39869875011E+01  0.18216219755E+02 -0.10951076148E+02  0.21625281508E+02  0.00000000000E+00 0. -1.
        -14    1    6    6    0    0 -0.75943208149E+02 -0.79054581216E+02 -0.80294769824E+02  0.13588321359E+03  0.00000000000E+00 0.  1.
</event>
<event>
12    1  0.9246030E-003  0.3245623E+03  0.7818608E-02  0.1073653E+00
         21   -1    0    0  503  502  0.00000000000E+00  0.00000000000E+00  0.16275133267E+03  0.16275133267E+03  0.00000000000E+00 0.  1.
         21   -1    0    0  501  503 -0.00000000000E+00 -0.00000000000E+00 -0.67976588948E+03  0.67976588948E+03  0.00000000000E+00 0. -1.
          6    2    1    2  501    0  0.21929046001E+03  0.16503714126E+03 -0.16399208005E+03  0.36296995597E+03  0.17183778040E+03 0.  0.
         24    2    3    3    0    0  0.14616776565E+03  0.80450340728E+02 -0.26859860300E+02  0.18596941657E+03  0.77626662723E+02 0.  0.
         -6    2    1    2    0  502 -0.21929046001E+03 -0.16503714126E+03 -0.35302247676E+03  0.47954726619E+03  0.17324880249E+03 0.  0.
        -24    2    5    5    0    0 -0.18260984137E+03 -0.13696949725E+03 -0.35831289154E+03  0.43282105393E+03  0.82697878660E+02 0.  0.
          5    1    3    3  501    0  0.73122694356E+02  0.84586800530E+02 -0.13713221975E+03  0.17700053940E+03  0.47000000000E+01 0. -1.
        -13    1    4    4    0    0  0.66653192807E+02 -0.84343578316E+00 -0.27867621988E+02  0.72249317302E+02  0.00000000000E+00 0.  1.
         14    1    4    4    0    0  0.79514572844E+02  0.81293776511E+02  0.10077616887E+01  0.11372009927E+03  0.00000000000E+00 0. -1.
         -5    1    5    5    0  502 -0.36680618637E+02 -0.28067644004E+02  0.52904147797E+01  0.46726212259E+02  0.47000000000E+01 0.  1.
         11    1    6    6    0    0 -0.96401108907E+02 -0.66885127600E+02 -0.25676366490E+03  0.28230191942E+03  0.00000000000E+00 0. -1.
        -12    1    6    6    0    0 -0.86208732464E+02 -0.70084369654E+02 -0.10154922664E+03  0.15051913451E+03  0.00000000000E+00 0.  1.
</event>
<event>
12    1  0.9246030E-003  0.2345011E+03  0.7818608E-02  0.1123592E+00
         21   -1    0    0  503  502  0.00000000000E+00  0.00000000000E+00  0.41678089807E+02  0.41678089807E+02  0.00000000000E+00 0.  1.
         21   -1    0    0  501  503 -0.00000000000E+00 -0.00000000000E+00 -0.21367885049E+04  0.21367885049E+04  0.00000000000E+00 0.  1.
          6    2    1    2  501    0 -0.34970634697E+02 -0.15561247119E+03 -0.17216690709E+04  0.17375026635E+04  0.17126858926E+03 0.  0.
         24    2    3    3    0    0  0.24901573216E+02 -0.23405205417E+02 -0.78070039597E+03  0.78539574750E+03  0.78647822107E+02 0.  0.
         -6    2    1    2    0  502  0.34970634697E+02  0.15561247119E+03 -0.37344134416E+03  0.44096393112E+03  0.17190859357E+03 0.  0.
        -24    2    5    5    0    0  0.11929669882E+02  0.19388632420E+02 -0.22553909397E+03  0.23851644183E+03  0.74188772910E+02 0.  0.
          5    1    3    3  501    0 -0.59872207914E+02 -0.13220726577E+03 -0.94096867491E+03  0.95210691604E+03  0.47000000000E+01 0. -1.
        -13    1    4    4    0    0  0.49316227650E+02 -0.22779416076E+02 -0.66104716900E+03  0.66327547199E+03  0.00000000000E+00 0.  1.
         14    1    4    4    0    0 -0.24414654433E+02 -0.62578934132E+00 -0.11965322698E+03  0.12212027550E+03  0.00000000000E+00 0. -1.
         -5    1    5    5    0  502  0.23040964816E+02  0.13622383877E+03 -0.14790225019E+03  0.20244748929E+03  0.47000000000E+01 0.  1.
         11    1    6    6    0    0  0.14382205709E+02 -0.16639255361E+02 -0.19676515432E+02  0.29510640785E+02  0.00000000000E+00 0. -1.
        -12    1    6    6    0    0 -0.24525358271E+01  0.36027887781E+02 -0.20586257853E+03  0.20900580105E+03  0.00000000000E+00 0.  1.
</event>
<event>
12    1  0.9246030E-003  0.3247361E+03  0.7818608E-02  0.1073546E+00
         21   -1    0    0  501  502  0.00000000000E+00  0.00000000000E+00  0.66700926343E+03  0.66700926343E+03  0.00000000000E+00 0.  1.
         21   -1    0    0  502  503 -0.00000000000E+00 -0.00000000000E+00 -0.18280458434E+03  0.18280458434E+03  0.00000000000E+00 0. -1.
          6    2    1    2  501    0  0.10773300442E+03  0.25347173402E+03  0.39923358355E+03  0.51462704408E+03  0.17204423871E+03 0.  0.
         24    2    3    3    0    0  0.53988630691E+01  0.92407952098E+02  0.22547015130E+03  0.25649986860E+03  0.79918809617E+02 0.  0.
         -6    2    1    2    0  503 -0.10773300442E+03 -0.25347173402E+03  0.84971095544E+02  0.33518680369E+03  0.17110168352E+03 0.  0.
        -24    2    5    5    0    0 -0.12663020964E+03 -0.25039075378E+03  0.10169044811E+03  0.30933678329E+03  0.81348378546E+02 0.  0.
          5    1    3    3  501    0  0.10233414135E+03  0.16106378192E+03  0.17376343225E+03  0.25812717548E+03  0.47000000000E+01 0. -1.
        -13    1    4    4    0    0 -0.15030377210E+02 -0.94655061424E+01  0.42949866610E+02  0.46477941944E+02  0.00000000000E+00 0.  1.
         14    1    4    4    0    0  0.20429240279E+02  0.10187345824E+03  0.18252028470E+03  0.21002192666E+03  0.00000000000E+00 0. -1.
         -5    1    5    5    0  503  0.18897205222E+02 -0.30809802466E+01 -0.16719352565E+02  0.25850020400E+02  0.47000000000E+01 0.  1.
         13    1    6    6    0    0 -0.31259406221E+02 -0.90798781474E+01  0.14151480946E+02  0.35494493621E+02  0.00000000000E+00 0. -1.
        -14    1    6    6    0    0 -0.95370803421E+02 -0.24131087563E+03  0.87538967162E+02  0.27384228967E+03  0.00000000000E+00 0.  1.
</event>
<event>
12    1  0.9246030E-003  0.1835570E+03  0.7818608E-02  0.1164712E+00
         21   -1    0    0  501  502  0.00000000000E+00  0.00000000000E+00  0.86445376424E+02  0.86445376424E+02  0.00000000000E+00 0.  1.
         21   -1    0    0  502  503 -0.00000000000E+00 -0.00000000000E+00 -0.42800701707E+03  0.42800701707E+03  0.00000000000E+00 0.  1.
          6    2    1    2  501    0  0.10337727455E+02  0.64792575058E+02 -0.91715304825E+02  0.20519470344E+03  0.17142993552E+03 0.  0.
         24    2    3    3    0    0 -0.36297564960E+02  0.60474998555E+02 -0.11170508075E+03  0.15405594019E+03  0.79249409909E+02 0.  0.
         -6    2    1    2    0  503 -0.10337727455E+02 -0.64792575058E+02 -0.24984633582E+03  0.30925769005E+03  0.17003582252E+03 0.  0.
        -24    2    5    5    0    0 -0.45722872608E+02  0.11658795119E+02 -0.90025320297E+02  0.12853202086E+03  0.78672825737E+02 0.  0.
          5    1    3    3  501    0  0.46635292415E+02  0.43175765026E+01  0.19989775925E+02  0.51138763253E+02  0.47000000000E+01 0. -1.
        -11    1    4    4    0    0  0.12930963754E+02  0.21232279883E+02 -0.79589479717E+02  0.83381681527E+02  0.00000000000E+00 0.  1.
         12    1    4    4    0    0 -0.49228528715E+02  0.39242718672E+02 -0.32115601033E+02  0.70674258665E+02  0.00000000000E+00 0. -1.
         -5    1    5    5    0  503  0.35385145153E+02 -0.76451370177E+02 -0.15982101552E+03  0.18072566918E+03  0.47000000000E+01 0.  1.
         13    1    6    6    0    0 -0.61355221972E+02 -0.11574936132E+02 -0.51685762751E+02  0.81054675873E+02  0.00000000000E+00 0. -1.
        -14    1    6    6    0    0  0.15632349364E+02  0.23233731251E+02 -0.38339557546E+02  0.47477344991E+02  0.00000000000E+00 0.  1.
</event>
<event>
12    1  0.9246030E-003  0.1913633E+03  0.7818608E-02  0.1157611E+00
         21   -1    0    0  503  502  0.00000000000E+00  0.00000000000E+00  0.78767206266E+03  0.78767206266E+03  0.00000000000E+00 0. -1.
         21   -1    0    0  501  503 -0.00000000000E+00 -0.00000000000E+00 -0.46960780780E+02  0.46960780780E+02  0.00000000000E+00 0. -1.
          6    2    1    2  501    0  0.16145469911E+02 -0.81006388270E+02  0.31188250814E+03  0.36504364599E+03  0.17077310518E+03 0.  0.
         24    2    3    3    0    0  0.15284049959E+02 -0.93265660774E+02  0.32316256487E+03  0.34771270584E+03  0.86821637870E+02 0.  0.
         -6    2    1    2    0  502 -0.16145469911E+02  0.81006388270E+02  0.42882877374E+03  0.46958919745E+03  0.17261861440E+03 0.  0.
        -24    2    5    5    0    0 -0.52204349754E+02  0.10103248751E+03  0.23758614953E+03  0.27389270086E+03  0.75081125910E+02 0.  0.
          5    1    3    3  501    0  0.86141995247E+00  0.12259272503E+02 -0.11280056732E+02  0.17330940151E+02  0.47000000000E+01 0. -1.
        -13    1    4    4    0    0 -0.28399596050E+02 -0.34077079660E+02  0.19459614316E+03  0.19958818438E+03  0.00000000000E+00 0.  1.
         14    1    4    4    0    0  0.43683646008E+02 -0.59188581114E+02  0.12856642171E+03  0.14812452145E+03  0.00000000000E+00 0. -1.
         -5    1    5    5    0  502  0.36058879843E+02 -0.20026099235E+02  0.19124262421E+03  0.19569649660E+03  0.47000000000E+01 0.  1.
         13    1    6    6    0    0 -0.37014684865E+02  0.57368136097E+02  0.20821075333E+03  0.21911847877E+03  0.00000000000E+00 0. -1.
        -14    1    6    6    0    0 -0.15189664889E+02  0.43664351408E+02  0.29375396200E+02  0.54774222087E+02  0.00000000000E+00 0.  1.
</event>
<event>
12    1  0.9246030E-003  0.3292256E+03  0.7818608E-02  0.1071489E+00
         21   -1    0    0  503  502  0.00000000000E+00  0.00000000000E+00  0.94575576774E+02  0.94575576774E+02  0.00000000000E+00 0.  1.
         21   -1    0    0  501  503 -0.00000000000E+00 -0.00000000000E+00 -0.11564079058E+04  0.11564079058E+04  0.00000000000E+00 0.  1.
          6    2    1    2  501    0  0.25894328169E+03 -0.10673591797E+03 -0.59093117114E+03  0.67645336998E+03  0.17304719998E+03 0.  0.
         24    2    3    3    0    0  0.15738620134E+03 -0.10261848746E+02 -0.41872762223E+03  0.45442355473E+03  0.79323537283E+02 0.  0.
         -6    2    1    2    0  502 -0.25894328169E+03  0.10673591797E+03 -0.47090115790E+03  0.57453011260E+03  0.17289525865E+03 0.  0.
        -24    2    5    5    0    0 -0.95869985095E+02  0.48547970616E+02 -0.10538070393E+03  0.17004769080E+03  0.79140159798E+02 0.  0.
          5    1    3    3  501    0  0.10155708035E+03 -0.96474069227E+02 -0.17220354891E+03  0.22202981525E+03  0.47000000000E+01 0. -1.
        -13    1    4    4    0    0  0.57499520617E+02  0.58369577571E+01 -0.67245061066E+02  0.88668839988E+02  0.00000000000E+00 0.  1.
         14    1    4    4    0    0  0.99886680721E+02 -0.16098806503E+02 -0.35148256116E+03  0.36575471475E+03  0.00000000000E+00 0. -1.
         -5    1    5    5    0  502 -0.16307329659E+03  0.58187947357E+02 -0.36552045397E+03  0.40448242180E+03  0.47000000000E+01 0.  1.
         11    1    6    6    0    0 -0.70716953672E+02  0.31080612888E+01 -0.92609274885E+02  0.11656339638E+03  0.00000000000E+00 0. -1.
        -12    1    6    6    0    0 -0.25153031424E+02  0.45439909327E+02 -0.12771429043E+02  0.53484294417E+02  0.00000000000E+00 0.  1.
</event>
<event>
12    1  0.9246030E-003  0.3157425E+03  0.7818608E-02  0.1077632E+00
         21   -1    0    0  503  502  0.00000000000E+00  0.00000000000E+00  0.47004517250E+03  0.47004517250E+03  0.00000000000E+00 0. -1.
         21   -1    0    0  501  503 -0.00000000000E+00 -0.00000000000E+00 -0.26207256290E+03  0.26207256290E+03  0.00000000000E+00 0.  1.
          6    2    1    2  501    0 -0.18280870340E+03 -0.19196629206E+03 -0.55934595749E+02  0.32060788285E+03  0.17143703281E+03 0.  0.
         24    2    3    3    0    0 -0.10006856846E+03 -0.17063252997E+03 -0.86091043069E+02  0.22987442348E+03  0.79381384430E+02 0.  0.
         -6    2    1    2    0  502  0.18280870340E+03  0.19196629206E+03  0.26390720535E+03  0.41150985254E+03  0.17153211473E+03 0.  0.
        -24    2    5    5    0    0  0.11813424588E+03  0.15608740845E+03  0.26235144559E+03  0.33738434997E+03  0.81737014085E+02 0.  0.
          5    1    3    3  501    0 -0.82740134936E+02 -0.21333762082E+02  0.30156447320E+02  0.90733459368E+02  0.47000000000E+01 0. -1.
        -11    1    4    4    0    0 -0.80353178498E+02 -0.16315564890E+03 -0.50913127933E+02  0.18886118092E+03  0.00000000000E+00 0.  1.
         12    1    4    4    0    0 -0.19715389964E+02 -0.74768810756E+01 -0.35177915136E+02  0.41013242561E+02  0.00000000000E+00 0. -1.
         -5    1    5    5    0  502  0.64674457515E+02  0.35878883602E+02  0.15557597535E+01  0.74125502574E+02  0.47000000000E+01 0.  1.
         11    1    6    6    0    0  0.95438564722E+02  0.66639451935E+02  0.17594232897E+03  0.21096217508E+03  0.00000000000E+00 0. -1.
        -12    1    6    6    0    0  0.22695681161E+02  0.89447956519E+02  0.86409116626E+02  0.12642217489E+03  0.00000000000E+00 0.  1.
</event>
<event>
12    1  0.9246030E-003  0.1810517E+03  0.7818608E-02  0.1166923E+00
         21   -1    0    0  501  502  0.00000000000E+00  0.00000000000E+00  0.18147364011E+03  0.18147364011E+03  0.00000000000E+00 0.  1.
         21   -1    0    0  502  503 -0.00000000000E+00 -0.00000000000E+00 -0.18755141702E+03  0.18755141702E+03  0.00000000000E+00 0.  1.
          6    2    1    2  501    0 -0.45101855589E+02  0.45558309180E+02 -0.39869905968E+02  0.18484679979E+03  0.16872757059E+03 0.  0.
         24    2    3    3    0    0 -0.65519281950E+02  0.30082213868E+02 -0.83385822397E+02  0.13413086730E+03  0.76421059190E+02 0.  0.
         -6    2    1    2    0  503  0.45101855589E+02 -0.45558309180E+02  0.33792129056E+02  0.18417825734E+03  0.16932213552E+03 0.  0.
        -24    2    5    5    0    0  0.17218336051E+01  0.36787900221E+02  0.25011009311E+02  0.90573115528E+02  0.78877274015E+02 0.  0.
          5    1    3    3  501    0  0.20417426362E+02  0.15476095311E+02  0.43515916428E+02  0.50715932486E+02  0.47000000000E+01 0. -1.
        -11    1    4    4    0    0  0.12502962414E+01  0.85998069989E+00  0.13113027886E+02  0.13200541952E+02  0.00000000000E+00 0.  1.
         12    1    4    4    0    0 -0.66769578192E+02  0.29222233168E+02 -0.96498850283E+02  0.12093032535E+03  0.00000000000E+00 0. -1.
         -5    1    5    5    0  503  0.43380021984E+02 -0.82346209400E+02  0.87811197455E+01  0.93605141813E+02  0.47000000000E+01 0.  1.
         13    1    6    6    0    0  0.25994482758E+02  0.19780671459E+02  0.44426037228E+02  0.55142187851E+02  0.00000000000E+00 0. -1.
        -14    1    6    6    0    0 -0.24272649153E+02  0.17007228761E+02 -0.19415027917E+02  0.35430927677E+02  0.00000000000E+00 0.  1.
</event>
<event>
12    1  0.9246030E-003  0.3323905E+03  0.7818608E-02  0.1070280E+00
         21   -1    0    0  501  502  0.00000000000E+00  0.00000000000E+00  0.17122644684E+04  0.17122644684E+04  0.00000000000E+00 0.  1.
         21   -1    0    0  502  503 -0.00000000000E+00 -0.00000000000E+00 -0.68407177834E+02  0.68407177834E+02  0.00000000000E+00 0.  1.
          6    2    1    2  501    0 -0.19756572649E+02 -0.28314253391E+03  0.10412138173E+04  0.10924401296E+04  0.16952641914E+03 0.  0.
         24    2    3    3    0    0  0.94818260688E+01 -0.28555399270E+03  0.89121126703E+03  0.93952330850E+03  0.82556265385E+02 0.  0.
         -6    2    1    2    0  503  0.19756572649E+02  0.28314253391E+03  0.60264347326E+03  0.68823151661E+03  0.17298395280E+03 0.  0.
        -24    2    5    5    0    0  0.16668063376E+02  0.42803030017E+02  0.14278233559E+03  0.16932211030E+03  0.78570083139E+02 0.  0.
          5    1    3    3  501    0 -0.29238398718E+02  0.24114587963E+01  0.15000255026E+03  0.15291682111E+03  0.47000000000E+01 0. -1.
        -11    1    4    4    0    0 -0.29404995763E+02 -0.11258816771E+03  0.42828328895E+03  0.44381000989E+03  0.00000000000E+00 0.  1.
         12    1    4    4    0    0  0.38886821832E+02 -0.17296582499E+03  0.46292797807E+03  0.49571329860E+03  0.00000000000E+00 0. -1.
         -5    1    5    5    0  503  0.30885092732E+01  0.24033950389E+03  0.45986113767E+03  0.51890940632E+03  0.47000000000E+01 0.  1.
         11    1    6    6    0    0  0.27898008895E+02  0.59456590391E+02  0.12961549977E+03  0.14530506812E+03  0.00000000000E+00 0. -1.
        -12    1    6    6    0    0 -0.11229945519E+02 -0.16653560374E+02  0.13166835821E+02  0.24017042179E+02  0.00000000000E+00 0.  1.
</event>
<event>
12    1  0.9246030E-003  0.2098435E+03  0.7818608E-02  0.1141743E+00
         21   -1    0    0  501  502  0.00000000000E+00  0.00000000000E+00  0.63558370867E+03  0.63558370867E+03  0.00000000000E+00 0.  1.
         21   -1    0    0  502  503 -0.00000000000E+00 -0.00000000000E+00 -0.80554491681E+02  0.80554491681E+02  0.00000000000E+00 0. -1.
          6    2    1    2  501    0  0.99833714082E+02  0.65016931764E+02  0.41213865983E+03  0.46248521151E+03  0.17274352102E+03 0.  0.
         24    2    3    3    0    0  0.10147267311E+03 -0.84061107026E+01  0.31582717924E+03  0.34127621578E+03  0.79720023994E+02 0.  0.
         -6    2    1    2    0  503 -0.99833714082E+02 -0.65016931764E+02  0.14289055715E+03  0.25365298884E+03  0.17241854755E+03 0.  0.
        -24    2    5    5    0    0 -0.85594639862E+02 -0.85056124424E+02  0.42622836576E+02  0.15030877629E+03  0.78835495540E+02 0.  0.
          5    1    3    3  501    0 -0.16389590313E+01  0.73423042467E+02  0.96311480589E+02  0.12120899573E+03  0.47000000000E+01 0. -1.
        -13    1    4    4    0    0  0.37134733261E+01 -0.24946867064E+02  0.10943959417E+03  0.11230832931E+03  0.00000000000E+00 0.  1.
         14    1    4    4    0    0  0.97759199787E+02  0.16540756361E+02  0.20638758507E+03  0.22896788647E+03  0.00000000000E+00 0. -1.
         -5    1    5    5    0  503 -0.14239074221E+02  0.20039192660E+02  0.10026772058E+03  0.10334421255E+03  0.47000000000E+01 0.  1.
         11    1    6    6    0    0 -0.63790091601E+02 -0.23610217219E+02 -0.69923085674E+01  0.68377704866E+02  0.00000000000E+00 0. -1.
        -12    1    6    6    0    0 -0.21804548260E+02 -0.61445907205E+02  0.49615145143E+02  0.81931071424E+02  0.00000000000E+00 0.  1.
</event>
<event>
12    1  0.9246030E-003  0.1951914E+03  0.7818608E-02  0.1154011E+00
         21   -1    0    0  503  502  0.00000000000E+00  0.00000000000E+00  0.90447001580E+03  0.90447001580E+03  0.00000000000E+00 0. -1.
         21   -1    0    0  501  503 -0.00000000000E+00 -0.00000000000E+00 -0.43621318876E+02  0.43621318876E+02  0.00000000000E+00 0.  1.
          6    2    1    2  501    0 -0.41123738904E+02  0.80991891095E+02  0.52323079370E+03  0.55845333792E+03  0.17276810711E+03 0.  0.
         24    2    3    3    0    0 -0.36550856041E+02  0.10853915534E+02  0.11746079570E+03  0.14661401471E+03  0.79024415347E+02 0.  0.
         -6    2    1    2    0  502  0.41123738904E+02 -0.80991891095E+02  0.33761790323E+03  0.38963799676E+03  0.17199148703E+03 0.  0.
        -24    2    5    5    0    0  0.35084573010E+02 -0.65280703403E+02  0.35161281499E+03  0.36724914912E+03  0.75814697533E+02 0.  0.
          5    1    3    3  501    0 -0.45728828633E+01  0.70137975561E+02  0.40576999800E+03  0.41183932322E+03  0.47000000000E+01 0. -1.
        -11    1    4    4    0    0  0.23982505832E+00 -0.23195856813E+02  0.53498482959E+01  0.23806011134E+02  0.00000000000E+00 0.  1.
         12    1    4    4    0    0 -0.36790681099E+02  0.34049772346E+02  0.11211094741E+03  0.12280800357E+03  0.00000000000E+00 0. -1.
         -5    1    5    5    0  502  0.60391658942E+01 -0.15711187692E+02 -0.13994911763E+02  0.22388847640E+02  0.47000000000E+01 0.  1.
         13    1    6    6    0    0  0.17874809151E+02 -0.26238345519E+02  0.29319451178E+03  0.29490842869E+03  0.00000000000E+00 0. -1.
        -14    1    6    6    0    0  0.17209763859E+02 -0.39042357884E+02  0.58418303210E+02  0.72340720422E+02  0.00000000000E+00 0.  1.
</event>
<event>
12    1  0.9246030E-003  0.2535841E+03  0.7818608E-02  0.1111103E+00
         21   -1    0    0  501  502  0.00000000000E+00  0.00000000000E+00  0.17927044346E+03  0.17927044346E+03  0.00000000000E+00 0.  1.
         21   -1    0    0  502  503 -0.00000000000E+00 -0.00000000000E+00 -0.35940678479E+03  0.35940678479E+03  0.00000000000E+00 0.  1.
          6    2    1    2  501    0 -0.18067186936E+03  0.45003538321E+02 -0.75257451363E+02  0.26451579348E+03  0.17215480874E+03 0.  0.
         24    2    3    3    0    0 -0.82610510368E+02 -0.17911889450E+02 -0.91206732324E+02  0.14682615611E+03  0.78063563143E+02 0.  0.
         -6    2    1    2    0  503  0.18067186936E+03 -0.45003538321E+02 -0.10487888997E+03  0.27416143478E+03  0.17174768680E+03 0.  0.
        -24    2    5    5    0    0  0.19488714715E+03 -0.51802048979E+02 -0.58019425813E+02  0.22450065297E+03  0.79811258648E+02 0.  0.
          5    1    3    3  501    0 -0.98061358994E+02  0.62915427771E+02  0.15949280961E+02  0.11768963736E+03  0.47000000000E+01 0. -1.
        -11    1    4    4    0    0 -0.46742020525E+02  0.29576912853E+02 -0.48636372259E+02  0.73655325423E+02  0.00000000000E+00 0.  1.
         12    1    4    4    0    0 -0.35868489843E+02 -0.47488802302E+02 -0.42570360065E+02  0.73170830689E+02  0.00000000000E+00 0. -1.
         -5    1    5    5    0  503 -0.14215277790E+02  0.67985106579E+01 -0.46859464154E+02  0.49660781816E+02  0.47000000000E+01 0.  1.
         11    1    6    6    0    0  0.57613590194E+02  0.20954483972E+02 -0.12039723019E+02  0.62476964586E+02  0.00000000000E+00 0. -1.
        -12    1    6    6    0    0  0.13727355696E+03 -0.72756532951E+02 -0.45979702794E+02  0.16202368838E+03  0.00000000000E+00 0.  1.
</event>
<event>
12    1  0.9246030E-003  0.2230188E+03  0.7818608E-02  0.1132002E+00
         21   -1    0    0  503  502  0.00000000000E+00  0.00000000000E+00  0.15923838434E+03  0.15923838434E+03  0.00000000000E+00 0.  1.
         21   -1    0    0  501  503 -0.00000000000E+00 -0.00000000000E+00 -0.33790992913E+03  0.33790992913E+03  0.00000000000E+00 0. -1.
          6    2    1    2  501    0  0.13777669252E+03  0.28747119693E+02 -0.16082155368E+03  0.27341632541E+03  0.17054061387E+03 0.  0.
         24    2    3    3    0    0  0.12444026782E+02  0.40336831334E+02 -0.39015878568E+02  0.98198429611E+02  0.79616449514E+02 0.  0.
         -6    2    1    2    0  502 -0.13777669252E+03 -0.28747119693E+02 -0.17849991103E+02  0.22373198806E+03  0.17299874683E+03 0.  0.
        -24    2    5    5    0    0 -0.94002169022E+02 -0.59976656948E+02  0.42028480823E+02  0.14311552383E+03  0.79259401969E+02 0.  0.
          5    1    3    3  501    0  0.12533266574E+03 -0.11589711640E+02 -0.12180567511E+03  0.17521789580E+03  0.47000000000E+01 0. -1.
        -13    1    4    4    0    0 -0.23460159421E+02  0.21024524665E+02 -0.47072677886E+02  0.56641386995E+02  0.00000000000E+00 0.  1.
         14    1    4    4    0    0  0.35904186202E+02  0.19312306669E+02  0.80567993180E+01  0.41557042616E+02  0.00000000000E+00 0. -1.
         -5    1    5    5    0  502 -0.43774523501E+02  0.31229537254E+02 -0.59878471926E+02  0.80616464231E+02  0.47000000000E+01 0.  1.
         11    1    6    6    0    0 -0.11200244298E+02 -0.38047728161E+02 -0.12488380335E+02  0.41581663434E+02  0.00000000000E+00 0. -1.
        -12    1    6    6    0    0 -0.82801924724E+02 -0.21928928787E+02  0.54516861158E+02  0.10153386039E+03  0.00000000000E+00 0.  1.
</event>
<event>
12    1  0.9246030E-003  0.1903652E+03  0.7818608E-02  0.1158225E+00
         21   -1    0    0  503  502  0.00000000000E+00  0.00000000000E+00  0.28079454567E+03  0.28079454567E+03  0.00000000000E+00 0. -1.
         21   -1    0    0  501  503 -0.00000000000E+00 -0.00000000000E+00 -0.16286666194E+03  0.16286666194E+03  0.00000000000E+00 0.  1.
          6    2    1    2  501    0 -0.70559650975E+01 -0.79529012359E+02 -0.42470756228E+02  0.19504533603E+03  0.17281281064E+03 0.  0.
         24    2    3    3    0    0 -0.22129650736E+02 -0.86976620111E+02  0.28868007453E+02  0.12160153395E+03  0.76804409489E+02 0.  0.
         -6    2    1    2    0  502  0.70559650975E+01  0.79529012359E+02  0.16039863996E+03  0.24861587158E+03  0.17235857232E+03 0.  0.
        -24    2    5    5    0    0 -0.48823056487E+02  0.74908861609E+02  0.14884010706E+03  0.19117459262E+03  0.79995743648E+02 0.  0.
          5    1    3    3  501    0  0.15073685639E+02  0.74476077525E+01 -0.71338763682E+02  0.73443802077E+02  0.47000000000E+01 0. -1.
        -11    1    4    4    0    0 -0.40831733511E+02 -0.14608166692E+02  0.11470985764E+02  0.44857691760E+02  0.00000000000E+00 0.  1.
         12    1    4    4    0    0  0.18702082775E+02 -0.72368453420E+02  0.17397021689E+02  0.76743842190E+02  0.00000000000E+00 0. -1.
         -5    1    5    5    0  502  0.55879021584E+02  0.46201507500E+01  0.11558532894E+02  0.57441278962E+02  0.47000000000E+01 0.  1.
         11    1    6    6    0    0  0.21730141288E+02  0.93955101983E+01  0.27917206649E+02  0.36603894320E+02  0.00000000000E+00 0. -1.
        -12    1    6    6    0    0 -0.70553197775E+02  0.65513351411E+02  0.12092290041E+03  0.15457069830E+03  0.00000000000E+00 0.  1.
</event>
<event>
12    1  0.9246030E-003  0.1986071E+03  0.7818608E-02  0.1153021E+00
         21   -1    0    0  501  502  0.00000000000E+00  0.00000000000E+00  0.35268226723E+02  0.35268226723E+02  0.00000000000E+00 0. -1.
         21   -1    0    0  502  503 -0.00000000000E+00 -0.00000000000E+00 -0.12741338593E+04  0.12741338593E+04  0.00000000000E+00 0.  1.
          6    2    1    2  501    0  0.71442799658E+02  0.31624470821E+02 -0.36706218748E+03  0.41734810911E+03  0.18259412347E+03 0.  0.
         24    2    3    3    0    0  0.88814708008E+02 -0.35992173080E+01 -0.35662236780E+03  0.37643880406E+03  0.81398115828E+02 0.  0.
         -6    2    1    2    0  503 -0.71442799658E+02 -0.31624470821E+02 -0.87180344507E+03  0.89205397688E+03  0.17208971513E+03 0.  0.
        -24    2    5    5    0    0 -0.52162240841E+02  0.13685685650E+02 -0.23774757602E+03  0.25607152012E+03  0.78361445576E+02 0.  0.
          5    1    3    3  501    0 -0.17371908350E+02  0.35223688129E+02 -0.10439819675E+02  0.40909305054E+02  0.47000000000E+01 0. -1.
        -11    1    4    4    0    0  0.96815490004E+02  0.11877633195E+02 -0.33359660963E+03  0.34756440444E+03  0.00000000000E+00 0.  1.
         12    1    4    4    0    0 -0.80007819958E+01 -0.15476850503E+02 -0.23025758166E+02  0.28874399615E+02  0.00000000000E+00 0. -1.
         -5    1    5    5    0  503 -0.19280558817E+02 -0.45310156471E+02 -0.63405586905E+03  0.63598245676E+03  0.47000000000E+01 0.  1.
         13    1    6    6    0    0  0.19584678814E+02 -0.52751370776E+01 -0.39792589311E+02  0.44663596805E+02  0.00000000000E+00 0. -1.
        -14    1    6    6    0    0 -0.71746919655E+02  0.18960822728E+02 -0.19795498671E+03  0.21140792331E+03  0.00000000000E+00 0.  1.
</event>
<event>
12    1  0.9246030E-003  0.1839172E+03  0.7818608E-02  0.1164764E+00
         21   -1    0    0  503  502  0.00000000000E+00  0.00000000000E+00  0.11036876431E+03  0.11036876431E+03  0.00000000000E+00 0. -1.
         21   -1    0    0  501  503 -0.00000000000E+00 -0.00000000000E+00 -0.31581446491E+03  0.31581446491E+03  0.00000000000E+00 0. -1.
          6    2    1    2  501    0 -0.55363543280E+02  0.23779757125E+02 -0.14874530934E+03  0.23653898298E+03  0.17376686866E+03 0.  0.
         24    2    3    3    0    0 -0.36267156941E+02 -0.78260717819E+01 -0.17186700749E+03  0.19271771739E+03  0.78900546648E+02 0.  0.
         -6    2    1    2    0  502  0.55363543280E+02 -0.23779757125E+02 -0.56700391262E+02  0.18964424625E+03  0.17064409451E+03 0.  0.
        -24    2    5    5    0    0  0.22476340684E+02 -0.35844729439E+02 -0.97678396932E+02  0.13552938137E+03  0.83887504847E+02 0.  0.
          5    1    3    3  501    0 -0.19096386339E+02  0.31605828907E+02  0.23121698151E+02  0.43821265586E+02  0.47000000000E+01 0. -1.
        -13    1    4    4    0    0  0.16770512864E+02 -0.12547835050E+02 -0.11830324495E+02  0.24055245661E+02  0.00000000000E+00 0.  1.
         14    1    4    4    0    0 -0.53037669805E+02  0.47217632678E+01 -0.16003668299E+03  0.16866247173E+03  0.00000000000E+00 0. -1.
         -5    1    5    5    0  502  0.32887202597E+02  0.12064972314E+02  0.40978005670E+02  0.54114864873E+02  0.47000000000E+01 0.  1.
         13    1    6    6    0    0  0.43867555095E+02 -0.33890031605E+02 -0.27001102788E+02  0.61660004735E+02  0.00000000000E+00 0. -1.
        -14    1    6    6    0    0 -0.21391214411E+02 -0.19546978344E+01 -0.70677294144E+02  0.73869376639E+02  0.00000000000E+00 0.  1.
</event>
<event>
12    1  0.9246030E-003  0.2260021E+03  0.7818608E-02  0.1129724E+00
         21   -1    0    0  501  502  0.00000000000E+00  0.00000000000E+00  0.37413832690E+03  0.37413832690E+03  0.00000000000E+00 0.  1.
         21   -1    0    0  502  503 -0.00000000000E+00 -0.00000000000E+00 -0.13575136270E+03  0.13575136270E+03  0.00000000000E+00 0.  1.
          6    2    1    2  501    0 -0.97351822848E+02 -0.10512135823E+03  0.12256877371E+03  0.25593927011E+03  0.17307203219E+03 0.  0.
         24    2    3    3    0    0 -0.10584823420E+03 -0.12178922977E+03  0.14083746239E+03  0.22937158422E+03  0.82095478934E+02 0.  0.
         -6    2    1    2    0  503  0.97351822848E+02  0.10512135823E+03  0.11581819049E+03  0.25395041950E+03  0.17478296527E+03 0.  0.
        -24    2    5    5    0    0  0.58956771197E+02  0.53864423942E+02 -0.11738460742E+02  0.11114200736E+03  0.76403385417E+02 0.  0.
          5    1    3    3  501    0  0.84964113509E+01  0.16667871542E+02 -0.18268688678E+02  0.26567685891E+02  0.47000000000E+01 0. -1.
        -11    1    4    4    0    0 -0.79433983240E+02 -0.79167522564E+02  0.44285710884E+02  0.12057561325E+03  0.00000000000E+00 0.  1.
         12    1    4    4    0    0 -0.26414250959E+02 -0.42621707207E+02  0.96551751508E+02  0.10879597097E+03  0.00000000000E+00 0. -1.
         -5    1    5    5    0  503  0.38395051651E+02  0.51256934288E+02  0.12755665123E+03  0.14280841214E+03  0.47000000000E+01 0.  1.
         13    1    6    6    0    0  0.39928550193E+02 -0.49085647614E+01  0.16165791453E+02  0.43355690997E+02  0.00000000000E+00 0. -1.
        -14    1    6    6    0    0  0.19028221004E+02  0.58772988703E+02 -0.27904252196E+02  0.67786316365E+02  0.00000000000E+00 0.  1.
</event>
<event>
12    1  0.9246030E-003  0.2476952E+03  0.7818608E-02  0.1115229E+00
         21   -1    0    0  503  502  0.00000000000E+00  0.00000000000E+00  0.35391574635E+03  0.35391574635E+03  0.00000000000E+00 0. -1.
         21   -1    0    0  501  503 -0.00000000000E+00 -0.00000000000E+00 -0.30526860753E+03  0.30526860753E+03  0.00000000000E+00 0.  1.
          6    2    1    2  501    0 -0.29245008371E+02  0.17580353830E+03 -0.19388526850E+03  0.31455428426E+03  0.17201960880E+03 0.  0.
         24    2    3    3    0    0 -0.36998792533E+02  0.10777517061E+03 -0.20196013070E+03  0.24545093138E+03  0.80460345990E+02 0.  0.
         -6    2    1    2    0  502  0.29245008371E+02 -0.17580353830E+03  0.24253240731E+03  0.34463006962E+03  0.16788615695E+03 0.  0.
        -24    2    5    5    0    0 -0.26767142449E+02 -0.12845518016E+03  0.97440388931E+02  0.18198625063E+03  0.80044692507E+02 0.  0.
          5    1    3    3  501    0  0.77537841620E+01  0.68028367691E+02  0.80748621986E+01  0.69103352879E+02  0.47000000000E+01 0. -1.
        -13    1    4    4    0    0  0.12038217623E+02  0.81388717395E+02 -0.10220309037E+03  0.13120409172E+03  0.00000000000E+00 0.  1.
         14    1    4    4    0    0 -0.49037010156E+02  0.26386453212E+02 -0.99757040320E+02  0.11424683966E+03  0.00000000000E+00 0. -1.
         -5    1    5    5    0  502  0.56012150820E+02 -0.47348358142E+02  0.14509201838E+03  0.16264381899E+03  0.47000000000E+01 0.  1.
         13    1    6    6    0    0  0.46686380989E+01 -0.96464291734E+02  0.97359443815E+02  0.13713503222E+03  0.00000000000E+00 0. -1.
        -14    1    6    6    0    0 -0.31435780547E+02 -0.31990888422E+02  0.80945115668E-01  0.44851218409E+02  0.00000000000E+00 0.  1.
</event>
<event>
12    1  0.9246030E-003  0.2347647E+03  0.7818608E-02  0.1123444E+00
         21   -1    0    0  501  502  0.00000000000E+00  0.00000000000E+00  0.13258189786E+03  0.13258189786E+03  0.00000000000E+00 0. -1.
         21   -1    0    0  502  503 -0.00000000000E+00 -0.00000000000E+00 -0.71175071481E+03  0.71175071481E+03  0.00000000000E+00 0. -1.
          6    2    1    2  501    0  0.25133233587E+02 -0.15719621845E+03 -0.17013960470E+02  0.23538042809E+03  0.17254605342E+03 0.  0.
         24    2    3    3    0    0 -0.27203312797E+02 -0.21018260015E+02 -0.23062881539E+02  0.89290627289E+02  0.79114677118E+02 0.  0.
         -6    2    1    2    0  503 -0.25133233587E+02  0.15719621845E+03 -0.56215485649E+03  0.60895218458E+03  0.17164600171E+03 0.  0.
        -24    2    5    5    0    0 -0.58414751972E+02  0.17268688871E+03 -0.47123696622E+03  0.51079021077E+03  0.74895369066E+02 0.  0.
          5    1    3    3  501    0  0.52336546384E+02 -0.13617795844E+03  0.60489210690E+01  0.14608980080E+03  0.47000000000E+01 0. -1.
        -11    1    4    4    0    0 -0.52108841447E+01 -0.49536041645E+02 -0.89284896094E+01  0.50603267307E+02  0.00000000000E+00 0.  1.
         12    1    4    4    0    0 -0.21992428653E+02  0.28517781630E+02 -0.14134391930E+02  0.38687359982E+02  0.00000000000E+00 0. -1.
         -5    1    5    5    0  503  0.33281518385E+02 -0.15490670258E+02 -0.90917890265E+02  0.98161973805E+02  0.47000000000E+01 0.  1.
         11    1    6    6    0    0 -0.36203445667E+02  0.51484279344E+02 -0.87713997069E+02  0.10795862994E+03  0.00000000000E+00 0. -1.
        -12    1    6    6    0    0 -0.22211306305E+02  0.12120260937E+03 -0.38352296915E+03  0.40283158083E+03  0.00000000000E+00 0.  1.
</event>
<event>
12    1  0.9246030E-003  0.1892656E+03  0.7818608E-02  0.1159595E+00
         21   -1    0    0  503  502  0.00000000000E+00  0.00000000000E+00  0.35987331910E+03  0.35987331910E+03  0.00000000000E+00 0.  1.
         21   -1    0    0  501  503 -0.00000000000E+00 -0.00000000000E+00 -0.10275566874E+03  0.10275566874E+03  0.00000000000E+00 0. -1.
          6    2    1    2  501    0 -0.35071016610E+02  0.66317651694E+02  0.81927664335E+02  0.20623681508E+03  0.17376269617E+03 0.  0.
         24    2    3    3    0    0  0.96241559153E+01  0.93097694616E+02  0.91730513666E+02  0.15301074064E+03  0.78980975514E+02 0.  0.
         -6    2    1    2    0  502  0.35071016610E+02 -0.66317651694E+02  0.17518998602E+03  0.25639217275E+03  0.17151503699E+03 0.  0.
        -24    2    5    5    0    0 -0.27713977050E+02 -0.53474121395E+02  0.36366310757E+02  0.10341827134E+03  0.75797652373E+02 0.  0.
          5    1    3    3  501    0 -0.44695172525E+02 -0.26780042922E+02 -0.98028493304E+01  0.53226074446E+02  0.47000000000E+01 0. -1.
        -13    1    4    4    0    0  0.30897019815E+02  0.18356459724E+02  0.58142338143E+02  0.68352885322E+02  0.00000000000E+00 0.  1.
         14    1    4    4    0    0 -0.21272863900E+02  0.74741234892E+02  0.33588175523E+02  0.84657855316E+02  0.00000000000E+00 0. -1.
         -5    1    5    5    0  502  0.62784993659E+02 -0.12843530299E+02  0.13882367527E+03  0.15297390141E+03  0.47000000000E+01 0.  1.
         11    1    6    6    0    0 -0.35895528104E+02 -0.69786697774E+02  0.27770395304E+02  0.83245822594E+02  0.00000000000E+00 0. -1.
        -12    1    6    6    0    0  0.81815510542E+01  0.16312576379E+02  0.85959154532E+01  0.20172448742E+02  0.00000000000E+00 0.  1.
</event>
<event>
12    1  0.9246030E-003  0.2109545E+03  0.7818608E-02  0.1141693E+00
         21   -1    0    0  501  502  0.00000000000E+00  0.00000000000E+00  0.87269408151E+03  0.87269408151E+03  0.00000000000E+00 0. -1.
         21   -1    0    0  502  503 -0.00000000000E+00 -0.00000000000E+00 -0.66973570672E+02  0.66973570672E+02  0.00000000000E+00 0.  1.
          6    2    1    2  501    0  0.64723156429E+02 -0.94313943979E+02  0.64305322498E+03  0.67677120385E+03  0.17725012044E+03 0.  0.
         24    2    3    3    0    0  0.78328619142E+02 -0.28781511957E+01  0.43578641391E+03  0.44977509421E+03  0.79020127166E+02 0.  0.
         -6    2    1    2    0  503 -0.64723156429E+02  0.94313943979E+02  0.16266728586E+03  0.26289644833E+03  0.17195839512E+03 0.  0.
        -24    2    5    5    0    0 -0.57776854503E+02 -0.14263303746E+01  0.37931803999E+02  0.10543063719E+03  0.79602752273E+02 0.  0.
          5    1    3    3  501    0 -0.13605462713E+02 -0.91435792784E+02  0.20726681108E+03  0.22699610964E+03  0.47000000000E+01 0. -1.
        -13    1    4    4    0    0  0.94407045034E+02  0.22113691903E+01  0.37092697149E+03  0.38275892999E+03  0.00000000000E+00 0.  1.
         14    1    4    4    0    0 -0.16078425893E+02 -0.50895203859E+01  0.64859442418E+02  0.67016164227E+02  0.00000000000E+00 0. -1.
         -5    1    5    5    0  503 -0.69463019256E+01  0.95740274354E+02  0.12473548186E+03  0.15746581114E+03  0.47000000000E+01 0.  1.
         13    1    6    6    0    0 -0.51742597541E+02  0.22730702816E+02  0.52028703996E+02  0.76817753744E+02  0.00000000000E+00 0. -1.
        -14    1    6    6    0    0 -0.60342569622E+01 -0.24157033190E+02 -0.14096899997E+02  0.28612883447E+02  0.00000000000E+00 0.  1.
</event>
<event>
12    1  0.9246030E-003  0.1780018E+03  0.7818608E-02  0.1169972E+00
         21   -1    0    0  501  502  0.00000000000E+00  0.00000000000E+00  0.49744825891E+03  0.49744825891E+03  0.00000000000E+00 0. -1.
         21   -1    0    0  502  503 -0.00000000000E+00 -0.00000000000E+00 -0.66886453749E+02  0.66886453749E+02  0.00000000000E+00 0. -1.
          6    2    1    2  501    0  0.64147519227E+01 -0.39102179713E+02  0.28046861625E+03  0.33218561902E+03  0.17353533150E+03 0.  0.
         24    2    3    3    0    0 -0.41155574938E+02 -0.74627211219E+02  0.15854046810E+03  0.19648916669E+03  0.78802985981E+02 0.  0.
         -6    2    1    2    0  503 -0.64147519227E+01  0.39102179713E+02  0.15009318891E+03  0.23214909364E+03  0.17261259172E+03 0.  0.
        -24    2    5    5    0    0  0.14599377122E+02  0.12454268490E+02  0.59477570035E+01  0.83988031514E+02  0.81549757867E+02 0.  0.
          5    1    3    3  501    0  0.47570326861E+02  0.35525031506E+02  0.12192814815E+03  0.13569645232E+03  0.47000000000E+01 0. -1.
        -11    1    4    4    0    0 -0.11467515006E+02  0.11437086657E+02  0.60784469946E+02  0.62905187689E+02  0.00000000000E+00 0.  1.
         12    1    4    4    0    0 -0.29688059932E+02 -0.86064297876E+02  0.97755998155E+02  0.13358397901E+03  0.00000000000E+00 0. -1.
         -5    1    5    5    0  503 -0.21014129044E+02  0.26647911223E+02  0.14414543190E+03  0.14816106213E+03  0.47000000000E+01 0.  1.
         11    1    6    6    0    0 -0.29644000514E+02 -0.52260244074E+01  0.17693734069E+02  0.34916275902E+02  0.00000000000E+00 0. -1.
        -12    1    6    6    0    0  0.44243377636E+02  0.17680292897E+02 -0.11745977066E+02  0.49071755611E+02  0.00000000000E+00 0.  1.
</event>
<event>
12    1  0.9246030E-003  0.1866217E+03  0.7818608E-02  0.1161581E+00
         21   -1    0    0  501  502  0.00000000000E+00  0.00000000000E+00  0.89465600799E+03  0.89465600799E+03  0.00000000000E+00 0.  1.
         21   -1    0    0  502  503 -0.00000000000E+00 -0.00000000000E+00 -0.39653586704E+02  0.39653586704E+02  0.00000000000E+00 0.  1.
          6    2    1    2  501    0 -0.37469749051E+02 -0.61240734189E+02  0.36306888101E+03  0.40822381693E+03  0.17225928925E+03 0.  0.
         24    2    3    3    0    0 -0.15244231834E+02  0.25048778192E+02  0.25254803743E+03  0.26617875215E+03  0.78808559145E+02 0.  0.
         -6    2    1    2    0  503  0.37469749051E+02  0.61240734189E+02  0.49193354027E+03  0.52608577776E+03  0.17208494385E+03 0.  0.
        -24    2    5    5    0    0 -0.44394075104E+02  0.49319045276E+02  0.24093020246E+03  0.26175912764E+03  0.77892723107E+02 0.  0.
          5    1    3    3  501    0 -0.22225517217E+02 -0.86289512380E+02  0.11052084359E+03  0.14204506478E+03  0.47000000000E+01 0. -1.
        -13    1    4    4    0    0 -0.20832115325E+02  0.12767068714E+02  0.15910425126E+02  0.29156760797E+02  0.00000000000E+00 0.  1.
         14    1    4    4    0    0  0.55878834906E+01  0.12281709477E+02  0.23663761230E+03  0.23702199135E+03  0.00000000000E+00 0. -1.
         -5    1    5    5    0  503  0.81863824155E+02  0.11921688912E+02  0.25100333781E+03  0.26432665012E+03  0.47000000000E+01 0.  1.
         11    1    6    6    0    0 -0.26375862616E+02 -0.18438185876E+02  0.78852399878E+02  0.85166623707E+02  0.00000000000E+00 0. -1.
        -12    1    6    6    0    0 -0.18018212487E+02  0.67757231153E+02  0.16207780259E+03  0.17659250393E+03  0.00000000000E+00 0.  1.
</event>
<event>
12    1  0.9246030E-003  0.2143223E+03  0.7818608E-02  0.1138395E+00
         21   -1    0    0  501  502  0.00000000000E+00  0.00000000000E+00  0.20964930093E+03  0.20964930093E+03  0.00000000000E+00 0.  1.
         21   -1    0    0  502  503 -0.00000000000E+00 -0.00000000000E+00 -0.22091872127E+03  0.22091872127E+03  0.00000000000E+00 0.  1.
          6    2    1    2  501    0  0.15479242755E+02  0.12499793780E+03  0.19092556877E+02  0.21410582880E+03  0.17208337742E+03 0.  0.
         24    2    3    3    0    0  0.19743980618E+02  0.25492134481E+02  0.60420261568E+02  0.10617222857E+03  0.81131131015E+02 0.  0.
         -6    2    1    2    0  503 -0.15479242755E+02 -0.12499793780E+03 -0.30361977215E+02  0.21646219340E+03  0.17340686290E+03 0.  0.
        -24    2    5    5    0    0  0.31990563010E+02 -0.13668915941E+03 -0.34420680941E+02  0.16718105910E+03  0.84008337820E+02 0.  0.
          5    1    3    3  501    0 -0.42647378626E+01  0.99505803321E+02 -0.41327704691E+02  0.10793360023E+03  0.47000000000E+01 0. -1.
        -13    1    4    4    0    0  0.28061071522E+00  0.40853215207E+02 -0.87208746354E-02  0.40854179850E+02  0.00000000000E+00 0.  1.
         14    1    4    4    0    0  0.19463369903E+02 -0.15361080726E+02  0.60428982443E+02  0.65318048716E+02  0.00000000000E+00 0. -1.
         -5    1    5    5    0  503 -0.47469805765E+02  0.11691221609E+02  0.40587037264E+01  0.49281134301E+02  0.47000000000E+01 0.  1.
         13    1    6    6    0    0 -0.48725969573E+01 -0.10726776856E+03  0.23065259036E+01  0.10740314909E+03  0.00000000000E+00 0. -1.
        -14    1    6    6    0    0  0.36863159967E+02 -0.29421390849E+02 -0.36727206845E+02  0.59777910007E+02  0.00000000000E+00 0.  1.
</event>
<event>
12    1  0.9246030E-003  0.1737376E+03  0.7818608E-02  0.1174186E+00
         21   -1    0    0  501  502  0.00000000000E+00  0.00000000000E+00  0.64620414220E+02  0.64620414220E+02  0.00000000000E+00 0. -1.
         21   -1    0    0  502  503 -0.00000000000E+00 -0.00000000000E+00 -0.48115715212E+03  0.48115715212E+03  0.00000000000E+00 0. -1.
          6    2    1    2  501    0 -0.10167966216E+02  0.22234783946E+02 -0.25756125127E+03  0.31028242565E+03  0.17128809754E+03 0.  0.
         24    2    3    3    0    0  0.59661344263E+02  0.28631767270E+01 -0.16144039044E+03  0.18981375066E+03  0.79991165096E+02 0.  0.
         -6    2    1    2    0  503  0.10167966216E+02 -0.22234783946E+02 -0.15897548664E+03  0.23549514069E+03  0.17200867067E+03 0.  0.
        -24    2    5    5    0    0 -0.40515400163E+02 -0.28931578870E+02 -0.34626555527E+02  0.10096485653E+03  0.80724036072E+02 0.  0.
          5    1    3    3  501    0 -0.69829310478E+02  0.19371607219E+02 -0.96120860832E+02  0.12046867500E+03  0.47000000000E+01 0. -1.
        -11    1    4    4    0    0  0.18648377304E+02 -0.21176679704E+02 -0.12950589927E+03  0.13254430084E+03  0.00000000000E+00 0.  1.
         12    1    4    4    0    0  0.41012966959E+02  0.24039856431E+02 -0.31934491163E+02  0.57269449813E+02  0.00000000000E+00 0. -1.
         -5    1    5    5    0  503  0.50683366379E+02  0.66967949248E+01 -0.12434893111E+03  0.13453028416E+03  0.47000000000E+01 0.  1.
         13    1    6    6    0    0 -0.63071075253E+02 -0.31693533033E+02 -0.33708576338E+02  0.78222175171E+02  0.00000000000E+00 0. -1.
        -14    1    6    6    0    0  0.22555675090E+02  0.27619541628E+01 -0.91797918963E+00  0.22742681358E+02  0.00000000000E+00 0.  1.
</event>
<event>
12    1  0.9246030E-003  0.1769854E+03  0.7818608E-02  0.1170884E+00
         21   -1    0    0  503  502  0.00000000000E+00  0.00000000000E+00  0.28538391927E+02  0.28538391927E+02  0.00000000000E+00 0. -1.
         21   -1    0    0  501  503 -0.00000000000E+00 -0.00000000000E+00 -0.11594941116E+04  0.11594941116E+04  0.00000000000E+00 0. -1.
          6    2    1    2  501    0 -0.14637557493E+02 -0.37683387577E+02 -0.70551668875E+03  0.72724818807E+03  0.17176097679E+03 0.  0.
         24    2    3    3    0    0  0.24162850066E+02  0.34793573287E+02 -0.29001125303E+03  0.30366202375E+03  0.79433379132E+02 0.  0.
         -6    2    1    2    0  502  0.14637557493E+02  0.37683387577E+02 -0.42543903093E+03  0.46078431546E+03  0.17230647276E+03 0.  0.
        -24    2    5    5    0    0  0.68024713833E+02  0.29802042980E+02 -0.35994378614E+03  0.37579007364E+03  0.78378101558E+02 0.  0.
          5    1    3    3  501    0 -0.38800407559E+02 -0.72476960864E+02 -0.41550543572E+03  0.42358616431E+03  0.47000000000E+01 0. -1.
        -11    1    4    4    0    0 -0.90262997419E+01 -0.22446937169E+01  0.11715674268E+00  0.93019601491E+01  0.00000000000E+00 0.  1.
         12    1    4    4    0    0  0.33189149808E+02  0.37038267004E+02 -0.29012840977E+03  0.29436006360E+03  0.00000000000E+00 0. -1.
         -5    1    5    5    0  502 -0.53387156340E+02  0.78813445975E+01 -0.65495244781E+02  0.84994241826E+02  0.47000000000E+01 0.  1.
         11    1    6    6    0    0  0.36685985628E+02  0.52613881892E+02 -0.16496924321E+03  0.17699981163E+03  0.00000000000E+00 0. -1.
        -12    1    6    6    0    0  0.31338728205E+02 -0.22811838912E+02 -0.19497454293E+03  0.19879026201E+03  0.00000000000E+00 0.  1.
</event>
<event>
12    1  0.9246030E-003  0.1976304E+03  0.7818608E-02  0.1151984E+00
         21   -1    0    0  501  502  0.00000000000E+00  0.00000000000E+00  0.49572656996E+03  0.49572656996E+03  0.00000000000E+00 0.  1.
         21   -1    0    0  502  503 -0.00000000000E+00 -0.00000000000E+00 -0.78446517295E+02  0.78446517295E+02  0.00000000000E+00 0.  1.
          6    2    1    2  501    0  0.61936406747E-02 -0.99546083635E+02  0.19867460771E+03  0.27947643728E+03  0.16948762917E+03 0.  0.
         24    2    3    3    0    0 -0.11281585095E+01  0.21133629019E+02  0.71319794984E+02  0.10395943490E+03  0.72616443942E+02 0.  0.
         -6    2    1    2    0  503 -0.61936406747E-02  0.99546083635E+02  0.21860544495E+03  0.29469664997E+03  0.17072888489E+03 0.  0.
        -24    2    5    5    0    0  0.35061860773E+02  0.38724303097E+01  0.14441352302E+03  0.16856280177E+03  0.79459566531E+02 0.  0.
          5    1    3    3  501    0  0.11343521502E+01 -0.12067971265E+03  0.12735481272E+03  0.17551700238E+03  0.47000000000E+01 0. -1.
        -11    1    4    4    0    0  0.26814661724E+02  0.21391209515E+01  0.63950414069E+02  0.69377643239E+02  0.00000000000E+00 0.  1.
         12    1    4    4    0    0 -0.27942820234E+02  0.18994508068E+02  0.73693809158E+01  0.34581791660E+02  0.00000000000E+00 0. -1.
         -5    1    5    5    0  503 -0.35068054414E+02  0.95673653325E+02  0.74191921934E+02  0.12613384820E+03  0.47000000000E+01 0.  1.
         13    1    6    6    0    0 -0.38623085700E+01  0.11146590738E+02 -0.58512071751E+01  0.13168163804E+02  0.00000000000E+00 0. -1.
        -14    1    6    6    0    0  0.38924169343E+02 -0.72741604283E+01  0.15026473020E+03  0.15539463797E+03  0.00000000000E+00 0.  1.
</event>
<event>
12    1  0.9246030E-003  0.1916548E+03  0.7818608E-02  0.1157121E+00
         21   -1    0    0  503  502  0.00000000000E+00  0.00000000000E+00  0.14462255452E+02  0.14462255452E+02  0.00000000000E+00 0. -1.
         21   -1    0    0  501  503 -0.00000000000E+00 -0.00000000000E+00 -0.27306434674E+04  0.27306434674E+04  0.00000000000E+00 0.  1.
          6    2    1    2  501    0 -0.83028728457E+02  0.51478018312E+01 -0.17268274115E+04  0.17373594673E+04  0.17194400183E+03 0.  0.
         24    2    3    3    0    0 -0.47123401791E+02  0.20225677816E+02 -0.44360788161E+03  0.45354055997E+03  0.79255245083E+02 0.  0.
         -6    2    1    2    0  502  0.83028728457E+02 -0.51478018312E+01 -0.98935380042E+03  0.10077462556E+04  0.17265950186E+03 0.  0.
        -24    2    5    5    0    0  0.29825371764E+02 -0.24026509827E+02 -0.87792706443E+03  0.88274621447E+03  0.83774236690E+02 0.  0.
          5    1    3    3  501    0 -0.35905326665E+02 -0.15077875985E+02 -0.12832195299E+04  0.12838189073E+04  0.47000000000E+01 0. -1.
        -11    1    4    4    0    0 -0.23987313735E+02 -0.25913877078E+02 -0.27362044105E+03  0.27588959025E+03  0.00000000000E+00 0.  1.
         12    1    4    4    0    0 -0.23136088056E+02  0.46139554894E+02 -0.16998744056E+03  0.17765096972E+03  0.00000000000E+00 0. -1.
         -5    1    5    5    0  502  0.53203356692E+02  0.18878707996E+02 -0.11142673600E+03  0.12500004110E+03  0.47000000000E+01 0.  1.
         13    1    6    6    0    0  0.32605551072E+01  0.12311541529E+02 -0.20471028389E+02  0.24109505962E+02  0.00000000000E+00 0. -1.
        -14    1    6    6    0    0  0.26564816657E+02 -0.36338051356E+02 -0.85745603604E+03  0.85863670851E+03  0.00000000000E+00 0.  1.
</event>
<event>
12    1  0.9246030E-003  0.2224668E+03  0.7818608E-02  0.1132235E+00
         21   -1    0    0  501  502  0.00000000000E+00  0.00000000000E+00  0.33216667834E+02  0.33216667834E+02  0.00000000000E+00 0.  1.
         21   -1    0    0  502  503 -0.00000000000E+00 -0.00000000000E+00 -0.16361391570E+04  0.16361391570E+04  0.00000000000E+00 0.  1.
          6    2    1    2  501    0 -0.10494518288E+02 -0.13966050206E+03 -0.54495037440E+03  0.58824691283E+03  0.17160515479E+03 0.  0.
         24    2    3    3    0    0  0.32237342568E+02 -0.14467995274E+03 -0.49074041149E+03  0.51887821026E+03  0.80230359818E+02 0.  0.
         -6    2    1    2    0  503  0.10494518288E+02  0.13966050206E+03 -0.10579721148E+04  0.10811089120E+04  0.17284760117E+03 0.  0.
        -24    2    5    5    0    0  0.38165621063E+02  0.39096552016E+02 -0.28483100418E+03  0.30094991228E+03  0.80355421370E+02 0.  0.
          5    1    3    3  501    0 -0.42731860856E+02  0.50194506890E+01 -0.54209962909E+02  0.69368702568E+02  0.47000000000E+01 0. -1.
        -13    1    4    4    0    0 -0.12868955574E+02 -0.95672172939E+01 -0.13915244472E+02  0.21231478823E+02  0.00000000000E+00 0.  1.
         14    1    4    4    0    0  0.45106298142E+02 -0.13511273545E+03 -0.47682516702E+03  0.49764673144E+03  0.00000000000E+00 0. -1.
         -5    1    5    5    0  503 -0.27671102775E+02  0.10056395004E+03 -0.77314111057E+03  0.78015899971E+03  0.47000000000E+01 0.  1.
         13    1    6    6    0    0 -0.48957973449E+00  0.11462932191E+02  0.69754992447E+00  0.11494567352E+02  0.00000000000E+00 0. -1.
        -14    1    6    6    0    0  0.38655200798E+02  0.27633619825E+02 -0.28552855411E+03  0.28945534492E+03  0.00000000000E+00 0.  1.
</event>
<event>
12    1  0.9246030E-003  0.2681089E+03  0.7818608E-02  0.1102728E+00
         21   -1    0    0  501  502  0.00000000000E+00  0.00000000000E+00  0.14158534023E+03  0.14158534023E+03  0.00000000000E+00 0.  1.
         21   -1    0    0  502  503 -0.00000000000E+00 -0.00000000000E+00 -0.50339161082E+03  0.50339161082E+03  0.00000000000E+00 0. -1.
          6    2    1    2  501    0  0.79898551196E+02  0.18402742496E+03 -0.17098766076E+03  0.31589626219E+03  0.17407985728E+03 0.  0.
         24    2    3    3    0    0  0.25083422187E+02  0.88725596534E+02 -0.12483322148E+02  0.12293810033E+03  0.80352558340E+02 0.  0.
         -6    2    1    2    0  503 -0.79898551196E+02 -0.18402742496E+03 -0.19081860983E+03  0.32908068887E+03  0.17785523975E+03 0.  0.
        -24    2    5    5    0    0 -0.31371927549E+01 -0.14340202511E+03 -0.17737478666E+03  0.24107185042E+03  0.77973324530E+02 0.  0.
          5    1    3    3  501    0  0.54815129009E+02  0.95301828429E+02 -0.15850433861E+03  0.19295816186E+03  0.47000000000E+01 0. -1.
        -11    1    4    4    0    0 -0.11982366779E+01  0.92619444044E+01  0.28323259895E+02  0.29823253283E+02  0.00000000000E+00 0.  1.
         12    1    4    4    0    0  0.26281658865E+02  0.79463652130E+02 -0.40806582043E+02  0.93114847047E+02  0.00000000000E+00 0. -1.
         -5    1    5    5    0  503 -0.76761358441E+02 -0.40625399856E+02 -0.13443823166E+02  0.88008838446E+02  0.47000000000E+01 0.  1.
         13    1    6    6    0    0  0.18666093428E+02 -0.13877367726E+02 -0.62103700975E+02  0.66316468948E+02  0.00000000000E+00 0. -1.
        -14    1    6    6    0    0 -0.21803286183E+02 -0.12952465738E+03 -0.11527108569E+03  0.17475538147E+03  0.00000000000E+00 0.  1.
</event>
<event>
12    1  0.9246030E-003  0.2019763E+03  0.7818608E-02  0.1148663E+00
         21   -1    0    0  503  502  0.00000000000E+00  0.00000000000E+00  0.40403769012E+02  0.40403769012E+02  0.00000000000E+00 0. -1.
         21   -1    0    0  501  503 -0.00000000000E+00 -0.00000000000E+00 -0.10274881843E+04  0.10274881843E+04  0.00000000000E+00 0.  1.
          6    2    1    2  501    0 -0.30231717518E+02  0.96583256571E+02 -0.40319004232E+03  0.45095083338E+03  0.17479176669E+03 0.  0.
         24    2    3    3    0    0 -0.49005353539E+02  0.49951882270E+02 -0.38261055142E+03  0.39642982895E+03  0.76609790507E+02 0.  0.
         -6    2    1    2    0  502  0.30231717518E+02 -0.96583256571E+02 -0.58389437296E+03  0.61694111993E+03  0.17158503574E+03 0.  0.
        -24    2    5    5    0    0  0.24891129514E+02 -0.88517489035E+02 -0.59144065908E+03  0.60380282018E+03  0.79503951165E+02 0.  0.
          5    1    3    3  501    0  0.18773636021E+02  0.46631374301E+02 -0.20579490901E+02  0.54521004434E+02  0.47000000000E+01 0. -1.
        -13    1    4    4    0    0  0.58523449558E+00 -0.13712506139E+02 -0.14168349755E+03  0.14234672038E+03  0.00000000000E+00 0.  1.
         14    1    4    4    0    0 -0.49590588034E+02  0.63664388409E+02 -0.24092705387E+03  0.25408310857E+03  0.00000000000E+00 0. -1.
         -5    1    5    5    0  502  0.53405880034E+01 -0.80657675365E+01  0.75462861166E+01  0.13138299750E+02  0.47000000000E+01 0.  1.
         13    1    6    6    0    0  0.50187803701E+02 -0.47427599880E+02 -0.26657576752E+03  0.27537398697E+03  0.00000000000E+00 0. -1.
        -14    1    6    6    0    0 -0.25296674187E+02 -0.41089889155E+02 -0.32486489155E+03  0.32842883321E+03  0.00000000000E+00 0.  1.
</event>
<event>
12    1  0.9246030E-003  0.1807185E+03  0.7818608E-02  0.1168655E+00
         21   -1    0    0  501  502  0.00000000000E+00  0.00000000000E+00  0.31301721582E+03  0.31301721582E+03  0.00000000000E+00 0. -1.
         21   -1    0    0  502  503 -0.00000000000E+00 -0.00000000000E+00 -0.10450292848E+03  0.10450292848E+03  0.00000000000E+00 0. -1.
          6    2    1    2  501    0 -0.24867242963E+02 -0.37361022481E+02  0.14569155308E+03  0.23213187864E+03  0.17505700406E+03 0.  0.
         24    2    3    3    0    0  0.55504877901E+02 -0.89775148712E+01  0.54391707165E+02  0.10713966617E+03  0.73205621463E+02 0.  0.
         -6    2    1    2    0  503  0.24867242963E+02  0.37361022481E+02  0.62822734258E+02  0.18538826566E+03  0.16854639519E+03 0.  0.
        -24    2    5    5    0    0 -0.80810490088E+01  0.84624719939E+02  0.32345651358E+02  0.12004004745E+03  0.78337253279E+02 0.  0.
          5    1    3    3  501    0 -0.80372120864E+02 -0.28383507610E+02  0.91299845910E+02  0.12499221248E+03  0.47000000000E+01 0. -1.
        -13    1    4    4    0    0  0.49202375760E+02 -0.37436969545E+02  0.28204546459E+02  0.67955109521E+02  0.00000000000E+00 0.  1.
         14    1    4    4    0    0  0.63025021412E+01  0.28459454674E+02  0.26187160707E+02  0.39184556645E+02  0.00000000000E+00 0. -1.
         -5    1    5    5    0  503  0.32948291971E+02 -0.47263697458E+02  0.30477082900E+02  0.65348218211E+02  0.47000000000E+01 0.  1.
         13    1    6    6    0    0 -0.42157956088E+02  0.39020335351E+02  0.24961164355E+02  0.62633374157E+02  0.00000000000E+00 0. -1.
        -14    1    6    6    0    0  0.34076907079E+02  0.45604384589E+02  0.73844870033E+01  0.57406673289E+02  0.00000000000E+00 0.  1.
</event>
<event>
12    1  0.9246030E-003  0.1979466E+03  0.7818608E-02  0.1151637E+00
         21   -1    0    0  503  502  0.00000000000E+00  0.00000000000E+00  0.57092835491E+03  0.57092835491E+03  0.00000000000E+00 0.  1.
         21   -1    0    0  501  503 -0.00000000000E+00 -0.00000000000E+00 -0.72518851083E+02  0.72518851083E+02  0.00000000000E+00 0.  1.
          6    2    1    2  501    0  0.96860254922E+02 -0.57846571692E+01  0.32648145443E+03  0.38180227963E+03  0.17253251696E+03 0.  0.
         24    2    3    3    0    0  0.11725452745E+03  0.18575258300E+02  0.31449425305E+03  0.34752233170E+03  0.88155949332E+02 0.  0.
         -6    2    1    2    0  502 -0.96860254922E+02  0.57846571692E+01  0.17192804940E+03  0.26164492636E+03  0.17170743163E+03 0.  0.
        -24    2    5    5    0    0 -0.13454745519E+03 -0.60843166247E+01  0.14391033352E+03  0.21297994916E+03  0.80686046147E+02 0.  0.
          5    1    3    3  501    0 -0.20394272524E+02 -0.24359915469E+02  0.11987201377E+02  0.34279947933E+02  0.47000000000E+01 0. -1.
        -13    1    4    4    0    0  0.16212929885E+02 -0.24522738650E+02  0.12573660993E+03  0.12912752953E+03  0.00000000000E+00 0.  1.
         14    1    4    4    0    0  0.10104159756E+03  0.43097996950E+02  0.18875764312E+03  0.21839480217E+03  0.00000000000E+00 0. -1.
         -5    1    5    5    0  502  0.37687200266E+02  0.11868973794E+02  0.28017715882E+02  0.48664977202E+02  0.47000000000E+01 0.  1.
         11    1    6    6    0    0 -0.17350937668E+02 -0.46583174524E+01  0.74776682264E+02  0.76904532831E+02  0.00000000000E+00 0. -1.
        -12    1    6    6    0    0 -0.11719651752E+03 -0.14259991723E+01  0.69133651253E+02  0.13607541633E+03  0.00000000000E+00 0.  1.
</event>
<event>
12    1  0.9246030E-003  0.1854078E+03  0.7818608E-02  0.1162866E+00
         21   -1    0    0  501  502  0.00000000000E+00  0.00000000000E+00  0.19507127383E+03  0.19507127383E+03  0.00000000000E+00 0.  1.
         21   -1    0    0  502  503 -0.00000000000E+00 -0.00000000000E+00 -0.30765573470E+03  0.30765573470E+03  0.00000000000E+00 0. -1.
          6    2    1    2  501    0 -0.63443151456E+02 -0.24179555408E+02  0.10857225678E+03  0.21413328283E+03  0.17162588239E+03 0.  0.
         24    2    3    3    0    0 -0.73935517743E+02 -0.11342076093E+02  0.14067867097E+03  0.17769425900E+03  0.78674377933E+02 0.  0.
         -6    2    1    2    0  503  0.63443151456E+02  0.24179555408E+02 -0.22115671765E+03  0.28859372570E+03  0.17252930298E+03 0.  0.
        -24    2    5    5    0    0  0.99600037639E+02 -0.19673698923E+02 -0.16268519889E+03  0.20691486161E+03  0.77717849235E+02 0.  0.
          5    1    3    3  501    0  0.10492366287E+02 -0.12837479315E+02 -0.32106414186E+02  0.36439023825E+02  0.47000000000E+01 0. -1.
        -11    1    4    4    0    0 -0.25724601179E+01 -0.25231476156E+01  0.89170847659E+02  0.89243621045E+02  0.00000000000E+00 0.  1.
         12    1    4    4    0    0 -0.71363057625E+02 -0.88189284775E+01  0.51507823308E+02  0.88450637957E+02  0.00000000000E+00 0. -1.
         -5    1    5    5    0  503 -0.36156886183E+02  0.43853254331E+02 -0.58471518757E+02  0.81678864094E+02  0.47000000000E+01 0.  1.
         13    1    6    6    0    0  0.64899469672E+02 -0.28026555638E+02 -0.15506484489E+03  0.17041870527E+03  0.00000000000E+00 0. -1.
        -14    1    6    6    0    0  0.34700567967E+02  0.83528567144E+01 -0.76203539998E+01  0.36496156340E+02  0.00000000000E+00 0.  1.
</event>
<event>
12    1  0.9246030E-003  0.2655498E+03  0.7818608E-02  0.1104572E+00
         21   -1    0    0  501  502  0.00000000000E+00  0.00000000000E+00  0.10100761058E+04  0.10100761058E+04  0.00000000000E+00 0.  1.
         21   -1    0    0  502  503 -0.00000000000E+00 -0.00000000000E+00 -0.68831451153E+02  0.68831451153E+02  0.00000000000E+00 0. -1.
          6    2    1    2  501    0  0.17030524511E+03 -0.97470319381E+02  0.50136228238E+03  0.56508541997E+03  0.17161892087E+03 0.  0.
         24    2    3    3    0    0  0.15618735247E+03 -0.10157184532E+03  0.29265176099E+03  0.35580496426E+03  0.78998674309E+02 0.  0.
         -6    2    1    2    0  503 -0.17030524511E+03  0.97470319381E+02  0.43988237224E+03  0.51382213695E+03  0.17891994674E+03 0.  0.
        -24    2    5    5    0    0 -0.41782469254E+02  0.20108069065E+02  0.74431734297E+02  0.11875343348E+03  0.80076124499E+02 0.  0.
          5    1    3    3  501    0  0.14117892642E+02  0.41015259439E+01  0.20871052138E+03  0.20928045571E+03  0.47000000000E+01 0. -1.
        -13    1    4    4    0    0  0.10005074765E+03 -0.21003955264E+02  0.17377518469E+03  0.20161630156E+03  0.00000000000E+00 0.  1.
         14    1    4    4    0    0  0.56136604823E+02 -0.80567890061E+02  0.11887657630E+03  0.15418866269E+03  0.00000000000E+00 0. -1.
         -5    1    5    5    0  503 -0.12852277586E+03  0.77362250316E+02  0.36545063794E+03  0.39506870347E+03  0.47000000000E+01 0.  1.
         11    1    6    6    0    0 -0.24937953707E+02  0.43042389377E+02  0.13561350889E+02  0.51560246860E+02  0.00000000000E+00 0. -1.
        -12    1    6    6    0    0 -0.16844515547E+02 -0.22934320312E+02  0.60870383408E+02  0.67193186622E+02  0.00000000000E+00 0.  1.
</event>
<event>
12    1  0.9246030E-003  0.2544881E+03  0.7818608E-02  0.1110961E+00
         21   -1    0    0  503  502  0.00000000000E+00  0.00000000000E+00  0.46229862367E+03  0.46229862367E+03  0.00000000000E+00 0.  1.
         21   -1    0    0  501  503 -0.00000000000E+00 -0.00000000000E+00 -0.14519210073E+03  0.14519210073E+03  0.00000000000E+00 0. -1.
          6    2    1    2  501    0 -0.17043272900E+03 -0.66910513549E+02  0.22480953936E+03  0.33956374998E+03  0.17674806752E+03 0.  0.
         24    2    3    3    0    0 -0.16498900879E+03 -0.12444807633E+01  0.19260820475E+03  0.26607444530E+03  0.80465944027E+02 0.  0.
         -6    2    1    2    0  502  0.17043272900E+03  0.66910513549E+02  0.92296983577E+02  0.26792697442E+03  0.17245810653E+03 0.  0.
        -24    2    5    5    0    0  0.56179053336E+02  0.80904010586E+02  0.84016368089E+02  0.15242641618E+03  0.80458170991E+02 0.  0.
          5    1    3    3  501    0 -0.54437202039E+01 -0.65666032786E+02  0.32201334610E+02  0.73489304678E+02  0.47000000000E+01 0. -1.
        -13    1    4    4    0    0 -0.11644061939E+03 -0.29787686852E+02  0.16278467064E+03  0.20234765412E+03  0.00000000000E+00 0.  1.
         14    1    4    4    0    0 -0.48548389400E+02  0.28543206089E+02  0.29823534117E+02  0.63726791182E+02  0.00000000000E+00 0. -1.
         -5    1    5    5    0  502  0.11425367566E+03 -0.13993497037E+02  0.82806154888E+01  0.11550055824E+03  0.47000000000E+01 0.  1.
         11    1    6    6    0    0  0.33435155897E+02 -0.87978451618E+01  0.20659716016E+02  0.40275744502E+02  0.00000000000E+00 0. -1.
        -12    1    6    6    0    0  0.22743897439E+02  0.89701855748E+02  0.63356652073E+02  0.11215067168E+03  0.00000000000E+00 0.  1.
</event>
<event>
12    1  0.9246030E-003  0.2103416E+03  0.7818608E-02  0.1142208E+00
         21   -1    0    0  501  502  0.00000000000E+00  0.00000000000E+00  0.10333624149E+03  0.10333624149E+03  0.00000000000E+00 0.  1.
         21   -1    0    0  502  503 -0.00000000000E+00 -0.00000000000E+00 -0.50451090933E+03  0.50451090933E+03  0.00000000000E+00 0.  1.
          6    2    1    2  501    0 -0.88616317396E+02  0.78878047975E+02 -0.32394093540E+03  0.38377426520E+03  0.16813791612E+03 0.  0.
         24    2    3    3    0    0 -0.10949125294E+03  0.26788149670E+02 -0.15944207691E+03  0.20990337953E+03  0.77017617558E+02 0.  0.
         -6    2    1    2    0  503  0.88616317396E+02 -0.78878047975E+02 -0.77233732431E+02  0.22407288562E+03  0.17369228678E+03 0.  0.
        -24    2    5    5    0    0  0.10237075302E+03 -0.68599791813E+02 -0.21844635269E+01  0.14694111647E+03  0.80007607881E+02 0.  0.
          5    1    3    3  501    0  0.20874935544E+02  0.52089898305E+02 -0.16449885849E+03  0.17387088567E+03  0.47000000000E+01 0. -1.
        -13    1    4    4    0    0 -0.92878757786E+02  0.48528221739E+02 -0.14517795690E+03  0.17904773420E+03  0.00000000000E+00 0.  1.
         14    1    4    4    0    0 -0.16612495153E+02 -0.21740072069E+02 -0.14264120011E+02  0.30855645326E+02  0.00000000000E+00 0. -1.
         -5    1    5    5    0  503 -0.13754435625E+02 -0.10278256162E+02 -0.75049268904E+02  0.77131769149E+02  0.47000000000E+01 0.  1.
         13    1    6    6    0    0  0.90913502109E+02 -0.16695839119E+02  0.81496108433E+01  0.92792413842E+02  0.00000000000E+00 0. -1.
        -14    1    6    6    0    0  0.11457250912E+02 -0.51903952694E+02 -0.10334074370E+02  0.54148702633E+02  0.00000000000E+00 0.  1.
</event>
<event>
12    1  0.9246030E-003  0.1783589E+03  0.7818608E-02  0.1169898E+00
         21   -1    0    0  503  502  0.00000000000E+00  0.00000000000E+00  0.49932823763E+03  0.49932823763E+03  0.00000000000E+00 0.  1.
         21   -1    0    0  501  503 -0.00000000000E+00 -0.00000000000E+00 -0.63466345257E+02  0.63466345257E+02  0.00000000000E+00 0.  1.
          6    2    1    2  501    0 -0.16310001751E+02  0.48071791065E+02  0.19480223321E+03  0.26412079043E+03  0.17098236347E+03 0.  0.
         24    2    3    3    0    0  0.56205649379E+01  0.33100787709E+02  0.21323542012E+03  0.23145654275E+03  0.83519661692E+02 0.  0.
         -6    2    1    2    0  502  0.16310001751E+02 -0.48071791065E+02  0.24105965916E+03  0.29867379246E+03  0.16887676505E+03 0.  0.
        -24    2    5    5    0    0  0.41870136918E+02  0.27591164263E+02  0.96410692160E+02  0.13337522328E+03  0.77327536561E+02 0.  0.
          5    1    3    3  501    0 -0.21930566689E+02  0.14971003356E+02 -0.18433186910E+02  0.32664247679E+02  0.47000000000E+01 0. -1.
        -11    1    4    4    0    0  0.13008747758E+02  0.40338861845E+01 -0.23275188819E+01  0.13817275423E+02  0.00000000000E+00 0.  1.
         12    1    4    4    0    0 -0.73881828201E+01  0.29066901525E+02  0.21556293900E+03  0.21763926732E+03  0.00000000000E+00 0. -1.
         -5    1    5    5    0  502 -0.25560135167E+02 -0.75662955329E+02  0.14464896700E+03  0.16529856918E+03  0.47000000000E+01 0.  1.
         13    1    6    6    0    0  0.13091788055E+02  0.18401936186E+02  0.10039500847E+03  0.10290376036E+03  0.00000000000E+00 0. -1.
        -14    1    6    6    0    0  0.28778348864E+02  0.91892280773E+01 -0.39843163116E+01  0.30471462919E+02  0.00000000000E+00 0.  1.
</event>
<event>
12    1  0.9246030E-003  0.1895539E+03  0.7818608E-02  0.1159387E+00
         21   -1    0    0  503  502  0.00000000000E+00  0.00000000000E+00  0.64593934485E+02  0.64593934485E+02  0.00000000000E+00 0. -1.
         21   -1    0    0  501  503 -0.00000000000E+00 -0.00000000000E+00 -0.12312555332E+04  0.12312555332E+04  0.00000000000E+00 0. -1.
          6    2    1    2  501    0  0.93581408236E+01 -0.79235110934E+02 -0.10670302963E+04  0.10837362823E+04  0.17194446369E+03 0.  0.
         24    2    3    3    0    0 -0.14801792631E+02 -0.21323299767E+01 -0.81840328528E+03  0.82226731308E+03  0.78204583756E+02 0.  0.
         -6    2    1    2    0  502 -0.93581408236E+01  0.79235110934E+02 -0.99631302393E+02  0.21211318544E+03  0.16941023999E+03 0.  0.
        -24    2    5    5    0    0  0.34920644902E+01  0.10939629006E+03 -0.11262971941E+03  0.17653407151E+03  0.80616883569E+02 0.  0.
          5    1    3    3  501    0  0.24159933455E+02 -0.77102780957E+02 -0.24862701107E+03  0.26146896919E+03  0.47000000000E+01 0. -1.
        -11    1    4    4    0    0  0.91013739741E+01 -0.18243367793E+01 -0.10517237877E+02  0.14027669281E+02  0.00000000000E+00 0.  1.
         12    1    4    4    0    0 -0.23903166605E+02 -0.30799319734E+00 -0.80788604740E+03  0.80823964380E+03  0.00000000000E+00 0. -1.
         -5    1    5    5    0  502 -0.12850205314E+02 -0.30161179125E+02  0.12998417017E+02  0.35579113926E+02  0.47000000000E+01 0.  1.
         11    1    6    6    0    0  0.38235811072E+02  0.82162056659E+02 -0.64553781452E+02  0.11126442155E+03  0.00000000000E+00 0. -1.
        -12    1    6    6    0    0 -0.34743746582E+02  0.27234233399E+02 -0.48075937959E+02  0.65269649961E+02  0.00000000000E+00 0.  1.
</event>
<event>
12    1  0.9246030E-003  0.2303071E+03  0.7818608E-02  0.1126531E+00
         21   -1    0    0  503  502  0.00000000000E+00  0.00000000000E+00  0.87684261770E+03  0.87684261770E+03  0.00000000000E+00 0.  1.
         21   -1    0    0  501  503 -0.00000000000E+00 -0.00000000000E+00 -0.13043739309E+03  0.13043739309E+03  0.00000000000E+00 0.  1.
          6    2    1    2  501    0  0.13524264372E+03 -0.71650390394E+02  0.42021136851E+01  0.23034544308E+03  0.17209594494E+03 0.  0.
         24    2    3    3    0    0  0.16481440877E+03 -0.69152911898E+02 -0.13438550703E+02  0.19550280071E+03  0.78069429857E+02 0.  0.
         -6    2    1    2    0  502 -0.13524264372E+03  0.71650390394E+02  0.74220311093E+03  0.77693456772E+03  0.17128197081E+03 0.  0.
        -24    2    5    5    0    0 -0.11758223490E+03  0.95185935993E+02  0.71886783977E+03  0.73908702056E+03  0.81195495702E+02 0.  0.
          5    1    3    3  501    0 -0.29571765053E+02 -0.24974784958E+01  0.17640664389E+02  0.34842642369E+02  0.47000000000E+01 0. -1.
        -11    1    4    4    0    0  0.34040074713E+02 -0.49028008075E+02 -0.20211742181E+02  0.63015766156E+02  0.00000000000E+00 0.  1.
         12    1    4    4    0    0  0.13077433406E+03 -0.20124903823E+02  0.67731914778E+01  0.13248703455E+03  0.00000000000E+00 0. -1.
         -5    1    5    5    0  502 -0.17660408816E+02 -0.23535545599E+02  0.23335271152E+02  0.37847547159E+02  0.47000000000E+01 0.  1.
         13    1    6    6    0    0  0.12563238899E+02  0.10528699177E+02  0.73771171289E+02  0.75570326130E+02  0.00000000000E+00 0. -1.
        -14    1    6    6    0    0 -0.13014547380E+03  0.84657236816E+02  0.64509666848E+03  0.66351669443E+03  0.00000000000E+00 0.  1.
</event>
<event>
12    1  0.9246030E-003  0.2123865E+03  0.7818608E-02  0.1140289E+00
         21   -1    0    0  503  502  0.00000000000E+00  0.00000000000E+00  0.26321430691E+03  0.26321430691E+03  0.00000000000E+00 0. -1.
         21   -1    0    0  501  503 -0.00000000000E+00 -0.00000000000E+00 -0.17844302270E+03  0.17844302270E+03  0.00000000000E+00 0. -1.
          6    2    1    2  501    0 -0.11936538993E+03  0.30068893590E+02 -0.83307287560E+01  0.21254979462E+03  0.17307738003E+03 0.  0.
         24    2    3    3    0    0 -0.75769041342E+02  0.81316467367E+02  0.17357626070E+02  0.14037682876E+03  0.83970538749E+02 0.  0.
         -6    2    1    2    0  502  0.11936538993E+03 -0.30068893590E+02  0.93102012960E+02  0.22910753499E+03  0.16932230538E+03 0.  0.
        -24    2    5    5    0    0  0.34182598436E+02 -0.29188929764E+02  0.10896865105E+03  0.14232779942E+03  0.79765856857E+02 0.  0.
          5    1    3    3  501    0 -0.43596348584E+02 -0.51247573777E+02 -0.25688354826E+02  0.72172965863E+02  0.47000000000E+01 0. -1.
        -13    1    4    4    0    0 -0.22254189783E+02  0.66030653466E+02  0.39939655074E+02  0.80314831803E+02  0.00000000000E+00 0.  1.
         14    1    4    4    0    0 -0.53514851559E+02  0.15285813901E+02 -0.22582029004E+02  0.60061996952E+02  0.00000000000E+00 0. -1.
         -5    1    5    5    0  502  0.85182791489E+02 -0.87996382681E+00 -0.15866638086E+02  0.86779735575E+02  0.47000000000E+01 0.  1.
         13    1    6    6    0    0  0.55577792746E+02 -0.28018004605E+02  0.50806553427E+02  0.80344293510E+02  0.00000000000E+00 0. -1.
        -14    1    6    6    0    0 -0.21395194310E+02 -0.11709251586E+01  0.58162097619E+02  0.61983505909E+02  0.00000000000E+00 0.  1.
</event>
<event>
12    1  0.9246030E-003  0.1837911E+03  0.7818608E-02  0.1164282E+00
         21   -1    0    0  503  502  0.00000000000E+00  0.00000000000E+00  0.14298063316E+03  0.14298063316E+03  0.00000000000E+00 0. -1.
         21   -1    0    0  501  503 -0.00000000000E+00 -0.00000000000E+00 -0.24749353800E+03  0.24749353800E+03  0.00000000000E+00 0. -1.
          6    2    1    2  501    0  0.61119685030E+02 -0.26076529088E+02 -0.97236529428E+01  0.18404812112E+03  0.17135798841E+03 0.  0.
         24    2    3    3    0    0 -0.26444091723E+02 -0.36556866511E+02  0.18638569547E+02  0.91291675862E+02  0.77143239048E+02 0.  0.
         -6    2    1    2    0  502 -0.61119685030E+02  0.26076529088E+02 -0.94789251901E+02  0.20642605005E+03  0.17091258173E+03 0.  0.
        -24    2    5    5    0    0 -0.68016460017E+02  0.34584438371E+02 -0.12861545751E+03  0.17056169154E+03  0.82018488768E+02 0.  0.
          5    1    3    3  501    0  0.87563776752E+02  0.10480337423E+02 -0.28362222490E+02  0.92756445254E+02  0.47000000000E+01 0. -1.
        -11    1    4    4    0    0  0.65526714214E+01 -0.49375261690E+00 -0.24948833158E+02  0.25799720354E+02  0.00000000000E+00 0.  1.
         12    1    4    4    0    0 -0.32996763144E+02 -0.36063113894E+02  0.43587402705E+02  0.65491955508E+02  0.00000000000E+00 0. -1.
         -5    1    5    5    0  502  0.68967749874E+01 -0.85079092834E+01  0.33826205605E+02  0.35864358509E+02  0.47000000000E+01 0.  1.
         11    1    6    6    0    0 -0.78669251324E+02  0.15932760683E+02 -0.64583033919E+02  0.10302267827E+03  0.00000000000E+00 0. -1.
        -12    1    6    6    0    0  0.10652791307E+02  0.18651677688E+02 -0.64032423588E+02  0.67539013272E+02  0.00000000000E+00 0.  1.
</event>
<event>
12    1  0.9246030E-003  0.1933130E+03  0.7818608E-02  0.1155715E+00
         21   -1    0    0  503  502  0.00000000000E+00  0.00000000000E+00  0.16359091381E+02  0.16359091381E+02  0.00000000000E+00 0.  1.
         21   -1    0    0  501  503 -0.00000000000E+00 -0.00000000000E+00 -0.22749227749E+04  0.22749227749E+04  0.00000000000E+00 0.  1.
          6    2    1    2  501    0  0.64405280007E+02  0.57046333932E+02 -0.11580037396E+04  0.11738732057E+04  0.17205614735E+03 0.  0.
         24    2    3    3    0    0  0.49751454235E+02  0.52666746387E+02 -0.11515665839E+04  0.11566266881E+04  0.80191677228E+02 0.  0.
         -6    2    1    2    0  502 -0.64405280007E+02 -0.57046333932E+02 -0.11005599439E+04  0.11174086606E+04  0.17311152550E+03 0.  0.
        -24    2    5    5    0    0 -0.24920187311E+02 -0.13423475744E+02 -0.97514942495E+03  0.97880160964E+03  0.79592616573E+02 0.  0.
          5    1    3    3  501    0  0.14653825772E+02  0.43795875446E+01 -0.64371557360E+01  0.17246517642E+02  0.47000000000E+01 0. -1.
        -11    1    4    4    0    0  0.45791371182E+02  0.95927332101E+00 -0.79390066586E+03  0.79522074743E+03  0.00000000000E+00 0.  1.
         12    1    4    4    0    0  0.39600830522E+01  0.51707473066E+02 -0.35766591802E+03  0.36140594065E+03  0.00000000000E+00 0. -1.
         -5    1    5    5    0  502 -0.39485092695E+02 -0.43622858188E+02 -0.12541051898E+03  0.13860705095E+03  0.47000000000E+01 0.  1.
         11    1    6    6    0    0  0.17543704531E+02 -0.27726459234E+02 -0.61514135676E+03  0.61601576839E+03  0.00000000000E+00 0. -1.
        -12    1    6    6    0    0 -0.42463891842E+02  0.14302983490E+02 -0.36000806819E+03  0.36278584125E+03  0.00000000000E+00 0.  1.
</event>
<event>
12    1  0.9246030E-003  0.1897341E+03  0.7818608E-02  0.1158732E+00
         21   -1    0    0  501  502  0.00000000000E+00  0.00000000000E+00  0.84980349256E+03  0.84980349256E+03  0.00000000000E+00 0. -1.
         21   -1    0    0  502  503 -0.00000000000E+00 -0.00000000000E+00 -0.56718926798E+02  0.56718926798E+02  0.00000000000E+00 0. -1.
          6    2    1    2  501    0  0.34337023593E+02  0.72348549954E+02  0.62472150212E+03  0.65285898341E+03  0.17185619903E+03 0.  0.
         24    2    3    3    0    0  0.69392342752E+02  0.34926657915E+02  0.26822739581E+03  0.29266540873E+03  0.87589593800E+02 0.  0.
         -6    2    1    2    0  503 -0.34337023593E+02 -0.72348549954E+02  0.16836306365E+03  0.25366343595E+03  0.17200486524E+03 0.  0.
        -24    2    5    5    0    0 -0.24205733146E+02 -0.35477154143E+01  0.15190865958E+02  0.85377934422E+02  0.80374905759E+02 0.  0.
          5    1    3    3  501    0 -0.35055319160E+02  0.37421892040E+02  0.35649410631E+03  0.36019357468E+03  0.47000000000E+01 0. -1.
        -13    1    4    4    0    0  0.54861023190E+02  0.59638104864E+02  0.14459869336E+03  0.16575650074E+03  0.00000000000E+00 0.  1.
         14    1    4    4    0    0  0.14531319562E+02 -0.24711446949E+02  0.12362870245E+03  0.12690890799E+03  0.00000000000E+00 0. -1.
         -5    1    5    5    0  503 -0.10131290446E+02 -0.68800834540E+02  0.15317219769E+03  0.16828550153E+03  0.47000000000E+01 0.  1.
         11    1    6    6    0    0 -0.37509797378E+02 -0.33883194545E+02  0.53917400702E+01  0.50834305670E+02  0.00000000000E+00 0. -1.
        -12    1    6    6    0    0  0.13304064232E+02  0.30335479131E+02  0.97991258882E+01  0.34543628752E+02  0.00000000000E+00 0.  1.
</event>
<event>
12    1  0.9246030E-003  0.4038639E+03  0.7818608E-02  0.1042455E+00
         21   -1    0    0  501  502  0.00000000000E+00  0.00000000000E+00  0.12318908814E+03  0.12318908814E+03  0.00000000000E+00 0.  1.
         21   -1    0    0  502  503 -0.00000000000E+00 -0.00000000000E+00 -0.14056509254E+04  0.14056509254E+04  0.00000000000E+00 0. -1.
          6    2    1    2  501    0 -0.31215319174E+03  0.18947928681E+03 -0.82560267123E+03  0.91906438110E+03  0.17238779139E+03 0.  0.
         24    2    3    3    0    0 -0.31528465279E+03  0.13836238740E+03 -0.71781611063E+03  0.79963751604E+03  0.74910785847E+02 0.  0.
         -6    2    1    2    0  503  0.31215319174E+03 -0.18947928681E+03 -0.45685916602E+03  0.60977563243E+03  0.17252248865E+03 0.  0.
        -24    2    5    5    0    0  0.91528905798E+02 -0.45545884269E+02 -0.88333173607E+02  0.15675753456E+03  0.79487149352E+02 0.  0.
          5    1    3    3  501    0  0.31314610488E+01  0.51116899414E+02 -0.10778656060E+03  0.11942686506E+03  0.47000000000E+01 0. -1.
        -11    1    4    4    0    0 -0.31828242358E+02  0.41237031525E+02 -0.12433315333E+03  0.13480453552E+03  0.00000000000E+00 0.  1.
         12    1    4    4    0    0 -0.28345641043E+03  0.97125355872E+02 -0.59348295730E+03  0.66483298051E+03  0.00000000000E+00 0. -1.
         -5    1    5    5    0  503  0.22062428595E+03 -0.14393340254E+03 -0.36852599241E+03  0.45301809787E+03  0.47000000000E+01 0.  1.
         11    1    6    6    0    0  0.57569298440E+02  0.11753352776E+02 -0.61189536892E+02  0.84832333750E+02  0.00000000000E+00 0. -1.
        -12    1    6    6    0    0  0.33959607359E+02 -0.57299237045E+02 -0.27143636715E+02  0.71925200813E+02  0.00000000000E+00 0.  1.
</event>
<event>
12    1  0.9246030E-003  0.1794669E+03  0.7818608E-02  0.1170218E+00
         21   -1    0    0  501  502  0.00000000000E+00  0.00000000000E+00  0.15547994857E+03  0.15547994857E+03  0.00000000000E+00 0. -1.
         21   -1    0    0  502  503 -0.00000000000E+00 -0.00000000000E+00 -0.20421159798E+03  0.20421159798E+03  0.00000000000E+00 0.  1.
          6    2    1    2  501    0  0.30208194335E+02 -0.23418329298E+02  0.53623074580E+01  0.17954696347E+03  0.17534937866E+03 0.  0.
         24    2    3    3    0    0 -0.13753856319E+02 -0.56071459701E+02 -0.42233857301E+02  0.10683951046E+03  0.79358711790E+02 0.  0.
         -6    2    1    2    0  503 -0.30208194335E+02  0.23418329298E+02 -0.54093956866E+02  0.18014458309E+03  0.16752600244E+03 0.  0.
        -24    2    5    5    0    0  0.31039003810E+02  0.42487566097E+02 -0.16689969991E+02  0.10574025991E+03  0.90187773215E+02 0.  0.
          5    1    3    3  501    0  0.43962050654E+02  0.32653130404E+02  0.47596164759E+02  0.72707453006E+02  0.47000000000E+01 0. -1.
        -11    1    4    4    0    0 -0.15883137271E+02  0.77992454395E+01  0.13331526755E+02  0.22154726011E+02  0.00000000000E+00 0.  1.
         12    1    4    4    0    0  0.21292809525E+01 -0.63870705141E+02 -0.55565384056E+02  0.84684784453E+02  0.00000000000E+00 0. -1.
         -5    1    5    5    0  503 -0.61247198145E+02 -0.19069236800E+02 -0.37403986875E+02  0.74404323173E+02  0.47000000000E+01 0.  1.
         13    1    6    6    0    0  0.43173959564E+02  0.30481931015E-01 -0.37258148575E+02  0.57027724387E+02  0.00000000000E+00 0. -1.
        -14    1    6    6    0    0 -0.12134955753E+02  0.42457084166E+02  0.20568178583E+02  0.48712535525E+02  0.00000000000E+00 0.  1.
</event>
<event>
12    1  0.9246030E-003  0.1856090E+03  0.7818608E-02  0.1164807E+00
         21   -1    0    0  503  502  0.00000000000E+00  0.00000000000E+00  0.77602369407E+03  0.77602369407E+03  0.00000000000E+00 0. -1.
         21   -1    0    0  501  503 -0.00000000000E+00 -0.00000000000E+00 -0.43144700360E+02  0.43144700360E+02  0.00000000000E+00 0. -1.
          6    2    1    2  501    0  0.37306624724E+02  0.55439862381E+01  0.42054032505E+03  0.45584188752E+03  0.17179971302E+03 0.  0.
         24    2    3    3    0    0  0.20353777331E+01 -0.41934759621E+02  0.12205115705E+03  0.15151284587E+03  0.79353580272E+02 0.  0.
         -6    2    1    2    0  502 -0.37306624724E+02 -0.55439862381E+01  0.31233866866E+03  0.36332650692E+03  0.18173658589E+03 0.  0.
        -24    2    5    5    0    0 -0.65378769667E+02 -0.56368784245E+02  0.15112599542E+03  0.19191232597E+03  0.80866872124E+02 0.  0.
          5    1    3    3  501    0  0.35271246991E+02  0.47478745859E+02  0.29848916800E+03  0.30432904164E+03  0.47000000000E+01 0. -1.
        -11    1    4    4    0    0 -0.37075481114E+02 -0.82475690744E+01  0.47098505633E+02  0.60505230586E+02  0.00000000000E+00 0.  1.
         12    1    4    4    0    0  0.39110858847E+02 -0.33687190547E+02  0.74952651413E+02  0.91007615288E+02  0.00000000000E+00 0. -1.
         -5    1    5    5    0  502  0.28072144943E+02  0.50824798007E+02  0.16121267325E+03  0.17141418095E+03  0.47000000000E+01 0.  1.
         13    1    6    6    0    0  0.98342448849E+01 -0.13108216681E+02  0.74094716565E+02  0.75885207649E+02  0.00000000000E+00 0. -1.
        -14    1    6    6    0    0 -0.75213014552E+02 -0.43260567564E+02  0.77031278853E+02  0.11602711832E+03  0.00000000000E+00 0.  1.
</event>
<event>
12    1  0.9246030E-003  0.2403821E+03  0.7818608E-02  0.1119842E+00
         21   -1    0    0  503  502  0.00000000000E+00  0.00000000000E+00  0.19748393510E+03  0.19748393510E+03  0.00000000000E+00 0.  1.
         21   -1    0    0  501  503 -0.00000000000E+00 -0.00000000000E+00 -0.36909160001E+03  0.36909160001E+03  0.00000000000E+00 0. -1.
          6    2    1    2  501    0  0.16422108418E+03  0.41737972773E+02 -0.21636261236E+03  0.32206260885E+03  0.16793129885E+03 0.  0.
         24    2    3    3    0    0  0.16198105460E+03  0.79157890594E+02 -0.16076036474E+03  0.25483933964E+03  0.81211824679E+02 0.  0.
         -6    2    1    2    0  502 -0.16422108418E+03 -0.41737972773E+02  0.44754947441E+02  0.24451292626E+03  0.17050789697E+03 0.  0.
        -24    2    5    5    0    0 -0.11348673833E+03 -0.79952402261E+02 -0.95309515721E+01  0.16082681450E+03  0.80639933165E+02 0.  0.
          5    1    3    3  501    0  0.22400295793E+01 -0.37419917821E+02 -0.55602247622E+02  0.67223269207E+02  0.47000000000E+01 0. -1.
        -13    1    4    4    0    0  0.24010893346E+02  0.29696022633E+02 -0.12406851755E+01  0.38208847918E+02  0.00000000000E+00 0.  1.
         14    1    4    4    0    0  0.13797016125E+03  0.49461867961E+02 -0.15951967956E+03  0.21663049173E+03  0.00000000000E+00 0. -1.
         -5    1    5    5    0  502 -0.50734345848E+02  0.38214429488E+02  0.54285899013E+02  0.83686111760E+02  0.47000000000E+01 0.  1.
         13    1    6    6    0    0 -0.31678024851E+02 -0.70537886098E+02 -0.12977724592E+02  0.78406070998E+02  0.00000000000E+00 0. -1.
        -14    1    6    6    0    0 -0.81808713477E+02 -0.94145161626E+01  0.34467730198E+01  0.82420743503E+02  0.00000000000E+00 0.  1.
</event>
<event>
12    1  0.9246030E-003  0.1827907E+03  0.7818608E-02  0.1165152E+00
         21   -1    0    0  503  502  0.00000000000E+00  0.00000000000E+00  0.63552667237E+03  0.63552667237E+03  0.00000000000E+00 0. -1.
         21   -1    0    0  501  503 -0.00000000000E+00 -0.00000000000E+00 -0.55166271999E+02  0.55166271999E+02  0.00000000000E+00 0.  1.
          6    2    1    2  501    0 -0.61973433741E+02 -0.84099816599E+01  0.21486156898E+03  0.28203437797E+03  0.17165798045E+03 0.  0.
         24    2    3    3    0    0  0.18359397605E+02  0.56215132464E+01  0.16927477190E+03  0.18849030970E+03  0.80659652590E+02 0.  0.
         -6    2    1    2    0  502  0.61973433741E+02  0.84099816599E+01  0.36549883139E+03  0.40865856640E+03  0.17175853359E+03 0.  0.
        -24    2    5    5    0    0  0.21926733375E+02  0.46211279492E+01  0.35791569150E+03  0.36745556125E+03  0.80111240238E+02 0.  0.
          5    1    3    3  501    0 -0.80332831346E+02 -0.14031494906E+02  0.45586797076E+02  0.93544068273E+02  0.47000000000E+01 0. -1.
        -13    1    4    4    0    0 -0.48617532010E+01 -0.23548470397E+02  0.12031539653E+02  0.26887265548E+02  0.00000000000E+00 0.  1.
         14    1    4    4    0    0  0.23221150806E+02  0.29169983643E+02  0.15724323225E+03  0.16160304415E+03  0.00000000000E+00 0. -1.
         -5    1    5    5    0  502  0.40046700365E+02  0.37888537107E+01  0.75831398943E+01  0.41203005148E+02  0.47000000000E+01 0.  1.
         13    1    6    6    0    0  0.50486737938E+02 -0.58206407899E+01  0.18344000026E+03  0.19034974196E+03  0.00000000000E+00 0. -1.
        -14    1    6    6    0    0 -0.28560004562E+02  0.10441768739E+02  0.17447569124E+03  0.17710581930E+03  0.00000000000E+00 0.  1.
</event>
<event>
12    1  0.9246030E-003  0.2888349E+03  0.7818608E-02  0.1091074E+00
         21   -1    0    0  503  502  0.00000000000E+00  0.00000000000E+00  0.19824635861E+03  0.19824635861E+03  0.00000000000E+00 0.  1.
         21   -1    0    0  501  503 -0.00000000000E+00 -0.00000000000E+00 -0.55969303520E+03  0.55969303520E+03  0.00000000000E+00 0. -1.
          6    2    1    2  501    0  0.52514822021E+02  0.22512339165E+03 -0.37057052496E+03  0.46983839876E+03  0.17316829668E+03 0.  0.
         24    2    3    3    0    0  0.53078911209E+02  0.46755729448E+02 -0.17587869789E+03  0.20575065075E+03  0.79978402475E+02 0.  0.
         -6    2    1    2    0  502 -0.52514822021E+02 -0.22512339165E+03  0.91238483693E+01  0.28810099505E+03  0.17169912854E+03 0.  0.
        -24    2    5    5    0    0 -0.10105956763E+03 -0.14050689999E+03  0.13130057390E+02  0.19035293779E+03  0.78144848609E+02 0.  0.
          5    1    3    3  501    0 -0.56408918798E+00  0.17836766221E+03 -0.19469182707E+03  0.26408774800E+03  0.47000000000E+01 0. -1.
        -11    1    4    4    0    0  0.29531870067E+02  0.51143451846E+02 -0.49313679502E+02  0.76939086311E+02  0.00000000000E+00 0.  1.
         12    1    4    4    0    0  0.23547041143E+02 -0.43877223980E+01 -0.12656501839E+03  0.12881156444E+03  0.00000000000E+00 0. -1.
         -5    1    5    5    0  502  0.48544745611E+02 -0.84616491664E+02 -0.40062090206E+01  0.97748057263E+02  0.47000000000E+01 0.  1.
         11    1    6    6    0    0 -0.11554503847E+02 -0.81015872532E+02  0.13118242532E+02  0.82880434654E+02  0.00000000000E+00 0. -1.
        -12    1    6    6    0    0 -0.89505063785E+02 -0.59491027457E+02  0.11814858315E-01  0.10747250314E+03  0.00000000000E+00 0.  1.
</event>
<event>
12    1  0.9246030E-003  0.1821359E+03  0.7818608E-02  0.1166032E+00
         21   -1    0    0  501  502  0.00000000000E+00  0.00000000000E+00  0.22120464867E+03  0.22120464867E+03  0.00000000000E+00 0.  1.
         21   -1    0    0  502  503 -0.00000000000E+00 -0.00000000000E+00 -0.14939892082E+03  0.14939892082E+03  0.00000000000E+00 0. -1.
          6    2    1    2  501    0  0.16493323108E+02  0.55915660645E+02  0.45300192870E+02  0.18654915663E+03  0.17131809465E+03 0.  0.
         24    2    3    3    0    0 -0.51464063203E+02  0.21487081839E+02  0.57304655602E+02  0.10928512543E+03  0.74492755343E+02 0.  0.
         -6    2    1    2    0  503 -0.16493323108E+02 -0.55915660645E+02  0.26505534975E+02  0.18405441285E+03  0.17255402833E+03 0.  0.
        -24    2    5    5    0    0 -0.34421406603E+02 -0.97877746571E+02 -0.14253466020E+02  0.12268977324E+03  0.63911913263E+02 0.  0.
          5    1    3    3  501    0  0.67957386310E+02  0.34428578806E+02 -0.12004462732E+02  0.77264031206E+02  0.47000000000E+01 0. -1.
        -13    1    4    4    0    0 -0.22481397548E+02 -0.48114878945E+01  0.65397827974E+02  0.69321277795E+02  0.00000000000E+00 0.  1.
         14    1    4    4    0    0 -0.28982665654E+02  0.26298569734E+02 -0.80931723717E+01  0.39963847631E+02  0.00000000000E+00 0. -1.
         -5    1    5    5    0  503  0.17928083495E+02  0.41962085926E+02  0.40759000996E+02  0.61364639616E+02  0.47000000000E+01 0.  1.
         11    1    6    6    0    0  0.72758551389E+01 -0.10032781961E+02 -0.21886452239E+02  0.25151770783E+02  0.00000000000E+00 0. -1.
        -12    1    6    6    0    0 -0.41697261742E+02 -0.87844964610E+02  0.76329862189E+01  0.97538002454E+02  0.00000000000E+00 0.  1.
</event>
<event>
12    1  0.9246030E-003  0.3168526E+03  0.7818608E-02  0.1077366E+00
         21   -1    0    0  501  502  0.00000000000E+00  0.00000000000E+00  0.76253077990E+02  0.76253077990E+02  0.00000000000E+00 0. -1.
         21   -1    0    0  502  503 -0.00000000000E+00 -0.00000000000E+00 -0.13083812657E+04  0.13083812657E+04  0.00000000000E+00 0.  1.
          6    2    1    2  501    0 -0.25641789141E+03 -0.73573950590E+02 -0.63250421188E+03  0.70644228182E+03  0.16684081711E+03 0.  0.
         24    2    3    3    0    0 -0.98517058555E+02  0.14502828013E+02 -0.17616897313E+03  0.21557149223E+03  0.74294133833E+02 0.  0.
         -6    2    1    2    0  503  0.25641789141E+03  0.73573950590E+02 -0.59962397578E+03  0.67819206182E+03  0.17097455702E+03 0.  0.
        -24    2    5    5    0    0  0.83675679811E+02  0.18957803778E+00 -0.32552718099E+03  0.34596280254E+03  0.81979630715E+02 0.  0.
          5    1    3    3  501    0 -0.15790083286E+03 -0.88076778603E+02 -0.45633523876E+03  0.49087078959E+03  0.47000000000E+01 0. -1.
        -11    1    4    4    0    0 -0.46477159839E+01  0.22003351304E+02 -0.70651343904E+02  0.74144191464E+02  0.00000000000E+00 0.  1.
         12    1    4    4    0    0 -0.93869342572E+02 -0.75005232906E+01 -0.10551762922E+03  0.14142730076E+03  0.00000000000E+00 0. -1.
         -5    1    5    5    0  503  0.17274221160E+03  0.73384372552E+02 -0.27409679480E+03  0.33222925928E+03  0.47000000000E+01 0.  1.
         13    1    6    6    0    0  0.67746229420E+02 -0.36122233244E+02 -0.23213226999E+03  0.24449899408E+03  0.00000000000E+00 0. -1.
        -14    1    6    6    0    0  0.15929450390E+02  0.36311811282E+02 -0.93394911001E+02  0.10146380847E+03  0.00000000000E+00 0.  1.
</event>
<event>
12    1  0.9246030E-003  0.1757133E+03  0.7818608E-02  0.1172982E+00
         21   -1    0    0  501  502  0.00000000000E+00  0.00000000000E+00  0.50584506940E+02  0.50584506940E+02  0.00000000000E+00 0. -1.
         21   -1    0    0  502  503 -0.00000000000E+00 -0.00000000000E+00 -0.10075329265E+04  0.10075329265E+04  0.00000000000E+00 0. -1.
          6    2    1    2  501    0  0.10321945783E+02 -0.25494765320E+02 -0.13772701972E+03  0.22026370640E+03  0.16967864561E+03 0.  0.
         24    2    3    3    0    0  0.24185629231E+01  0.48670115981E+02 -0.96503553840E+02  0.13491526050E+03  0.80712836503E+02 0.  0.
         -6    2    1    2    0  503 -0.10321945783E+02  0.25494765320E+02 -0.81922139982E+03  0.83785372701E+03  0.17354722793E+03 0.  0.
        -24    2    5    5    0    0 -0.55555334232E+02  0.58068638120E+02 -0.44898233356E+03  0.46341257969E+03  0.81900679337E+02 0.  0.
          5    1    3    3  501    0  0.79033828599E+01 -0.74164881301E+02 -0.41223465876E+02  0.85348445901E+02  0.47000000000E+01 0. -1.
        -13    1    4    4    0    0 -0.26425755826E+02  0.30694574651E+02 -0.92140166263E+02  0.10064933046E+03  0.00000000000E+00 0.  1.
         14    1    4    4    0    0  0.28844318749E+02  0.17975541330E+02 -0.43633875772E+01  0.34265930038E+02  0.00000000000E+00 0. -1.
         -5    1    5    5    0  503  0.45233388449E+02 -0.32573872801E+02 -0.37023906626E+03  0.37444114732E+03  0.47000000000E+01 0.  1.
         11    1    6    6    0    0 -0.15602371230E+01  0.60603761987E+02 -0.24512958782E+03  0.25251488101E+03  0.00000000000E+00 0. -1.
        -12    1    6    6    0    0 -0.53995097109E+02 -0.25351238663E+01 -0.20385274574E+03  0.21089769868E+03  0.00000000000E+00 0.  1.
</event>
<event>
12    1  0.9246030E-003  0.2304852E+03  0.7818608E-02  0.1127353E+00
         21   -1    0    0  501  502  0.00000000000E+00  0.00000000000E+00  0.68389860177E+03  0.68389860177E+03  0.00000000000E+00 0. -1.
         21   -1    0    0  502  503 -0.00000000000E+00 -0.00000000000E+00 -0.79092521536E+02  0.79092521536E+02  0.00000000000E+00 0.  1.
          6    2    1    2  501    0 -0.77187881813E+02 -0.12259549046E+03  0.37771724294E+03  0.43942851875E+03  0.17157938133E+03 0.  0.
         24    2    3    3    0    0  0.78706956613E+01 -0.19948774050E+02  0.19793665929E+03  0.21556593088E+03  0.82642894602E+02 0.  0.
         -6    2    1    2    0  503  0.77187881813E+02  0.12259549046E+03  0.22708883729E+03  0.32356260456E+03  0.17926459680E+03 0.  0.
        -24    2    5    5    0    0  0.72345218954E+02  0.67239712659E+01  0.14797468121E+03  0.18309623835E+03  0.79678627770E+02 0.  0.
          5    1    3    3  501    0 -0.85058577474E+02 -0.10264671641E+03  0.17978058366E+03  0.22386258788E+03  0.47000000000E+01 0. -1.
        -13    1    4    4    0    0 -0.36917058898E+02 -0.16012197811E+02  0.10048446496E+03  0.10824226261E+03  0.00000000000E+00 0.  1.
         14    1    4    4    0    0  0.44787754559E+02 -0.39365762387E+01  0.97452194323E+02  0.10732366826E+03  0.00000000000E+00 0. -1.
         -5    1    5    5    0  503  0.48426628593E+01  0.11587151919E+03  0.79114156082E+02  0.14046636621E+03  0.47000000000E+01 0.  1.
         13    1    6    6    0    0  0.47137957308E+02 -0.35253950210E+02  0.81596530479E+02  0.10061223490E+03  0.00000000000E+00 0. -1.
        -14    1    6    6    0    0  0.25207261645E+02  0.41977921476E+02  0.66378150733E+02  0.82484003454E+02  0.00000000000E+00 0.  1.
</event>
<event>
12    1  0.9246030E-003  0.2007019E+03  0.7818608E-02  0.1151868E+00
         21   -1    0    0  501  502  0.00000000000E+00  0.00000000000E+00  0.52289961322E+02  0.52289961322E+02  0.00000000000E+00 0.  1.
         21   -1    0    0  502  503 -0.00000000000E+00 -0.00000000000E+00 -0.77605427577E+03  0.77605427577E+03  0.00000000000E+00 0.  1.
          6    2    1    2  501    0 -0.88207241384E+02 -0.51646614258E+02 -0.26455328471E+03  0.33206882309E+03  0.17272339918E+03 0.  0.
         24    2    3    3    0    0  0.19417933156E+02 -0.56847861473E+02 -0.10766002656E+03  0.14168023199E+03  0.69813117232E+02 0.  0.
         -6    2    1    2    0  503  0.88207241384E+02  0.51646614258E+02 -0.45921102974E+03  0.49627541400E+03  0.15800831151E+03 0.  0.
        -24    2    5    5    0    0  0.70790387403E+01  0.28292423040E+02 -0.14460686192E+03  0.17050697489E+03  0.85503859443E+02 0.  0.
          5    1    3    3  501    0 -0.10762517454E+03  0.52012472151E+01 -0.15689325815E+03  0.19038859110E+03  0.47000000000E+01 0. -1.
        -13    1    4    4    0    0 -0.18768982982E+02 -0.30019998991E+02 -0.16059752860E+02  0.38876608951E+02  0.00000000000E+00 0.  1.
         14    1    4    4    0    0  0.38186916138E+02 -0.26827862482E+02 -0.91600273697E+02  0.10280362304E+03  0.00000000000E+00 0. -1.
         -5    1    5    5    0  503  0.81128202644E+02  0.23354191218E+02 -0.31460416782E+03  0.32576843911E+03  0.47000000000E+01 0.  1.
         13    1    6    6    0    0 -0.15953636780E+02 -0.25883002927E+02 -0.37388457937E+02  0.48190716470E+02  0.00000000000E+00 0. -1.
        -14    1    6    6    0    0  0.23032675520E+02  0.54175425967E+02 -0.10721840398E+03  0.12231625842E+03  0.00000000000E+00 0.  1.
</event>
<event>
12    1  0.9246030E-003  0.2398081E+03  0.7818608E-02  0.1119981E+00
         21   -1    0    0  503  502  0.00000000000E+00  0.00000000000E+00  0.18302464702E+03  0.18302464702E+03  0.00000000000E+00 0.  1.
         21   -1    0    0  501  503 -0.00000000000E+00 -0.00000000000E+00 -0.31792650156E+03  0.31792650156E+03  0.00000000000E+00 0. -1.
          6    2    1    2  501    0 -0.67369446478E+02 -0.15317010819E+03 -0.96158741957E+02  0.25803360218E+03  0.17127495975E+03 0.  0.
         24    2    3    3    0    0  0.24068491505E+02 -0.64735168915E+02 -0.92700751643E+01  0.10391233368E+03  0.77083749388E+02 0.  0.
         -6    2    1    2    0  502  0.67369446478E+02  0.15317010819E+03 -0.38743112587E+02  0.24291754640E+03  0.17177945515E+03 0.  0.
        -24    2    5    5    0    0  0.88939445189E+01  0.83564750803E+01  0.22163512066E+01  0.81393119952E+02  0.80442493981E+02 0.  0.
          5    1    3    3  501    0 -0.91437937982E+02 -0.88434939275E+02 -0.86888666793E+02  0.15412126850E+03  0.47000000000E+01 0. -1.
        -13    1    4    4    0    0 -0.97635390297E+01  0.64266997754E+00  0.21888983080E+02  0.23976390458E+02  0.00000000000E+00 0.  1.
         14    1    4    4    0    0  0.33832030534E+02 -0.65377838893E+02 -0.31159058245E+02  0.79935943224E+02  0.00000000000E+00 0. -1.
         -5    1    5    5    0  502  0.58475501959E+02  0.14481363311E+03 -0.40959463794E+02  0.16152442644E+03  0.47000000000E+01 0.  1.
         13    1    6    6    0    0  0.11727771833E+02 -0.62466139338E+01 -0.37072824461E+02  0.39382167682E+02  0.00000000000E+00 0. -1.
        -14    1    6    6    0    0 -0.28338273141E+01  0.14603089014E+02  0.39289175668E+02  0.42010952270E+02  0.00000000000E+00 0.  1.
</event>
<event>
12    1  0.9246030E-003  0.2335518E+03  0.7818608E-02  0.1124637E+00
         21   -1    0    0  501  502  0.00000000000E+00  0.00000000000E+00  0.85938743101E+03  0.85938743101E+03  0.00000000000E+00 0.  1.
         21   -1    0    0  502  503 -0.00000000000E+00 -0.00000000000E+00 -0.63250790803E+02  0.63250790803E+02  0.00000000000E+00 0. -1.
          6    2    1    2  501    0 -0.82534354485E+01  0.15199090157E+03  0.44205775250E+03  0.49996150199E+03  0.17713580543E+03 0.  0.
         24    2    3    3    0    0 -0.50322103729E+02  0.16242182691E+03  0.38106242687E+03  0.42498752782E+03  0.80577054093E+02 0.  0.
         -6    2    1    2    0  503  0.82534354485E+01 -0.15199090157E+03  0.35407888770E+03  0.42267671982E+03  0.17353500340E+03 0.  0.
        -24    2    5    5    0    0 -0.36445245143E+02 -0.89125047465E+02  0.30821674622E+03  0.33281285790E+03  0.80593459719E+02 0.  0.
          5    1    3    3  501    0  0.42068668281E+02 -0.10430925335E+02  0.60995325629E+02  0.74973974170E+02  0.47000000000E+01 0. -1.
        -11    1    4    4    0    0 -0.25163535754E+02  0.15811102213E+03  0.34927316944E+03  0.38421874725E+03  0.00000000000E+00 0.  1.
         12    1    4    4    0    0 -0.25158567975E+02  0.43108047718E+01  0.31789257434E+02  0.40768780562E+02  0.00000000000E+00 0. -1.
         -5    1    5    5    0  503  0.44698680592E+02 -0.62865854107E+02  0.45862141478E+02  0.89863861925E+02  0.47000000000E+01 0.  1.
         13    1    6    6    0    0  0.20011846585E+01 -0.45054514822E+02  0.47033172847E+02  0.65161594470E+02  0.00000000000E+00 0. -1.
        -14    1    6    6    0    0 -0.38446429802E+02 -0.44070532643E+02  0.26118357338E+03  0.26765126343E+03  0.00000000000E+00 0.  1.
</event>
<event>
12    1  0.9246030E-003  0.2982383E+03  0.7818608E-02  0.1087398E+00
         21   -1    0    0  503  502  0.00000000000E+00  0.00000000000E+00  0.79275745967E+03  0.79275745967E+03  0.00000000000E+00 0.  1.
         21   -1    0    0  501  503 -0.00000000000E+00 -0.00000000000E+00 -0.10880930608E+03  0.10880930608E+03  0.00000000000E+00 0.  1.
          6    2    1    2  501    0  0.22699132340E+03  0.42034868477E+02  0.32340736257E+03  0.43992998891E+03  0.18882288502E+03 0.  0.
         24    2    3    3    0    0  0.13502478948E+03  0.94775596065E+02  0.15068122027E+03  0.23720890479E+03  0.79681409303E+02 0.  0.
         -6    2    1    2    0  502 -0.22699132340E+03 -0.42034868477E+02  0.36054079102E+03  0.46163677684E+03  0.17270454735E+03 0.  0.
        -24    2    5    5    0    0 -0.15090212629E+03 -0.94040731661E+02  0.23438864080E+03  0.30533376750E+03  0.81704122977E+02 0.  0.
          5    1    3    3  501    0  0.91966533923E+02 -0.52740727588E+02  0.17272614231E+03  0.20272108411E+03  0.47000000000E+01 0. -1.
        -11    1    4    4    0    0  0.75440326024E+02  0.35881827199E+02  0.12355964142E+03  0.14915003621E+03  0.00000000000E+00 0.  1.
         12    1    4    4    0    0  0.59584463457E+02  0.58893768866E+02  0.27121578843E+02  0.88058868580E+02  0.00000000000E+00 0. -1.
         -5    1    5    5    0  502 -0.76089197116E+02  0.52005863184E+02  0.12615215022E+03  0.15630300934E+03  0.47000000000E+01 0.  1.
         13    1    6    6    0    0 -0.12091713055E+03 -0.63181265757E+02  0.11501178608E+03  0.17843916538E+03  0.00000000000E+00 0. -1.
        -14    1    6    6    0    0 -0.29984995735E+02 -0.30859465904E+02  0.11937685472E+03  0.12689460212E+03  0.00000000000E+00 0.  1.
</event>
<event>
12    1  0.9246030E-003  0.2593371E+03  0.7818608E-02  0.1107978E+00
         21   -1    0    0  503  502  0.00000000000E+00  0.00000000000E+00  0.68036653629E+03  0.68036653629E+03  0.00000000000E+00 0.  1.
         21   -1    0    0  501  503 -0.00000000000E+00 -0.00000000000E+00 -0.97963901495E+02  0.97963901495E+02  0.00000000000E+00 0. -1.
          6    2    1    2  501    0 -0.25165955363E+02  0.18872121003E+03  0.27500880831E+03  0.37800206572E+03  0.17608718472E+03 0.  0.
         24    2    3    3    0    0 -0.28569981920E+01  0.21213251635E+03  0.22403393720E+03  0.31745203420E+03  0.74674105743E+02 0.  0.
         -6    2    1    2    0  502  0.25165955363E+02 -0.18872121003E+03  0.30739382649E+03  0.40032837206E+03  0.17182206054E+03 0.  0.
        -24    2    5    5    0    0 -0.13099297260E+02 -0.19227547666E+03  0.21212253409E+03  0.29749077424E+03  0.79770550809E+02 0.  0.
          5    1    3    3  501    0 -0.22308957171E+02 -0.23411306318E+02  0.50974871109E+02  0.60550031529E+02  0.47000000000E+01 0. -1.
        -11    1    4    4    0    0 -0.38581882671E+02  0.10783225963E+03  0.11963688283E+03  0.16561805946E+03  0.00000000000E+00 0.  1.
         12    1    4    4    0    0  0.35724884479E+02  0.10430025672E+03  0.10439705437E+03  0.15183397473E+03  0.00000000000E+00 0. -1.
         -5    1    5    5    0  502  0.38265252623E+02  0.35542666336E+01  0.95271292403E+02  0.10283759782E+03  0.47000000000E+01 0.  1.
         13    1    6    6    0    0  0.26414119234E+02 -0.37684155029E+02  0.70232027412E+02  0.83966296271E+02  0.00000000000E+00 0. -1.
        -14    1    6    6    0    0 -0.39513416494E+02 -0.15459132163E+03  0.14189050667E+03  0.21352447797E+03  0.00000000000E+00 0.  1.
</event>
<event>
12    1  0.9246030E-003  0.1935034E+03  0.7818608E-02  0.1155729E+00
         21   -1    0    0  501  502  0.00000000000E+00  0.00000000000E+00  0.13848185556E+03  0.13848185556E+03  0.00000000000E+00 0. -1.
         21   -1    0    0  502  503 -0.00000000000E+00 -0.00000000000E+00 -0.26793358145E+03  0.26793358145E+03  0.00000000000E+00 0. -1.
          6    2    1    2  501    0  0.87036169436E+02 -0.44720191972E+01 -0.63978352228E+02  0.20380574920E+03  0.17276649011E+03 0.  0.
         24    2    3    3    0    0  0.28113224875E+02 -0.14624489931E+02  0.28166534764E+02  0.93861416662E+02  0.83739970973E+02 0.  0.
         -6    2    1    2    0  503 -0.87036169436E+02  0.44720191972E+01 -0.65473373669E+02  0.20260968781E+03  0.17078825835E+03 0.  0.
        -24    2    5    5    0    0 -0.36699893039E+02 -0.38080426147E+02 -0.85564279868E+02  0.13354315585E+03  0.87838075340E+02 0.  0.
          5    1    3    3  501    0  0.58922944561E+02  0.10152470734E+02 -0.92144886991E+02  0.10994433253E+03  0.47000000000E+01 0. -1.
        -11    1    4    4    0    0 -0.24483324085E+02 -0.16435359762E+02 -0.73251026052E+01  0.30384392983E+02  0.00000000000E+00 0.  1.
         12    1    4    4    0    0  0.52596548960E+02  0.18108698307E+01  0.35491637369E+02  0.63477023679E+02  0.00000000000E+00 0. -1.
         -5    1    5    5    0  503 -0.50336276397E+02  0.42552445344E+02  0.20090906199E+02  0.69066531969E+02  0.47000000000E+01 0.  1.
         13    1    6    6    0    0 -0.12053489988E+02  0.27797707449E+02 -0.14621870992E+02  0.33642209672E+02  0.00000000000E+00 0. -1.
        -14    1    6    6    0    0 -0.24646403051E+02 -0.65878133595E+02 -0.70942408876E+02  0.99900946174E+02  0.00000000000E+00 0.  1.
</event>
<event>
12    1  0.9246030E-003  0.1888796E+03  0.7818608E-02  0.1159806E+00
         21   -1    0    0  501  502  0.00000000000E+00  0.00000000000E+00  0.33748131196E+02  0.33748131196E+02  0.00000000000E+00 0. -1.
         21   -1    0    0  502  503 -0.00000000000E+00 -0.00000000000E+00 -0.18128911395E+04  0.18128911395E+04  0.00000000000E+00 0.  1.
          6    2    1    2  501    0  0.61999451091E+02 -0.41220544080E+02 -0.28825700797E+03  0.34383636455E+03  0.17201243489E+03 0.  0.
         24    2    3    3    0    0  0.17594620286E+02  0.38018889540E+02 -0.18504688741E+03  0.20626785135E+03  0.80926320420E+02 0.  0.
         -6    2    1    2    0  503 -0.61999451091E+02  0.41220544080E+02 -0.14908860003E+04  0.15028029061E+04  0.17358699120E+03 0.  0.
        -24    2    5    5    0    0 -0.44274940798E+01 -0.37930685674E+02 -0.61607772217E+03  0.62252393845E+03  0.80783380546E+02 0.  0.
          5    1    3    3  501    0  0.44404830805E+02 -0.79239433620E+02 -0.10321012056E+03  0.13756851321E+03  0.47000000000E+01 0. -1.
        -11    1    4    4    0    0 -0.10192213616E+02 -0.62385927942E+01  0.19485740989E+01  0.12107774340E+02  0.00000000000E+00 0.  1.
         12    1    4    4    0    0  0.27786833902E+02  0.44257482334E+02 -0.18699546151E+03  0.19416007701E+03  0.00000000000E+00 0. -1.
         -5    1    5    5    0  503 -0.57571957011E+02  0.79151229753E+02 -0.87480827813E+03  0.88027896766E+03  0.47000000000E+01 0.  1.
         13    1    6    6    0    0  0.37916150363E+02 -0.22014990764E+02 -0.27885983436E+03  0.28228549643E+03  0.00000000000E+00 0. -1.
        -14    1    6    6    0    0 -0.42343644443E+02 -0.15915694909E+02 -0.33721788781E+03  0.34023844202E+03  0.00000000000E+00 0.  1.
</event>
<event>
12    1  0.9246030E-003  0.1785997E+03  0.7818608E-02  0.1170362E+00
         21   -1    0    0  503  502  0.00000000000E+00  0.00000000000E+00  0.75410811962E+02  0.75410811962E+02  0.00000000000E+00 0. -1.
         21   -1    0    0  501  503 -0.00000000000E+00 -0.00000000000E+00 -0.52422947265E+03  0.52422947265E+03  0.00000000000E+00 0. -1.
          6    2    1    2  501    0 -0.51432840983E+01 -0.24988475802E+02 -0.36093307203E+03  0.40058816687E+03  0.17189333802E+03 0.  0.
         24    2    3    3    0    0  0.28242971665E+02 -0.74239184102E+02 -0.23720145718E+03  0.26321321699E+03  0.81899599528E+02 0.  0.
         -6    2    1    2    0  502  0.51432840983E+01  0.24988475802E+02 -0.87885588658E+02  0.19905211774E+03  0.17676818602E+03 0.  0.
        -24    2    5    5    0    0  0.56906788259E+02 -0.22670438815E+02 -0.76451438404E+02  0.12761219685E+03  0.81778475188E+02 0.  0.
          5    1    3    3  501    0 -0.33386255764E+02  0.49250708300E+02 -0.12373161484E+03  0.13737494988E+03  0.47000000000E+01 0. -1.
        -11    1    4    4    0    0  0.25545072824E+02 -0.58887620016E+02 -0.23904913894E+03  0.24751725872E+03  0.00000000000E+00 0.  1.
         12    1    4    4    0    0  0.26978988412E+01 -0.15351564087E+02  0.18476817568E+01  0.15695958267E+02  0.00000000000E+00 0. -1.
         -5    1    5    5    0  502 -0.51763504161E+02  0.47658914618E+02 -0.11434150254E+02  0.71439920896E+02  0.47000000000E+01 0.  1.
         11    1    6    6    0    0  0.46105151063E+02 -0.51324758772E+02 -0.39061294092E+02  0.79282409863E+02  0.00000000000E+00 0. -1.
        -12    1    6    6    0    0  0.10801637196E+02  0.28654319956E+02 -0.37390144312E+02  0.48329786984E+02  0.00000000000E+00 0.  1.
</event>
<event>
12    1  0.9246030E-003  0.2032660E+03  0.7818608E-02  0.1147306E+00
         21   -1    0    0  503  502  0.00000000000E+00  0.00000000000E+00  0.16919395723E+03  0.16919395723E+03  0.00000000000E+00 0. -1.
         21   -1    0    0  501  503 -0.00000000000E+00 -0.00000000000E+00 -0.27887480047E+03  0.27887480047E+03  0.00000000000E+00 0. -1.
          6    2    1    2  501    0  0.10625310165E+03 -0.24694575378E+01 -0.13591943540E+03  0.24452229428E+03  0.17326638350E+03 0.  0.
         24    2    3    3    0    0  0.47832919731E+02 -0.33008959540E+02 -0.57008714721E+01  0.98493039580E+02  0.79314559132E+02 0.  0.
         -6    2    1    2    0  502 -0.10625310165E+03  0.24694575378E+01  0.26238592163E+02  0.20354646342E+03  0.17160093013E+03 0.  0.
        -24    2    5    5    0    0 -0.14161886043E+03  0.97180711457E+01  0.31780983173E+02  0.16672137155E+03  0.81459451900E+02 0.  0.
          5    1    3    3  501    0  0.58420181917E+02  0.30539502002E+02 -0.13021856392E+03  0.14602925470E+03  0.47000000000E+01 0. -1.
        -13    1    4    4    0    0 -0.73595776251E+01  0.82508773826E+01  0.21684825649E+02  0.24340748219E+02  0.00000000000E+00 0.  1.
         14    1    4    4    0    0  0.55192497356E+02 -0.41259836922E+02 -0.27385697122E+02  0.74152291361E+02  0.00000000000E+00 0. -1.
         -5    1    5    5    0  502  0.35365758781E+02 -0.72486136079E+01 -0.55423910101E+01  0.36825091874E+02  0.47000000000E+01 0.  1.
         13    1    6    6    0    0 -0.78457939689E+02 -0.35058017893E+02  0.11613270827E+02  0.86715517517E+02  0.00000000000E+00 0. -1.
        -14    1    6    6    0    0 -0.63160920740E+02  0.44776089038E+02  0.20167712345E+02  0.80005854033E+02  0.00000000000E+00 0.  1.
</event>
<event>
12    1  0.9246030E-003  0.2150724E+03  0.7818608E-02  0.1137676E+00
         21   -1    0    0  503  502  0.00000000000E+00  0.00000000000E+00  0.66392990919E+02  0.66392990919E+02  0.00000000000E+00 0.  1.
         21   -1    0    0  501  503 -0.00000000000E+00 -0.00000000000E+00 -0.71972071586E+03  0.71972071586E+03  0.00000000000E+00 0.  1.
          6    2    1    2  501    0  0.12285862372E+03 -0.37246283571E+02 -0.39836867582E+03  0.45255675988E+03  0.17212928857E+03 0.  0.
         24    2    3    3    0    0  0.10247713028E+03 -0.76827626915E+02 -0.37227917463E+03  0.40074131732E+03  0.74818266868E+02 0.  0.
         -6    2    1    2    0  502 -0.12285862372E+03  0.37246283571E+02 -0.25495904912E+03  0.33355694689E+03  0.17255316001E+03 0.  0.
        -24    2    5    5    0    0 -0.67432388383E+02  0.85267300158E+02 -0.20272519171E+03  0.24339846722E+03  0.79546659319E+02 0.  0.
          5    1    3    3  501    0  0.20381493438E+02  0.39581343345E+02 -0.26089501186E+02  0.51815442561E+02  0.47000000000E+01 0. -1.
        -11    1    4    4    0    0  0.90120160154E+02 -0.24039108976E+02 -0.21428841907E+03  0.23370718554E+03  0.00000000000E+00 0.  1.
         12    1    4    4    0    0  0.12356970130E+02 -0.52788517940E+02 -0.15799075556E+03  0.16703413178E+03  0.00000000000E+00 0. -1.
         -5    1    5    5    0  502 -0.55426235339E+02 -0.48021016588E+02 -0.52233857412E+02  0.90158479679E+02  0.47000000000E+01 0.  1.
         13    1    6    6    0    0 -0.58995916458E+02  0.12334603861E+02 -0.10637667041E+03  0.12226469899E+03  0.00000000000E+00 0. -1.
        -14    1    6    6    0    0 -0.84364719246E+01  0.72932696297E+02 -0.96348521297E+02  0.12113376822E+03  0.00000000000E+00 0.  1.
</event>
<event>
12    1  0.9246030E-003  0.1735036E+03  0.7818608E-02  0.1174257E+00
         21   -1    0    0  503  502  0.00000000000E+00  0.00000000000E+00  0.15185366858E+03  0.15185366858E+03  0.00000000000E+00 0.  1.
         21   -1    0    0  501  503 -0.00000000000E+00 -0.00000000000E+00 -0.36362566053E+03  0.36362566053E+03  0.00000000000E+00 0.  1.
          6    2    1    2  501    0 -0.38586929472E+01 -0.19731856335E+02 -0.27974967864E+03  0.32918591643E+03  0.17233470112E+03 0.  0.
         24    2    3    3    0    0  0.33596770762E+02  0.34107701704E+02 -0.23492136997E+03  0.24960402760E+03  0.69440925990E+02 0.  0.
         -6    2    1    2    0  502  0.38586929472E+01  0.19731856335E+02  0.67977686694E+02  0.18629341268E+03  0.17227894258E+03 0.  0.
        -24    2    5    5    0    0  0.91273271182E+01 -0.53693706702E+02  0.22125512726E+02  0.99439606371E+02  0.80202087018E+02 0.  0.
          5    1    3    3  501    0 -0.37455463709E+02 -0.53839558039E+02 -0.44828308663E+02  0.79581888826E+02  0.47000000000E+01 0. -1.
        -11    1    4    4    0    0  0.25866936027E+02 -0.17195233781E+02 -0.66984388597E+02  0.73835511510E+02  0.00000000000E+00 0.  1.
         12    1    4    4    0    0  0.77298347354E+01  0.51302935485E+02 -0.16793698138E+03  0.17576851609E+03  0.00000000000E+00 0. -1.
         -5    1    5    5    0  502 -0.52686341710E+01  0.73425563036E+02  0.45852173968E+02  0.86853806312E+02  0.47000000000E+01 0.  1.
         11    1    6    6    0    0 -0.16457267371E+02 -0.22138768896E+02 -0.24995011139E+02  0.37225224236E+02  0.00000000000E+00 0. -1.
        -12    1    6    6    0    0  0.25584594489E+02 -0.31554937806E+02  0.47120523866E+02  0.62214382135E+02  0.00000000000E+00 0.  1.
</event>
<event>
12    1  0.9246030E-003  0.2058687E+03  0.7818608E-02  0.1145761E+00
         21   -1    0    0  503  502  0.00000000000E+00  0.00000000000E+00  0.40377668465E+03  0.40377668465E+03  0.00000000000E+00 0.  1.
         21   -1    0    0  501  503 -0.00000000000E+00 -0.00000000000E+00 -0.11034989432E+03  0.11034989432E+03  0.00000000000E+00 0. -1.
          6    2    1    2  501    0  0.18700499976E+02  0.11051193319E+03  0.21544039250E+03  0.29798741091E+03  0.17268276771E+03 0.  0.
         24    2    3    3    0    0  0.17322291045E+02  0.40873696491E+02  0.21032307889E+03  0.22798983689E+03  0.75979256241E+02 0.  0.
         -6    2    1    2    0  502 -0.18700499976E+02 -0.11051193319E+03  0.77986397829E+02  0.21613916805E+03  0.16754601053E+03 0.  0.
        -24    2    5    5    0    0  0.18000708424E+01 -0.13120561684E+03  0.27862269856E+02  0.15797543234E+03  0.83437263831E+02 0.  0.
          5    1    3    3  501    0  0.13782089305E+01  0.69638236701E+02  0.51173136137E+01  0.69997574025E+02  0.47000000000E+01 0. -1.
        -13    1    4    4    0    0  0.46708147342E+02  0.16113128007E+02  0.12511056949E+03  0.13451371127E+03  0.00000000000E+00 0.  1.
         14    1    4    4    0    0 -0.29385856296E+02  0.24760568484E+02  0.85212509400E+02  0.93476125616E+02  0.00000000000E+00 0. -1.
         -5    1    5    5    0  502 -0.20500570818E+02  0.20693683651E+02  0.50124127974E+02  0.58163735712E+02  0.47000000000E+01 0.  1.
         13    1    6    6    0    0 -0.37311143477E+01 -0.43521614308E+02 -0.29806143174E+02  0.52881549686E+02  0.00000000000E+00 0. -1.
        -14    1    6    6    0    0  0.55311851901E+01 -0.87684002534E+02  0.57668413030E+02  0.10509388265E+03  0.00000000000E+00 0.  1.
</event>
<event>
12    1  0.9246030E-003  0.2755705E+03  0.7818608E-02  0.1098135E+00
         21   -1    0    0  503  502  0.00000000000E+00  0.00000000000E+00  0.43832374559E+03  0.43832374559E+03  0.00000000000E+00 0.  1.
         21   -1    0    0  501  503 -0.00000000000E+00 -0.00000000000E+00 -0.20038302332E+03  0.20038302332E+03  0.00000000000E+00 0.  1.
          6    2    1    2  501    0  0.16264081998E+03 -0.14111056550E+03  0.14313664205E+01  0.27555971628E+03  0.17195022654E+03 0.  0.
         24    2    3    3    0    0  0.17238734308E+03 -0.14776227508E+03  0.32135314360E+02  0.24233228226E+03  0.78365621315E+02 0.  0.
         -6    2    1    2    0  502 -0.16264081998E+03  0.14111056550E+03  0.23650935584E+03  0.36314705263E+03  0.17197348171E+03 0.  0.
        -24    2    5    5    0    0 -0.77503181244E+02  0.10403155561E+03  0.66358423700E+02  0.16924836719E+03  0.86094493065E+02 0.  0.
          5    1    3    3  501    0 -0.97465230959E+01  0.66517095846E+01 -0.30703947940E+02  0.33227434026E+02  0.47000000000E+01 0. -1.
        -11    1    4    4    0    0  0.15108392638E+03 -0.98109419143E+02  0.13534093816E+01  0.18014894574E+03  0.00000000000E+00 0.  1.
         12    1    4    4    0    0  0.21303416696E+02 -0.49652855941E+02  0.30781904979E+02  0.62183336515E+02  0.00000000000E+00 0. -1.
         -5    1    5    5    0  502 -0.85137638738E+02  0.37079009893E+02  0.17015093214E+03  0.19389868544E+03  0.47000000000E+01 0.  1.
         11    1    6    6    0    0 -0.20547019325E+02 -0.12614259723E+02  0.15475390620E+01  0.24159768804E+02  0.00000000000E+00 0. -1.
        -12    1    6    6    0    0 -0.56956161919E+02  0.11664581533E+03  0.64810884638E+02  0.14508859839E+03  0.00000000000E+00 0.  1.
</event>
<event>
12    1  0.9246030E-003  0.2702504E+03  0.7818608E-02  0.1101193E+00
         21   -1    0    0  501  502  0.00000000000E+00  0.00000000000E+00  0.28075867416E+02  0.28075867416E+02  0.00000000000E+00 0.  1.
         21   -1    0    0  502  503 -0.00000000000E+00 -0.00000000000E+00 -0.29957416517E+04  0.29957416517E+04  0.00000000000E+00 0. -1.
          6    2    1    2  501    0  0.88620020393E+01  0.20825482163E+03 -0.93355093660E+03  0.97188098823E+03  0.17200784359E+03 0.  0.
         24    2    3    3    0    0  0.12604350022E+02  0.48329739053E+02 -0.20056815564E+03  0.22163044049E+03  0.79986459977E+02 0.  0.
         -6    2    1    2    0  503 -0.88620020393E+01 -0.20825482163E+03 -0.20341148477E+04  0.20519365309E+04  0.17138175918E+03 0.  0.
        -24    2    5    5    0    0  0.87682660874E+01 -0.17608362495E+03 -0.19550125376E+04  0.19646148399E+04  0.80963705617E+02 0.  0.
          5    1    3    3  501    0 -0.37423479830E+01  0.15992508258E+03 -0.73298278096E+03  0.75025054774E+03  0.47000000000E+01 0. -1.
        -13    1    4    4    0    0  0.14896973998E+02  0.69779272213E+02 -0.13642832612E+03  0.15396023783E+03  0.00000000000E+00 0.  1.
         14    1    4    4    0    0 -0.22926239759E+01 -0.21449533160E+02 -0.64139829521E+02  0.67670202663E+02  0.00000000000E+00 0. -1.
         -5    1    5    5    0  503 -0.17630268127E+02 -0.32171196681E+02 -0.79102310083E+02  0.87321690951E+02  0.47000000000E+01 0.  1.
         13    1    6    6    0    0  0.10560633116E+02 -0.12620406628E+03 -0.95544128936E+03  0.96379824171E+03  0.00000000000E+00 0. -1.
        -14    1    6    6    0    0 -0.17923670285E+01 -0.49879558671E+02 -0.99957124826E+03  0.10008165982E+04  0.00000000000E+00 0.  1.
</event>
<event>
12    1  0.9246030E-003  0.1963448E+03  0.7818608E-02  0.1152927E+00
         21   -1    0    0  501  502  0.00000000000E+00  0.00000000000E+00  0.89051867292E+02  0.89051867292E+02  0.00000000000E+00 0.  1.
         21   -1    0    0  502  503 -0.00000000000E+00 -0.00000000000E+00 -0.51983249821E+03  0.51983249821E+03  0.00000000000E+00 0.  1.
          6    2    1    2  501    0 -0.89816053327E+02 -0.28501591966E+02 -0.90265462893E+02  0.21581711470E+03  0.17190086976E+03 0.  0.
         24    2    3    3    0    0 -0.34635657933E+02 -0.80965944761E+02 -0.46827170236E+02  0.12803124101E+03  0.80275162979E+02 0.  0.
         -6    2    1    2    0  503  0.89816053327E+02  0.28501591966E+02 -0.34051516803E+03  0.39306725080E+03  0.17225568153E+03 0.  0.
        -24    2    5    5    0    0  0.52140139038E+02  0.65808942239E+02 -0.12552713626E+03  0.17158755262E+03  0.81460513754E+02 0.  0.
          5    1    3    3  501    0 -0.55180395394E+02  0.52464352795E+02 -0.43438292656E+02  0.87785873686E+02  0.47000000000E+01 0. -1.
        -11    1    4    4    0    0  0.28116620400E+01 -0.17157980182E+02  0.21273988045E+02  0.27475157774E+02  0.00000000000E+00 0.  1.
         12    1    4    4    0    0 -0.37447319973E+02 -0.63807964579E+02 -0.68101158282E+02  0.10055608324E+03  0.00000000000E+00 0. -1.
         -5    1    5    5    0  503  0.37675914289E+02 -0.37307350273E+02 -0.21498803177E+03  0.22147969818E+03  0.47000000000E+01 0.  1.
         13    1    6    6    0    0 -0.19956082326E+02  0.36516572710E+01 -0.33630700020E+02  0.39275995296E+02  0.00000000000E+00 0. -1.
        -14    1    6    6    0    0  0.72096221364E+02  0.62157284968E+02 -0.91896436238E+02  0.13231155733E+03  0.00000000000E+00 0.  1.
</event>
<event>
12    1  0.9246030E-003  0.2235584E+03  0.7818608E-02  0.1131417E+00
         21   -1    0    0  501  502  0.00000000000E+00  0.00000000000E+00  0.14442352185E+04  0.14442352185E+04  0.00000000000E+00 0.  1.
         21   -1    0    0  502  503 -0.00000000000E+00 -0.00000000000E+00 -0.42665204171E+02  0.42665204171E+02  0.00000000000E+00 0.  1.
          6    2    1    2  501    0  0.22216521331E+02  0.13961589616E+03  0.10255020071E+04  0.10494012816E+04  0.17205380219E+03 0.  0.
         24    2    3    3    0    0 -0.39207833556E+02  0.13530249694E+03  0.73927343258E+03  0.75658658987E+03  0.77807711428E+02 0.  0.
         -6    2    1    2    0  503 -0.22216521331E+02 -0.13961589616E+03  0.37606800716E+03  0.43749914106E+03  0.17318250530E+03 0.  0.
        -24    2    5    5    0    0 -0.85622142322E+01 -0.38852082601E+02  0.29085987002E+03  0.30475011899E+03  0.81794713794E+02 0.  0.
          5    1    3    3  501    0  0.61424354888E+02  0.43133992160E+01  0.28622857457E+03  0.29281469172E+03  0.47000000000E+01 0. -1.
        -13    1    4    4    0    0 -0.27469901988E+02  0.48127543724E+01  0.18165229346E+03  0.18378061334E+03  0.00000000000E+00 0.  1.
         14    1    4    4    0    0 -0.11737931569E+02  0.13048974257E+03  0.55762113911E+03  0.57280597652E+03  0.00000000000E+00 0. -1.
         -5    1    5    5    0  503 -0.13654307099E+02 -0.10076381356E+03  0.85208137139E+02  0.13274902207E+03  0.47000000000E+01 0.  1.
         13    1    6    6    0    0 -0.39410936519E+02  0.11677079519E+01  0.10551912371E+03  0.11264488860E+03  0.00000000000E+00 0. -1.
        -14    1    6    6    0    0  0.30848722286E+02 -0.40019790553E+02  0.18534074631E+03  0.19210523039E+03  0.00000000000E+00 0.  1.
</event>
<event>
12    1  0.9246030E-003  0.1814145E+03  0.7818608E-02  0.1166608E+00
         21   -1    0    0  501  502  0.00000000000E+00  0.00000000000E+00  0.19589762397E+03  0.19589762397E+03  0.00000000000E+00 0. -1.
         21   -1    0    0  502  503 -0.00000000000E+00 -0.00000000000E+00 -0.16762251823E+03  0.16762251823E+03  0.00000000000E+00 0. -1.
          6    2    1    2  501    0 -0.33710135673E+02  0.45700052858E+02  0.21307491937E+02  0.18197185074E+03  0.17156595575E+03 0.  0.
         24    2    3    3    0    0 -0.31592928808E+02  0.52616269779E+02  0.76590803106E+02  0.12601962903E+03  0.79045624693E+02 0.  0.
         -6    2    1    2    0  503  0.33710135673E+02 -0.45700052858E+02  0.69676138032E+01  0.18154829145E+03  0.17229731979E+03 0.  0.
        -24    2    5    5    0    0  0.25282870074E+02  0.36534042783E+02  0.29886936810E+02  0.95636414165E+02  0.79240992682E+02 0.  0.
          5    1    3    3  501    0 -0.21172068648E+01 -0.69162169211E+01 -0.55283311169E+02  0.55952221719E+02  0.47000000000E+01 0. -1.
        -13    1    4    4    0    0  0.26030285825E+02  0.17222058436E+02  0.15334343112E+02  0.34775237679E+02  0.00000000000E+00 0.  1.
         14    1    4    4    0    0 -0.57623214634E+02  0.35394211343E+02  0.61256459994E+02  0.91244391347E+02  0.00000000000E+00 0. -1.
         -5    1    5    5    0  503  0.84272655990E+01 -0.82234095640E+02 -0.22919323007E+02  0.85911877283E+02  0.47000000000E+01 0.  1.
         13    1    6    6    0    0 -0.17907118272E+02 -0.94657313116E+01  0.25247350142E+02  0.32368096071E+02  0.00000000000E+00 0. -1.
        -14    1    6    6    0    0  0.43189988346E+02  0.45999774094E+02  0.46395866677E+01  0.63268318094E+02  0.00000000000E+00 0.  1.
</event>
<event>
12    1  0.9602575E-003  0.1845379E+03  0.7818608E-02  0.1166227E+00
         21   -1    0    0  503  502  0.00000000000E+00  0.00000000000E+00  0.13639873179E+03  0.13639873179E+03  0.00000000000E+00 0.  1.
         21   -1    0    0  501  503 -0.00000000000E+00 -0.00000000000E+00 -0.33010591946E+03  0.33010591946E+03  0.00000000000E+00 0.  1.
          6    2    1    2  501    0 -0.12151621762E+02  0.13890610570E+02 -0.22446785229E+03  0.29058568039E+03  0.18361266285E+03 0.  0.
         24    2    3    3    0    0 -0.56102292366E+02 -0.26596826920E+02 -0.20312888283E+03  0.22695914772E+03  0.79964074971E+02 0.  0.
         -6    2    1    2    0  502  0.12151621762E+02 -0.13890610570E+02  0.30760664620E+02  0.17591897086E+03  0.17222268970E+03 0.  0.
        -24    2    5    5    0    0 -0.47658671117E+02  0.30644420723E+02  0.11548108165E+02  0.98770720895E+02  0.80074134712E+02 0.  0.
          5    1    3    3  501    0  0.43950670604E+02  0.40487437490E+02 -0.21338969466E+02  0.63626532665E+02  0.47000000000E+01 0. -1.
        -11    1    4    4    0    0 -0.21106188622E+02  0.16518478318E+02 -0.14144475504E+03  0.14396162702E+03  0.00000000000E+00 0.  1.
         12    1    4    4    0    0 -0.34996103744E+02 -0.43115305238E+02 -0.61684127784E+02  0.82997520707E+02  0.00000000000E+00 0. -1.
         -5    1    5    5    0  502  0.59810292879E+02 -0.44535031293E+02  0.19212556455E+02  0.77148249961E+02  0.47000000000E+01 0.  1.
         11    1    6    6    0    0 -0.18498494296E+01  0.99687653410E+01 -0.31190536553E+02  0.32797069927E+02  0.00000000000E+00 0. -1.
        -12    1    6    6    0    0 -0.45808821687E+02  0.20675655382E+02  0.42738644718E+02  0.65973650969E+02  0.00000000000E+00 0.  1.
</event>
<event>
12    1  0.9246030E-003  0.4113427E+03  0.7818608E-02  0.1039956E+00
         21   -1    0    0  501  502  0.00000000000E+00  0.00000000000E+00  0.13861518566E+03  0.13861518566E+03  0.00000000000E+00 0. -1.
         21   -1    0    0  502  503 -0.00000000000E+00 -0.00000000000E+00 -0.13493155035E+04  0.13493155035E+04  0.00000000000E+00 0.  1.
          6    2    1    2  501    0 -0.70636351705E+02  0.36624022949E+03 -0.37481049511E+03  0.55649411805E+03  0.17343989246E+03 0.  0.
         24    2    3    3    0    0  0.28894294334E+02  0.13517674552E+03 -0.12653576194E+03  0.20299855053E+03  0.78035118329E+02 0.  0.
         -6    2    1    2    0  503  0.70636351705E+02 -0.36624022949E+03 -0.83588982271E+03  0.93143657109E+03  0.17245547360E+03 0.  0.
        -24    2    5    5    0    0  0.47594459329E+02 -0.33174479847E+03 -0.81467225263E+03  0.88460561075E+03  0.80723995873E+02 0.  0.
          5    1    3    3  501    0 -0.99530646038E+02  0.23106348397E+03 -0.24827473316E+03  0.35349556751E+03  0.47000000000E+01 0. -1.
        -13    1    4    4    0    0 -0.37132861951E+01  0.26199900602E+02  0.72056760632E+01  0.27425263052E+02  0.00000000000E+00 0.  1.
         14    1    4    4    0    0  0.32607580529E+02  0.10897684492E+03 -0.13374143801E+03  0.17557328748E+03  0.00000000000E+00 0. -1.
         -5    1    5    5    0  503  0.23041892375E+02 -0.34495431023E+02 -0.21217570084E+02  0.46830960335E+02  0.47000000000E+01 0.  1.
         11    1    6    6    0    0  0.55706092490E+01  0.34499426012E+01 -0.10753908042E+02  0.12592868201E+02  0.00000000000E+00 0. -1.
        -12    1    6    6    0    0  0.42023850080E+02 -0.33519474107E+03 -0.80391834458E+03  0.87201274255E+03  0.00000000000E+00 0.  1.
</event>
<event>
12    1  0.9246030E-003  0.4028637E+03  0.7818608E-02  0.1042802E+00
         21   -1    0    0  503  502  0.00000000000E+00  0.00000000000E+00  0.67358248502E+03  0.67358248502E+03  0.00000000000E+00 0.  1.
         21   -1    0    0  501  503 -0.00000000000E+00 -0.00000000000E+00 -0.25622802870E+03  0.25622802870E+03  0.00000000000E+00 0. -1.
          6    2    1    2  501    0  0.14861361291E+03  0.33240065450E+03  0.94886627232E+02  0.41378274067E+03  0.17215250042E+03 0.  0.
         24    2    3    3    0    0  0.15919126073E+03  0.20163185807E+03  0.43745975836E+02  0.27289334797E+03  0.80992624870E+02 0.  0.
         -6    2    1    2    0  502 -0.14861361291E+03 -0.33240065450E+03  0.32246782909E+03  0.51602777304E+03  0.17240348227E+03 0.  0.
        -24    2    5    5    0    0 -0.15344231198E+03 -0.18121436976E+03  0.18185889250E+03  0.30945194659E+03  0.79401886319E+02 0.  0.
          5    1    3    3  501    0 -0.10577647815E+02  0.13076879642E+03  0.51140651397E+02  0.14088939270E+03  0.47000000000E+01 0. -1.
        -13    1    4    4    0    0  0.53494070459E+01  0.59103972594E+02  0.15025744770E+02  0.61218205936E+02  0.00000000000E+00 0.  1.
         14    1    4    4    0    0  0.15384185368E+03  0.14252788548E+03  0.28720231065E+02  0.21167514204E+03  0.00000000000E+00 0. -1.
         -5    1    5    5    0  502  0.48286990669E+01 -0.15118628473E+03  0.14060893659E+03  0.20657582646E+03  0.47000000000E+01 0.  1.
         13    1    6    6    0    0 -0.11224665921E+03 -0.17598859669E+03  0.14818085777E+03  0.25598606462E+03  0.00000000000E+00 0. -1.
        -14    1    6    6    0    0 -0.41195652767E+02 -0.52257730677E+01  0.33678034729E+02  0.53465881965E+02  0.00000000000E+00 0.  1.
</event>
<event>
12    1  0.9246030E-003  0.2263974E+03  0.7818608E-02  0.1129314E+00
         21   -1    0    0  503  502  0.00000000000E+00  0.00000000000E+00  0.12138864844E+03  0.12138864844E+03  0.00000000000E+00 0.  1.
         21   -1    0    0  501  503 -0.00000000000E+00 -0.00000000000E+00 -0.50010995645E+03  0.50010995645E+03  0.00000000000E+00 0.  1.
          6    2    1    2  501    0 -0.74739006220E+01 -0.14601087936E+03 -0.31267271713E+03  0.38566354015E+03  0.17203808323E+03 0.  0.
         24    2    3    3    0    0 -0.35648010246E+02 -0.56030071087E+02 -0.25288782760E+03  0.27391986325E+03  0.81668161694E+02 0.  0.
         -6    2    1    2    0  502  0.74739006220E+01  0.14601087936E+03 -0.66048590878E+02  0.23583506474E+03  0.17286042150E+03 0.  0.
        -24    2    5    5    0    0  0.26087788601E+02  0.60722795762E+02 -0.99572239760E+02  0.14220569401E+03  0.77071381445E+02 0.  0.
          5    1    3    3  501    0  0.28174109624E+02 -0.89980808275E+02 -0.59784889528E+02  0.11174367690E+03  0.47000000000E+01 0. -1.
        -13    1    4    4    0    0 -0.25582777820E+02  0.17516183403E+02 -0.77209878395E+02  0.83202527147E+02  0.00000000000E+00 0.  1.
         14    1    4    4    0    0 -0.10065232426E+02 -0.73546254491E+02 -0.17567794921E+03  0.19071733611E+03  0.00000000000E+00 0. -1.
         -5    1    5    5    0  502 -0.18613887979E+02  0.85288083600E+02  0.33523648882E+02  0.93629370735E+02  0.47000000000E+01 0.  1.
         11    1    6    6    0    0 -0.11929611630E+02 -0.13410789716E+02 -0.21746879333E+02  0.28197370004E+02  0.00000000000E+00 0. -1.
        -12    1    6    6    0    0  0.38017400231E+02  0.74133585478E+02 -0.77825360428E+02  0.11400832400E+03  0.00000000000E+00 0.  1.
</event>
<event>
12    1  0.9246030E-003  0.1736975E+03  0.7818608E-02  0.1174263E+00
         21   -1    0    0  501  502  0.00000000000E+00  0.00000000000E+00  0.68243985205E+03  0.68243985205E+03  0.00000000000E+00 0. -1.
         21   -1    0    0  502  503 -0.00000000000E+00 -0.00000000000E+00 -0.56609136250E+02  0.56609136250E+02  0.00000000000E+00 0. -1.
          6    2    1    2  501    0 -0.20051067745E+02 -0.33258458983E+01  0.48795848879E+03  0.51795201686E+03  0.17250419827E+03 0.  0.
         24    2    3    3    0    0  0.95284385257E+01  0.55272038048E+02  0.20095496520E+03  0.22350037101E+03  0.80148165733E+02 0.  0.
         -6    2    1    2    0  503  0.20051067745E+02  0.33258458983E+01  0.13787222701E+03  0.22109697144E+03  0.17164502099E+03 0.  0.
        -24    2    5    5    0    0 -0.28995644937E+02  0.34728221888E+02  0.13426587225E+03  0.16255822327E+03  0.79693504635E+02 0.  0.
          5    1    3    3  501    0 -0.29579506270E+02 -0.58597883946E+02  0.28700352359E+03  0.29445164585E+03  0.47000000000E+01 0. -1.
        -11    1    4    4    0    0 -0.20462968108E+02  0.38470663741E+02  0.17522274610E+03  0.18055950760E+03  0.00000000000E+00 0.  1.
         12    1    4    4    0    0  0.29991406634E+02  0.16801374307E+02  0.25732219098E+02  0.42940863407E+02  0.00000000000E+00 0. -1.
         -5    1    5    5    0  503  0.49046712682E+02 -0.31402375990E+02  0.36063547631E+01  0.58538748171E+02  0.47000000000E+01 0.  1.
         11    1    6    6    0    0  0.25218078194E+02 -0.14482904042E+01  0.26452546745E+02  0.36575760309E+02  0.00000000000E+00 0. -1.
        -12    1    6    6    0    0 -0.54213723131E+02  0.36176512293E+02  0.10781332550E+03  0.12598246296E+03  0.00000000000E+00 0.  1.
</event>
<event>
12    1  0.9246030E-003  0.2116376E+03  0.7818608E-02  0.1140296E+00
         21   -1    0    0  501  502  0.00000000000E+00  0.00000000000E+00  0.42226031864E+02  0.42226031864E+02  0.00000000000E+00 0. -1.
         21   -1    0    0  502  503 -0.00000000000E+00 -0.00000000000E+00 -0.10972449623E+04  0.10972449623E+04  0.00000000000E+00 0.  1.
          6    2    1    2  501    0 -0.10940614398E+03  0.57311014118E+02 -0.42270504420E+03  0.47267917595E+03  0.17173174520E+03 0.  0.
         24    2    3    3    0    0 -0.12641415018E+03  0.69547584081E+02 -0.42004532257E+03  0.45104193864E+03  0.78634302862E+02 0.  0.
         -6    2    1    2    0  503  0.10940614398E+03 -0.57311014118E+02 -0.63231388624E+03  0.66679181821E+03  0.17186105267E+03 0.  0.
        -24    2    5    5    0    0  0.11439281097E+02  0.11243657030E+02 -0.36140613911E+03  0.37063249181E+03  0.80602541052E+02 0.  0.
          5    1    3    3  501    0  0.17008006197E+02 -0.12236569963E+02 -0.26597216311E+01  0.21637237310E+02  0.47000000000E+01 0. -1.
        -11    1    4    4    0    0 -0.30852736527E+02  0.13474554136E+02 -0.21823757488E+03  0.22081914330E+03  0.00000000000E+00 0.  1.
         12    1    4    4    0    0 -0.95561413654E+02  0.56073029945E+02 -0.20180774769E+03  0.23022279534E+03  0.00000000000E+00 0. -1.
         -5    1    5    5    0  503  0.97966862886E+02 -0.68554671148E+02 -0.27090774713E+03  0.29615932640E+03  0.47000000000E+01 0.  1.
         11    1    6    6    0    0  0.18780839680E+02 -0.32196042372E+02 -0.13939120594E+03  0.14428864605E+03  0.00000000000E+00 0. -1.
        -12    1    6    6    0    0 -0.73415585829E+01  0.43439699402E+02 -0.22201493317E+03  0.22634384576E+03  0.00000000000E+00 0.  1.
</event>
<event>
12    1  0.9246030E-003  0.2912480E+03  0.7818608E-02  0.1089983E+00
         21   -1    0    0  503  502  0.00000000000E+00  0.00000000000E+00  0.15110996457E+03  0.15110996457E+03  0.00000000000E+00 0.  1.
         21   -1    0    0  501  503 -0.00000000000E+00 -0.00000000000E+00 -0.55839848196E+03  0.55839848196E+03  0.00000000000E+00 0.  1.
          6    2    1    2  501    0 -0.16049159630E+03  0.16725193374E+03 -0.18616002141E+03  0.34382660854E+03  0.17271485561E+03 0.  0.
         24    2    3    3    0    0 -0.71249751802E+02  0.14237134008E+03 -0.17619865167E+03  0.25052886132E+03  0.79828690928E+02 0.  0.
         -6    2    1    2    0  502  0.16049159630E+03 -0.16725193374E+03 -0.22112849598E+03  0.36568183799E+03  0.17633670372E+03 0.  0.
        -24    2    5    5    0    0  0.10569117269E+03 -0.69680747496E+02 -0.48378085606E+02  0.15979833429E+03  0.84670171357E+02 0.  0.
          5    1    3    3  501    0 -0.89241844498E+02  0.24880593660E+02 -0.99613697367E+01  0.93297747225E+02  0.47000000000E+01 0. -1.
        -11    1    4    4    0    0 -0.30985665479E+02  0.64075930420E+02 -0.24761891997E+02  0.75359057980E+02  0.00000000000E+00 0.  1.
         12    1    4    4    0    0 -0.40264086323E+02  0.78295409659E+02 -0.15143675967E+03  0.17516980334E+03  0.00000000000E+00 0. -1.
         -5    1    5    5    0  502  0.54800423610E+02 -0.97571186243E+02 -0.17275041038E+03  0.20588350371E+03  0.47000000000E+01 0.  1.
         13    1    6    6    0    0 -0.30620511399E+01  0.14437245112E+02 -0.34629089621E+01  0.15159219706E+02  0.00000000000E+00 0. -1.
        -14    1    6    6    0    0  0.10875322383E+03 -0.84117992608E+02 -0.44915176643E+02  0.14463911458E+03  0.00000000000E+00 0.  1.
</event>
<event>
12    1  0.9246030E-003  0.3165857E+03  0.7818608E-02  0.1077361E+00
         21   -1    0    0  503  502  0.00000000000E+00  0.00000000000E+00  0.92896571073E+03  0.92896571073E+03  0.00000000000E+00 0. -1.
         21   -1    0    0  501  503 -0.00000000000E+00 -0.00000000000E+00 -0.13462666453E+03  0.13462666453E+03  0.00000000000E+00 0.  1.
          6    2    1    2  501    0  0.88601623084E+02  0.24996506476E+03  0.15907189531E+03  0.35430264256E+03  0.17289798562E+03 0.  0.
         24    2    3    3    0    0 -0.39767400825E+01  0.11088596497E+03  0.22596713917E+02  0.13852193336E+03  0.79788488226E+02 0.  0.
         -6    2    1    2    0  502 -0.88601623084E+02 -0.24996506476E+03  0.63526715090E+03  0.70928973270E+03  0.17086483167E+03 0.  0.
        -24    2    5    5    0    0 -0.86864474404E+02 -0.80865008832E+02  0.37503062904E+03  0.39889807060E+03  0.66235273374E+02 0.  0.
          5    1    3    3  501    0  0.92578363167E+02  0.13907909979E+03  0.13647518139E+03  0.21578070920E+03  0.47000000000E+01 0. -1.
        -13    1    4    4    0    0  0.34468397427E+02  0.79386194890E+02  0.91192917535E+01  0.87025282777E+02  0.00000000000E+00 0.  1.
         14    1    4    4    0    0 -0.38445137510E+02  0.31499770076E+02  0.13477422164E+02  0.51496650582E+02  0.00000000000E+00 0. -1.
         -5    1    5    5    0  502 -0.17371486803E+01 -0.16910005593E+03  0.26023652185E+03  0.31039166211E+03  0.47000000000E+01 0.  1.
         13    1    6    6    0    0 -0.32496412488E+02 -0.60461945544E+02  0.12920315480E+03  0.14630488336E+03  0.00000000000E+00 0. -1.
        -14    1    6    6    0    0 -0.54368061916E+02 -0.20403063288E+02  0.24582747424E+03  0.25259318724E+03  0.00000000000E+00 0.  1.
</event>
<event>
12    1  0.9246030E-003  0.1763186E+03  0.7818608E-02  0.1172294E+00
         21   -1    0    0  501  502  0.00000000000E+00  0.00000000000E+00  0.97522149614E+02  0.97522149614E+02  0.00000000000E+00 0.  1.
         21   -1    0    0  502  503 -0.00000000000E+00 -0.00000000000E+00 -0.39816953974E+03  0.39816953974E+03  0.00000000000E+00 0.  1.
          6    2    1    2  501    0 -0.18878672640E+02 -0.28168313672E+02 -0.36535574673E+02  0.18006416224E+03  0.17302715432E+03 0.  0.
         24    2    3    3    0    0  0.53531593401E+02  0.39988081070E+01 -0.26141883201E+02  0.10001362087E+03  0.80235306095E+02 0.  0.
         -6    2    1    2    0  503  0.18878672640E+02  0.28168313672E+02 -0.26411181545E+03  0.31562752711E+03  0.16945744785E+03 0.  0.
        -24    2    5    5    0    0 -0.15322626935E+02  0.62404051902E+02 -0.89852399886E+02  0.13471249573E+03  0.77103528785E+02 0.  0.
          5    1    3    3  501    0 -0.72410266041E+02 -0.32167121779E+02 -0.10393691472E+02  0.80050541373E+02  0.47000000000E+01 0. -1.
        -13    1    4    4    0    0 -0.15539568523E+02  0.67907204863E+00  0.13247421490E+02  0.20431189512E+02  0.00000000000E+00 0.  1.
         14    1    4    4    0    0  0.69071161924E+02  0.33197360583E+01 -0.39389304691E+02  0.79582431360E+02  0.00000000000E+00 0. -1.
         -5    1    5    5    0  503  0.34201299575E+02 -0.34235738230E+02 -0.17425941557E+03  0.18091503138E+03  0.47000000000E+01 0.  1.
         11    1    6    6    0    0  0.20734778653E+02  0.26096954999E+01 -0.50288193823E+02  0.54457726673E+02  0.00000000000E+00 0. -1.
        -12    1    6    6    0    0 -0.36057405589E+02  0.59794356402E+02 -0.39564206063E+02  0.80254769059E+02  0.00000000000E+00 0.  1.
</event>
<event>
12    1  0.9246030E-003  0.1731659E+03  0.7818608E-02  0.1175185E+00
         21   -1    0    0  503  502  0.00000000000E+00  0.00000000000E+00  0.68606301216E+02  0.68606301216E+02  0.00000000000E+00 0.  1.
         21   -1    0    0  501  503 -0.00000000000E+00 -0.00000000000E+00 -0.44978923556E+03  0.44978923556E+03  0.00000000000E+00 0.  1.
          6    2    1    2  501    0  0.12524364205E+01 -0.13326308211E+02 -0.13914023547E+03  0.22214058695E+03  0.17264783856E+03 0.  0.
         24    2    3    3    0    0 -0.55016489622E+02  0.15410649537E+01 -0.37637131732E+02  0.10504147982E+03  0.81166309430E+02 0.  0.
         -6    2    1    2    0  502 -0.12524364205E+01  0.13326308211E+02 -0.24204269888E+03  0.29625494983E+03  0.17030316535E+03 0.  0.
        -24    2    5    5    0    0 -0.92693973522E+01  0.73783366086E+02 -0.15442922000E+03  0.18940206409E+03  0.80590638737E+02 0.  0.
          5    1    3    3  501    0  0.56268926043E+02 -0.14867373164E+02 -0.10150310374E+03  0.11709910713E+03  0.47000000000E+01 0. -1.
        -13    1    4    4    0    0 -0.41328505919E+02 -0.25873758731E+02  0.86598493926E+01  0.49522618912E+02  0.00000000000E+00 0.  1.
         14    1    4    4    0    0 -0.13687983703E+02  0.27414823684E+02 -0.46296981124E+02  0.55518860910E+02  0.00000000000E+00 0. -1.
         -5    1    5    5    0  502  0.80169609317E+01 -0.60457057876E+02 -0.87613478876E+02  0.10685288574E+03  0.47000000000E+01 0.  1.
         11    1    6    6    0    0  0.21183645938E+02 -0.16960508940E+01 -0.97084468515E+01  0.23364019006E+02  0.00000000000E+00 0. -1.
        -12    1    6    6    0    0 -0.30453043290E+02  0.75479416980E+02 -0.14472077315E+03  0.16603804508E+03  0.00000000000E+00 0.  1.
</event>
<event>
12    1  0.9246030E-003  0.2031975E+03  0.7818608E-02  0.1149854E+00
         21   -1    0    0  503  502  0.00000000000E+00  0.00000000000E+00  0.17538679086E+04  0.17538679086E+04  0.00000000000E+00 0.  1.
         21   -1    0    0  501  503 -0.00000000000E+00 -0.00000000000E+00 -0.56198827087E+02  0.56198827087E+02  0.00000000000E+00 0.  1.
          6    2    1    2  501    0  0.83519799470E+02 -0.81072737539E+01  0.15460650244E+03  0.25532804487E+03  0.18506203044E+03 0.  0.
         24    2    3    3    0    0  0.11752857755E+03 -0.15411461697E+02  0.16553023717E+03  0.21856711278E+03  0.79503733741E+02 0.  0.
         -6    2    1    2    0  502 -0.83519799470E+02  0.81072737539E+01  0.15430625791E+04  0.15547386909E+04  0.17067216818E+03 0.  0.
        -24    2    5    5    0    0 -0.20135930884E+02 -0.44702648354E+02  0.53356716840E+03  0.54186679524E+03  0.80758393437E+02 0.  0.
          5    1    3    3  501    0 -0.34008778082E+02  0.73041879429E+01 -0.10923734726E+02  0.36760932095E+02  0.47000000000E+01 0. -1.
        -13    1    4    4    0    0  0.16656850044E+02  0.21044163918E+02  0.80299148735E+01  0.28014050426E+02  0.00000000000E+00 0.  1.
         14    1    4    4    0    0  0.10087172751E+03 -0.36455625615E+02  0.15750032229E+03  0.19055306235E+03  0.00000000000E+00 0. -1.
         -5    1    5    5    0  502 -0.63383868586E+02  0.52809922108E+02  0.10094954107E+04  0.10128718956E+04  0.47000000000E+01 0.  1.
         13    1    6    6    0    0 -0.16137944702E+02 -0.67294966386E+02  0.44632857848E+03  0.45166164961E+03  0.00000000000E+00 0. -1.
        -14    1    6    6    0    0 -0.39979861820E+01  0.22592318032E+02  0.87238589921E+02  0.90205145635E+02  0.00000000000E+00 0.  1.
</event>
<event>
12    1  0.9246030E-003  0.1891480E+03  0.7818608E-02  0.1161051E+00
         21   -1    0    0  503  502  0.00000000000E+00  0.00000000000E+00  0.83303917523E+03  0.83303917523E+03  0.00000000000E+00 0.  1.
         21   -1    0    0  501  503 -0.00000000000E+00 -0.00000000000E+00 -0.41721500590E+02  0.41721500590E+02  0.00000000000E+00 0. -1.
          6    2    1    2  501    0 -0.60081386049E+02  0.41832406188E+02  0.43693037491E+03  0.47305515020E+03  0.16587133404E+03 0.  0.
         24    2    3    3    0    0 -0.73507009710E+02  0.45556706860E+01  0.15933591591E+03  0.19260804993E+03  0.79283618663E+02 0.  0.
         -6    2    1    2    0  502  0.60081386049E+02 -0.41832406188E+02  0.35438729973E+03  0.40170552562E+03  0.17440541261E+03 0.  0.
        -24    2    5    5    0    0  0.93636527825E+01 -0.49557560497E+02  0.83629252952E+02  0.12608989404E+03  0.79757003666E+02 0.  0.
          5    1    3    3  501    0  0.13425623662E+02  0.37276735502E+02  0.27759445900E+03  0.28044710027E+03  0.47000000000E+01 0. -1.
        -11    1    4    4    0    0 -0.28600743640E+02 -0.29906663196E+02  0.10997669640E+03  0.11750440329E+03  0.00000000000E+00 0.  1.
         12    1    4    4    0    0 -0.44906266070E+02  0.34462333882E+02  0.49359219503E+02  0.75103646642E+02  0.00000000000E+00 0. -1.
         -5    1    5    5    0  502  0.50717733266E+02  0.77251543092E+01  0.27075804678E+03  0.27561563158E+03  0.47000000000E+01 0.  1.
         13    1    6    6    0    0  0.42639384141E+02 -0.14621318662E+02  0.31090575807E+02  0.54758779600E+02  0.00000000000E+00 0. -1.
        -14    1    6    6    0    0 -0.33275731358E+02 -0.34936241835E+02  0.52538677145E+02  0.71331114439E+02  0.00000000000E+00 0.  1.
</event>
<event>
12    1  0.9246030E-003  0.2312199E+03  0.7818608E-02  0.1126532E+00
         21   -1    0    0  501  502  0.00000000000E+00  0.00000000000E+00  0.41700680335E+02  0.41700680335E+02  0.00000000000E+00 0. -1.
         21   -1    0    0  502  503 -0.00000000000E+00 -0.00000000000E+00 -0.14585626357E+04  0.14585626357E+04  0.00000000000E+00 0.  1.
          6    2    1    2  501    0 -0.73387274706E+02 -0.13176006739E+03 -0.42508801355E+03  0.48189294989E+03  0.16963074144E+03 0.  0.
         24    2    3    3    0    0 -0.90330491496E+02 -0.41969842203E+02 -0.31037972517E+03  0.33516381659E+03  0.77962457690E+02 0.  0.
         -6    2    1    2    0  503  0.73387274706E+02  0.13176006739E+03 -0.99177394178E+03  0.10183703661E+04  0.17526050192E+03 0.  0.
        -24    2    5    5    0    0  0.64162739525E+02  0.10134905316E+03 -0.96780752903E+03  0.97829043627E+03  0.77538872431E+02 0.  0.
          5    1    3    3  501    0  0.16943216790E+02 -0.89790225186E+02 -0.11470828839E+03  0.14672913330E+03  0.47000000000E+01 0. -1.
        -11    1    4    4    0    0 -0.69371939497E+02 -0.59797273455E+02 -0.27786231511E+03  0.29256733594E+03  0.00000000000E+00 0.  1.
         12    1    4    4    0    0 -0.20958551998E+02  0.17827431251E+02 -0.32517410058E+02  0.42596480650E+02  0.00000000000E+00 0. -1.
         -5    1    5    5    0  503  0.92245351807E+01  0.30411014226E+02 -0.23966412745E+02  0.40079929833E+02  0.47000000000E+01 0.  1.
         11    1    6    6    0    0  0.71396009469E+02  0.10605530757E+03 -0.79038849071E+03  0.80066165430E+03  0.00000000000E+00 0. -1.
        -12    1    6    6    0    0 -0.72332699445E+01 -0.47062544039E+01 -0.17741903832E+03  0.17762878197E+03  0.00000000000E+00 0.  1.
</event>
<event>
12    1  0.9246030E-003  0.2255081E+03  0.7818608E-02  0.1129871E+00
         21   -1    0    0  501  502  0.00000000000E+00  0.00000000000E+00  0.67891433195E+03  0.67891433195E+03  0.00000000000E+00 0.  1.
         21   -1    0    0  502  503 -0.00000000000E+00 -0.00000000000E+00 -0.78968225621E+02  0.78968225621E+02  0.00000000000E+00 0. -1.
          6    2    1    2  501    0  0.11594139077E+03 -0.89540486376E+02  0.38659284429E+03  0.44755774351E+03  0.17144678977E+03 0.  0.
         24    2    3    3    0    0  0.58731486029E+02  0.32939631085E+01  0.27162863236E+03  0.28903308221E+03  0.79358497055E+02 0.  0.
         -6    2    1    2    0  503 -0.11594139077E+03  0.89540486376E+02  0.21335326204E+03  0.31032481407E+03  0.17123659366E+03 0.  0.
        -24    2    5    5    0    0 -0.12562974387E+03  0.29449254103E+02  0.19630413364E+03  0.24694040620E+03  0.76119381353E+02 0.  0.
          5    1    3    3  501    0  0.57209904741E+02 -0.92834449485E+02  0.11496421194E+03  0.15852466129E+03  0.47000000000E+01 0. -1.
        -11    1    4    4    0    0  0.16534478469E+02  0.39473237743E+02  0.10537749480E+03  0.11373628219E+03  0.00000000000E+00 0.  1.
         12    1    4    4    0    0  0.42197007560E+02 -0.36179274635E+02  0.16625113756E+03  0.17529680002E+03  0.00000000000E+00 0. -1.
         -5    1    5    5    0  503  0.96883530965E+01  0.60091232273E+02  0.17049128399E+02  0.63384407870E+02  0.47000000000E+01 0.  1.
         13    1    6    6    0    0  0.94641158252E+01  0.45696893500E+01  0.26649459047E+02  0.28646905882E+02  0.00000000000E+00 0. -1.
        -14    1    6    6    0    0 -0.13509385969E+03  0.24879564753E+02  0.16965467459E+03  0.21829350031E+03  0.00000000000E+00 0.  1.
</event>
<event>
12    1  0.9246030E-003  0.1890643E+03  0.7818608E-02  0.1159757E+00
         21   -1    0    0  501  502  0.00000000000E+00  0.00000000000E+00  0.16169507676E+04  0.16169507676E+04  0.00000000000E+00 0.  1.
         21   -1    0    0  502  503 -0.00000000000E+00 -0.00000000000E+00 -0.21890407894E+02  0.21890407894E+02  0.00000000000E+00 0.  1.
          6    2    1    2  501    0  0.71240364862E+02 -0.26500303306E+02  0.77309738817E+03  0.79541457937E+03  0.17096001232E+03 0.  0.
         24    2    3    3    0    0  0.91240771871E+02  0.22650203252E+02  0.39119409783E+03  0.40981374722E+03  0.77952389818E+02 0.  0.
         -6    2    1    2    0  503 -0.71240364862E+02  0.26500303306E+02  0.82196297154E+03  0.84342659613E+03  0.17311222031E+03 0.  0.
        -24    2    5    5    0    0  0.28797324148E+02  0.16192758629E+02  0.31476629844E+03  0.32633439942E+03  0.79528776549E+02 0.  0.
          5    1    3    3  501    0 -0.20000407009E+02 -0.49150506558E+02  0.38190329035E+03  0.38560083215E+03  0.47000000000E+01 0. -1.
        -11    1    4    4    0    0  0.66624799962E+02 -0.22518340954E+02  0.21029391297E+03  0.22174189834E+03  0.00000000000E+00 0.  1.
         12    1    4    4    0    0  0.24615971910E+02  0.45168544207E+02  0.18090018486E+03  0.18807184888E+03  0.00000000000E+00 0. -1.
         -5    1    5    5    0  503 -0.10003768901E+03  0.10307544677E+02  0.50719667310E+03  0.51709219671E+03  0.47000000000E+01 0.  1.
         11    1    6    6    0    0  0.10207292224E+02  0.48094551704E+02  0.17554546957E+03  0.18230053923E+03  0.00000000000E+00 0. -1.
        -12    1    6    6    0    0  0.18590031923E+02 -0.31901793075E+02  0.13922082887E+03  0.14403386019E+03  0.00000000000E+00 0.  1.
</event>
<event>
12    1  0.9246030E-003  0.1931329E+03  0.7818608E-02  0.1156940E+00
         21   -1    0    0  501  502  0.00000000000E+00  0.00000000000E+00  0.68469076628E+02  0.68469076628E+02  0.00000000000E+00 0. -1.
         21   -1    0    0  502  503 -0.00000000000E+00 -0.00000000000E+00 -0.53506635942E+03  0.53506635942E+03  0.00000000000E+00 0. -1.
          6    2    1    2  501    0  0.48349397650E+02 -0.59240881691E+02 -0.19737619042E+03  0.27220431312E+03  0.17114520507E+03 0.  0.
         24    2    3    3    0    0  0.71082519193E+02 -0.57868967779E+02 -0.21236614401E+03  0.24453726284E+03  0.79357115787E+02 0.  0.
         -6    2    1    2    0  503 -0.48349397650E+02  0.59240881691E+02 -0.26922109237E+03  0.33133112292E+03  0.17735041620E+03 0.  0.
        -24    2    5    5    0    0 -0.39127753104E+02 -0.14693123242E+02 -0.23022880350E+03  0.24710663477E+03  0.79432474800E+02 0.  0.
          5    1    3    3  501    0 -0.22733121544E+02 -0.13719139124E+01  0.14989953589E+02  0.27667050286E+02  0.47000000000E+01 0. -1.
        -13    1    4    4    0    0  0.40625686134E+02  0.10379996619E+02 -0.46513560914E+02  0.62623494414E+02  0.00000000000E+00 0.  1.
         14    1    4    4    0    0  0.30456833059E+02 -0.68248964397E+02 -0.16585258310E+03  0.18191376842E+03  0.00000000000E+00 0. -1.
         -5    1    5    5    0  503 -0.92216445454E+01  0.73934004933E+02 -0.38992288865E+02  0.84224488152E+02  0.47000000000E+01 0.  1.
         11    1    6    6    0    0 -0.37356192207E+02  0.22936566502E+02 -0.70672642546E+02  0.83163655425E+02  0.00000000000E+00 0. -1.
        -12    1    6    6    0    0 -0.17715608970E+01 -0.37629689745E+02 -0.15955616096E+03  0.16394297935E+03  0.00000000000E+00 0.  1.
</event>
<event>
12    1  0.9246030E-003  0.1956347E+03  0.7818608E-02  0.1153568E+00
         21   -1    0    0  503  502  0.00000000000E+00  0.00000000000E+00  0.32384739653E+02  0.32384739653E+02  0.00000000000E+00 0. -1.
         21   -1    0    0  501  503 -0.00000000000E+00 -0.00000000000E+00 -0.12011027837E+04  0.12011027837E+04  0.00000000000E+00 0.  1.
          6    2    1    2  501    0  0.57449787874E+02  0.71813971659E+02 -0.66691962869E+03  0.69490180685E+03  0.17218886544E+03 0.  0.
         24    2    3    3    0    0  0.99282772736E+02  0.37109408252E+02 -0.36056977989E+03  0.38373187707E+03  0.77494581505E+02 0.  0.
         -6    2    1    2    0  502 -0.57449787874E+02 -0.71813971659E+02 -0.50179841537E+03  0.53858571651E+03  0.17267078419E+03 0.  0.
        -24    2    5    5    0    0 -0.41860873313E+02  0.33926989631E+02 -0.21185633619E+03  0.22953448382E+03  0.69997133786E+02 0.  0.
          5    1    3    3  501    0 -0.41832984861E+02  0.34704563407E+02 -0.30634984879E+03  0.31116992978E+03  0.47000000000E+01 0. -1.
        -13    1    4    4    0    0 -0.10998058980E+02  0.11066371437E+01 -0.69874062029E+02  0.70742960721E+02  0.00000000000E+00 0.  1.
         14    1    4    4    0    0  0.11028083172E+03  0.36002771108E+02 -0.29069571786E+03  0.31298891634E+03  0.00000000000E+00 0. -1.
         -5    1    5    5    0  502 -0.15588914561E+02 -0.10574096129E+03 -0.28994207918E+03  0.30905123269E+03  0.47000000000E+01 0.  1.
         13    1    6    6    0    0  0.19280827936E+02  0.38055598797E+01 -0.37684313572E+02  0.42501060002E+02  0.00000000000E+00 0. -1.
        -14    1    6    6    0    0 -0.61141701249E+02  0.30121429752E+02 -0.17417202262E+03  0.18703342382E+03  0.00000000000E+00 0.  1.
</event>
<event>
12    1  0.9246030E-003  0.2151820E+03  0.7818608E-02  0.1137718E+00
         21   -1    0    0  501  502  0.00000000000E+00  0.00000000000E+00  0.25935384438E+04  0.25935384438E+04  0.00000000000E+00 0.  1.
         21   -1    0    0  502  503 -0.00000000000E+00 -0.00000000000E+00 -0.17779935559E+02  0.17779935559E+02  0.00000000000E+00 0.  1.
          6    2    1    2  501    0  0.24319749387E+02 -0.12595439390E+03  0.13140580214E+04  0.13313998592E+04  0.17152592247E+03 0.  0.
         24    2    3    3    0    0  0.17709883158E+02 -0.14289789563E+03  0.78690352558E+03  0.80391078350E+03  0.79510632749E+02 0.  0.
         -6    2    1    2    0  503 -0.24319749387E+02  0.12595439390E+03  0.12617004869E+04  0.12799185202E+04  0.17276382736E+03 0.  0.
        -24    2    5    5    0    0 -0.39510120787E+02  0.93414021750E+01  0.36691327138E+03  0.37742442694E+03  0.78584590742E+02 0.  0.
          5    1    3    3  501    0  0.66098662294E+01  0.16943501735E+02  0.52715449580E+03  0.52748907574E+03  0.47000000000E+01 0. -1.
        -11    1    4    4    0    0  0.45622519360E+02 -0.79470093449E+02  0.52804780386E+03  0.53593972906E+03  0.00000000000E+00 0.  1.
         12    1    4    4    0    0 -0.27912636202E+02 -0.63427802186E+02  0.25885572172E+03  0.26797105444E+03  0.00000000000E+00 0. -1.
         -5    1    5    5    0  503  0.15190371400E+02  0.11661299172E+03  0.89478721553E+03  0.90249409322E+03  0.47000000000E+01 0.  1.
         13    1    6    6    0    0 -0.62048205252E+02  0.15856255132E+02  0.29122532445E+03  0.29818381948E+03  0.00000000000E+00 0. -1.
        -14    1    6    6    0    0  0.22538084465E+02 -0.65148529572E+01  0.75687946931E+02  0.79240607462E+02  0.00000000000E+00 0.  1.
</event>
<event>
12    1  0.9246030E-003  0.1977354E+03  0.7818608E-02  0.1151908E+00
         21   -1    0    0  503  502  0.00000000000E+00  0.00000000000E+00  0.48911891445E+03  0.48911891445E+03  0.00000000000E+00 0.  1.
         21   -1    0    0  501  503 -0.00000000000E+00 -0.00000000000E+00 -0.86055053825E+02  0.86055053825E+02  0.00000000000E+00 0. -1.
          6    2    1    2  501    0  0.61892726723E+01 -0.98139888290E+02  0.12256825325E+03  0.23264191020E+03  0.17155039174E+03 0.  0.
         24    2    3    3    0    0  0.36206517877E+02 -0.59012353086E+02  0.14357135751E+03  0.17883466710E+03  0.81090897796E+02 0.  0.
         -6    2    1    2    0  502 -0.61892726723E+01  0.98139888290E+02  0.28049560737E+03  0.34253205807E+03  0.17023712956E+03 0.  0.
        -24    2    5    5    0    0 -0.41350421364E+01 -0.64344921447E+01  0.15201915228E+03  0.17679639377E+03  0.89936871916E+02 0.  0.
          5    1    3    3  501    0 -0.30017245205E+02 -0.39127535203E+02 -0.21003104267E+02  0.53807243096E+02  0.47000000000E+01 0. -1.
        -11    1    4    4    0    0  0.35027389852E+02 -0.78690790715E+02  0.12461020847E+03  0.15148221888E+03  0.00000000000E+00 0.  1.
         12    1    4    4    0    0  0.11791280252E+01  0.19678437629E+02  0.18961149047E+02  0.27352448220E+02  0.00000000000E+00 0. -1.
         -5    1    5    5    0  502 -0.20542305360E+01  0.10457438043E+03  0.12847645510E+03  0.16573566430E+03  0.47000000000E+01 0.  1.
         13    1    6    6    0    0 -0.32377246948E+02  0.29881201393E+02  0.68525547148E+02  0.81467312025E+02  0.00000000000E+00 0. -1.
        -14    1    6    6    0    0  0.28242204812E+02 -0.36315693538E+02  0.83493605129E+02  0.95329081749E+02  0.00000000000E+00 0.  1.
</event>
<event>
12    1  0.9246030E-003  0.2710495E+03  0.7818608E-02  0.1100796E+00
         21   -1    0    0  501  502  0.00000000000E+00  0.00000000000E+00  0.57901234578E+03  0.57901234578E+03  0.00000000000E+00 0.  1.
         21   -1    0    0  502  503 -0.00000000000E+00 -0.00000000000E+00 -0.13521977063E+03  0.13521977063E+03  0.00000000000E+00 0. -1.
          6    2    1    2  501    0  0.51318053289E+02 -0.20234126122E+03  0.31286200918E+03  0.41394503525E+03  0.17289397570E+03 0.  0.
         24    2    3    3    0    0  0.85524396780E+02 -0.19609787080E+03  0.28668758322E+03  0.37017010597E+03  0.95222579273E+02 0.  0.
         -6    2    1    2    0  503 -0.51318053289E+02  0.20234126122E+03  0.13093056597E+03  0.30028708116E+03  0.17162164613E+03 0.  0.
        -24    2    5    5    0    0  0.29132843703E+01  0.17948206254E+03  0.13808862590E+03  0.24081516535E+03  0.81860718674E+02 0.  0.
          5    1    3    3  501    0 -0.34206343492E+02 -0.62433904187E+01  0.26174425959E+02  0.43774929278E+02  0.47000000000E+01 0. -1.
        -13    1    4    4    0    0  0.31756669535E+02 -0.12807739129E+03  0.23419987563E+03  0.26881571004E+03  0.00000000000E+00 0.  1.
         14    1    4    4    0    0  0.53767727245E+02 -0.68020479517E+02  0.52487707593E+02  0.10135439593E+03  0.00000000000E+00 0. -1.
         -5    1    5    5    0  503 -0.54231337659E+02  0.22859198688E+02 -0.71580599255E+01  0.59471915816E+02  0.47000000000E+01 0.  1.
         11    1    6    6    0    0  0.38424980999E+02  0.93732160842E+02  0.50471342831E+02  0.11317929841E+03  0.00000000000E+00 0. -1.
        -12    1    6    6    0    0 -0.35511696628E+02  0.85749901693E+02  0.87617283066E+02  0.12763586694E+03  0.00000000000E+00 0.  1.
</event>
<event>
12    1  0.9246030E-003  0.2024888E+03  0.7818608E-02  0.1147720E+00
         21   -1    0    0  503  502  0.00000000000E+00  0.00000000000E+00  0.49388837827E+02  0.49388837827E+02  0.00000000000E+00 0. -1.
         21   -1    0    0  501  503 -0.00000000000E+00 -0.00000000000E+00 -0.88706543969E+03  0.88706543969E+03  0.00000000000E+00 0. -1.
          6    2    1    2  501    0 -0.10593606625E+03 -0.75657242199E+01 -0.53842154968E+03  0.57512989051E+03  0.17203759906E+03 0.  0.
         24    2    3    3    0    0 -0.62925400391E+02  0.60847516475E+02 -0.27548376729E+03  0.30001417615E+03  0.80344094860E+02 0.  0.
         -6    2    1    2    0  502  0.10593606625E+03  0.75657242199E+01 -0.29925505219E+03  0.36132438700E+03  0.17240080066E+03 0.  0.
        -24    2    5    5    0    0  0.10646990084E+03  0.14833493465E+02 -0.11283095757E+03  0.17469872290E+03  0.78949011926E+02 0.  0.
          5    1    3    3  501    0 -0.43010665863E+02 -0.68413240695E+02 -0.26293778239E+03  0.27511571436E+03  0.47000000000E+01 0. -1.
        -13    1    4    4    0    0  0.85900343769E+01  0.41924550909E+02 -0.12894761234E+03  0.13586369414E+03  0.00000000000E+00 0.  1.
         14    1    4    4    0    0 -0.71515434768E+02  0.18922965566E+02 -0.14653615495E+03  0.16415048201E+03  0.00000000000E+00 0. -1.
         -5    1    5    5    0  502 -0.53383458121E+00 -0.72677692453E+01 -0.18642409461E+03  0.18662566410E+03  0.47000000000E+01 0.  1.
         11    1    6    6    0    0  0.70476981840E+02 -0.50863524236E+01 -0.11333538446E+03  0.13355817205E+03  0.00000000000E+00 0. -1.
        -12    1    6    6    0    0  0.35992918995E+02  0.19919845889E+02  0.50442688583E+00  0.41140550853E+02  0.00000000000E+00 0.  1.
</event>
<event>
12    1  0.9246030E-003  0.2122079E+03  0.7818608E-02  0.1140288E+00
         21   -1    0    0  501  502  0.00000000000E+00  0.00000000000E+00  0.64782940706E+02  0.64782940706E+02  0.00000000000E+00 0.  1.
         21   -1    0    0  502  503 -0.00000000000E+00 -0.00000000000E+00 -0.12786858094E+04  0.12786858094E+04  0.00000000000E+00 0. -1.
          6    2    1    2  501    0 -0.11261445619E+03  0.33353207715E+02 -0.14840319631E+03  0.25704261343E+03  0.17393373519E+03 0.  0.
         24    2    3    3    0    0 -0.14117519266E+03  0.50979437856E+02 -0.14367130640E+03  0.22282448317E+03  0.80498247880E+02 0.  0.
         -6    2    1    2    0  503  0.11261445619E+03 -0.33353207715E+02 -0.10654996724E+04  0.10864261366E+04  0.17674203344E+03 0.  0.
        -24    2    5    5    0    0  0.69523579802E+02 -0.12439111893E+02 -0.99543428013E+03  0.10014233589E+04  0.83492982309E+02 0.  0.
          5    1    3    3  501    0  0.28560736469E+02 -0.17626230141E+02 -0.47318899115E+01  0.34218130264E+02  0.47000000000E+01 0. -1.
        -13    1    4    4    0    0 -0.10740478716E+03  0.64235095633E+01 -0.63031177055E+02  0.12469955517E+03  0.00000000000E+00 0.  1.
         14    1    4    4    0    0 -0.33770405497E+02  0.44555928293E+02 -0.80640129341E+02  0.98124927993E+02  0.00000000000E+00 0. -1.
         -5    1    5    5    0  503  0.43090876385E+02 -0.20914095822E+02 -0.70065392225E+02  0.85002777716E+02  0.47000000000E+01 0.  1.
         13    1    6    6    0    0  0.76709863113E+02 -0.33729973357E+02 -0.67109593685E+03  0.67630752669E+03  0.00000000000E+00 0. -1.
        -14    1    6    6    0    0 -0.71862833107E+01  0.21290861465E+02 -0.32433834327E+03  0.32511583223E+03  0.00000000000E+00 0.  1.
</event>
<event>
12    1  0.9246030E-003  0.1734658E+03  0.7818608E-02  0.1174497E+00
         21   -1    0    0  503  502  0.00000000000E+00  0.00000000000E+00  0.20319437165E+03  0.20319437165E+03  0.00000000000E+00 0. -1.
         21   -1    0    0  501  503 -0.00000000000E+00 -0.00000000000E+00 -0.15363798549E+03  0.15363798549E+03  0.00000000000E+00 0. -1.
          6    2    1    2  501    0 -0.80046365802E+01 -0.12665547032E+02  0.60775543708E+02  0.18300412554E+03  0.17196613900E+03 0.  0.
         24    2    3    3    0    0 -0.68601101876E+01 -0.26541196318E+02 -0.32170763274E+02  0.88903383964E+02  0.78213537555E+02 0.  0.
         -6    2    1    2    0  502  0.80046365802E+01  0.12665547032E+02 -0.11219157549E+02  0.17382823161E+03  0.17281751740E+03 0.  0.
        -24    2    5    5    0    0  0.61978616754E+02 -0.26363289687E+02 -0.12807949595E+02  0.10703710277E+03  0.82198088896E+02 0.  0.
          5    1    3    3  501    0 -0.11445263926E+01  0.13875649286E+02  0.92946306982E+02  0.94100741577E+02  0.47000000000E+01 0. -1.
        -11    1    4    4    0    0 -0.75808520353E+01 -0.50055773708E+02 -0.20285817646E+01  0.50667197900E+02  0.00000000000E+00 0.  1.
         12    1    4    4    0    0  0.72074184765E+00  0.23514577390E+02 -0.30142181509E+02  0.38236186065E+02  0.00000000000E+00 0. -1.
         -5    1    5    5    0  502 -0.53973980174E+02  0.39028836719E+02  0.15887920462E+01  0.66791128839E+02  0.47000000000E+01 0.  1.
         11    1    6    6    0    0 -0.18246370142E+02  0.60199932794E+01  0.18009567371E+01  0.19298025485E+02  0.00000000000E+00 0. -1.
        -12    1    6    6    0    0  0.80224986896E+02 -0.32383282967E+02 -0.14608906332E+02  0.87739077283E+02  0.00000000000E+00 0.  1.
</event>
<event>
12    1  0.9246030E-003  0.2228166E+03  0.7818608E-02  0.1132009E+00
         21   -1    0    0  501  502  0.00000000000E+00  0.00000000000E+00  0.86443641684E+02  0.86443641684E+02  0.00000000000E+00 0. -1.
         21   -1    0    0  502  503 -0.00000000000E+00 -0.00000000000E+00 -0.57914986644E+03  0.57914986644E+03  0.00000000000E+00 0. -1.
          6    2    1    2  501    0  0.76732531705E+02  0.11745784953E+03 -0.20851089212E+03  0.30516230817E+03  0.17309827947E+03 0.  0.
         24    2    3    3    0    0  0.15773999206E+02  0.32713359051E+02 -0.13519486429E+03  0.17751082448E+03  0.10914879095E+03 0.  0.
         -6    2    1    2    0  503 -0.76732531705E+02 -0.11745784953E+03 -0.28419533263E+03  0.36043119996E+03  0.17163751039E+03 0.  0.
        -24    2    5    5    0    0 -0.11859459591E+03 -0.10117210064E+03 -0.20343964012E+03  0.26790428544E+03  0.78003505410E+02 0.  0.
          5    1    3    3  501    0  0.60958532499E+02  0.84744490481E+02 -0.73316027832E+02  0.12765148369E+03  0.47000000000E+01 0. -1.
        -13    1    4    4    0    0  0.60799406391E+02  0.28963811102E+02 -0.98415606637E+02  0.11925226120E+03  0.00000000000E+00 0.  1.
         14    1    4    4    0    0 -0.45025407186E+02  0.37495479499E+01 -0.36779257655E+02  0.58258563283E+02  0.00000000000E+00 0. -1.
         -5    1    5    5    0  503  0.41862064208E+02 -0.16285748896E+02 -0.80755692513E+02  0.92526914518E+02  0.47000000000E+01 0.  1.
         11    1    6    6    0    0 -0.82296656049E+02 -0.19170496245E+02 -0.10400721173E+03  0.13400652080E+03  0.00000000000E+00 0. -1.
        -12    1    6    6    0    0 -0.36297939864E+02 -0.82001604391E+02 -0.99432428388E+02  0.13389776464E+03  0.00000000000E+00 0.  1.
</event>
<event>
12    1  0.9246030E-003  0.2756002E+03  0.7818608E-02  0.1098159E+00
         21   -1    0    0  501  502  0.00000000000E+00  0.00000000000E+00  0.11659409385E+03  0.11659409385E+03  0.00000000000E+00 0.  1.
         21   -1    0    0  502  503 -0.00000000000E+00 -0.00000000000E+00 -0.83181029076E+03  0.83181029076E+03  0.00000000000E+00 0. -1.
          6    2    1    2  501    0 -0.15354369485E+03 -0.15102055821E+03 -0.13651381446E+03  0.30755726556E+03  0.17196678409E+03 0.  0.
         24    2    3    3    0    0 -0.17187198532E+03 -0.13582667264E+03 -0.15206411269E+03  0.27873570826E+03  0.81124819577E+02 0.  0.
         -6    2    1    2    0  503  0.15354369485E+03  0.15102055821E+03 -0.57870238245E+03  0.64084711905E+03  0.17148092403E+03 0.  0.
        -24    2    5    5    0    0  0.10426566779E+03  0.12389267431E+03 -0.25677490269E+03  0.31400826233E+03  0.80293922127E+02 0.  0.
          5    1    3    3  501    0  0.18328290471E+02 -0.15193885566E+02  0.15550298230E+02  0.28821557301E+02  0.47000000000E+01 0. -1.
        -11    1    4    4    0    0 -0.73000395083E+02 -0.96730233609E+02 -0.49175459118E+02  0.13078234421E+03  0.00000000000E+00 0.  1.
         12    1    4    4    0    0 -0.98871590234E+02 -0.39096439033E+02 -0.10288865357E+03  0.14795336405E+03  0.00000000000E+00 0. -1.
         -5    1    5    5    0  503  0.49278027051E+02  0.27127883895E+02 -0.32192747976E+03  0.32683885672E+03  0.47000000000E+01 0.  1.
         13    1    6    6    0    0  0.67606301322E+02  0.94615183344E+02 -0.23518444190E+03  0.26236304353E+03  0.00000000000E+00 0. -1.
        -14    1    6    6    0    0  0.36659366473E+02  0.29277490970E+02 -0.21590460786E+02  0.51645218797E+02  0.00000000000E+00 0.  1.
</event>
<event>
12    1  0.9246030E-003  0.2262036E+03  0.7818608E-02  0.1129504E+00
         21   -1    0    0  501  502  0.00000000000E+00  0.00000000000E+00  0.42559482446E+03  0.42559482446E+03  0.00000000000E+00 0.  1.
         21   -1    0    0  502  503 -0.00000000000E+00 -0.00000000000E+00 -0.12205812007E+03  0.12205812007E+03  0.00000000000E+00 0. -1.
          6    2    1    2  501    0  0.13201501259E+03  0.64825626503E+02  0.11378312677E+03  0.25239969930E+03  0.17067127137E+03 0.  0.
         24    2    3    3    0    0  0.14683441333E+03  0.19253967144E+02  0.11603634215E+03  0.20419640321E+03  0.79376811455E+02 0.  0.
         -6    2    1    2    0  503 -0.13201501259E+03 -0.64825626503E+02  0.18975357761E+03  0.29525324523E+03  0.17186545087E+03 0.  0.
        -24    2    5    5    0    0 -0.11094013756E+03 -0.10525039263E+03  0.11225191778E+03  0.20521486813E+03  0.78277006753E+02 0.  0.
          5    1    3    3  501    0 -0.14819400737E+02  0.45571659358E+02 -0.22532153764E+01  0.48203296095E+02  0.47000000000E+01 0. -1.
        -13    1    4    4    0    0  0.91099195641E+02  0.49053567530E+02  0.59246244923E+02  0.11922849270E+03  0.00000000000E+00 0.  1.
         14    1    4    4    0    0  0.55735217684E+02 -0.29799600386E+02  0.56790097226E+02  0.84967910510E+02  0.00000000000E+00 0. -1.
         -5    1    5    5    0  503 -0.21074875025E+02  0.40424766125E+02  0.77501659838E+02  0.90038377102E+02  0.47000000000E+01 0.  1.
         11    1    6    6    0    0 -0.47264318711E+02 -0.76568440828E+02  0.24872058974E+02  0.93355563689E+02  0.00000000000E+00 0. -1.
        -12    1    6    6    0    0 -0.63675818853E+02 -0.28681951799E+02  0.87379858803E+02  0.11185930444E+03  0.00000000000E+00 0.  1.
</event>
<event>
12    1  0.9246030E-003  0.1829944E+03  0.7818608E-02  0.1165505E+00
         21   -1    0    0  503  502  0.00000000000E+00  0.00000000000E+00  0.25123579682E+03  0.25123579682E+03  0.00000000000E+00 0. -1.
         21   -1    0    0  501  503 -0.00000000000E+00 -0.00000000000E+00 -0.17095068236E+03  0.17095068236E+03  0.00000000000E+00 0.  1.
          6    2    1    2  501    0 -0.57811623881E+02  0.92818215315E+01 -0.61392253024E+02  0.19075734811E+03  0.17085380025E+03 0.  0.
         24    2    3    3    0    0  0.14282882793E+02  0.50928560860E+02 -0.44878205100E+02  0.10574633372E+03  0.79815504442E+02 0.  0.
         -6    2    1    2    0  502  0.57811623881E+02 -0.92818215315E+01  0.14167736749E+03  0.23142913106E+03  0.17337424889E+03 0.  0.
        -24    2    5    5    0    0  0.91364190145E+01 -0.34677398948E+02  0.15147449863E+03  0.17546231322E+03  0.80972238900E+02 0.  0.
          5    1    3    3  501    0 -0.72094506675E+02 -0.41646739329E+02 -0.16514047924E+02  0.85011014394E+02  0.47000000000E+01 0. -1.
        -13    1    4    4    0    0  0.21597050963E+02  0.21780294699E+02 -0.63410668931E+02  0.70439525707E+02  0.00000000000E+00 0.  1.
         14    1    4    4    0    0 -0.73141681697E+01  0.29148266161E+02  0.18532463831E+02  0.35306808010E+02  0.00000000000E+00 0. -1.
         -5    1    5    5    0  502  0.48675204867E+02  0.25395577416E+02 -0.97971311480E+01  0.55966817846E+02  0.47000000000E+01 0.  1.
         13    1    6    6    0    0 -0.45599540991E+01 -0.55700847391E+02  0.66525056324E+02  0.86884755282E+02  0.00000000000E+00 0. -1.
        -14    1    6    6    0    0  0.13696373114E+02  0.21023448443E+02  0.84949442309E+02  0.88577557934E+02  0.00000000000E+00 0.  1.
</event>
<event>
12    1  0.9246030E-003  0.1834214E+03  0.7818608E-02  0.1164670E+00
         21   -1    0    0  501  502  0.00000000000E+00  0.00000000000E+00  0.22775401824E+03  0.22775401824E+03  0.00000000000E+00 0. -1.
         21   -1    0    0  502  503 -0.00000000000E+00 -0.00000000000E+00 -0.16048219278E+03  0.16048219278E+03  0.00000000000E+00 0. -1.
          6    2    1    2  501    0 -0.35089236809E+02  0.50352378118E+02  0.89328259355E+02  0.20349341560E+03  0.17223070502E+03 0.  0.
         24    2    3    3    0    0  0.29699178978E+02 -0.16770512225E+02  0.52215001723E+02  0.10298219672E+03  0.81948978791E+02 0.  0.
         -6    2    1    2    0  503  0.35089236809E+02 -0.50352378118E+02 -0.22056433900E+02  0.18474279542E+03  0.17284906034E+03 0.  0.
        -24    2    5    5    0    0 -0.16906446558E+02 -0.50602876538E+02 -0.65597862765E+02  0.11676073995E+03  0.80520256734E+02 0.  0.
          5    1    3    3  501    0 -0.64788415787E+02  0.67122890343E+02  0.37113257632E+02  0.10051121888E+03  0.47000000000E+01 0. -1.
        -13    1    4    4    0    0 -0.71730912566E+00  0.42103722619E+01 -0.20754995623E+02  0.21189894060E+02  0.00000000000E+00 0.  1.
         14    1    4    4    0    0  0.30416488104E+02 -0.20980884487E+02  0.72969997346E+02  0.81792302664E+02  0.00000000000E+00 0. -1.
         -5    1    5    5    0  503  0.51995683367E+02  0.25049842013E+00  0.43541428864E+02  0.67982055469E+02  0.47000000000E+01 0.  1.
         11    1    6    6    0    0 -0.47742161468E+02 -0.41317149332E+02 -0.34297612165E+02  0.71852258216E+02  0.00000000000E+00 0. -1.
        -12    1    6    6    0    0  0.30835714910E+02 -0.92857272063E+01 -0.31300250600E+02  0.44908481731E+02  0.00000000000E+00 0.  1.
</event>
<event>
12    1  0.9246030E-003  0.1999290E+03  0.7818608E-02  0.1149910E+00
         21   -1    0    0  501  502  0.00000000000E+00  0.00000000000E+00  0.16011805235E+03  0.16011805235E+03  0.00000000000E+00 0.  1.
         21   -1    0    0  502  503 -0.00000000000E+00 -0.00000000000E+00 -0.25295936062E+03  0.25295936062E+03  0.00000000000E+00 0.  1.
          6    2    1    2  501    0 -0.30348768593E+02 -0.95726381236E+02 -0.72380939529E+02  0.21262789474E+03  0.17287866668E+03 0.  0.
         24    2    3    3    0    0 -0.56458094210E+02 -0.19630957447E+02 -0.84578552098E+02  0.13112278963E+03  0.80416189874E+02 0.  0.
         -6    2    1    2    0  503  0.30348768593E+02  0.95726381236E+02 -0.20460368740E+02  0.20044951823E+03  0.17226954127E+03 0.  0.
        -24    2    5    5    0    0 -0.57372645816E+01 -0.15874089814E+02 -0.18909764968E+02  0.83055475363E+02  0.79093171920E+02 0.  0.
          5    1    3    3  501    0  0.26109325617E+02 -0.76095423789E+02  0.12197612569E+02  0.81505105105E+02  0.47000000000E+01 0. -1.
        -11    1    4    4    0    0 -0.65617910066E+02 -0.10273918239E+02 -0.26371855873E+02  0.71461446246E+02  0.00000000000E+00 0.  1.
         12    1    4    4    0    0  0.91598158556E+01 -0.93570392073E+01 -0.58206696225E+02  0.59661343386E+02  0.00000000000E+00 0. -1.
         -5    1    5    5    0  503  0.36086033175E+02  0.11160047105E+03 -0.15506037722E+01  0.11739404287E+03  0.47000000000E+01 0.  1.
         11    1    6    6    0    0  0.13844847288E+02  0.27798357034E+02 -0.16420221857E+02  0.35129078212E+02  0.00000000000E+00 0. -1.
        -12    1    6    6    0    0 -0.19582111870E+02 -0.43672446848E+02 -0.24895431112E+01  0.47926397151E+02  0.00000000000E+00 0.  1.
</event>
<event>
12    1  0.9246030E-003  0.2240160E+03  0.7818608E-02  0.1131011E+00
         21   -1    0    0  503  502  0.00000000000E+00  0.00000000000E+00  0.15417990054E+04  0.15417990054E+04  0.00000000000E+00 0.  1.
         21   -1    0    0  501  503 -0.00000000000E+00 -0.00000000000E+00 -0.35376878355E+02  0.35376878355E+02  0.00000000000E+00 0. -1.
          6    2    1    2  501    0 -0.13390609195E+03  0.51929358388E+02  0.52825192951E+03  0.57378852028E+03  0.17191761181E+03 0.  0.
         24    2    3    3    0    0 -0.99627340709E+02  0.15446688252E+02  0.17662049796E+03  0.21858045216E+03  0.80114958473E+02 0.  0.
         -6    2    1    2    0  502  0.13390609195E+03 -0.51929358388E+02  0.97817019758E+03  0.10033873635E+04  0.17129438435E+03 0.  0.
        -24    2    5    5    0    0  0.13933459316E+03  0.11441292213E+02  0.72821705326E+03  0.74542617974E+03  0.76256676805E+02 0.  0.
          5    1    3    3  501    0 -0.34278751242E+02  0.36482670137E+02  0.35163143154E+03  0.35520806812E+03  0.47000000000E+01 0. -1.
        -13    1    4    4    0    0 -0.21356444185E+02 -0.31019418572E+02  0.55432653237E+02  0.67015528661E+02  0.00000000000E+00 0.  1.
         14    1    4    4    0    0 -0.78270896525E+02  0.46466106824E+02  0.12118784473E+03  0.15156492350E+03  0.00000000000E+00 0. -1.
         -5    1    5    5    0  502 -0.54285012117E+01 -0.63370650602E+02  0.24995314431E+03  0.25796118378E+03  0.47000000000E+01 0.  1.
         13    1    6    6    0    0  0.14269661858E+03  0.78497098536E+01  0.58782929370E+03  0.60495224723E+03  0.00000000000E+00 0. -1.
        -14    1    6    6    0    0 -0.33620254182E+01  0.35915823596E+01  0.14038775956E+03  0.14047393250E+03  0.00000000000E+00 0.  1.
</event>
<event>
12    1  0.9246030E-003  0.2484890E+03  0.7818608E-02  0.1115341E+00
         21   -1    0    0  501  502  0.00000000000E+00  0.00000000000E+00  0.59671412351E+02  0.59671412351E+02  0.00000000000E+00 0. -1.
         21   -1    0    0  502  503 -0.00000000000E+00 -0.00000000000E+00 -0.10100654456E+04  0.10100654456E+04  0.00000000000E+00 0. -1.
          6    2    1    2  501    0  0.17501960382E+03 -0.77256843840E+01 -0.45313885448E+03  0.51679939338E+03  0.17622498017E+03 0.  0.
         24    2    3    3    0    0  0.10857774233E+03  0.31930920840E+02 -0.39904661886E+03  0.42227306239E+03  0.79168335609E+02 0.  0.
         -6    2    1    2    0  503 -0.17501960382E+03  0.77256843840E+01 -0.49725517875E+03  0.55293746456E+03  0.16669006868E+03 0.  0.
        -24    2    5    5    0    0 -0.16487603111E+03  0.52032953577E+02 -0.34593473839E+03  0.39486788544E+03  0.79738759928E+02 0.  0.
          5    1    3    3  501    0  0.66441861487E+02 -0.39656605224E+02 -0.54092235630E+02  0.94526330994E+02  0.47000000000E+01 0. -1.
        -13    1    4    4    0    0  0.90826951431E+02  0.45002369677E+02 -0.22429020360E+03  0.24613176108E+03  0.00000000000E+00 0.  1.
         14    1    4    4    0    0  0.17750790897E+02 -0.13071448837E+02 -0.17475641526E+03  0.17614130131E+03  0.00000000000E+00 0. -1.
         -5    1    5    5    0  503 -0.10143572702E+02 -0.44307269193E+02 -0.15132044036E+03  0.15806957911E+03  0.47000000000E+01 0.  1.
         13    1    6    6    0    0 -0.89621242366E+02  0.69043414510E+02 -0.21216338352E+03  0.24044180476E+03  0.00000000000E+00 0. -1.
        -14    1    6    6    0    0 -0.75254788747E+02 -0.17010460933E+02 -0.13377135487E+03  0.15442608068E+03  0.00000000000E+00 0.  1.
</event>
<event>
12    1  0.9246030E-003  0.2346589E+03  0.7818608E-02  0.1123753E+00
         21   -1    0    0  503  502  0.00000000000E+00  0.00000000000E+00  0.38353903773E+03  0.38353903773E+03  0.00000000000E+00 0. -1.
         21   -1    0    0  501  503 -0.00000000000E+00 -0.00000000000E+00 -0.16952565266E+03  0.16952565266E+03  0.00000000000E+00 0.  1.
          6    2    1    2  501    0 -0.24461008480E+02  0.15482666587E+03  0.21815647316E+03  0.32040141857E+03  0.17462870566E+03 0.  0.
         24    2    3    3    0    0 -0.48027151323E+02  0.24646523126E+02  0.57342782016E+02  0.11210987790E+03  0.79789546359E+02 0.  0.
         -6    2    1    2    0  502  0.24461008480E+02 -0.15482666587E+03 -0.41430880836E+01  0.23266327183E+03  0.17188774092E+03 0.  0.
        -24    2    5    5    0    0  0.41828403354E+02 -0.16435958923E+03 -0.40080951738E+02  0.19135802910E+03  0.79042537341E+02 0.  0.
          5    1    3    3  501    0  0.23566142843E+02  0.13018014274E+03  0.16081369114E+03  0.20829154066E+03  0.47000000000E+01 0. -1.
        -11    1    4    4    0    0  0.19930135580E+02 -0.16846214109E+00  0.27234970812E+02  0.33748812110E+02  0.00000000000E+00 0.  1.
         12    1    4    4    0    0 -0.67957286903E+02  0.24814985267E+02  0.30107811204E+02  0.78361065795E+02  0.00000000000E+00 0. -1.
         -5    1    5    5    0  502 -0.17367394873E+02  0.95329233674E+01  0.35937863654E+02  0.41305242726E+02  0.47000000000E+01 0.  1.
         11    1    6    6    0    0  0.28446692123E+02 -0.41375453976E+02 -0.45176646864E+02  0.67543111465E+02  0.00000000000E+00 0. -1.
        -12    1    6    6    0    0  0.13381711231E+02 -0.12298413526E+03  0.50956951266E+01  0.12381491764E+03  0.00000000000E+00 0.  1.
</event>
<event>
12    1  0.9246030E-003  0.1723784E+03  0.7818608E-02  0.1175854E+00
         21   -1    0    0  503  502  0.00000000000E+00  0.00000000000E+00  0.77888480915E+02  0.77888480915E+02  0.00000000000E+00 0. -1.
         21   -1    0    0  501  503 -0.00000000000E+00 -0.00000000000E+00 -0.42924026235E+03  0.42924026235E+03  0.00000000000E+00 0. -1.
          6    2    1    2  501    0 -0.23634136923E+01 -0.16182136497E+02 -0.26288049116E+03  0.31337250485E+03  0.16979024383E+03 0.  0.
         24    2    3    3    0    0 -0.61234742343E+02  0.11600696160E+02 -0.19171899649E+03  0.21681284738E+03  0.79795785310E+02 0.  0.
         -6    2    1    2    0  502  0.23634136923E+01  0.16182136497E+02 -0.88471290274E+02  0.19375623841E+03  0.17160088419E+03 0.  0.
        -24    2    5    5    0    0  0.58899192454E+02 -0.24060364992E+02 -0.44410348640E+02  0.11142028160E+03  0.79963642052E+02 0.  0.
          5    1    3    3  501    0  0.58871328650E+02 -0.27782832657E+02 -0.71161494671E+02  0.96559657473E+02  0.47000000000E+01 0. -1.
        -11    1    4    4    0    0 -0.40115773653E+02 -0.19779273904E+02 -0.38565192067E+02  0.59057336641E+02  0.00000000000E+00 0.  1.
         12    1    4    4    0    0 -0.21118968690E+02  0.31379970064E+02 -0.15315380442E+03  0.15775551074E+03  0.00000000000E+00 0. -1.
         -5    1    5    5    0  502 -0.56535778762E+02  0.40242501488E+02 -0.44060941634E+02  0.82335956811E+02  0.47000000000E+01 0.  1.
         11    1    6    6    0    0  0.14472394087E+02  0.25738095915E+02  0.28203112587E+01  0.29662331795E+02  0.00000000000E+00 0. -1.
        -12    1    6    6    0    0  0.44426798367E+02 -0.49798460906E+02 -0.47230659899E+02  0.81757949805E+02  0.00000000000E+00 0.  1.
</event>
<event>
12    1  0.9246030E-003  0.1857378E+03  0.7818608E-02  0.1163355E+00
         21   -1    0    0  503  502  0.00000000000E+00  0.00000000000E+00  0.93017889015E+03  0.93017889015E+03  0.00000000000E+00 0.  1.
         21   -1    0    0  501  503 -0.00000000000E+00 -0.00000000000E+00 -0.39699460605E+02  0.39699460605E+02  0.00000000000E+00 0.  1.
          6    2    1    2  501    0 -0.54887552961E+02  0.44167910079E+02  0.29763425190E+03  0.34861840741E+03  0.16728777101E+03 0.  0.
         24    2    3    3    0    0 -0.54497228456E+02  0.24153404909E+02  0.30926235016E+03  0.32499563366E+03  0.80160001213E+02 0.  0.
         -6    2    1    2    0  502  0.54887552961E+02 -0.44167910079E+02  0.59284517765E+03  0.62125994335E+03  0.17185768763E+03 0.  0.
        -24    2    5    5    0    0 -0.30072312380E+01 -0.82239013171E+02  0.31176702958E+03  0.33172889104E+03  0.77929953751E+02 0.  0.
          5    1    3    3  501    0 -0.39032450537E+00  0.20014505170E+02 -0.11628098261E+02  0.23622773748E+02  0.47000000000E+01 0. -1.
        -11    1    4    4    0    0 -0.64628995716E+02  0.20519291680E+02  0.14170743972E+03  0.15709534331E+03  0.00000000000E+00 0.  1.
         12    1    4    4    0    0  0.10131767261E+02  0.36341132293E+01  0.16755491044E+03  0.16790029035E+03  0.00000000000E+00 0. -1.
         -5    1    5    5    0  502  0.57894784199E+02  0.38071103092E+02  0.28107814807E+03  0.28953105231E+03  0.47000000000E+01 0.  1.
         11    1    6    6    0    0  0.10744688772E+02 -0.13967552097E+02  0.67635977011E+01  0.18875568926E+02  0.00000000000E+00 0. -1.
        -12    1    6    6    0    0 -0.13751920010E+02 -0.68271461073E+02  0.30500343188E+03  0.31285332212E+03  0.00000000000E+00 0.  1.
</event>
<event>
12    1  0.9246030E-003  0.2413473E+03  0.7818608E-02  0.1119255E+00
         21   -1    0    0  501  502  0.00000000000E+00  0.00000000000E+00  0.15656106490E+04  0.15656106490E+04  0.00000000000E+00 0.  1.
         21   -1    0    0  502  503 -0.00000000000E+00 -0.00000000000E+00 -0.76957063873E+02  0.76957063873E+02  0.00000000000E+00 0. -1.
          6    2    1    2  501    0  0.24607574621E+02 -0.16577058743E+03  0.13354453785E+04  0.13566983692E+04  0.17067713893E+03 0.  0.
         24    2    3    3    0    0  0.38041253515E+02 -0.11025310759E+03  0.12163397690E+04  0.12245208730E+04  0.79787530807E+02 0.  0.
         -6    2    1    2    0  503 -0.24607574621E+02  0.16577058743E+03  0.15320820667E+03  0.28586934368E+03  0.17367529093E+03 0.  0.
        -24    2    5    5    0    0 -0.48390676426E+02  0.61044697331E+02  0.27486857566E+02  0.12045744686E+03  0.87671868514E+02 0.  0.
          5    1    3    3  501    0 -0.13433678894E+02 -0.55517479835E+02  0.11910560948E+03  0.13217749621E+03  0.47000000000E+01 0. -1.
        -13    1    4    4    0    0  0.44210645549E+01 -0.83594451889E+02  0.50525229766E+03  0.51214008093E+03  0.00000000000E+00 0.  1.
         14    1    4    4    0    0  0.33620188960E+02 -0.26658655702E+02  0.71108747132E+03  0.71238079206E+03  0.00000000000E+00 0. -1.
         -5    1    5    5    0  503  0.23783101805E+02  0.10472589009E+03  0.12572134911E+03  0.16541189682E+03  0.47000000000E+01 0.  1.
         11    1    6    6    0    0 -0.55650956965E+02  0.77706608175E+02  0.33552231141E+02  0.10129707883E+03  0.00000000000E+00 0. -1.
        -12    1    6    6    0    0  0.72602805392E+01 -0.16661910845E+02 -0.60653735751E+01  0.19160368032E+02  0.00000000000E+00 0.  1.
</event>
<event>
12    1  0.9246030E-003  0.1877659E+03  0.7818608E-02  0.1160957E+00
         21   -1    0    0  501  502  0.00000000000E+00  0.00000000000E+00  0.27766211243E+03  0.27766211243E+03  0.00000000000E+00 0. -1.
         21   -1    0    0  502  503 -0.00000000000E+00 -0.00000000000E+00 -0.15266376666E+03  0.15266376666E+03  0.00000000000E+00 0. -1.
          6    2    1    2  501    0  0.48776538077E+02 -0.51536461611E+02  0.15278960066E+03  0.24051438153E+03  0.17166056072E+03 0.  0.
         24    2    3    3    0    0  0.22099229226E+01  0.45271294718E+01  0.61860726033E+01  0.76727140473E+02  0.76311256904E+02 0.  0.
         -6    2    1    2    0  503 -0.48776538077E+02  0.51536461611E+02 -0.27791254892E+02  0.18981149757E+03  0.17384157506E+03 0.  0.
        -24    2    5    5    0    0 -0.69698539731E+02 -0.16055001451E+01 -0.36965442630E+02  0.13177656005E+03  0.10553745192E+03 0.  0.
          5    1    3    3  501    0  0.46566615154E+02 -0.56063591083E+02  0.14660352806E+03  0.16378724105E+03  0.47000000000E+01 0. -1.
        -13    1    4    4    0    0  0.36707577836E+02  0.16048064247E+02  0.45489859200E+01  0.40319721100E+02  0.00000000000E+00 0.  1.
         14    1    4    4    0    0 -0.34497654913E+02 -0.11520934775E+02  0.16370866833E+01  0.36407419373E+02  0.00000000000E+00 0. -1.
         -5    1    5    5    0  503  0.20922001654E+02  0.53141961756E+02  0.91741877375E+01  0.58034937521E+02  0.47000000000E+01 0.  1.
         13    1    6    6    0    0 -0.77705355897E+02  0.13266184553E+02 -0.62884913332E+02  0.10083960686E+03  0.00000000000E+00 0. -1.
        -14    1    6    6    0    0  0.80068161661E+01 -0.14871684698E+02  0.25919470702E+02  0.30936953185E+02  0.00000000000E+00 0.  1.
</event>
<event>
12    1  0.9246030E-003  0.1869687E+03  0.7818608E-02  0.1162049E+00
         21   -1    0    0  503  502  0.00000000000E+00  0.00000000000E+00  0.15369090262E+03  0.15369090262E+03  0.00000000000E+00 0. -1.
         21   -1    0    0  501  503 -0.00000000000E+00 -0.00000000000E+00 -0.22317280948E+03  0.22317280948E+03  0.00000000000E+00 0.  1.
          6    2    1    2  501    0  0.55143572813E+02  0.47797903150E+02 -0.32840827087E+02  0.18633851617E+03  0.16827973590E+03 0.  0.
         24    2    3    3    0    0  0.69945817563E+02 -0.13171690643E+02  0.11355888948E+02  0.10945004158E+03  0.82367739790E+02 0.  0.
         -6    2    1    2    0  502 -0.55143572813E+02 -0.47797903150E+02 -0.36641079771E+02  0.19052519593E+03  0.17213897987E+03 0.  0.
        -24    2    5    5    0    0  0.11513615611E+02 -0.15864674970E+02  0.33607373603E+02  0.88447543960E+02  0.79430858083E+02 0.  0.
          5    1    3    3  501    0 -0.14802244750E+02  0.60969593793E+02 -0.44196716035E+02  0.76888474593E+02  0.47000000000E+01 0. -1.
        -13    1    4    4    0    0 -0.10652846640E+02 -0.15126546177E+02  0.21304001212E+02  0.28216236610E+02  0.00000000000E+00 0.  1.
         14    1    4    4    0    0  0.80598664203E+02  0.19548555346E+01 -0.99481122639E+01  0.81233804965E+02  0.00000000000E+00 0. -1.
         -5    1    5    5    0  502 -0.66657188424E+02 -0.31933228181E+02 -0.70248453374E+02  0.10207765197E+03  0.47000000000E+01 0.  1.
         11    1    6    6    0    0  0.11553157537E+02 -0.22369374288E+02 -0.21408612210E+02  0.33048343860E+02  0.00000000000E+00 0. -1.
        -12    1    6    6    0    0 -0.39541925538E-01  0.65046993180E+01  0.55015985813E+02  0.55399200101E+02  0.00000000000E+00 0.  1.
</event>
<event>
12    1  0.9246030E-003  0.2108414E+03  0.7818608E-02  0.1141019E+00
         21   -1    0    0  503  502  0.00000000000E+00  0.00000000000E+00  0.12265840952E+03  0.12265840952E+03  0.00000000000E+00 0. -1.
         21   -1    0    0  501  503 -0.00000000000E+00 -0.00000000000E+00 -0.40954838018E+03  0.40954838018E+03  0.00000000000E+00 0.  1.
          6    2    1    2  501    0  0.11728566019E+03  0.27423523863E+02 -0.23486665597E+03  0.31562073766E+03  0.17304949641E+03 0.  0.
         24    2    3    3    0    0  0.26186030810E+02  0.53557518913E+02 -0.17521974006E+03  0.20354053090E+03  0.84691642851E+02 0.  0.
         -6    2    1    2    0  502 -0.11728566019E+03 -0.27423523863E+02 -0.52023314690E+02  0.21658605205E+03  0.17232271157E+03 0.  0.
        -24    2    5    5    0    0 -0.50853512101E+01  0.20044924504E+02 -0.39815413747E+02  0.94057337978E+02  0.82667138940E+02 0.  0.
          5    1    3    3  501    0  0.91099629380E+02 -0.26133995050E+02 -0.59646915910E+02  0.11208020676E+03  0.47000000000E+01 0. -1.
        -11    1    4    4    0    0  0.43485701363E+02  0.11779419728E+02 -0.13737871507E+03  0.14457756502E+03  0.00000000000E+00 0.  1.
         12    1    4    4    0    0 -0.17299670553E+02  0.41778099185E+02 -0.37841024990E+02  0.58962965878E+02  0.00000000000E+00 0. -1.
         -5    1    5    5    0  502 -0.11220030898E+03 -0.47468448367E+02 -0.12207900943E+02  0.12252871407E+03  0.47000000000E+01 0.  1.
         13    1    6    6    0    0 -0.19521938146E+02  0.35294968492E+02  0.86383294237E+01  0.41248777013E+02  0.00000000000E+00 0. -1.
        -14    1    6    6    0    0  0.14436586936E+02 -0.15250043988E+02 -0.48453743170E+02  0.52808560965E+02  0.00000000000E+00 0.  1.
</event>
<event>
12    1  0.9246030E-003  0.2217027E+03  0.7818608E-02  0.1132994E+00
         21   -1    0    0  503  502  0.00000000000E+00  0.00000000000E+00  0.37483771900E+02  0.37483771900E+02  0.00000000000E+00 0.  1.
         21   -1    0    0  501  503 -0.00000000000E+00 -0.00000000000E+00 -0.16449188479E+04  0.16449188479E+04  0.00000000000E+00 0. -1.
          6    2    1    2  501    0  0.11764324399E+03  0.72180369619E+02 -0.11863563237E+04  0.12065251291E+04  0.17091407714E+03 0.  0.
         24    2    3    3    0    0  0.63210999527E+02 -0.14983279150E+02 -0.80576752657E+03  0.81227864097E+03  0.79467946946E+02 0.  0.
         -6    2    1    2    0  502 -0.11764324399E+03 -0.72180369619E+02 -0.42107875229E+03  0.47587749068E+03  0.17349965964E+03 0.  0.
        -24    2    5    5    0    0 -0.64705921526E+02 -0.11408950282E+03 -0.28456686642E+03  0.32350846319E+03  0.80474550988E+02 0.  0.
          5    1    3    3  501    0  0.54432244464E+02  0.87163648769E+02 -0.38058879715E+03  0.39424648816E+03  0.47000000000E+01 0. -1.
        -11    1    4    4    0    0  0.61673770557E+02 -0.23696603243E+02 -0.33634441394E+03  0.34277215139E+03  0.00000000000E+00 0.  1.
         12    1    4    4    0    0  0.15372289697E+01  0.87133240932E+01 -0.46942311263E+03  0.46950648958E+03  0.00000000000E+00 0. -1.
         -5    1    5    5    0  502 -0.52937322465E+02  0.41909133204E+02 -0.13651188587E+03  0.15236902749E+03  0.47000000000E+01 0.  1.
         11    1    6    6    0    0 -0.73932297633E+01 -0.30481700796E+02 -0.15933823916E+03  0.16239602332E+03  0.00000000000E+00 0. -1.
        -12    1    6    6    0    0 -0.57312691763E+02 -0.83607802027E+02 -0.12522862725E+03  0.16111243987E+03  0.00000000000E+00 0.  1.
</event>
<event>
12    1  0.9246030E-003  0.1865603E+03  0.7818608E-02  0.1164079E+00
         21   -1    0    0  503  502  0.00000000000E+00  0.00000000000E+00  0.18007479003E+03  0.18007479003E+03  0.00000000000E+00 0.  1.
         21   -1    0    0  501  503 -0.00000000000E+00 -0.00000000000E+00 -0.24683126462E+03  0.24683126462E+03  0.00000000000E+00 0. -1.
          6    2    1    2  501    0  0.70669522283E+02  0.25015783310E+02 -0.14148250597E+03  0.22593659453E+03  0.15940537777E+03 0.  0.
         24    2    3    3    0    0  0.96681400926E+02 -0.16334034127E+02 -0.10406602724E+03  0.16422348318E+03  0.80780693526E+02 0.  0.
         -6    2    1    2    0  502 -0.70669522283E+02 -0.25015783310E+02  0.74726031377E+02  0.20096946012E+03  0.17083551546E+03 0.  0.
        -24    2    5    5    0    0  0.10553056177E+02 -0.50184179063E+02  0.12883597660E+02  0.95721505252E+02  0.79792234310E+02 0.  0.
          5    1    3    3  501    0 -0.26011878643E+02  0.41349817437E+02 -0.37416478725E+02  0.61713111352E+02  0.47000000000E+01 0. -1.
        -13    1    4    4    0    0 -0.60305788945E+01  0.15153888877E+02 -0.28642453531E+02  0.32960557856E+02  0.00000000000E+00 0.  1.
         14    1    4    4    0    0  0.10271197982E+03 -0.31487923004E+02 -0.75423573711E+02  0.13126292533E+03  0.00000000000E+00 0. -1.
         -5    1    5    5    0  502 -0.81222578460E+02  0.25168395753E+02  0.61842433717E+02  0.10524795487E+03  0.47000000000E+01 0.  1.
         13    1    6    6    0    0 -0.14117967984E+02 -0.62484333259E+02  0.20255632674E+02  0.67185560784E+02  0.00000000000E+00 0. -1.
        -14    1    6    6    0    0  0.24671024161E+02  0.12300154196E+02 -0.73720350137E+01  0.28535944468E+02  0.00000000000E+00 0.  1.
</event>
<event>
12    1  0.9246030E-003  0.1817117E+03  0.7818608E-02  0.1166737E+00
         21   -1    0    0  501  502  0.00000000000E+00  0.00000000000E+00  0.42332646647E+02  0.42332646647E+02  0.00000000000E+00 0. -1.
         21   -1    0    0  502  503 -0.00000000000E+00 -0.00000000000E+00 -0.85098175350E+03  0.85098175350E+03  0.00000000000E+00 0. -1.
          6    2    1    2  501    0 -0.55679528171E+02  0.25359930189E+02 -0.26870736931E+03  0.32438065640E+03  0.17110179428E+03 0.  0.
         24    2    3    3    0    0  0.20965785301E+02 -0.34968967916E+02 -0.12554050778E+03  0.15108056908E+03  0.73501880176E+02 0.  0.
         -6    2    1    2    0  503  0.55679528171E+02 -0.25359930189E+02 -0.53994173754E+03  0.56893374375E+03  0.16853839005E+03 0.  0.
        -24    2    5    5    0    0  0.75581404135E+02 -0.54387695195E+02 -0.50575522921E+03  0.51964375328E+03  0.74637178495E+02 0.  0.
          5    1    3    3  501    0 -0.76645313472E+02  0.60328898105E+02 -0.14316686153E+03  0.17330008732E+03  0.47000000000E+01 0. -1.
        -13    1    4    4    0    0  0.26421347372E+02  0.11331345721E+02 -0.18128095623E+02  0.33986980503E+02  0.00000000000E+00 0.  1.
         14    1    4    4    0    0 -0.54555620708E+01 -0.46300313637E+02 -0.10741241216E+03  0.11709358858E+03  0.00000000000E+00 0. -1.
         -5    1    5    5    0  503 -0.19901875964E+02  0.29027765005E+02 -0.34186508331E+02  0.49289990464E+02  0.47000000000E+01 0.  1.
         13    1    6    6    0    0  0.23409315161E+02  0.15795635273E+02 -0.75905962467E+02  0.80988970040E+02  0.00000000000E+00 0. -1.
        -14    1    6    6    0    0  0.52172088973E+02 -0.70183330468E+02 -0.42984926674E+03  0.43865478324E+03  0.00000000000E+00 0.  1.
</event>
<event>
12    1  0.9246030E-003  0.1738578E+03  0.7818608E-02  0.1174086E+00
         21   -1    0    0  501  502  0.00000000000E+00  0.00000000000E+00  0.91179263720E+02  0.91179263720E+02  0.00000000000E+00 0. -1.
         21   -1    0    0  502  503 -0.00000000000E+00 -0.00000000000E+00 -0.33168106458E+03  0.33168106458E+03  0.00000000000E+00 0. -1.
          6    2    1    2  501    0 -0.38523922682E+01 -0.15889386100E+02 -0.13509238507E+03  0.21954361754E+03  0.17228503702E+03 0.  0.
         24    2    3    3    0    0 -0.36155109120E+01  0.38931608163E+02 -0.18874727800E+02  0.90958892995E+02  0.79928235512E+02 0.  0.
         -6    2    1    2    0  503  0.38523922682E+01  0.15889386100E+02 -0.10540941579E+03  0.20331671076E+03  0.17308733755E+03 0.  0.
        -24    2    5    5    0    0 -0.26676253561E+02  0.49689750186E+01  0.82290480534E+01  0.85049876614E+02  0.80183857873E+02 0.  0.
          5    1    3    3  501    0 -0.23688135623E+00 -0.54820994264E+02 -0.11621765727E+03  0.12858472454E+03  0.47000000000E+01 0. -1.
        -13    1    4    4    0    0 -0.82633351896E+01  0.90309082804E+01  0.30603644380E+02  0.32960932362E+02  0.00000000000E+00 0.  1.
         14    1    4    4    0    0  0.46478242777E+01  0.29900699883E+02 -0.49478372180E+02  0.57997960633E+02  0.00000000000E+00 0. -1.
         -5    1    5    5    0  503  0.30528645829E+02  0.10920411082E+02 -0.11363846384E+03  0.11826683415E+03  0.47000000000E+01 0.  1.
         13    1    6    6    0    0 -0.34825703815E+02  0.35258676332E+02 -0.72261410434E+01  0.50082142699E+02  0.00000000000E+00 0. -1.
        -14    1    6    6    0    0  0.81494502539E+01 -0.30289701314E+02  0.15455189097E+02  0.34967733915E+02  0.00000000000E+00 0.  1.
</event>
<event>
12    1  0.9246030E-003  0.1796919E+03  0.7818608E-02  0.1168807E+00
         21   -1    0    0  503  502  0.00000000000E+00  0.00000000000E+00  0.32572160411E+02  0.32572160411E+02  0.00000000000E+00 0. -1.
         21   -1    0    0  501  503 -0.00000000000E+00 -0.00000000000E+00 -0.98042573588E+03  0.98042573588E+03  0.00000000000E+00 0. -1.
          6    2    1    2  501    0 -0.26399907805E+02  0.32602177542E+02 -0.51379187006E+03  0.54430806489E+03  0.17472643373E+03 0.  0.
         24    2    3    3    0    0 -0.52486901094E+02 -0.13184459005E+02 -0.45673749057E+03  0.46649907103E+03  0.77997071965E+02 0.  0.
         -6    2    1    2    0  502  0.26399907805E+02 -0.32602177542E+02 -0.43406170541E+03  0.46868983141E+03  0.17175778542E+03 0.  0.
        -24    2    5    5    0    0  0.69429819109E+01 -0.16316359435E+02 -0.73382019212E+02  0.10708821931E+03  0.75950888005E+02 0.  0.
          5    1    3    3  501    0  0.26086993289E+02  0.45786636547E+02 -0.57054379493E+02  0.77808993853E+02  0.47000000000E+01 0. -1.
        -13    1    4    4    0    0 -0.17765673642E+02  0.14584912458E+02 -0.35155979310E+03  0.35231041279E+03  0.00000000000E+00 0.  1.
         14    1    4    4    0    0 -0.34721227452E+02 -0.27769371463E+02 -0.10517769747E+03  0.11418865824E+03  0.00000000000E+00 0. -1.
         -5    1    5    5    0  502  0.19456925894E+02 -0.16285818107E+02 -0.36067968619E+03  0.36160161210E+03  0.47000000000E+01 0.  1.
         13    1    6    6    0    0 -0.23119670209E+02  0.17890222852E+01 -0.67669806840E+02  0.71532667426E+02  0.00000000000E+00 0. -1.
        -14    1    6    6    0    0  0.30062652120E+02 -0.18105381721E+02 -0.57122123716E+01  0.35555551886E+02  0.00000000000E+00 0.  1.
</event>
<event>
12    1  0.9246030E-003  0.1953389E+03  0.7818608E-02  0.1158409E+00
         21   -1    0    0  503  502  0.00000000000E+00  0.00000000000E+00  0.29420080949E+03  0.29420080949E+03  0.00000000000E+00 0.  1.
         21   -1    0    0  501  503 -0.00000000000E+00 -0.00000000000E+00 -0.13269415370E+03  0.13269415370E+03  0.00000000000E+00 0.  1.
          6    2    1    2  501    0 -0.28361071206E+02 -0.19962656096E+02  0.25845809919E+01  0.17507455584E+03  0.17158543657E+03 0.  0.
         24    2    3    3    0    0 -0.71357318698E+02  0.12677320490E+02 -0.31641235354E+02  0.11098444838E+03  0.77870396299E+02 0.  0.
         -6    2    1    2    0  502  0.28361071206E+02  0.19962656096E+02  0.15892207480E+03  0.25182040735E+03  0.19223536017E+03 0.  0.
        -24    2    5    5    0    0 -0.62663258601E+02  0.64682975749E+01  0.92031763216E+02  0.13796115163E+03  0.81209057783E+02 0.  0.
          5    1    3    3  501    0  0.42996247492E+02 -0.32639976586E+02  0.34225816346E+02  0.64090107462E+02  0.47000000000E+01 0. -1.
        -13    1    4    4    0    0 -0.52072811507E+01  0.11268608328E+02 -0.42194888889E+02  0.43983018985E+02  0.00000000000E+00 0.  1.
         14    1    4    4    0    0 -0.66150037547E+02  0.14087121616E+01  0.10553653535E+02  0.67001429391E+02  0.00000000000E+00 0. -1.
         -5    1    5    5    0  502  0.91024329808E+02  0.13494358521E+02  0.66890311586E+02  0.11385925572E+03  0.47000000000E+01 0.  1.
         13    1    6    6    0    0 -0.13323305769E+02 -0.33305964782E+02  0.51398064164E+02  0.62678216044E+02  0.00000000000E+00 0. -1.
        -14    1    6    6    0    0 -0.49339952832E+02  0.39774262357E+02  0.40633699052E+02  0.75282935584E+02  0.00000000000E+00 0.  1.
</event>
<event>
12    1  0.9246030E-003  0.1916944E+03  0.7818608E-02  0.1157041E+00
         21   -1    0    0  503  502  0.00000000000E+00  0.00000000000E+00  0.18804745728E+03  0.18804745728E+03  0.00000000000E+00 0. -1.
         21   -1    0    0  501  503 -0.00000000000E+00 -0.00000000000E+00 -0.19746667588E+03  0.19746667588E+03  0.00000000000E+00 0.  1.
          6    2    1    2  501    0 -0.75726612764E+02 -0.36528790328E+02  0.17002316364E+02  0.19244688933E+03  0.17227261549E+03 0.  0.
         24    2    3    3    0    0 -0.11220430121E+03 -0.76219617542E+01 -0.94984431046E+01  0.13868252618E+03  0.80589845115E+02 0.  0.
         -6    2    1    2    0  502  0.75726612764E+02  0.36528790328E+02 -0.26421534963E+02  0.19306724384E+03  0.17177890071E+03 0.  0.
        -24    2    5    5    0    0  0.11913698267E+03  0.32730994896E+02 -0.26530384729E+02  0.14923819738E+03  0.79392944128E+02 0.  0.
          5    1    3    3  501    0  0.36477688444E+02 -0.28906828574E+02  0.26500759469E+02  0.53764363150E+02  0.47000000000E+01 0. -1.
        -13    1    4    4    0    0  0.32138140790E+00  0.37389840817E+00 -0.24831020345E+02  0.24835914668E+02  0.00000000000E+00 0.  1.
         14    1    4    4    0    0 -0.11252568262E+03 -0.79958601623E+01  0.15332577240E+02  0.11384661151E+03  0.00000000000E+00 0. -1.
         -5    1    5    5    0  502 -0.43410369902E+02  0.37977954321E+01  0.10884976623E+00  0.43829046458E+02  0.47000000000E+01 0.  1.
         11    1    6    6    0    0  0.67732337735E+01 -0.15666717629E+02  0.12121139832E+02  0.20934296449E+02  0.00000000000E+00 0. -1.
        -12    1    6    6    0    0  0.11236374889E+03  0.48397712524E+02 -0.38651524561E+02  0.12830390093E+03  0.00000000000E+00 0.  1.
</event>
<event>
12    1  0.9246030E-003  0.1923748E+03  0.7818608E-02  0.1156421E+00
         21   -1    0    0  501  502  0.00000000000E+00  0.00000000000E+00  0.95692555255E+02  0.95692555255E+02  0.00000000000E+00 0. -1.
         21   -1    0    0  502  503 -0.00000000000E+00 -0.00000000000E+00 -0.39038240993E+03  0.39038240993E+03  0.00000000000E+00 0. -1.
          6    2    1    2  501    0  0.40122845710E+02  0.76291017951E+02 -0.12168004426E+03  0.22762713576E+03  0.17198231768E+03 0.  0.
         24    2    3    3    0    0 -0.24447886763E+02  0.93654522209E+02 -0.70713248245E+02  0.14342158328E+03  0.78743370366E+02 0.  0.
         -6    2    1    2    0  503 -0.40122845710E+02 -0.76291017951E+02 -0.17300981041E+03  0.25844782942E+03  0.17155968019E+03 0.  0.
        -24    2    5    5    0    0 -0.44031264771E+02 -0.40200882339E+02 -0.21537444228E+02  0.10261541513E+03  0.80691998979E+02 0.  0.
          5    1    3    3  501    0  0.64570732472E+02 -0.17363504258E+02 -0.50966796019E+02  0.84205552480E+02  0.47000000000E+01 0. -1.
        -13    1    4    4    0    0  0.18863259261E+02  0.48781134733E+02 -0.45508530879E+01  0.52498875413E+02  0.00000000000E+00 0.  1.
         14    1    4    4    0    0 -0.43311146024E+02  0.44873387476E+02 -0.66162395157E+02  0.90922707869E+02  0.00000000000E+00 0. -1.
         -5    1    5    5    0  503  0.39084190609E+01 -0.36090135611E+02 -0.15147236618E+03  0.15583241429E+03  0.47000000000E+01 0.  1.
         13    1    6    6    0    0 -0.21895889708E+02 -0.28709951526E+02 -0.51961911897E+02  0.63275047141E+02  0.00000000000E+00 0. -1.
        -14    1    6    6    0    0 -0.22135375063E+02 -0.11490930814E+02  0.30424467669E+02  0.39340367984E+02  0.00000000000E+00 0.  1.
</event>
<event>
12    1  0.9246030E-003  0.2138999E+03  0.7818608E-02  0.1139014E+00
         21   -1    0    0  503  502  0.00000000000E+00  0.00000000000E+00  0.44090547975E+02  0.44090547975E+02  0.00000000000E+00 0. -1.
         21   -1    0    0  501  503 -0.00000000000E+00 -0.00000000000E+00 -0.11031944652E+04  0.11031944652E+04  0.00000000000E+00 0. -1.
          6    2    1    2  501    0 -0.94573662418E+02 -0.82134308606E+02 -0.68497531713E+03  0.71759623806E+03  0.17338671673E+03 0.  0.
         24    2    3    3    0    0 -0.38507131706E+02  0.23778479813E+01 -0.17070150071E+03  0.19339645865E+03  0.82308775495E+02 0.  0.
         -6    2    1    2    0  502  0.94573662418E+02  0.82134308606E+02 -0.37412860005E+03  0.42968877507E+03  0.17020579240E+03 0.  0.
        -24    2    5    5    0    0  0.92354394892E+02  0.95023484984E+02 -0.19315879085E+03  0.24818610881E+03  0.82019687687E+02 0.  0.
          5    1    3    3  501    0 -0.56066530713E+02 -0.84512156587E+02 -0.51427381642E+03  0.52419977941E+03  0.47000000000E+01 0. -1.
        -13    1    4    4    0    0  0.30436180036E+01  0.45789299347E+00  0.87040027008E+01  0.92321687355E+01  0.00000000000E+00 0.  1.
         14    1    4    4    0    0 -0.41550749709E+02  0.19199549878E+01 -0.17940550341E+03  0.18416428992E+03  0.00000000000E+00 0. -1.
         -5    1    5    5    0  502  0.22192675262E+01 -0.12889176379E+02 -0.18096980920E+03  0.18150266626E+03  0.47000000000E+01 0.  1.
         11    1    6    6    0    0  0.21239095431E+02  0.80068427345E+02 -0.94794447304E+02  0.12588899663E+03  0.00000000000E+00 0. -1.
        -12    1    6    6    0    0  0.71115299461E+02  0.14955057639E+02 -0.98364343546E+02  0.12229711218E+03  0.00000000000E+00 0.  1.
</event>
<event>
12    1  0.9246030E-003  0.1857975E+03  0.7818608E-02  0.1166252E+00
         21   -1    0    0  501  502  0.00000000000E+00  0.00000000000E+00  0.20395660253E+02  0.20395660253E+02  0.00000000000E+00 0. -1.
         21   -1    0    0  502  503 -0.00000000000E+00 -0.00000000000E+00 -0.16287421460E+04  0.16287421460E+04  0.00000000000E+00 0. -1.
          6    2    1    2  501    0  0.45249083255E+02  0.53494890100E+02 -0.65595039673E+03  0.68175627350E+03  0.17207995434E+03 0.  0.
         24    2    3    3    0    0 -0.34704315887E+02  0.18845463472E+02 -0.44232406337E+03  0.45099356181E+03  0.78645246061E+02 0.  0.
         -6    2    1    2    0  503 -0.45249083255E+02 -0.53494890100E+02 -0.95239608907E+03  0.96738153280E+03  0.15446532534E+03 0.  0.
        -24    2    5    5    0    0  0.21378409293E+02 -0.52096041876E+02 -0.43928247601E+03  0.44993699525E+03  0.79392518543E+02 0.  0.
          5    1    3    3  501    0  0.79953399141E+02  0.34649426629E+02 -0.21362633336E+03  0.23076271169E+03  0.47000000000E+01 0. -1.
        -13    1    4    4    0    0 -0.35540558501E+02  0.33829546080E+02 -0.14095506846E+03  0.14925113337E+03  0.00000000000E+00 0.  1.
         14    1    4    4    0    0  0.83624261400E+00 -0.14984082609E+02 -0.30136899490E+03  0.30174242844E+03  0.00000000000E+00 0. -1.
         -5    1    5    5    0  503 -0.66627492548E+02 -0.13988482240E+01 -0.51311361306E+03  0.51744453755E+03  0.47000000000E+01 0.  1.
         13    1    6    6    0    0 -0.15422857414E+02 -0.56111547283E+01 -0.17438055642E+02  0.23946510660E+02  0.00000000000E+00 0. -1.
        -14    1    6    6    0    0  0.36801266707E+02 -0.46484887148E+02 -0.42184442037E+03  0.42599048459E+03  0.00000000000E+00 0.  1.
</event>
<event>
12    1  0.9246030E-003  0.2076672E+03  0.7818608E-02  0.1144022E+00
         21   -1    0    0  503  502  0.00000000000E+00  0.00000000000E+00  0.12342584353E+04  0.12342584353E+04  0.00000000000E+00 0.  1.
         21   -1    0    0  501  503 -0.00000000000E+00 -0.00000000000E+00 -0.65467982471E+02  0.65467982471E+02  0.00000000000E+00 0.  1.
          6    2    1    2  501    0 -0.10736973189E+03  0.44151982732E+00  0.13926029636E+03  0.25003817208E+03  0.17775602124E+03 0.  0.
         24    2    3    3    0    0 -0.89243061311E+02 -0.54945788059E+02  0.45165372329E+02  0.13925787243E+03  0.79809025544E+02 0.  0.
         -6    2    1    2    0  502  0.10736973189E+03 -0.44151982732E+00  0.10295301565E+04  0.10496882457E+04  0.17431183498E+03 0.  0.
        -24    2    5    5    0    0  0.10397257482E+03  0.51181358699E+02  0.88148458247E+03  0.89279323544E+03  0.81454676496E+02 0.  0.
          5    1    3    3  501    0 -0.18126670574E+02  0.55387307886E+02  0.94094924033E+02  0.11078029965E+03  0.47000000000E+01 0. -1.
        -13    1    4    4    0    0 -0.56003870619E+02 -0.62369933114E+02  0.58990782734E+02  0.10250050989E+03  0.00000000000E+00 0.  1.
         14    1    4    4    0    0 -0.33239190692E+02  0.74241450554E+01 -0.13825410405E+02  0.36757362535E+02  0.00000000000E+00 0. -1.
         -5    1    5    5    0  502  0.33971570685E+01 -0.51622878526E+02  0.14804557403E+03  0.15689501029E+03  0.47000000000E+01 0.  1.
         11    1    6    6    0    0  0.25031475640E+02  0.29023616425E+02  0.10123170492E+03  0.10824418305E+03  0.00000000000E+00 0. -1.
        -12    1    6    6    0    0  0.78941099177E+02  0.22157742274E+02  0.78025287754E+03  0.78454905239E+03  0.00000000000E+00 0.  1.
</event>
<event>
12    1  0.9246030E-003  0.3752338E+03  0.7818608E-02  0.1053512E+00
         21   -1    0    0  501  502  0.00000000000E+00  0.00000000000E+00  0.20304361723E+03  0.20304361723E+03  0.00000000000E+00 0.  1.
         21   -1    0    0  502  503 -0.00000000000E+00 -0.00000000000E+00 -0.79710812990E+03  0.79710812990E+03  0.00000000000E+00 0.  1.
          6    2    1    2  501    0  0.28533446607E+03 -0.15276005613E+03 -0.10080507201E+03  0.38038949576E+03  0.17257784813E+03 0.  0.
         24    2    3    3    0    0  0.22325844374E+03 -0.10676192769E+03 -0.13807053803E+03  0.29448218917E+03  0.80086480523E+02 0.  0.
         -6    2    1    2    0  503 -0.28533446607E+03  0.15276005613E+03 -0.49325944066E+03  0.61976225138E+03  0.18986568978E+03 0.  0.
        -24    2    5    5    0    0 -0.24856054538E+03  0.15620173787E+03 -0.31630326355E+03  0.43893154316E+03  0.80198612311E+02 0.  0.
          5    1    3    3  501    0  0.62076022324E+02 -0.45998128434E+02  0.37265466017E+02  0.85907306584E+02  0.47000000000E+01 0. -1.
        -11    1    4    4    0    0  0.18166062880E+03 -0.11693565779E+03 -0.12550882182E+03  0.24985395028E+03  0.00000000000E+00 0.  1.
         12    1    4    4    0    0  0.41597814946E+02  0.10173730099E+02 -0.12561716210E+02  0.44628238891E+02  0.00000000000E+00 0. -1.
         -5    1    5    5    0  503 -0.36773920689E+02 -0.34416817402E+01 -0.17695617711E+03  0.18083070821E+03  0.47000000000E+01 0.  1.
         11    1    6    6    0    0 -0.16545300388E+03  0.61101657910E+02 -0.20656244088E+03  0.27161765604E+03  0.00000000000E+00 0. -1.
        -12    1    6    6    0    0 -0.83107541497E+02  0.95100079956E+02 -0.10974082267E+03  0.16731388712E+03  0.00000000000E+00 0.  1.
</event>
<event>
12    1  0.9246030E-003  0.1770499E+03  0.7818608E-02  0.1170742E+00
         21   -1    0    0  503  502  0.00000000000E+00  0.00000000000E+00  0.81283600374E+02  0.81283600374E+02  0.00000000000E+00 0.  1.
         21   -1    0    0  501  503 -0.00000000000E+00 -0.00000000000E+00 -0.39660055702E+03  0.39660055702E+03  0.00000000000E+00 0.  1.
          6    2    1    2  501    0 -0.14473490912E+02 -0.43255701630E+02 -0.19829788264E+03  0.26583590912E+03  0.17107350075E+03 0.  0.
         24    2    3    3    0    0  0.13189107532E+02 -0.91714449141E+02 -0.15736918503E+03  0.19647657052E+03  0.72474061774E+02 0.  0.
         -6    2    1    2    0  502  0.14473490912E+02  0.43255701630E+02 -0.11701907401E+03  0.21204824827E+03  0.17085215319E+03 0.  0.
        -24    2    5    5    0    0  0.41110017720E+02  0.28451887699E+02 -0.50982554872E+01  0.95957692729E+02  0.81745599969E+02 0.  0.
          5    1    3    3  501    0 -0.27662598443E+02  0.48458747511E+02 -0.40928697611E+02  0.69359338600E+02  0.47000000000E+01 0. -1.
        -13    1    4    4    0    0  0.21145232719E+02 -0.49060824083E+02 -0.28607633372E+02  0.60601006705E+02  0.00000000000E+00 0.  1.
         14    1    4    4    0    0 -0.79561251878E+01 -0.42653625057E+02 -0.12876155165E+03  0.13587556382E+03  0.00000000000E+00 0. -1.
         -5    1    5    5    0  502 -0.26636526809E+02  0.14803813931E+02 -0.11192081852E+03  0.11609055554E+03  0.47000000000E+01 0.  1.
         11    1    6    6    0    0 -0.11004620390E+02 -0.32339994539E+01 -0.28429614353E+02  0.30656212986E+02  0.00000000000E+00 0. -1.
        -12    1    6    6    0    0  0.52114638110E+02  0.31685887152E+02  0.23331358866E+02  0.65301479743E+02  0.00000000000E+00 0.  1.
</event>
<event>
12    1  0.9246030E-003  0.2249769E+03  0.7818608E-02  0.1130322E+00
         21   -1    0    0  503  502  0.00000000000E+00  0.00000000000E+00  0.77102239137E+02  0.77102239137E+02  0.00000000000E+00 0. -1.
         21   -1    0    0  501  503 -0.00000000000E+00 -0.00000000000E+00 -0.65601394191E+03  0.65601394191E+03  0.00000000000E+00 0.  1.
          6    2    1    2  501    0  0.14181723156E+03 -0.33144035845E+02 -0.30484116454E+03  0.37887036665E+03  0.17147584333E+03 0.  0.
         24    2    3    3    0    0  0.22019503245E+02 -0.14541604520E+02 -0.20535809024E+03  0.22197384587E+03  0.80025784829E+02 0.  0.
         -6    2    1    2    0  502 -0.14181723156E+03  0.33144035845E+02 -0.27407053823E+03  0.35424581440E+03  0.17077699732E+03 0.  0.
        -24    2    5    5    0    0 -0.13386893549E+03  0.65521122930E+02 -0.14811913235E+03  0.22387212908E+03  0.77236930116E+02 0.  0.
          5    1    3    3  501    0  0.11979772831E+03 -0.18602431326E+02 -0.99483074301E+02  0.15689652078E+03  0.47000000000E+01 0. -1.
        -13    1    4    4    0    0 -0.10844585113E+02  0.28277161233E+02 -0.74538827538E+02  0.80456445885E+02  0.00000000000E+00 0.  1.
         14    1    4    4    0    0  0.32864088359E+02 -0.42818765753E+02 -0.13081926270E+03  0.14151739999E+03  0.00000000000E+00 0. -1.
         -5    1    5    5    0  502 -0.79482960659E+01 -0.32377087084E+02 -0.12595140589E+03  0.13037368532E+03  0.47000000000E+01 0.  1.
         13    1    6    6    0    0 -0.54375910329E+02  0.51572938270E+02 -0.29805764068E+02  0.80652905451E+02  0.00000000000E+00 0. -1.
        -14    1    6    6    0    0 -0.79493025163E+02  0.13948184659E+02 -0.11831336828E+03  0.14321922363E+03  0.00000000000E+00 0.  1.
</event>
<event>
12    1  0.9246030E-003  0.2090694E+03  0.7818608E-02  0.1142369E+00
         21   -1    0    0  503  502  0.00000000000E+00  0.00000000000E+00  0.31567507169E+03  0.31567507169E+03  0.00000000000E+00 0.  1.
         21   -1    0    0  501  503 -0.00000000000E+00 -0.00000000000E+00 -0.18149365976E+03  0.18149365976E+03  0.00000000000E+00 0.  1.
          6    2    1    2  501    0 -0.10428102149E+03 -0.58491640263E+02 -0.54285519082E+02  0.21569086602E+03  0.17111349649E+03 0.  0.
         24    2    3    3    0    0  0.69540771407E+01  0.26213505571E+00 -0.16255421815E+02  0.84185612975E+02  0.82307659364E+02 0.  0.
         -6    2    1    2    0  502  0.10428102149E+03  0.58491640263E+02  0.18846693101E+03  0.28147786543E+03  0.17150568858E+03 0.  0.
        -24    2    5    5    0    0  0.11638073345E+03  0.11797306864E+02  0.80006452867E+02  0.16268169915E+03  0.79878978283E+02 0.  0.
          5    1    3    3  501    0 -0.11123509863E+03 -0.58753775319E+02 -0.38030097267E+02  0.13150525305E+03  0.47000000000E+01 0. -1.
        -11    1    4    4    0    0  0.15356541226E+02 -0.24730321050E+02 -0.39477835446E+02  0.49050093060E+02  0.00000000000E+00 0.  1.
         12    1    4    4    0    0 -0.84024640853E+01  0.24992456105E+02  0.23222413631E+02  0.35135519916E+02  0.00000000000E+00 0. -1.
         -5    1    5    5    0  502 -0.12099711963E+02  0.46694333400E+02  0.10846047814E+03  0.11879616627E+03  0.47000000000E+01 0.  1.
         13    1    6    6    0    0  0.11518383716E+03  0.33412434629E+02  0.69563614848E+02  0.13864632574E+03  0.00000000000E+00 0. -1.
        -14    1    6    6    0    0  0.11968962861E+01 -0.21615127765E+02  0.10442838019E+02  0.24035373409E+02  0.00000000000E+00 0.  1.
</event>
<event>
12    1  0.9246030E-003  0.2030977E+03  0.7818608E-02  0.1147253E+00
         21   -1    0    0  503  502  0.00000000000E+00  0.00000000000E+00  0.26124282873E+03  0.26124282873E+03  0.00000000000E+00 0. -1.
         21   -1    0    0  501  503 -0.00000000000E+00 -0.00000000000E+00 -0.15756691946E+03  0.15756691946E+03  0.00000000000E+00 0. -1.
          6    2    1    2  501    0  0.49400391971E+02 -0.95800096834E+02  0.55620832053E+02  0.21010432654E+03  0.17155784386E+03 0.  0.
         24    2    3    3    0    0 -0.18613221671E+02 -0.35866089171E+02 -0.18434130932E+02  0.92954147458E+02  0.81656769304E+02 0.  0.
         -6    2    1    2    0  502 -0.49400391971E+02  0.95800096834E+02  0.48055077226E+02  0.20870542165E+03  0.17213542721E+03 0.  0.
        -24    2    5    5    0    0 -0.22510447831E+01  0.10334383325E+02 -0.27459440420E+02  0.85206508696E+02  0.79964126799E+02 0.  0.
          5    1    3    3  501    0  0.68013613643E+02 -0.59934007664E+02  0.74054962985E+02  0.11715017908E+03  0.47000000000E+01 0. -1.
        -11    1    4    4    0    0 -0.21731363676E+02  0.19229907105E+02  0.10231451696E+02  0.30768881980E+02  0.00000000000E+00 0.  1.
         12    1    4    4    0    0  0.31181420047E+01 -0.55095996276E+02 -0.28665582628E+02  0.62185265478E+02  0.00000000000E+00 0. -1.
         -5    1    5    5    0  502 -0.47149347188E+02  0.85465713510E+02  0.75514517647E+02  0.12349891296E+03  0.47000000000E+01 0.  1.
         13    1    6    6    0    0 -0.39741920237E+02  0.51054464108E+01 -0.30915451478E+01  0.40187603295E+02  0.00000000000E+00 0. -1.
        -14    1    6    6    0    0  0.37490875454E+02  0.52289369137E+01 -0.24367895272E+02  0.45018905402E+02  0.00000000000E+00 0.  1.
</event>
<event>
12    1  0.9246030E-003  0.2142682E+03  0.7818608E-02  0.1139185E+00
         21   -1    0    0  501  502  0.00000000000E+00  0.00000000000E+00  0.79770461574E+03  0.79770461574E+03  0.00000000000E+00 0. -1.
         21   -1    0    0  502  503 -0.00000000000E+00 -0.00000000000E+00 -0.88808071738E+02  0.88808071738E+02  0.00000000000E+00 0. -1.
          6    2    1    2  501    0 -0.15877782134E+02 -0.11766364156E+03  0.62542662873E+03  0.66111219500E+03  0.17836487867E+03 0.  0.
         24    2    3    3    0    0  0.33390675515E+02 -0.41695299874E+02  0.16589176016E+03  0.19271817787E+03  0.82260468926E+02 0.  0.
         -6    2    1    2    0  503  0.15877782134E+02  0.11766364156E+03  0.83469915275E+02  0.22540049248E+03  0.17245671556E+03 0.  0.
        -24    2    5    5    0    0 -0.12232971554E+02  0.12378071864E+03  0.11113382581E+03  0.18521324262E+03  0.80510285712E+02 0.  0.
          5    1    3    3  501    0 -0.49268457649E+02 -0.75968341687E+02  0.45953486856E+03  0.46839401713E+03  0.47000000000E+01 0. -1.
        -11    1    4    4    0    0 -0.22379264471E+02 -0.64262931069E+01  0.86015814798E+02  0.89111442120E+02  0.00000000000E+00 0.  1.
         12    1    4    4    0    0  0.55769939986E+02 -0.35269006767E+02  0.79875945366E+02  0.10360673575E+03  0.00000000000E+00 0. -1.
         -5    1    5    5    0  503  0.28110753688E+02 -0.61170770758E+01 -0.27663910533E+02  0.40187249854E+02  0.47000000000E+01 0.  1.
         11    1    6    6    0    0 -0.10354913289E+02  0.10226520588E+03  0.12322040387E+03  0.16046390402E+03  0.00000000000E+00 0. -1.
        -12    1    6    6    0    0 -0.18780582651E+01  0.21515512761E+02 -0.12086578064E+02  0.24749338607E+02  0.00000000000E+00 0.  1.
</event>
<event>
12    1  0.9246030E-003  0.1995409E+03  0.7818608E-02  0.1150203E+00
         21   -1    0    0  501  502  0.00000000000E+00  0.00000000000E+00  0.33152083053E+03  0.33152083053E+03  0.00000000000E+00 0. -1.
         21   -1    0    0  502  503 -0.00000000000E+00 -0.00000000000E+00 -0.18159126609E+03  0.18159126609E+03  0.00000000000E+00 0.  1.
          6    2    1    2  501    0 -0.63253420361E+02  0.77672794640E+02  0.22447322013E+03  0.30010196173E+03  0.17215952679E+03 0.  0.
         24    2    3    3    0    0 -0.48887699961E+01  0.10693062769E+03  0.15060285517E+03  0.20140356242E+03  0.80150581784E+02 0.  0.
         -6    2    1    2    0  503  0.63253420361E+02 -0.77672794640E+02 -0.74543655689E+02  0.21301013488E+03  0.17257607813E+03 0.  0.
        -24    2    5    5    0    0  0.20878490586E+02 -0.99829662776E+02 -0.94891029636E+02  0.16083095220E+03  0.80376705207E+02 0.  0.
          5    1    3    3  501    0 -0.58364650365E+02 -0.29257833051E+02  0.73870364961E+02  0.98698399311E+02  0.47000000000E+01 0. -1.
        -13    1    4    4    0    0 -0.30255945903E+02  0.88538441239E+01  0.26347587158E+02  0.41085376563E+02  0.00000000000E+00 0.  1.
         14    1    4    4    0    0  0.25367175907E+02  0.98076783567E+02  0.12425526801E+03  0.16031818586E+03  0.00000000000E+00 0. -1.
         -5    1    5    5    0  503  0.42374929775E+02  0.22156868136E+02  0.20347373946E+02  0.52179182684E+02  0.47000000000E+01 0.  1.
         11    1    6    6    0    0  0.82351003045E+01 -0.83030678977E+02 -0.23902477353E+02  0.86794233403E+02  0.00000000000E+00 0. -1.
        -12    1    6    6    0    0  0.12643390281E+02 -0.16798983799E+02 -0.70988552282E+02  0.74036718793E+02  0.00000000000E+00 0.  1.
</event>
<event>
12    1  0.9246030E-003  0.2484858E+03  0.7818608E-02  0.1114291E+00
         21   -1    0    0  503  502  0.00000000000E+00  0.00000000000E+00  0.83003975817E+02  0.83003975817E+02  0.00000000000E+00 0. -1.
         21   -1    0    0  501  503 -0.00000000000E+00 -0.00000000000E+00 -0.87335678717E+03  0.87335678717E+03  0.00000000000E+00 0.  1.
          6    2    1    2  501    0  0.13144689630E+02  0.17867549644E+03 -0.57974228259E+03  0.63075058953E+03  0.17218442462E+03 0.  0.
         24    2    3    3    0    0 -0.44354637761E+02  0.15839235641E+03 -0.39787388523E+03  0.43887619735E+03  0.85165812325E+02 0.  0.
         -6    2    1    2    0  502 -0.13144689630E+02 -0.17867549644E+03 -0.21061052877E+03  0.32561017345E+03  0.17195195357E+03 0.  0.
        -24    2    5    5    0    0 -0.60225516073E+02 -0.16533345938E+03 -0.19440829626E+03  0.27384902480E+03  0.78971115948E+02 0.  0.
          5    1    3    3  501    0  0.57499327391E+02  0.20283140034E+02 -0.18186839735E+03  0.19187439218E+03  0.47000000000E+01 0. -1.
        -13    1    4    4    0    0 -0.46572686211E+02  0.14478205527E+03 -0.39691189227E+03  0.42505283067E+03  0.00000000000E+00 0.  1.
         14    1    4    4    0    0  0.22180484502E+01  0.13610301139E+02 -0.96199296146E+00  0.13823366684E+02  0.00000000000E+00 0. -1.
         -5    1    5    5    0  502  0.47080826443E+02 -0.13342037061E+02 -0.16202232508E+02  0.51761148652E+02  0.47000000000E+01 0.  1.
         11    1    6    6    0    0  0.17707168016E+02 -0.47336313446E+02 -0.39844290756E+02  0.64357112083E+02  0.00000000000E+00 0. -1.
        -12    1    6    6    0    0 -0.77932684089E+02 -0.11799714594E+03 -0.15456400550E+03  0.20949191272E+03  0.00000000000E+00 0.  1.
</event>
<event>
12    1  0.9246030E-003  0.2086776E+03  0.7818608E-02  0.1142854E+00
         21   -1    0    0  503  502  0.00000000000E+00  0.00000000000E+00  0.96741084973E+03  0.96741084973E+03  0.00000000000E+00 0.  1.
         21   -1    0    0  501  503 -0.00000000000E+00 -0.00000000000E+00 -0.68991859442E+02  0.68991859442E+02  0.00000000000E+00 0.  1.
          6    2    1    2  501    0  0.71425355426E+02 -0.91796249431E+02  0.14126254382E+03  0.25101603837E+03  0.17183076681E+03 0.  0.
         24    2    3    3    0    0 -0.21100944664E+02 -0.61613685748E+01  0.71318154142E+02  0.10676363223E+03  0.76347768327E+02 0.  0.
         -6    2    1    2    0  502 -0.71425355426E+02  0.91796249431E+02  0.75715644646E+03  0.78538667081E+03  0.17325762740E+03 0.  0.
        -24    2    5    5    0    0 -0.73303512185E+02  0.11335522740E+03  0.74383080576E+03  0.75954136748E+03  0.73457530903E+02 0.  0.
          5    1    3    3  501    0  0.92526300090E+02 -0.85634880856E+02  0.69944389681E+02  0.14425240613E+03  0.47000000000E+01 0. -1.
        -13    1    4    4    0    0 -0.33432927915E+02 -0.32948496207E+02  0.57415408706E+02  0.74161265011E+02  0.00000000000E+00 0.  1.
         14    1    4    4    0    0  0.12331983251E+02  0.26787127632E+02  0.13902745437E+02  0.32602367220E+02  0.00000000000E+00 0. -1.
         -5    1    5    5    0  502  0.18781567591E+01 -0.21558977965E+02  0.13325640707E+02  0.25845303325E+02  0.47000000000E+01 0.  1.
         13    1    6    6    0    0 -0.33173577585E+02 -0.66127455445E-01  0.14539370325E+03  0.14913021010E+03  0.00000000000E+00 0. -1.
        -14    1    6    6    0    0 -0.40129934600E+02  0.11342135485E+03  0.59843710251E+03  0.61041115738E+03  0.00000000000E+00 0.  1.
</event>
<event>
12    1  0.9246030E-003  0.2024715E+03  0.7818608E-02  0.1147711E+00
         21   -1    0    0  503  502  0.00000000000E+00  0.00000000000E+00  0.10105923836E+03  0.10105923836E+03  0.00000000000E+00 0. -1.
         21   -1    0    0  501  503 -0.00000000000E+00 -0.00000000000E+00 -0.41136927582E+03  0.41136927582E+03  0.00000000000E+00 0. -1.
          6    2    1    2  501    0  0.41030572318E+02 -0.96802344500E+02 -0.18645337371E+03  0.27524453610E+03  0.17303321161E+03 0.  0.
         24    2    3    3    0    0  0.81502564769E+02 -0.60548756186E+02 -0.17740014227E+03  0.21996021791E+03  0.81258027563E+02 0.  0.
         -6    2    1    2    0  502 -0.41030572318E+02  0.96802344500E+02 -0.12385666374E+03  0.23718397808E+03  0.17280498991E+03 0.  0.
        -24    2    5    5    0    0  0.20557162294E+02  0.60770062620E+02 -0.12976528961E+03  0.16543179169E+03  0.80081520223E+02 0.  0.
          5    1    3    3  501    0 -0.40471992451E+02 -0.36253588314E+02 -0.90532314390E+01  0.55284318193E+02  0.47000000000E+01 0. -1.
        -11    1    4    4    0    0 -0.90809359269E+01  0.75742316778E+01 -0.34048194719E+01  0.12305493832E+02  0.00000000000E+00 0.  1.
         12    1    4    4    0    0  0.90583500696E+02 -0.68122987864E+02 -0.17399532280E+03  0.20765472408E+03  0.00000000000E+00 0. -1.
         -5    1    5    5    0  502 -0.61587734613E+02  0.36032281881E+02  0.59086258683E+01  0.71752186391E+02  0.47000000000E+01 0.  1.
         13    1    6    6    0    0 -0.21113530150E+01  0.28374686749E+02 -0.12182488356E+03  0.12510348882E+03  0.00000000000E+00 0. -1.
        -14    1    6    6    0    0  0.22668515309E+02  0.32395375871E+02 -0.79404060477E+01  0.40328302870E+02  0.00000000000E+00 0.  1.
</event>
<event>
12    1  0.9246030E-003  0.2345957E+03  0.7818608E-02  0.1123546E+00
         21   -1    0    0  501  502  0.00000000000E+00  0.00000000000E+00  0.17820097334E+04  0.17820097334E+04  0.00000000000E+00 0.  1.
         21   -1    0    0  502  503 -0.00000000000E+00 -0.00000000000E+00 -0.41355210613E+02  0.41355210613E+02  0.00000000000E+00 0.  1.
          6    2    1    2  501    0 -0.10468994990E+03  0.12045685088E+03  0.13299475683E+04  0.13503793925E+04  0.17115528274E+03 0.  0.
         24    2    3    3    0    0 -0.83886033384E+02  0.95910249453E+01  0.81017942425E+03  0.81849120139E+03  0.80051813982E+02 0.  0.
         -6    2    1    2    0  503  0.10468994990E+03 -0.12045685088E+03  0.41070695446E+03  0.47298555146E+03  0.17194560451E+03 0.  0.
        -24    2    5    5    0    0  0.75669646553E+02 -0.12561064828E+03  0.41060124259E+03  0.44313859501E+03  0.79211764308E+02 0.  0.
          5    1    3    3  501    0 -0.20803916513E+02  0.11086582594E+03  0.51976814406E+03  0.53188819115E+03  0.47000000000E+01 0. -1.
        -11    1    4    4    0    0 -0.41295362009E+02  0.37969859171E+02  0.57916450657E+03  0.58187502335E+03  0.00000000000E+00 0.  1.
         12    1    4    4    0    0 -0.42590671375E+02 -0.28378834226E+02  0.23101491768E+03  0.23661617804E+03  0.00000000000E+00 0. -1.
         -5    1    5    5    0  503  0.29020303344E+02  0.51537973941E+01  0.10571186787E+00  0.29846956441E+02  0.47000000000E+01 0.  1.
         13    1    6    6    0    0  0.67624816515E+02 -0.38171404712E+02  0.21943893956E+03  0.23277375312E+03  0.00000000000E+00 0. -1.
        -14    1    6    6    0    0  0.80448300382E+01 -0.87439243564E+02  0.19116230303E+03  0.21036484189E+03  0.00000000000E+00 0.  1.
</event>
<event>
12    1  0.9246030E-003  0.1850711E+03  0.7818608E-02  0.1163169E+00
         21   -1    0    0  501  502  0.00000000000E+00  0.00000000000E+00  0.23208335102E+02  0.23208335102E+02  0.00000000000E+00 0. -1.
         21   -1    0    0  502  503 -0.00000000000E+00 -0.00000000000E+00 -0.15141199593E+04  0.15141199593E+04  0.00000000000E+00 0. -1.
          6    2    1    2  501    0 -0.53873472692E+02 -0.41372973942E+02 -0.87896378421E+03  0.89823641513E+03  0.17215472543E+03 0.  0.
         24    2    3    3    0    0  0.30033210480E+02 -0.47787657975E+02 -0.54750653778E+03  0.55623133350E+03  0.80275983138E+02 0.  0.
         -6    2    1    2    0  503  0.53873472692E+02  0.41372973942E+02 -0.61194783999E+03  0.63909187927E+03  0.17130148058E+03 0.  0.
        -24    2    5    5    0    0  0.76385292187E+02  0.77611885602E+02 -0.52447443780E+03  0.54165612184E+03  0.80371641588E+02 0.  0.
          5    1    3    3  501    0 -0.83906683173E+02  0.64146840334E+01 -0.33145724643E+03  0.34200508164E+03  0.47000000000E+01 0. -1.
        -13    1    4    4    0    0  0.38789513989E+02  0.94273614059E+01 -0.20133809682E+03  0.20525723073E+03  0.00000000000E+00 0.  1.
         14    1    4    4    0    0 -0.87563035084E+01 -0.57215019381E+02 -0.34616844096E+03  0.35097410276E+03  0.00000000000E+00 0. -1.
         -5    1    5    5    0  503 -0.22511819495E+02 -0.36238911661E+02 -0.87473402196E+02  0.97435757435E+02  0.47000000000E+01 0.  1.
         11    1    6    6    0    0  0.39460295723E+02  0.66158331824E+02 -0.46056768594E+03  0.46696534469E+03  0.00000000000E+00 0. -1.
        -12    1    6    6    0    0  0.36924996464E+02  0.11453553779E+02 -0.63906751856E+02  0.74690777147E+02  0.00000000000E+00 0.  1.
</event>
<event>
12    1  0.9246030E-003  0.2350148E+03  0.7818608E-02  0.1123169E+00
         21   -1    0    0  501  502  0.00000000000E+00  0.00000000000E+00  0.15930705603E+03  0.15930705603E+03  0.00000000000E+00 0. -1.
         21   -1    0    0  502  503 -0.00000000000E+00 -0.00000000000E+00 -0.38079367158E+03  0.38079367158E+03  0.00000000000E+00 0.  1.
          6    2    1    2  501    0  0.13922326849E+03 -0.78480923055E+02 -0.29827141231E+02  0.23684290075E+03  0.17222812636E+03 0.  0.
         24    2    3    3    0    0  0.54222185362E+02 -0.19330168762E+02 -0.74884077306E+02  0.12381098776E+03  0.80048952805E+02 0.  0.
         -6    2    1    2    0  503 -0.13922326849E+03  0.78480923055E+02 -0.19165947432E+03  0.30325782686E+03  0.17230665015E+03 0.  0.
        -24    2    5    5    0    0 -0.87788957200E+01  0.42913449982E+02 -0.12117720226E+03  0.15071071872E+03  0.78173993058E+02 0.  0.
          5    1    3    3  501    0  0.85001083127E+02 -0.59150754293E+02  0.45056936075E+02  0.11303191299E+03  0.47000000000E+01 0. -1.
        -11    1    4    4    0    0  0.85737834958E+01 -0.27016037215E+02  0.74937988434E+01  0.29317794108E+02  0.00000000000E+00 0.  1.
         12    1    4    4    0    0  0.45648401866E+02  0.76858684537E+01 -0.82377876149E+02  0.94493193647E+02  0.00000000000E+00 0. -1.
         -5    1    5    5    0  503 -0.13044437277E+03  0.35567473073E+02 -0.70482272062E+02  0.15254710814E+03  0.47000000000E+01 0.  1.
         13    1    6    6    0    0  0.38757019759E+00 -0.33308595611E+01  0.10408119443E+02  0.10934979946E+02  0.00000000000E+00 0. -1.
        -14    1    6    6    0    0 -0.91664659176E+01  0.46244309543E+02 -0.13158532170E+03  0.13977573878E+03  0.00000000000E+00 0.  1.
</event>
<event>
12    1  0.9246030E-003  0.1948543E+03  0.7818608E-02  0.1154288E+00
         21   -1    0    0  503  502  0.00000000000E+00  0.00000000000E+00  0.30569607962E+03  0.30569607962E+03  0.00000000000E+00 0.  1.
         21   -1    0    0  501  503 -0.00000000000E+00 -0.00000000000E+00 -0.13452544660E+03  0.13452544660E+03  0.00000000000E+00 0. -1.
          6    2    1    2  501    0  0.68934111198E+02  0.59608450624E+02  0.23350812551E+02  0.19564251599E+03  0.17153907585E+03 0.  0.
         24    2    3    3    0    0  0.94604304957E+02  0.50170218073E+02 -0.32607626309E+02  0.13318071998E+03  0.72158309177E+02 0.  0.
         -6    2    1    2    0  502 -0.68934111198E+02 -0.59608450624E+02  0.14781982047E+03  0.24457901023E+03  0.17222982857E+03 0.  0.
        -24    2    5    5    0    0 -0.88961348114E+02  0.13360010691E+02  0.80042609140E+02  0.14288669518E+03  0.76923189204E+02 0.  0.
          5    1    3    3  501    0 -0.25670193759E+02  0.94382325509E+01  0.55958438860E+02  0.62461796011E+02  0.47000000000E+01 0. -1.
        -11    1    4    4    0    0  0.20469285708E+02 -0.11317663839E+00  0.20559315521E+02  0.29011892752E+02  0.00000000000E+00 0.  1.
         12    1    4    4    0    0  0.74135019249E+02  0.50283394711E+02 -0.53166941830E+02  0.10416882723E+03  0.00000000000E+00 0. -1.
         -5    1    5    5    0  502  0.20027236917E+02 -0.72968461315E+02  0.67777211329E+02  0.10169231505E+03  0.47000000000E+01 0.  1.
         11    1    6    6    0    0 -0.42553535766E+02  0.11303178281E+02  0.85443379298E+02  0.96120426087E+02  0.00000000000E+00 0. -1.
        -12    1    6    6    0    0 -0.46407812348E+02  0.20568324102E+01 -0.54007701572E+01  0.46766269092E+02  0.00000000000E+00 0.  1.
</event>
<event>
12    1  0.9246030E-003  0.1851643E+03  0.7818608E-02  0.1164192E+00
         21   -1    0    0  501  502  0.00000000000E+00  0.00000000000E+00  0.67247543255E+02  0.67247543255E+02  0.00000000000E+00 0. -1.
         21   -1    0    0  502  503 -0.00000000000E+00 -0.00000000000E+00 -0.49497292308E+03  0.49497292308E+03  0.00000000000E+00 0.  1.
          6    2    1    2  501    0  0.55699588189E+02  0.17472890729E+02 -0.20731817570E+03  0.27435738937E+03  0.16995118443E+03 0.  0.
         24    2    3    3    0    0  0.53852056844E+02 -0.50816318180E+02 -0.10501320646E+03  0.15125082514E+03  0.79791580716E+02 0.  0.
         -6    2    1    2    0  503 -0.55699588189E+02 -0.17472890729E+02 -0.22040720412E+03  0.28786307697E+03  0.17572156788E+03 0.  0.
        -24    2    5    5    0    0 -0.97178417388E+01 -0.12577139530E+01 -0.22450240807E+03  0.23870909788E+03  0.80527534974E+02 0.  0.
          5    1    3    3  501    0  0.18475313448E+01  0.68289208909E+02 -0.10230496924E+03  0.12310656423E+03  0.47000000000E+01 0. -1.
        -13    1    4    4    0    0  0.43748570606E+00 -0.13491423694E+02 -0.80508472727E+02  0.81632249068E+02  0.00000000000E+00 0.  1.
         14    1    4    4    0    0  0.53414571138E+02 -0.37324894487E+02 -0.24504733734E+02  0.69618576068E+02  0.00000000000E+00 0. -1.
         -5    1    5    5    0  503 -0.45981746450E+02 -0.16215176776E+02  0.40952039502E+01  0.49153979085E+02  0.47000000000E+01 0.  1.
         11    1    6    6    0    0  0.34587962263E+02 -0.47785497713E+01 -0.12390442211E+03  0.12873021203E+03  0.00000000000E+00 0. -1.
        -12    1    6    6    0    0 -0.44305804002E+02  0.35208358183E+01 -0.10059798596E+03  0.10997888585E+03  0.00000000000E+00 0.  1.
</event>
<event>
12    1  0.9246030E-003  0.1853604E+03  0.7818608E-02  0.1163057E+00
         21   -1    0    0  501  502  0.00000000000E+00  0.00000000000E+00  0.10340177713E+04  0.10340177713E+04  0.00000000000E+00 0.  1.
         21   -1    0    0  502  503 -0.00000000000E+00 -0.00000000000E+00 -0.38896491627E+02  0.38896491627E+02  0.00000000000E+00 0. -1.
          6    2    1    2  501    0 -0.26413073886E+02  0.59779784605E+02  0.70871509441E+03  0.73255414131E+03  0.17345665681E+03 0.  0.
         24    2    3    3    0    0  0.35406060162E+02 -0.11439915963E+02  0.32812004538E+03  0.34042083181E+03  0.82698958700E+02 0.  0.
         -6    2    1    2    0  503  0.26413073886E+02 -0.59779784605E+02  0.28640618522E+03  0.34036012157E+03  0.17188727790E+03 0.  0.
        -24    2    5    5    0    0  0.74105039376E+02 -0.19978639752E+02  0.23449388948E+03  0.25926985611E+03  0.79641516647E+02 0.  0.
          5    1    3    3  501    0 -0.61819134048E+02  0.71219700568E+02  0.38059504902E+03  0.39213330951E+03  0.47000000000E+01 0. -1.
        -13    1    4    4    0    0 -0.90337870913E+01 -0.33295733421E+02  0.20202046071E+03  0.20494507000E+03  0.00000000000E+00 0.  1.
         14    1    4    4    0    0  0.44439847253E+02  0.21855817457E+02  0.12609958468E+03  0.13547576180E+03  0.00000000000E+00 0. -1.
         -5    1    5    5    0  503 -0.47691965490E+02 -0.39801144853E+02  0.51912295733E+02  0.81090265458E+02  0.47000000000E+01 0.  1.
         11    1    6    6    0    0  0.14024194480E+02 -0.10583715262E+02  0.57850253097E+00  0.17579184416E+02  0.00000000000E+00 0. -1.
        -12    1    6    6    0    0  0.60080844895E+02 -0.93949244906E+01  0.23391538695E+03  0.24169067169E+03  0.00000000000E+00 0.  1.
</event>
<event>
12    1  0.9246030E-003  0.2017467E+03  0.7818608E-02  0.1148997E+00
         21   -1    0    0  503  502  0.00000000000E+00  0.00000000000E+00  0.26817525172E+03  0.26817525172E+03  0.00000000000E+00 0.  1.
         21   -1    0    0  501  503 -0.00000000000E+00 -0.00000000000E+00 -0.19030901212E+03  0.19030901212E+03  0.00000000000E+00 0. -1.
          6    2    1    2  501    0  0.74325798533E+02  0.75097087189E+02 -0.67347383989E+02  0.21269087668E+03  0.17186576756E+03 0.  0.
         24    2    3    3    0    0 -0.12193209215E+01 -0.13992159638E+02 -0.10540112835E+02  0.82717360030E+02  0.80831926842E+02 0.  0.
         -6    2    1    2    0  502 -0.74325798533E+02 -0.75097087189E+02  0.14521362359E+03  0.24579338716E+03  0.16781983156E+03 0.  0.
        -24    2    5    5    0    0  0.17086089570E+02 -0.31709936557E+01  0.75079241171E+02  0.10988747186E+03  0.78335013620E+02 0.  0.
          5    1    3    3  501    0  0.75545119454E+02  0.89089246827E+02 -0.56807271155E+02  0.12997351665E+03  0.47000000000E+01 0. -1.
        -13    1    4    4    0    0 -0.26706442641E+02  0.14273600836E+02 -0.27633886717E+02  0.40995139401E+02  0.00000000000E+00 0.  1.
         14    1    4    4    0    0  0.25487121720E+02 -0.28265760473E+02  0.17093773883E+02  0.41722220630E+02  0.00000000000E+00 0. -1.
         -5    1    5    5    0  502 -0.91411888103E+02 -0.71926093534E+02  0.70134382424E+02  0.13590591531E+03  0.47000000000E+01 0.  1.
         13    1    6    6    0    0  0.22457819672E+02 -0.22320004671E+02 -0.56961441866E+00  0.31667976467E+02  0.00000000000E+00 0. -1.
        -14    1    6    6    0    0 -0.53717301017E+01  0.19149011015E+02  0.75648855590E+02  0.78219495391E+02  0.00000000000E+00 0.  1.
</event>
<event>
12    1  0.9246030E-003  0.2157638E+03  0.7818608E-02  0.1137259E+00
         21   -1    0    0  501  502  0.00000000000E+00  0.00000000000E+00  0.20213143582E+03  0.20213143582E+03  0.00000000000E+00 0. -1.
         21   -1    0    0  502  503 -0.00000000000E+00 -0.00000000000E+00 -0.33304804574E+03  0.33304804574E+03  0.00000000000E+00 0.  1.
          6    2    1    2  501    0  0.12798302698E+02 -0.12962382257E+03  0.83967723322E+02  0.23066461964E+03  0.17084922085E+03 0.  0.
         24    2    3    3    0    0  0.13219111791E+02 -0.21507325726E+02  0.89915024499E+02  0.12228189795E+03  0.78935676082E+02 0.  0.
         -6    2    1    2    0  503 -0.12798302698E+02  0.12962382257E+03 -0.21488433324E+03  0.30451486191E+03  0.17201131509E+03 0.  0.
        -24    2    5    5    0    0 -0.76531398340E+02  0.78586094632E+02 -0.99528447146E+02  0.16310825807E+03  0.68304925564E+02 0.  0.
          5    1    3    3  501    0 -0.42080909282E+00 -0.10811649685E+03 -0.59473011771E+01  0.10838272170E+03  0.47000000000E+01 0. -1.
        -11    1    4    4    0    0  0.31958999289E+02 -0.11618081720E+02  0.45284046850E+01  0.34305450112E+02  0.00000000000E+00 0.  1.
         12    1    4    4    0    0 -0.18739887498E+02 -0.98892440054E+01  0.85386619814E+02  0.87976447836E+02  0.00000000000E+00 0. -1.
         -5    1    5    5    0  503  0.63733095643E+02  0.51037727942E+02 -0.11535588610E+03  0.14140660385E+03  0.47000000000E+01 0.  1.
         13    1    6    6    0    0 -0.15702787786E+02  0.10093479623E+02 -0.60892454247E+02  0.63689456422E+02  0.00000000000E+00 0. -1.
        -14    1    6    6    0    0 -0.60828610555E+02  0.68492615009E+02 -0.38635992899E+02  0.99418801643E+02  0.00000000000E+00 0.  1.
</event>
<event>
12    1  0.9246030E-003  0.2044363E+03  0.7818608E-02  0.1146144E+00
         21   -1    0    0  501  502  0.00000000000E+00  0.00000000000E+00  0.12160413325E+03  0.12160413325E+03  0.00000000000E+00 0.  1.
         21   -1    0    0  502  503 -0.00000000000E+00 -0.00000000000E+00 -0.39968990598E+03  0.39968990598E+03  0.00000000000E+00 0.  1.
          6    2    1    2  501    0  0.24792763030E+02 -0.10446101347E+03 -0.40674042625E+02  0.20799139074E+03  0.17343372350E+03 0.  0.
         24    2    3    3    0    0 -0.40801757453E+02 -0.71182936610E+02  0.14594328869E+02  0.11586780850E+03  0.80501930019E+02 0.  0.
         -6    2    1    2    0  503 -0.24792763030E+02  0.10446101347E+03 -0.23741173010E+03  0.31330264849E+03  0.17397538771E+03 0.  0.
        -24    2    5    5    0    0 -0.60384910575E+02  0.55499290530E+02 -0.21075056644E+03  0.24699307959E+03  0.99314004245E+02 0.  0.
          5    1    3    3  501    0  0.65594520483E+02 -0.33278076855E+02 -0.55268371494E+02  0.92123582237E+02  0.47000000000E+01 0. -1.
        -11    1    4    4    0    0 -0.58200685901E+01 -0.75029289173E+02 -0.53004970519E+01  0.75441120758E+02  0.00000000000E+00 0.  1.
         12    1    4    4    0    0 -0.34981688863E+02  0.38463525633E+01  0.19894825921E+02  0.40426687747E+02  0.00000000000E+00 0. -1.
         -5    1    5    5    0  503  0.35592147545E+02  0.48961722935E+02 -0.26661163668E+02  0.66309568901E+02  0.47000000000E+01 0.  1.
         13    1    6    6    0    0 -0.40051532319E+02  0.34036386401E+02 -0.23762956269E+02  0.57682570427E+02  0.00000000000E+00 0. -1.
        -14    1    6    6    0    0 -0.20333378256E+02  0.21462904129E+02 -0.18698761017E+03  0.18931050917E+03  0.00000000000E+00 0.  1.
</event>
<event>
12    1  0.9246030E-003  0.2610412E+03  0.7818608E-02  0.1106533E+00
         21   -1    0    0  501  502  0.00000000000E+00  0.00000000000E+00  0.20376133158E+04  0.20376133158E+04  0.00000000000E+00 0.  1.
         21   -1    0    0  502  503 -0.00000000000E+00 -0.00000000000E+00 -0.58835936959E+02  0.58835936959E+02  0.00000000000E+00 0.  1.
          6    2    1    2  501    0  0.99906247985E+02  0.16969813701E+03  0.16780927603E+04  0.16982611983E+04  0.17122228126E+03 0.  0.
         24    2    3    3    0    0  0.18383212300E+02  0.12588518084E+03  0.13158845599E+04  0.13243862849E+04  0.79131759815E+02 0.  0.
         -6    2    1    2    0  503 -0.99906247985E+02 -0.16969813701E+03  0.30068461855E+03  0.39818805440E+03  0.17135860278E+03 0.  0.
        -24    2    5    5    0    0 -0.38701634851E+02 -0.19149712010E+02  0.65977994166E+02  0.11267076514E+03  0.80480293193E+02 0.  0.
          5    1    3    3  501    0  0.81523035686E+02  0.43812956170E+02  0.36220820040E+03  0.37387491345E+03  0.47000000000E+01 0. -1.
        -11    1    4    4    0    0  0.16654679945E+02  0.31946299260E+01  0.39488527062E+03  0.39524923906E+03  0.00000000000E+00 0.  1.
         12    1    4    4    0    0  0.17285323545E+01  0.12269055092E+03  0.92099928924E+03  0.92913704580E+03  0.00000000000E+00 0. -1.
         -5    1    5    5    0  503 -0.61204613134E+02 -0.15054842500E+03  0.23470662438E+03  0.28551728926E+03  0.47000000000E+01 0.  1.
         11    1    6    6    0    0 -0.52452438319E+02 -0.35932343204E+02  0.65040190859E+02  0.90953933399E+02  0.00000000000E+00 0. -1.
        -12    1    6    6    0    0  0.13750803467E+02  0.16782631193E+02  0.93780330642E+00  0.21716831740E+02  0.00000000000E+00 0.  1.
</event>
<event>
12    1  0.9246030E-003  0.1796282E+03  0.7818608E-02  0.1168225E+00
         21   -1    0    0  501  502  0.00000000000E+00  0.00000000000E+00  0.74012701569E+03  0.74012701569E+03  0.00000000000E+00 0. -1.
         21   -1    0    0  502  503 -0.00000000000E+00 -0.00000000000E+00 -0.43560285952E+02  0.43560285952E+02  0.00000000000E+00 0. -1.
          6    2    1    2  501    0  0.37105406073E+02 -0.35452408923E+02  0.33893107303E+03  0.38358905335E+03  0.17214123599E+03 0.  0.
         24    2    3    3    0    0  0.26669424122E+02  0.43316717845E+02  0.12880784704E+03  0.15889516124E+03  0.77901313078E+02 0.  0.
         -6    2    1    2    0  503 -0.37105406073E+02  0.35452408923E+02  0.35763565671E+03  0.40009824829E+03  0.17187687709E+03 0.  0.
        -24    2    5    5    0    0 -0.56218357671E+02  0.76557240561E+02  0.31079680845E+03  0.33474627962E+03  0.80242761389E+02 0.  0.
          5    1    3    3  501    0  0.10435981951E+02 -0.78769126768E+02  0.21012322599E+03  0.22469389211E+03  0.47000000000E+01 0. -1.
        -11    1    4    4    0    0  0.45903089220E+02  0.15958803147E+02  0.11062562736E+03  0.12082965872E+03  0.00000000000E+00 0.  1.
         12    1    4    4    0    0 -0.19233665098E+02  0.27357914699E+02  0.18182219681E+02  0.38065502523E+02  0.00000000000E+00 0. -1.
         -5    1    5    5    0  503  0.19112951598E+02 -0.41104831638E+02  0.46838848255E+02  0.65351968667E+02  0.47000000000E+01 0.  1.
         11    1    6    6    0    0  0.22788219665E+01  0.43408439009E+02  0.20374949655E+03  0.20833468974E+03  0.00000000000E+00 0. -1.
        -12    1    6    6    0    0 -0.58497179638E+02  0.33148801551E+02  0.10704731190E+03  0.12641158988E+03  0.00000000000E+00 0.  1.
</event>
<event>
12    1  0.9246030E-003  0.2119992E+03  0.7818608E-02  0.1140009E+00
         21   -1    0    0  503  502  0.00000000000E+00  0.00000000000E+00  0.10638227555E+03  0.10638227555E+03  0.00000000000E+00 0.  1.
         21   -1    0    0  501  503 -0.00000000000E+00 -0.00000000000E+00 -0.44009095655E+03  0.44009095655E+03  0.00000000000E+00 0.  1.
          6    2    1    2  501    0  0.11778154382E+02  0.12299342284E+03 -0.22182013408E+03  0.30683517062E+03  0.17227171289E+03 0.  0.
         24    2    3    3    0    0  0.24481623640E+02  0.11632704631E+03 -0.74982020415E+02  0.15922304262E+03  0.74822071057E+02 0.  0.
         -6    2    1    2    0  502 -0.11778154382E+02 -0.12299342284E+03 -0.11188854692E+03  0.23963806148E+03  0.17216633409E+03 0.  0.
        -24    2    5    5    0    0 -0.54617894761E+02 -0.70195953321E+02 -0.16474665776E+02  0.12238314747E+03  0.82435634785E+02 0.  0.
          5    1    3    3  501    0 -0.12703469258E+02  0.66663765346E+01 -0.14683811366E+03  0.14761212800E+03  0.47000000000E+01 0. -1.
        -13    1    4    4    0    0 -0.20140640447E+02  0.72218290462E+02 -0.56293879872E+02  0.93755681353E+02  0.00000000000E+00 0.  1.
         14    1    4    4    0    0  0.44622264087E+02  0.44108755845E+02 -0.18688140543E+02  0.65467361268E+02  0.00000000000E+00 0. -1.
         -5    1    5    5    0  502  0.42839740380E+02 -0.52797469520E+02 -0.95413881146E+02  0.11725491401E+03  0.47000000000E+01 0.  1.
         13    1    6    6    0    0 -0.53733332055E+02 -0.50911560184E+02 -0.45967823761E+02  0.87133798009E+02  0.00000000000E+00 0. -1.
        -14    1    6    6    0    0 -0.88456270594E+00 -0.19284393137E+02  0.29493157985E+02  0.35249349466E+02  0.00000000000E+00 0.  1.
</event>
<event>
12    1  0.9246030E-003  0.1815759E+03  0.7818608E-02  0.1166647E+00
         21   -1    0    0  503  502  0.00000000000E+00  0.00000000000E+00  0.14005340949E+04  0.14005340949E+04  0.00000000000E+00 0.  1.
         21   -1    0    0  501  503 -0.00000000000E+00 -0.00000000000E+00 -0.23529263318E+02  0.23529263318E+02  0.00000000000E+00 0. -1.
          6    2    1    2  501    0 -0.57968018586E+02 -0.58071731036E+01  0.74835376520E+03  0.76971485541E+03  0.17039244792E+03 0.  0.
         24    2    3    3    0    0  0.86392892784E+01 -0.19590895089E+02  0.18942465895E+03  0.20664260403E+03  0.79756027325E+02 0.  0.
         -6    2    1    2    0  502  0.57968018586E+02  0.58071731036E+01  0.62865106641E+03  0.65434850284E+03  0.17197611877E+03 0.  0.
        -24    2    5    5    0    0  0.40944494550E+02 -0.24582212094E+02  0.14090623231E+03  0.16533886255E+03  0.72122370870E+02 0.  0.
          5    1    3    3  501    0 -0.66607307864E+02  0.13783721986E+02  0.55892910625E+03  0.56307225137E+03  0.47000000000E+01 0. -1.
        -13    1    4    4    0    0  0.38993065044E+02  0.95458989749E+01  0.10214945384E+03  0.10975470025E+03  0.00000000000E+00 0.  1.
         14    1    4    4    0    0 -0.30353775766E+02 -0.29136794064E+02  0.87275205110E+02  0.96887903778E+02  0.00000000000E+00 0. -1.
         -5    1    5    5    0  502  0.17023524035E+02  0.30389385198E+02  0.48774483410E+03  0.48900964029E+03  0.47000000000E+01 0.  1.
         13    1    6    6    0    0  0.10092014887E+02 -0.24076557153E+02  0.13002500118E+03  0.13261987144E+03  0.00000000000E+00 0. -1.
        -14    1    6    6    0    0  0.30852479663E+02 -0.50565494132E+00  0.10881231129E+02  0.32718991109E+02  0.00000000000E+00 0.  1.
</event>
<event>
12    1  0.9246030E-003  0.1804788E+03  0.7818608E-02  0.1168106E+00
         21   -1    0    0  501  502  0.00000000000E+00  0.00000000000E+00  0.52191293630E+03  0.52191293630E+03  0.00000000000E+00 0.  1.
         21   -1    0    0  502  503 -0.00000000000E+00 -0.00000000000E+00 -0.94134397956E+02  0.94134397956E+02  0.00000000000E+00 0.  1.
          6    2    1    2  501    0 -0.43209072298E+02  0.28855062694E+02  0.39695146772E+03  0.43605398937E+03  0.17283800320E+03 0.  0.
         24    2    3    3    0    0  0.13548868545E+02 -0.28538295338E+02  0.28870128709E+03  0.30094050744E+03  0.78859049626E+02 0.  0.
         -6    2    1    2    0  503  0.43209072298E+02 -0.28855062694E+02  0.30827070629E+02  0.17999334489E+03  0.16955134133E+03 0.  0.
        -24    2    5    5    0    0 -0.10376689406E+02  0.35218261967E+02  0.34561856936E+02  0.96250503882E+02  0.81985583389E+02 0.  0.
          5    1    3    3  501    0 -0.56757940843E+02  0.57393358033E+02  0.10825018062E+03  0.13511348193E+03  0.47000000000E+01 0. -1.
        -13    1    4    4    0    0 -0.11406992254E+02  0.24101236893E+02  0.86886376436E+02  0.90885815737E+02  0.00000000000E+00 0.  1.
         14    1    4    4    0    0  0.24955860799E+02 -0.52639532232E+02  0.20181491066E+03  0.21005469170E+03  0.00000000000E+00 0. -1.
         -5    1    5    5    0  503  0.53585761704E+02 -0.64073324662E+02 -0.37347863075E+01  0.83742841004E+02  0.47000000000E+01 0.  1.
         11    1    6    6    0    0  0.17590830026E+02 -0.66667669743E+01  0.41352898631E+02  0.45430664843E+02  0.00000000000E+00 0. -1.
        -12    1    6    6    0    0 -0.27967519432E+02  0.41885028942E+02 -0.67910416948E+01  0.50819839039E+02  0.00000000000E+00 0.  1.
</event>
<event>
12    1  0.9246030E-003  0.2111592E+03  0.7818608E-02  0.1144336E+00
         21   -1    0    0  503  502  0.00000000000E+00  0.00000000000E+00  0.43889538436E+03  0.43889538436E+03  0.00000000000E+00 0.  1.
         21   -1    0    0  501  503 -0.00000000000E+00 -0.00000000000E+00 -0.11678930925E+03  0.11678930925E+03  0.00000000000E+00 0.  1.
          6    2    1    2  501    0  0.75695800010E+02  0.44998177242E+02  0.30527611170E+02  0.19567607796E+03  0.17205377749E+03 0.  0.
         24    2    3    3    0    0  0.31539089160E+02 -0.16374337318E+02  0.68232270642E+02  0.11105851476E+03  0.80096928008E+02 0.  0.
         -6    2    1    2    0  502 -0.75695800010E+02 -0.44998177242E+02  0.29157846393E+03  0.36000861565E+03  0.19192058935E+03 0.  0.
        -24    2    5    5    0    0 -0.69442430278E+02  0.36497111050E+02  0.91417573533E+02  0.14375168815E+03  0.78441601565E+02 0.  0.
          5    1    3    3  501    0  0.44156710850E+02  0.61372514560E+02 -0.37704659472E+02  0.84617563203E+02  0.47000000000E+01 0. -1.
        -13    1    4    4    0    0 -0.12191806262E+02  0.40376704586E-01 -0.12705781722E+02  0.17609050496E+02  0.00000000000E+00 0.  1.
         14    1    4    4    0    0  0.43730895422E+02 -0.16414714023E+02  0.80938052364E+02  0.93449464265E+02  0.00000000000E+00 0. -1.
         -5    1    5    5    0  502 -0.62533697314E+01 -0.81495288292E+02  0.20016089040E+03  0.21625692750E+03  0.47000000000E+01 0.  1.
         13    1    6    6    0    0  0.43190020600E+01 -0.16616114906E+02  0.28269925795E+02  0.33074729898E+02  0.00000000000E+00 0. -1.
        -14    1    6    6    0    0 -0.73761432339E+02  0.53113225957E+02  0.63147647738E+02  0.11067695825E+03  0.00000000000E+00 0.  1.
</event>
<event>
12    1  0.9246030E-003  0.2687432E+03  0.7818608E-02  0.1102193E+00
         21   -1    0    0  503  502  0.00000000000E+00  0.00000000000E+00  0.16504101801E+03  0.16504101801E+03  0.00000000000E+00 0.  1.
         21   -1    0    0  501  503 -0.00000000000E+00 -0.00000000000E+00 -0.53443664548E+03  0.53443664548E+03  0.00000000000E+00 0. -1.
          6    2    1    2  501    0  0.13413401699E+03  0.15330969241E+03 -0.33559432260E+03  0.42993770562E+03  0.17529142892E+03 0.  0.
         24    2    3    3    0    0  0.10800324750E+03  0.17341618439E+03 -0.21058605394E+03  0.30056906426E+03  0.65248768562E+02 0.  0.
         -6    2    1    2    0  502 -0.13413401699E+03 -0.15330969241E+03 -0.33801304864E+02  0.26953995787E+03  0.17324394471E+03 0.  0.
        -24    2    5    5    0    0 -0.72121800256E+01 -0.10205386005E+03 -0.10702353310E+02  0.13064444098E+03  0.80538336843E+02 0.  0.
          5    1    3    3  501    0  0.26130769490E+02 -0.20106491979E+02 -0.12500826866E+03  0.12936864136E+03  0.47000000000E+01 0. -1.
        -11    1    4    4    0    0  0.41840135026E+02  0.84639784858E+02 -0.14135268778E+03  0.16998550651E+03  0.00000000000E+00 0.  1.
         12    1    4    4    0    0  0.66163112473E+02  0.88776399529E+02 -0.69233366154E+02  0.13058355775E+03  0.00000000000E+00 0. -1.
         -5    1    5    5    0  502 -0.12692183696E+03 -0.51255832355E+02 -0.23098951554E+02  0.13889551689E+03  0.47000000000E+01 0.  1.
         13    1    6    6    0    0  0.66825875726E+01 -0.87149906921E+01 -0.32061299448E+02  0.33890042221E+02  0.00000000000E+00 0. -1.
        -14    1    6    6    0    0 -0.13894767598E+02 -0.93338869361E+02  0.21358946138E+02  0.96754398764E+02  0.00000000000E+00 0.  1.
</event>
<event>
12    1  0.9246030E-003  0.2018271E+03  0.7818608E-02  0.1150440E+00
         21   -1    0    0  501  502  0.00000000000E+00  0.00000000000E+00  0.21665188551E+04  0.21665188551E+04  0.00000000000E+00 0.  1.
         21   -1    0    0  502  503 -0.00000000000E+00 -0.00000000000E+00 -0.18293820390E+02  0.18293820390E+02  0.00000000000E+00 0.  1.
          6    2    1    2  501    0 -0.81510997156E+02 -0.23866741828E+02  0.12730749439E+04  0.12889740050E+04  0.18308606866E+03 0.  0.
         24    2    3    3    0    0  0.29178406925E+01  0.43693771672E+02  0.66080981276E+03  0.66721574606E+03  0.81176250669E+02 0.  0.
         -6    2    1    2    0  503  0.81510997156E+02  0.23866741828E+02  0.87515009073E+03  0.89583867050E+03  0.17153885340E+03 0.  0.
        -24    2    5    5    0    0  0.80088829137E+02  0.48275173758E+02  0.85494186070E+03  0.86377222897E+03  0.80200781863E+02 0.  0.
          5    1    3    3  501    0 -0.84428837848E+02 -0.67560513500E+02  0.61226513119E+03  0.62175825890E+03  0.47000000000E+01 0. -1.
        -11    1    4    4    0    0 -0.20993313596E+02  0.23166210043E+02  0.85382672819E+02  0.90926307091E+02  0.00000000000E+00 0.  1.
         12    1    4    4    0    0  0.23911154289E+02  0.20527561629E+02  0.57542713994E+03  0.57628943896E+03  0.00000000000E+00 0. -1.
         -5    1    5    5    0  503  0.14221680191E+01 -0.24408431930E+02  0.20208230035E+02  0.32066441529E+02  0.47000000000E+01 0.  1.
         11    1    6    6    0    0 -0.14818647328E+02  0.34563335566E+01  0.58597410706E+02  0.60540854733E+02  0.00000000000E+00 0. -1.
        -12    1    6    6    0    0  0.94907476465E+02  0.44818840201E+02  0.79634444999E+03  0.80323137423E+03  0.00000000000E+00 0.  1.
</event>
<event>
12    1  0.9246030E-003  0.2477044E+03  0.7818608E-02  0.1114975E+00
         21   -1    0    0  501  502  0.00000000000E+00  0.00000000000E+00  0.25669811300E+03  0.25669811300E+03  0.00000000000E+00 0. -1.
         21   -1    0    0  502  503 -0.00000000000E+00 -0.00000000000E+00 -0.28979532993E+03  0.28979532993E+03  0.00000000000E+00 0. -1.
          6    2    1    2  501    0 -0.17014191367E+03 -0.43232481549E+02  0.99272181454E+02  0.26563915403E+03  0.17289267161E+03 0.  0.
         24    2    3    3    0    0 -0.89497658334E+02 -0.91031835209E+02  0.46867499373E+02  0.15813745715E+03  0.80711009086E+02 0.  0.
         -6    2    1    2    0  503  0.17014191367E+03  0.43232481549E+02 -0.13236939839E+03  0.28085428890E+03  0.17475741963E+03 0.  0.
        -24    2    5    5    0    0  0.75612592059E+02  0.30857659067E+02 -0.14541557415E+03  0.18451519207E+03  0.78934831976E+02 0.  0.
          5    1    3    3  501    0 -0.80644255331E+02  0.47799353660E+02  0.52404682081E+02  0.10750169688E+03  0.47000000000E+01 0. -1.
        -13    1    4    4    0    0 -0.51533535986E+01 -0.21122684082E+02 -0.20208455765E+02  0.29683438489E+02  0.00000000000E+00 0.  1.
         14    1    4    4    0    0 -0.84344304736E+02 -0.69909151127E+02  0.67075955138E+02  0.12845401866E+03  0.00000000000E+00 0. -1.
         -5    1    5    5    0  503  0.94529321606E+02  0.12374822482E+02  0.13046175764E+02  0.96339096824E+02  0.47000000000E+01 0.  1.
         13    1    6    6    0    0  0.87430074350E+02  0.13571958083E+02 -0.94461040286E+02  0.12942605641E+03  0.00000000000E+00 0. -1.
        -14    1    6    6    0    0 -0.11817482291E+02  0.17285700984E+02 -0.50954533867E+02  0.55089135660E+02  0.00000000000E+00 0.  1.
</event>
<event>
12    1  0.9246030E-003  0.1913716E+03  0.7818608E-02  0.1157422E+00
         21   -1    0    0  503  502  0.00000000000E+00  0.00000000000E+00  0.41388990472E+03  0.41388990472E+03  0.00000000000E+00 0. -1.
         21   -1    0    0  501  503 -0.00000000000E+00 -0.00000000000E+00 -0.88185613472E+02  0.88185613472E+02  0.00000000000E+00 0. -1.
          6    2    1    2  501    0 -0.66059647666E+02  0.50634400970E+02  0.15493138454E+03  0.24622511987E+03  0.17232340563E+03 0.  0.
         24    2    3    3    0    0 -0.29290809643E+02  0.97983602074E+02  0.86840706948E+02  0.15538281327E+03  0.78382220371E+02 0.  0.
         -6    2    1    2    0  502  0.66059647666E+02 -0.50634400970E+02  0.17077290671E+03  0.25585039832E+03  0.17137187938E+03 0.  0.
        -24    2    5    5    0    0  0.95147568309E+02 -0.59450742426E+02  0.17720750523E+03  0.22442860553E+03  0.79863937654E+02 0.  0.
          5    1    3    3  501    0 -0.36768838023E+02 -0.47349201103E+02  0.68090677589E+02  0.90842306605E+02  0.47000000000E+01 0. -1.
        -13    1    4    4    0    0 -0.25499661545E+02  0.64030566039E+02  0.79076515674E+01  0.69373460916E+02  0.00000000000E+00 0.  1.
         14    1    4    4    0    0 -0.37911480977E+01  0.33953036035E+02  0.78933055381E+02  0.86009352350E+02  0.00000000000E+00 0. -1.
         -5    1    5    5    0  502 -0.29087920643E+02  0.88163414555E+01 -0.64345985263E+01  0.31421792791E+02  0.47000000000E+01 0.  1.
         11    1    6    6    0    0  0.31910236609E+02 -0.17359784287E+02  0.55952625086E+01  0.36755030587E+02  0.00000000000E+00 0. -1.
        -12    1    6    6    0    0  0.63237331700E+02 -0.42090958139E+02  0.17161224272E+03  0.18767357494E+03  0.00000000000E+00 0.  1.
</event>
<event>
12    1  0.9246030E-003  0.1780545E+03  0.7818608E-02  0.1172495E+00
         21   -1    0    0  501  502  0.00000000000E+00  0.00000000000E+00  0.43497879339E+02  0.43497879339E+02  0.00000000000E+00 0. -1.
         21   -1    0    0  502  503 -0.00000000000E+00 -0.00000000000E+00 -0.87157735439E+03  0.87157735439E+03  0.00000000000E+00 0. -1.
          6    2    1    2  501    0 -0.11848801857E+02  0.23062304172E+01 -0.21251244665E+03  0.27724528000E+03  0.17764484934E+03 0.  0.
         24    2    3    3    0    0  0.24303709422E+02  0.30907693320E+02 -0.40878745208E+02  0.99466582672E+02  0.81710302047E+02 0.  0.
         -6    2    1    2    0  503  0.11848801857E+02 -0.23062304172E+01 -0.61556702839E+03  0.63782995373E+03  0.16660903522E+03 0.  0.
        -24    2    5    5    0    0  0.33774982190E+02  0.55078646177E+02 -0.33668146212E+03  0.35222002652E+03  0.80809241151E+02 0.  0.
          5    1    3    3  501    0 -0.36152511279E+02 -0.28601462903E+02 -0.17163370145E+03  0.17777869733E+03  0.47000000000E+01 0. -1.
        -13    1    4    4    0    0  0.34549319868E+02 -0.14705581427E+02 -0.28142527085E+00  0.37549817957E+02  0.00000000000E+00 0.  1.
         14    1    4    4    0    0 -0.10245610446E+02  0.45613274748E+02 -0.40597319937E+02  0.61916764715E+02  0.00000000000E+00 0. -1.
         -5    1    5    5    0  503 -0.21926180333E+02 -0.57384876594E+02 -0.27888556627E+03  0.28560992721E+03  0.47000000000E+01 0.  1.
         11    1    6    6    0    0 -0.14577180427E+02 -0.81244784079E-01 -0.16344738273E+03  0.16409615386E+03  0.00000000000E+00 0. -1.
        -12    1    6    6    0    0  0.48352162618E+02  0.55159890961E+02 -0.17323407939E+03  0.18812387266E+03  0.00000000000E+00 0.  1.
</event>
<event>
12    1  0.9246030E-003  0.1756277E+03  0.7818608E-02  0.1172277E+00
         21   -1    0    0  503  502  0.00000000000E+00  0.00000000000E+00  0.27196694776E+03  0.27196694776E+03  0.00000000000E+00 0. -1.
         21   -1    0    0  501  503 -0.00000000000E+00 -0.00000000000E+00 -0.11305952698E+03  0.11305952698E+03  0.00000000000E+00 0. -1.
          6    2    1    2  501    0 -0.33510381476E+02  0.10615244863E+02  0.84800038240E+02  0.19440381457E+03  0.17136559615E+03 0.  0.
         24    2    3    3    0    0 -0.19522062158E+02 -0.31200546663E+02 -0.26759046444E+02  0.74354854250E+02  0.58804870215E+02 0.  0.
         -6    2    1    2    0  502  0.33510381476E+02 -0.10615244863E+02  0.74107382539E+02  0.19062266018E+03  0.17207401122E+03 0.  0.
        -24    2    5    5    0    0  0.41438070252E+02  0.54432249699E+02  0.27403858066E+02  0.11001661824E+03  0.81686604651E+02 0.  0.
          5    1    3    3  501    0 -0.13988319317E+02  0.41815791526E+02  0.11155908468E+03  0.12004896032E+03  0.47000000000E+01 0. -1.
        -11    1    4    4    0    0  0.86149050104E+01 -0.66114308580E+01 -0.34522002448E+02  0.36189725881E+02  0.00000000000E+00 0.  1.
         12    1    4    4    0    0 -0.28136967169E+02 -0.24589115805E+02  0.77629560036E+01  0.38165128369E+02  0.00000000000E+00 0. -1.
         -5    1    5    5    0  502 -0.79276887764E+01 -0.65047494562E+02  0.46703524473E+02  0.80606041934E+02  0.47000000000E+01 0.  1.
         11    1    6    6    0    0  0.66098687679E+02  0.36339265253E+02  0.14451635285E+02  0.76801227037E+02  0.00000000000E+00 0. -1.
        -12    1    6    6    0    0 -0.24660617427E+02  0.18092984446E+02  0.12952222781E+02  0.33215391206E+02  0.00000000000E+00 0.  1.
</event>
<event>
12    1  0.9246030E-003  0.2583015E+03  0.7818608E-02  0.1108294E+00
         21   -1    0    0  503  502  0.00000000000E+00  0.00000000000E+00  0.63229718067E+03  0.63229718067E+03  0.00000000000E+00 0. -1.
         21   -1    0    0  501  503 -0.00000000000E+00 -0.00000000000E+00 -0.25188001753E+03  0.25188001753E+03  0.00000000000E+00 0.  1.
          6    2    1    2  501    0 -0.19135773087E+03  0.24121129365E+02 -0.14730651561E+03  0.29662980867E+03  0.17055915045E+03 0.  0.
         24    2    3    3    0    0 -0.12001704458E+03  0.89192997906E+02 -0.82534490386E+02  0.18026251581E+03  0.57646774729E+02 0.  0.
         -6    2    1    2    0  502  0.19135773087E+03 -0.24121129365E+02  0.52772367875E+03  0.58754738953E+03  0.17181398016E+03 0.  0.
        -24    2    5    5    0    0  0.36293913588E+02 -0.63944473140E+02  0.23071735105E+03  0.25010771369E+03  0.62587766849E+02 0.  0.
          5    1    3    3  501    0 -0.71340686296E+02 -0.65071868541E+02 -0.64772025228E+02  0.11636729286E+03  0.47000000000E+01 0. -1.
        -11    1    4    4    0    0 -0.92820944240E+02  0.34239386206E+02 -0.50057345624E+02  0.11087741478E+03  0.00000000000E+00 0.  1.
         12    1    4    4    0    0 -0.27196100337E+02  0.54953611700E+02 -0.32477144761E+02  0.69385101025E+02  0.00000000000E+00 0. -1.
         -5    1    5    5    0  502  0.15506381729E+03  0.39823343774E+02  0.29700632770E+03  0.33743967584E+03  0.47000000000E+01 0.  1.
         13    1    6    6    0    0  0.31348763840E+02 -0.17832223962E+02  0.40112943539E+02  0.53942390057E+02  0.00000000000E+00 0. -1.
        -14    1    6    6    0    0  0.49451497487E+01 -0.46112249178E+02  0.19060440751E+03  0.19616532363E+03  0.00000000000E+00 0.  1.
</event>
<event>
12    1  0.9246030E-003  0.3898485E+03  0.7818608E-02  0.1047353E+00
         21   -1    0    0  501  502  0.00000000000E+00  0.00000000000E+00  0.25767448213E+03  0.25767448213E+03  0.00000000000E+00 0.  1.
         21   -1    0    0  502  503 -0.00000000000E+00 -0.00000000000E+00 -0.70336345140E+03  0.70336345140E+03  0.00000000000E+00 0. -1.
          6    2    1    2  501    0  0.27455670915E+03 -0.21707219880E+03 -0.41591059699E+03  0.57005567582E+03  0.17169776591E+03 0.  0.
         24    2    3    3    0    0  0.10571702593E+03 -0.62894121895E+02 -0.89806775465E+02  0.17175489696E+03  0.79389719555E+02 0.  0.
         -6    2    1    2    0  503 -0.27455670915E+03  0.21707219880E+03 -0.29778372283E+02  0.39098225771E+03  0.17169347208E+03 0.  0.
        -24    2    5    5    0    0 -0.29315652523E+03  0.20771097538E+03 -0.24153018490E+02  0.36890692606E+03  0.80152069310E+02 0.  0.
          5    1    3    3  501    0  0.16883968323E+03 -0.15417807690E+03 -0.32610382152E+03  0.39830077886E+03  0.47000000000E+01 0. -1.
        -13    1    4    4    0    0  0.10188192824E+03 -0.24024977301E+02 -0.79259058822E+02  0.13129784934E+03  0.00000000000E+00 0.  1.
         14    1    4    4    0    0  0.38350976864E+01 -0.38869144594E+02 -0.10547716643E+02  0.40457047620E+02  0.00000000000E+00 0. -1.
         -5    1    5    5    0  503  0.18599816077E+02  0.93612234127E+01 -0.56253537929E+01  0.22075331643E+02  0.47000000000E+01 0.  1.
         11    1    6    6    0    0 -0.17444655074E+03  0.81226729424E+02 -0.32893130709E+02  0.19522125573E+03  0.00000000000E+00 0. -1.
        -12    1    6    6    0    0 -0.11870997449E+03  0.12648424596E+03  0.87401122195E+01  0.17368567034E+03  0.00000000000E+00 0.  1.
</event>
<event>
12    1  0.9246030E-003  0.1922293E+03  0.7818608E-02  0.1157571E+00
         21   -1    0    0  501  502  0.00000000000E+00  0.00000000000E+00  0.32161856397E+03  0.32161856397E+03  0.00000000000E+00 0.  1.
         21   -1    0    0  502  503 -0.00000000000E+00 -0.00000000000E+00 -0.11198974150E+03  0.11198974150E+03  0.00000000000E+00 0.  1.
          6    2    1    2  501    0  0.29032709246E+02 -0.66926613116E+02  0.10137682609E+03  0.21299414128E+03  0.17253165971E+03 0.  0.
         24    2    3    3    0    0 -0.21998329793E+01 -0.95335206863E+01 -0.12645211556E+02  0.81492986069E+02  0.79909186714E+02 0.  0.
         -6    2    1    2    0  503 -0.29032709246E+02  0.66926613116E+02  0.10825199639E+03  0.22061416419E+03  0.17784837635E+03 0.  0.
        -24    2    5    5    0    0 -0.70538867717E+02  0.89181224236E+02  0.10160986723E+03  0.17282047437E+03  0.81322374699E+02 0.  0.
          5    1    3    3  501    0  0.31232542226E+02 -0.57393092430E+02  0.11402203764E+03  0.13150115521E+03  0.47000000000E+01 0. -1.
        -13    1    4    4    0    0  0.28419134066E+02 -0.14750401911E+01  0.20943831555E+02  0.35333652583E+02  0.00000000000E+00 0.  1.
         14    1    4    4    0    0 -0.30618967045E+02 -0.80584804951E+01 -0.33589043111E+02  0.46159333486E+02  0.00000000000E+00 0. -1.
         -5    1    5    5    0  503  0.41506158471E+02 -0.22254611120E+02  0.66421291550E+01  0.47793689823E+02  0.47000000000E+01 0.  1.
         13    1    6    6    0    0  0.76709436935E+01 -0.10556010850E+02  0.95498465905E+01  0.16170105507E+02  0.00000000000E+00 0. -1.
        -14    1    6    6    0    0 -0.78209811411E+02  0.99737235087E+02  0.92060020643E+02  0.15665036886E+03  0.00000000000E+00 0.  1.
</event>
<event>
12    1  0.9246030E-003  0.1948421E+03  0.7818608E-02  0.1154448E+00
         21   -1    0    0  503  502  0.00000000000E+00  0.00000000000E+00  0.39019699965E+03  0.39019699965E+03  0.00000000000E+00 0. -1.
         21   -1    0    0  501  503 -0.00000000000E+00 -0.00000000000E+00 -0.13683747987E+03  0.13683747987E+03  0.00000000000E+00 0. -1.
          6    2    1    2  501    0  0.68128300537E+02 -0.61701291662E+02 -0.15831624167E+02  0.19548422059E+03  0.17179908455E+03 0.  0.
         24    2    3    3    0    0  0.37389784881E+01 -0.89377636848E+02  0.10840594443E+02  0.12034793028E+03  0.79773202933E+02 0.  0.
         -6    2    1    2    0  502 -0.68128300537E+02  0.61701291662E+02  0.26919114395E+03  0.33155025892E+03  0.17033257904E+03 0.  0.
        -24    2    5    5    0    0 -0.27598193947E+02  0.68608866112E+02  0.26885781087E+03  0.29016662404E+03  0.80270233729E+02 0.  0.
          5    1    3    3  501    0  0.64389322049E+02  0.27676345185E+02 -0.26672218609E+02  0.75136290315E+02  0.47000000000E+01 0. -1.
        -13    1    4    4    0    0 -0.17799375431E+02 -0.14860766780E+02  0.32398052993E+02  0.39840858334E+02  0.00000000000E+00 0.  1.
         14    1    4    4    0    0  0.21538353919E+02 -0.74516870067E+02 -0.21557458550E+02  0.80507071946E+02  0.00000000000E+00 0. -1.
         -5    1    5    5    0  502 -0.40530106590E+02 -0.69075744493E+01  0.33333307768E+00  0.41383634880E+02  0.47000000000E+01 0.  1.
         11    1    6    6    0    0 -0.57917016193E+01  0.80291024289E+02  0.23371295690E+03  0.24718806325E+03  0.00000000000E+00 0. -1.
        -12    1    6    6    0    0 -0.21806492328E+02 -0.11682158177E+02  0.35144853976E+02  0.42978560798E+02  0.00000000000E+00 0.  1.
</event>
<event>
12    1  0.9246030E-003  0.3617998E+03  0.7818608E-02  0.1057917E+00
         21   -1    0    0  501  502  0.00000000000E+00  0.00000000000E+00  0.74895924009E+03  0.74895924009E+03  0.00000000000E+00 0. -1.
         21   -1    0    0  502  503 -0.00000000000E+00 -0.00000000000E+00 -0.18484226057E+03  0.18484226057E+03  0.00000000000E+00 0.  1.
          6    2    1    2  501    0  0.16614290840E+03  0.27120015815E+03  0.39202082600E+03  0.53315678027E+03  0.17153085011E+03 0.  0.
         24    2    3    3    0    0  0.13554065219E+03  0.15164757222E+03  0.16045861849E+03  0.27072114086E+03  0.78579343993E+02 0.  0.
         -6    2    1    2    0  503 -0.16614290840E+03 -0.27120015815E+03  0.17209615352E+03  0.40064472038E+03  0.17247061815E+03 0.  0.
        -24    2    5    5    0    0 -0.22476678797E+02 -0.77170877944E+02  0.94871485611E+02  0.14712334764E+03  0.78639272290E+02 0.  0.
          5    1    3    3  501    0  0.30602256210E+02  0.11955258592E+03  0.23156220751E+03  0.26243563941E+03  0.47000000000E+01 0. -1.
        -11    1    4    4    0    0  0.79025644851E+02  0.10194774077E+03  0.14466815615E+03  0.19382277935E+03  0.00000000000E+00 0.  1.
         12    1    4    4    0    0  0.56515007340E+02  0.49699831453E+02  0.15790462338E+02  0.76898361504E+02  0.00000000000E+00 0. -1.
         -5    1    5    5    0  503 -0.14366622960E+03 -0.19402928020E+03  0.77224667910E+02  0.25352137274E+03  0.47000000000E+01 0.  1.
         13    1    6    6    0    0 -0.38726016842E+02 -0.85272440450E+02  0.73306532588E+02  0.11893250691E+03  0.00000000000E+00 0. -1.
        -14    1    6    6    0    0  0.16249338045E+02  0.81015625063E+01  0.21564953023E+02  0.28190840726E+02  0.00000000000E+00 0.  1.
</event>
<event>
12    1  0.9246030E-003  0.1975371E+03  0.7818608E-02  0.1152046E+00
         21   -1    0    0  501  502  0.00000000000E+00  0.00000000000E+00  0.14305438786E+04  0.14305438786E+04  0.00000000000E+00 0. -1.
         21   -1    0    0  502  503 -0.00000000000E+00 -0.00000000000E+00 -0.69554502614E+02  0.69554502614E+02  0.00000000000E+00 0. -1.
          6    2    1    2  501    0  0.85039193843E+02 -0.45312372763E+02  0.12668690246E+04  0.12821770742E+04  0.17244143518E+03 0.  0.
         24    2    3    3    0    0  0.81167809827E+01 -0.47407675328E+02  0.33357373025E+03  0.34570302528E+03  0.76979077431E+02 0.  0.
         -6    2    1    2    0  503 -0.85039193843E+02  0.45312372763E+02  0.94120351333E+02  0.21792130693E+03  0.17130726740E+03 0.  0.
        -24    2    5    5    0    0 -0.24185820958E+02  0.51867411852E+02  0.11612161369E+03  0.15271205089E+03  0.81003450371E+02 0.  0.
          5    1    3    3  501    0  0.76922412860E+02  0.20953025648E+01  0.93329529436E+03  0.93647404895E+03  0.47000000000E+01 0. -1.
        -11    1    4    4    0    0 -0.25722923587E+02  0.69324816984E+01  0.10607526249E+03  0.10936950861E+03  0.00000000000E+00 0.  1.
         12    1    4    4    0    0  0.33839704569E+02 -0.54340157026E+02  0.22749846776E+03  0.23633351667E+03  0.00000000000E+00 0. -1.
         -5    1    5    5    0  503 -0.60853372884E+02 -0.65550390894E+01 -0.22001262358E+02  0.65209256047E+02  0.47000000000E+01 0.  1.
         13    1    6    6    0    0 -0.21614885873E+02  0.68202613196E+02  0.57456310271E+02  0.91760706885E+02  0.00000000000E+00 0. -1.
        -14    1    6    6    0    0 -0.25709350854E+01 -0.16335201344E+02  0.58665303420E+02  0.60951344001E+02  0.00000000000E+00 0.  1.
</event>
<event>
12    1  0.9246030E-003  0.1717486E+03  0.7818608E-02  0.1176234E+00
         21   -1    0    0  501  502  0.00000000000E+00  0.00000000000E+00  0.22793576229E+03  0.22793576229E+03  0.00000000000E+00 0.  1.
         21   -1    0    0  502  503 -0.00000000000E+00 -0.00000000000E+00 -0.24977637445E+03  0.24977637445E+03  0.00000000000E+00 0.  1.
          6    2    1    2  501    0  0.65302504270E+00 -0.82915902041E+01  0.15527385388E+03  0.23153307020E+03  0.17154712469E+03 0.  0.
         24    2    3    3    0    0 -0.46684454083E+02  0.39531947945E+02  0.11543604689E+03  0.15319362550E+03  0.80003704976E+02 0.  0.
         -6    2    1    2    0  503 -0.65302504270E+00  0.82915902041E+01 -0.17711446605E+03  0.24617906654E+03  0.17077886816E+03 0.  0.
        -24    2    5    5    0    0  0.14695456235E+01 -0.29330531150E+02 -0.18809091175E+03  0.20665057451E+03  0.80397943024E+02 0.  0.
          5    1    3    3  501    0  0.47337479126E+02 -0.47823538149E+02  0.39837806985E+02  0.78339444703E+02  0.47000000000E+01 0. -1.
        -13    1    4    4    0    0 -0.54760709608E+02  0.30169172508E+01  0.36593291258E+02  0.65931070608E+02  0.00000000000E+00 0.  1.
         14    1    4    4    0    0  0.80762555247E+01  0.36515030694E+02  0.78842755637E+02  0.87262554892E+02  0.00000000000E+00 0. -1.
         -5    1    5    5    0  503 -0.21225706662E+01  0.37622121354E+02  0.10976445704E+02  0.39528492024E+02  0.47000000000E+01 0.  1.
         13    1    6    6    0    0  0.34560100519E+02 -0.20405269609E+02 -0.48693889292E+02  0.63102063597E+02  0.00000000000E+00 0. -1.
        -14    1    6    6    0    0 -0.33090554896E+02 -0.89252615411E+01 -0.13939702246E+03  0.14354851092E+03  0.00000000000E+00 0.  1.
</event>
<event>
12    1  0.9246030E-003  0.2726279E+03  0.7818608E-02  0.1100158E+00
         21   -1    0    0  503  502  0.00000000000E+00  0.00000000000E+00  0.17078483942E+04  0.17078483942E+04  0.00000000000E+00 0. -1.
         21   -1    0    0  501  503 -0.00000000000E+00 -0.00000000000E+00 -0.59965518977E+02  0.59965518977E+02  0.00000000000E+00 0. -1.
          6    2    1    2  501    0 -0.19814167285E+03 -0.66007003732E+02  0.35807334090E+03  0.45004720965E+03  0.17523962561E+03 0.  0.
         24    2    3    3    0    0 -0.21381641156E+03 -0.28948149516E+02  0.28841504126E+03  0.36946542003E+03  0.82255743616E+02 0.  0.
         -6    2    1    2    0  502  0.19814167285E+03  0.66007003732E+02  0.12898095343E+04  0.13177667036E+04  0.17112394060E+03 0.  0.
        -24    2    5    5    0    0  0.12612836443E+03  0.55251778127E+02  0.11399098712E+04  0.11510526055E+04  0.81033714917E+02 0.  0.
          5    1    3    3  501    0  0.15674738711E+02 -0.37058854216E+02  0.69658299639E+02  0.80581789619E+02  0.47000000000E+01 0. -1.
        -13    1    4    4    0    0 -0.14858429167E+01 -0.20695868630E+01  0.46077621739E+02  0.46148002602E+02  0.00000000000E+00 0.  1.
         14    1    4    4    0    0 -0.21233056864E+03 -0.26878562653E+02  0.24233741952E+03  0.32331741743E+03  0.00000000000E+00 0. -1.
         -5    1    5    5    0  502  0.72013308414E+02  0.10755225605E+02  0.14989966315E+03  0.16671409802E+03  0.47000000000E+01 0.  1.
         11    1    6    6    0    0  0.20648619685E+02  0.44531799672E+02  0.50175998646E+03  0.50415526447E+03  0.00000000000E+00 0. -1.
        -12    1    6    6    0    0  0.10547974475E+03  0.10719978455E+02  0.63814988474E+03  0.64689734107E+03  0.00000000000E+00 0.  1.
</event>
<event>
12    1  0.9246030E-003  0.2060871E+03  0.7818608E-02  0.1146295E+00
         21   -1    0    0  501  502  0.00000000000E+00  0.00000000000E+00  0.17884977999E+03  0.17884977999E+03  0.00000000000E+00 0.  1.
         21   -1    0    0  502  503 -0.00000000000E+00 -0.00000000000E+00 -0.22894853552E+03  0.22894853552E+03  0.00000000000E+00 0. -1.
          6    2    1    2  501    0 -0.66168003645E+02 -0.71746289530E+02 -0.17783971290E+02  0.19919313782E+03  0.17273072035E+03 0.  0.
         24    2    3    3    0    0 -0.76616190287E+02 -0.97556589910E+02  0.24133498479E+02  0.14865107136E+03  0.78277624003E+02 0.  0.
         -6    2    1    2    0  503  0.66168003645E+02  0.71746289530E+02 -0.32314784242E+02  0.20860517769E+03  0.18151071625E+03 0.  0.
        -24    2    5    5    0    0  0.10951576677E+03  0.56670297581E+02 -0.54749702613E+02  0.15730479111E+03  0.80882887990E+02 0.  0.
          5    1    3    3  501    0  0.10448186642E+02  0.25810300380E+02 -0.41917469769E+02  0.50542066456E+02  0.47000000000E+01 0. -1.
        -11    1    4    4    0    0  0.66929758611E+01 -0.58185274413E+01 -0.16084667358E+02  0.18367572281E+02  0.00000000000E+00 0.  1.
         12    1    4    4    0    0 -0.83309166148E+02 -0.91738062468E+02  0.40218165837E+02  0.13028349908E+03  0.00000000000E+00 0. -1.
         -5    1    5    5    0  503 -0.43347763129E+02  0.15075991949E+02  0.22434918371E+02  0.51300386585E+02  0.47000000000E+01 0.  1.
         11    1    6    6    0    0  0.64492172129E+02  0.11952850823E+02 -0.65783799351E+02  0.92895743529E+02  0.00000000000E+00 0. -1.
        -12    1    6    6    0    0  0.45023594645E+02  0.44717446758E+02  0.11034096738E+02  0.64409047580E+02  0.00000000000E+00 0.  1.
</event>
<event>
12    1  0.9246030E-003  0.2017695E+03  0.7818608E-02  0.1148505E+00
         21   -1    0    0  503  502  0.00000000000E+00  0.00000000000E+00  0.30311490003E+03  0.30311490003E+03  0.00000000000E+00 0.  1.
         21   -1    0    0  501  503 -0.00000000000E+00 -0.00000000000E+00 -0.13608894772E+03  0.13608894772E+03  0.00000000000E+00 0.  1.
          6    2    1    2  501    0  0.89871317856E+02  0.56006128205E+02  0.53052438304E+02  0.20746929167E+03  0.17033909007E+03 0.  0.
         24    2    3    3    0    0  0.11325294304E+03  0.21716272398E+02  0.15124827735E+01  0.14112962312E+03  0.81347755485E+02 0.  0.
         -6    2    1    2    0  502 -0.89871317856E+02 -0.56006128205E+02  0.11397351400E+03  0.23173455608E+03  0.17174807836E+03 0.  0.
        -24    2    5    5    0    0 -0.10838430824E+03  0.78299079103E+01  0.80230944684E+02  0.15704572623E+03  0.80111733923E+02 0.  0.
          5    1    3    3  501    0 -0.23381625185E+02  0.34289855807E+02  0.51539955531E+02  0.66339668553E+02  0.47000000000E+01 0. -1.
        -11    1    4    4    0    0  0.67922277931E+01 -0.17916400563E+02 -0.17501708777E+02  0.25950752930E+02  0.00000000000E+00 0.  1.
         12    1    4    4    0    0  0.10646071525E+03  0.39632672961E+02  0.19014191550E+02  0.11517887019E+03  0.00000000000E+00 0. -1.
         -5    1    5    5    0  502  0.18512990387E+02 -0.63836036115E+02  0.33742569320E+02  0.74688829849E+02  0.47000000000E+01 0.  1.
         11    1    6    6    0    0  0.63833438498E+00  0.24476191720E+02  0.18235152000E+02  0.30528874863E+02  0.00000000000E+00 0. -1.
        -12    1    6    6    0    0 -0.10902264263E+03 -0.16646283810E+02  0.61995792684E+02  0.12651685137E+03  0.00000000000E+00 0.  1.
</event>
<event>
12    1  0.9246030E-003  0.2223253E+03  0.7818608E-02  0.1132207E+00
         21   -1    0    0  501  502  0.00000000000E+00  0.00000000000E+00  0.18727929219E+03  0.18727929219E+03  0.00000000000E+00 0. -1.
         21   -1    0    0  502  503 -0.00000000000E+00 -0.00000000000E+00 -0.33461878188E+03  0.33461878188E+03  0.00000000000E+00 0. -1.
          6    2    1    2  501    0  0.13972193816E+03  0.11129111071E+02  0.46553129800E+02  0.22690161993E+03  0.17225293645E+03 0.  0.
         24    2    3    3    0    0  0.58453685936E+02 -0.26580929120E+02 -0.32274390869E+02  0.10747614540E+03  0.79913117397E+02 0.  0.
         -6    2    1    2    0  503 -0.13972193816E+03 -0.11129111071E+02 -0.19389261949E+03  0.29499645414E+03  0.17257602077E+03 0.  0.
        -24    2    5    5    0    0 -0.18004189190E+02 -0.41305566425E+02 -0.85878284430E+02  0.12942165095E+03  0.85700544648E+02 0.  0.
          5    1    3    3  501    0  0.81268252221E+02  0.37710040191E+02  0.78827520669E+02  0.11942547452E+03  0.47000000000E+01 0. -1.
        -11    1    4    4    0    0  0.14802438432E+02  0.47510278234E+01  0.24684872769E+02  0.29172373790E+02  0.00000000000E+00 0.  1.
         12    1    4    4    0    0  0.43651247504E+02 -0.31331956944E+02 -0.56959263638E+02  0.78303771613E+02  0.00000000000E+00 0. -1.
         -5    1    5    5    0  503 -0.12171774897E+03  0.30176455354E+02 -0.10801433506E+03  0.16557480319E+03  0.47000000000E+01 0.  1.
         13    1    6    6    0    0 -0.31600767926E+02 -0.51497300618E+02 -0.23597858664E+02  0.64864778100E+02  0.00000000000E+00 0. -1.
        -14    1    6    6    0    0  0.13596578735E+02  0.10191734193E+02 -0.62280425766E+02  0.64556872855E+02  0.00000000000E+00 0.  1.
</event>
<event>
12    1  0.9246030E-003  0.2010330E+03  0.7818608E-02  0.1149717E+00
         21   -1    0    0  503  502  0.00000000000E+00  0.00000000000E+00  0.41286389927E+03  0.41286389927E+03  0.00000000000E+00 0. -1.
         21   -1    0    0  501  503 -0.00000000000E+00 -0.00000000000E+00 -0.98457838473E+02  0.98457838473E+02  0.00000000000E+00 0.  1.
          6    2    1    2  501    0  0.86660466199E+02  0.51461205905E+02  0.11487607516E+03  0.22807894587E+03  0.16930800569E+03 0.  0.
         24    2    3    3    0    0  0.29104780389E+02 -0.39463486410E+02  0.68008404491E+02  0.11061139633E+03  0.72147646636E+02 0.  0.
         -6    2    1    2    0  502 -0.86660466199E+02 -0.51461205905E+02  0.19952998564E+03  0.28324279187E+03  0.17394243836E+03 0.  0.
        -24    2    5    5    0    0 -0.33503770838E+02 -0.93769825008E+02  0.90696374930E+02  0.15485860931E+03  0.76420374964E+02 0.  0.
          5    1    3    3  501    0  0.57555685810E+02  0.90924692315E+02  0.46867670665E+02  0.11746754954E+03  0.47000000000E+01 0. -1.
        -13    1    4    4    0    0  0.37132268836E+02  0.76684296300E+01  0.20043095708E+02  0.42887479378E+02  0.00000000000E+00 0.  1.
         14    1    4    4    0    0 -0.80274884467E+01 -0.47131916040E+02  0.47965308783E+02  0.67723916950E+02  0.00000000000E+00 0. -1.
         -5    1    5    5    0  502 -0.53156695361E+02  0.42308619103E+02  0.10883361071E+03  0.12838418256E+03  0.47000000000E+01 0.  1.
         11    1    6    6    0    0 -0.45445151776E+02 -0.64669158199E+02  0.94473578487E+02  0.12317718488E+03  0.00000000000E+00 0. -1.
        -12    1    6    6    0    0  0.11941380938E+02 -0.29100666809E+02 -0.37772035564E+01  0.31681424433E+02  0.00000000000E+00 0.  1.
</event>
<event>
12    1  0.9246030E-003  0.1731942E+03  0.7818608E-02  0.1175248E+00
         21   -1    0    0  503  502  0.00000000000E+00  0.00000000000E+00  0.39319322227E+03  0.39319322227E+03  0.00000000000E+00 0. -1.
         21   -1    0    0  501  503 -0.00000000000E+00 -0.00000000000E+00 -0.93214658588E+02  0.93214658588E+02  0.00000000000E+00 0. -1.
          6    2    1    2  501    0 -0.11336705117E+02 -0.14883316117E+01  0.41856098887E+02  0.17556476039E+03  0.17011853533E+03 0.  0.
         24    2    3    3    0    0 -0.70503417140E+01 -0.54185369160E+02 -0.15447401291E+02  0.97455018296E+02  0.79202884007E+02 0.  0.
         -6    2    1    2    0  502  0.11336705117E+02  0.14883316117E+01  0.25812246479E+03  0.31084312046E+03  0.17281638433E+03 0.  0.
        -24    2    5    5    0    0 -0.30774339849E+02 -0.30601051350E+02  0.23414978137E+03  0.25253490357E+03  0.84049230026E+02 0.  0.
          5    1    3    3  501    0 -0.42863634028E+01  0.52697037549E+02  0.57303500178E+02  0.78109742096E+02  0.47000000000E+01 0. -1.
        -11    1    4    4    0    0 -0.37139719005E+02 -0.51327863993E+01 -0.13588259164E+02  0.39879130020E+02  0.00000000000E+00 0.  1.
         12    1    4    4    0    0  0.30089377291E+02 -0.49052582761E+02 -0.18591421274E+01  0.57575888276E+02  0.00000000000E+00 0. -1.
         -5    1    5    5    0  502  0.42111044966E+02  0.32089382962E+02  0.23972683424E+02  0.58308216895E+02  0.47000000000E+01 0.  1.
         11    1    6    6    0    0  0.14068554844E+02 -0.39998519957E+02  0.15867135414E+03  0.16423886403E+03  0.00000000000E+00 0. -1.
        -12    1    6    6    0    0 -0.44842894692E+02  0.93974686067E+01  0.75478427227E+02  0.88296039534E+02  0.00000000000E+00 0.  1.
</event>
<event>
12    1  0.9246030E-003  0.2291897E+03  0.7818608E-02  0.1128326E+00
         21   -1    0    0  501  502  0.00000000000E+00  0.00000000000E+00  0.16612503090E+03  0.16612503090E+03  0.00000000000E+00 0. -1.
         21   -1    0    0  502  503 -0.00000000000E+00 -0.00000000000E+00 -0.32418738958E+03  0.32418738958E+03  0.00000000000E+00 0.  1.
          6    2    1    2  501    0  0.14146852265E+03  0.19043776506E+02 -0.24747385611E+02  0.23052195560E+03  0.17930959426E+03 0.  0.
         24    2    3    3    0    0  0.11293156375E+03  0.59727444250E+02 -0.66618107615E+02  0.16537008528E+03  0.81168880464E+02 0.  0.
         -6    2    1    2    0  503 -0.14146852265E+03 -0.19043776506E+02 -0.13331497307E+03  0.25979046488E+03  0.17129563705E+03 0.  0.
        -24    2    5    5    0    0 -0.19828999677E+02  0.29159039799E+02 -0.28994816011E+02  0.92385356778E+02  0.80317594345E+02 0.  0.
          5    1    3    3  501    0  0.28536958903E+02 -0.40683667744E+02  0.41870722004E+02  0.65151870316E+02  0.47000000000E+01 0. -1.
        -13    1    4    4    0    0  0.91166629531E+02  0.62954970961E+01 -0.54549220583E+02  0.10642652437E+03  0.00000000000E+00 0.  1.
         14    1    4    4    0    0  0.21764934216E+02  0.53431947154E+02 -0.12068887032E+02  0.58943560906E+02  0.00000000000E+00 0. -1.
         -5    1    5    5    0  503 -0.12163952297E+03 -0.48202816305E+02 -0.10432015706E+03  0.16740510810E+03  0.47000000000E+01 0.  1.
         13    1    6    6    0    0 -0.15076319453E+02  0.42745657709E+02 -0.49638145602E+02  0.67219284138E+02  0.00000000000E+00 0. -1.
        -14    1    6    6    0    0 -0.47526802240E+01 -0.13586617910E+02  0.20643329590E+02  0.25166072640E+02  0.00000000000E+00 0.  1.
</event>
<event>
12    1  0.9246030E-003  0.5150540E+03  0.7818608E-02  0.1010076E+00
         21   -1    0    0  501  502  0.00000000000E+00  0.00000000000E+00  0.83864333231E+03  0.83864333231E+03  0.00000000000E+00 0.  1.
         21   -1    0    0  502  503 -0.00000000000E+00 -0.00000000000E+00 -0.38527522687E+03  0.38527522687E+03  0.00000000000E+00 0. -1.
          6    2    1    2  501    0  0.42449508366E+03  0.22992155209E+03  0.48880133120E+03  0.71007560686E+03  0.17950105823E+03 0.  0.
         24    2    3    3    0    0  0.10798168961E+03  0.11675028054E+03  0.15043833243E+03  0.23310592831E+03  0.80099991584E+02 0.  0.
         -6    2    1    2    0  503 -0.42449508366E+03 -0.22992155209E+03 -0.35433225760E+02  0.51384295233E+03  0.17239219821E+03 0.  0.
        -24    2    5    5    0    0 -0.14159569437E+03 -0.11978295020E+03 -0.53234578868E+02  0.20970227064E+03  0.82120801875E+02 0.  0.
          5    1    3    3  501    0  0.31651339405E+03  0.11317127155E+03  0.33836299877E+03  0.47696967855E+03  0.47000000000E+01 0. -1.
        -11    1    4    4    0    0  0.92759220729E+02  0.42430833217E+02  0.80812417548E+02  0.13013568099E+03  0.00000000000E+00 0.  1.
         12    1    4    4    0    0  0.15222468879E+02  0.74319447321E+02  0.69625914881E+02  0.10297024731E+03  0.00000000000E+00 0. -1.
         -5    1    5    5    0  503 -0.28289938929E+03 -0.11013860188E+03  0.17801353108E+02  0.30414068169E+03  0.47000000000E+01 0.  1.
         11    1    6    6    0    0 -0.11209138449E+03 -0.48520857771E+02 -0.51496478989E+02  0.13255428875E+03  0.00000000000E+00 0. -1.
        -12    1    6    6    0    0 -0.29504309874E+02 -0.71262092431E+02 -0.17380998789E+01  0.77147981892E+02  0.00000000000E+00 0.  1.
</event>
<event>
12    1  0.9246030E-003  0.2057348E+03  0.7818608E-02  0.1145501E+00
         21   -1    0    0  501  502  0.00000000000E+00  0.00000000000E+00  0.10208824444E+03  0.10208824444E+03  0.00000000000E+00 0. -1.
         21   -1    0    0  502  503 -0.00000000000E+00 -0.00000000000E+00 -0.43711280953E+03  0.43711280953E+03  0.00000000000E+00 0. -1.
          6    2    1    2  501    0 -0.37057727799E+02 -0.10448361353E+03 -0.23612602691E+03  0.31318097043E+03  0.17331104687E+03 0.  0.
         24    2    3    3    0    0 -0.13108056883E+02 -0.13699903198E+03 -0.21351702224E+03  0.26666112234E+03  0.81105360251E+02 0.  0.
         -6    2    1    2    0  503  0.37057727799E+02  0.10448361353E+03 -0.98898538175E+02  0.22602008355E+03  0.17033513034E+03 0.  0.
        -24    2    5    5    0    0  0.61532098243E+02  0.69860911521E+02 -0.12616882145E+03  0.17538921694E+03  0.78587911549E+02 0.  0.
          5    1    3    3  501    0 -0.23949670916E+02  0.32515418449E+02 -0.22609004673E+02  0.46519848089E+02  0.47000000000E+01 0. -1.
        -13    1    4    4    0    0  0.18496508483E+02  0.41560722933E+00 -0.20304983784E+02  0.27469727372E+02  0.00000000000E+00 0.  1.
         14    1    4    4    0    0 -0.31604565366E+02 -0.13741463921E+03 -0.19321203845E+03  0.23919139496E+03  0.00000000000E+00 0. -1.
         -5    1    5    5    0  503 -0.24474370444E+02  0.34622702012E+02  0.27270283275E+02  0.50630866605E+02  0.47000000000E+01 0.  1.
         13    1    6    6    0    0  0.15553438269E+01  0.41168896222E+01  0.11019126773E+02  0.11865455297E+02  0.00000000000E+00 0. -1.
        -14    1    6    6    0    0  0.59976754416E+02  0.65744021899E+02 -0.13718794822E+03  0.16352376165E+03  0.00000000000E+00 0.  1.
</event>
<event>
12    1  0.9246030E-003  0.1785401E+03  0.7818608E-02  0.1169461E+00
         21   -1    0    0  503  502  0.00000000000E+00  0.00000000000E+00  0.27630547715E+02  0.27630547715E+02  0.00000000000E+00 0. -1.
         21   -1    0    0  501  503 -0.00000000000E+00 -0.00000000000E+00 -0.12935803231E+04  0.12935803231E+04  0.00000000000E+00 0.  1.
          6    2    1    2  501    0  0.45539950855E+02  0.68112672386E+01 -0.85655880583E+03  0.87496831142E+03  0.17250008021E+03 0.  0.
         24    2    3    3    0    0  0.65797770817E+02 -0.52851904284E+02 -0.55195402435E+03  0.56387951992E+03  0.78639669058E+02 0.  0.
         -6    2    1    2    0  502 -0.45539950855E+02 -0.68112672386E+01 -0.40939096956E+03  0.44624255939E+03  0.17149686694E+03 0.  0.
        -24    2    5    5    0    0  0.71961251962E+01 -0.61133025409E+02 -0.23356962041E+03  0.25475578714E+03  0.80973529580E+02 0.  0.
          5    1    3    3  501    0 -0.20257819962E+02  0.59663171522E+02 -0.30460478147E+03  0.31108879151E+03  0.47000000000E+01 0. -1.
        -13    1    4    4    0    0 -0.11664880557E+02 -0.16555438379E+02 -0.22535357256E+03  0.22626176134E+03  0.00000000000E+00 0.  1.
         14    1    4    4    0    0  0.77462651374E+02 -0.36296465905E+02 -0.32660045179E+03  0.33761775857E+03  0.00000000000E+00 0. -1.
         -5    1    5    5    0  502 -0.52736076051E+02  0.54321758170E+02 -0.17582134915E+03  0.19148677225E+03  0.47000000000E+01 0.  1.
         13    1    6    6    0    0  0.90626125290E+01  0.79587073141E+01 -0.12803776692E+03  0.12860459450E+03  0.00000000000E+00 0. -1.
        -14    1    6    6    0    0 -0.18664873327E+01 -0.69091732723E+02 -0.10553185349E+03  0.12615119264E+03  0.00000000000E+00 0.  1.
</event>
<event>
12    1  0.9246030E-003  0.1880442E+03  0.7818608E-02  0.1161166E+00
         21   -1    0    0  503  502  0.00000000000E+00  0.00000000000E+00  0.17792542309E+03  0.17792542309E+03  0.00000000000E+00 0. -1.
         21   -1    0    0  501  503 -0.00000000000E+00 -0.00000000000E+00 -0.21570876233E+03  0.21570876233E+03  0.00000000000E+00 0. -1.
          6    2    1    2  501    0  0.50800562517E+02 -0.57252275268E+02 -0.80395673736E+02  0.20082230366E+03  0.16735475230E+03 0.  0.
         24    2    3    3    0    0  0.25999941066E+02  0.19247762633E+02  0.26809001853E+02  0.66724357773E+02  0.51835740932E+02 0.  0.
         -6    2    1    2    0  502 -0.50800562517E+02  0.57252275268E+02  0.42612334499E+02  0.19281188176E+03  0.17176172601E+03 0.  0.
        -24    2    5    5    0    0 -0.13508744175E+02  0.31304705547E+02  0.90422038463E+02  0.12669218815E+03  0.81928595377E+02 0.  0.
          5    1    3    3  501    0  0.24800621451E+02 -0.76500037901E+02 -0.10720467559E+03  0.13409794589E+03  0.47000000000E+01 0. -1.
        -11    1    4    4    0    0  0.24465084697E+02 -0.79390945162E+01 -0.35247855812E+01  0.25961388722E+02  0.00000000000E+00 0.  1.
         12    1    4    4    0    0  0.15348563688E+01  0.27186857150E+02  0.30333787434E+02  0.40762969051E+02  0.00000000000E+00 0. -1.
         -5    1    5    5    0  502 -0.37291818342E+02  0.25947569721E+02 -0.47809703964E+02  0.66119693608E+02  0.47000000000E+01 0.  1.
         13    1    6    6    0    0 -0.41672008685E+02  0.35813494964E+01  0.20979978138E+02  0.46792540588E+02  0.00000000000E+00 0. -1.
        -14    1    6    6    0    0  0.28163264510E+02  0.27723356050E+02  0.69442060326E+02  0.79899647564E+02  0.00000000000E+00 0.  1.
</event>
<event>
12    1  0.9246030E-003  0.1785486E+03  0.7818608E-02  0.1169372E+00
         21   -1    0    0  503  502  0.00000000000E+00  0.00000000000E+00  0.59971196409E+02  0.59971196409E+02  0.00000000000E+00 0.  1.
         21   -1    0    0  501  503 -0.00000000000E+00 -0.00000000000E+00 -0.54609620997E+03  0.54609620997E+03  0.00000000000E+00 0. -1.
          6    2    1    2  501    0 -0.40848865381E+02 -0.25295088776E+02 -0.29518025060E+03  0.34464911858E+03  0.17129846257E+03 0.  0.
         24    2    3    3    0    0 -0.51933588264E+02 -0.71318656026E+02 -0.25764238865E+03  0.28405026626E+03  0.80755835972E+02 0.  0.
         -6    2    1    2    0  502  0.40848865381E+02  0.25295088776E+02 -0.19094476297E+03  0.26141828780E+03  0.17196263365E+03 0.  0.
        -24    2    5    5    0    0  0.83360581160E+01  0.10709359460E+02 -0.14720396431E+02  0.81565727357E+02  0.79070206546E+02 0.  0.
          5    1    3    3  501    0  0.11084722883E+02  0.46023567250E+02 -0.37537861944E+02  0.60598852325E+02  0.47000000000E+01 0. -1.
        -11    1    4    4    0    0 -0.11855051283E+02 -0.45813879487E+02 -0.42114257655E+02  0.63348752888E+02  0.00000000000E+00 0.  1.
         12    1    4    4    0    0 -0.40078536981E+02 -0.25504776539E+02 -0.21552813100E+03  0.22070151337E+03  0.00000000000E+00 0. -1.
         -5    1    5    5    0  502  0.32512807265E+02  0.14585729316E+02 -0.17622436654E+03  0.17985256044E+03  0.47000000000E+01 0.  1.
         11    1    6    6    0    0 -0.18934498261E+02 -0.58026203383E+01 -0.37483373162E+02  0.42393264687E+02  0.00000000000E+00 0. -1.
        -12    1    6    6    0    0  0.27270556377E+02  0.16511979798E+02  0.22762976732E+02  0.39172462670E+02  0.00000000000E+00 0.  1.
</event>
<event>
12    1  0.9246030E-003  0.3426438E+03  0.7818608E-02  0.1065751E+00
         21   -1    0    0  503  502  0.00000000000E+00  0.00000000000E+00  0.14270595488E+04  0.14270595488E+04  0.00000000000E+00 0. -1.
         21   -1    0    0  501  503 -0.00000000000E+00 -0.00000000000E+00 -0.96455842200E+02  0.96455842200E+02  0.00000000000E+00 0. -1.
          6    2    1    2  501    0  0.86364998614E+02 -0.28285718621E+03  0.95979229187E+03  0.10191202126E+04  0.17302503674E+03 0.  0.
         24    2    3    3    0    0  0.44162408739E+02 -0.18809354809E+03  0.81184240163E+03  0.83836494784E+03  0.80238391722E+02 0.  0.
         -6    2    1    2    0  502 -0.86364998614E+02  0.28285718621E+03  0.37081141473E+03  0.50439517844E+03  0.17159921317E+03 0.  0.
        -24    2    5    5    0    0 -0.17100367696E+02  0.16155650814E+03  0.29176478150E+03  0.34382773522E+03  0.81840673776E+02 0.  0.
          5    1    3    3  501    0  0.42202589875E+02 -0.94763638121E+02  0.14794989025E+03  0.18075526473E+03  0.47000000000E+01 0. -1.
        -11    1    4    4    0    0 -0.22360991258E+02 -0.41067880539E+02  0.22011998665E+03  0.22503198276E+03  0.00000000000E+00 0.  1.
         12    1    4    4    0    0  0.66523399997E+02 -0.14702566755E+03  0.59172241498E+03  0.61333296508E+03  0.00000000000E+00 0. -1.
         -5    1    5    5    0  502 -0.69264630918E+02  0.12130067807E+03  0.79046633233E+02  0.16056744322E+03  0.47000000000E+01 0.  1.
         11    1    6    6    0    0 -0.47798040520E+02  0.11484071904E+03  0.17911938451E+03  0.21807521027E+03  0.00000000000E+00 0. -1.
        -12    1    6    6    0    0  0.30697672824E+02  0.46715789103E+02  0.11264539699E+03  0.12575252495E+03  0.00000000000E+00 0.  1.
</event>
<event>
12    1  0.9246030E-003  0.1779415E+03  0.7818608E-02  0.1169915E+00
         21   -1    0    0  501  502  0.00000000000E+00  0.00000000000E+00  0.19559650947E+04  0.19559650947E+04  0.00000000000E+00 0.  1.
         21   -1    0    0  502  503 -0.00000000000E+00 -0.00000000000E+00 -0.16302810963E+02  0.16302810963E+02  0.00000000000E+00 0.  1.
          6    2    1    2  501    0 -0.24884988920E+02  0.37998937905E+02  0.10643951840E+04  0.10790962193E+04  0.17160524758E+03 0.  0.
         24    2    3    3    0    0 -0.75995589912E+01  0.57592740036E+02  0.35909257505E+03  0.37329414843E+03  0.83823426263E+02 0.  0.
         -6    2    1    2    0  503  0.24884988920E+02 -0.37998937905E+02  0.87526709977E+03  0.89317168632E+03  0.17204645694E+03 0.  0.
        -24    2    5    5    0    0  0.65937527336E+02 -0.40824686593E+01  0.74726285962E+03  0.75445321857E+03  0.80208812424E+02 0.  0.
          5    1    3    3  501    0 -0.17285429929E+02 -0.19593802131E+02  0.70530260891E+03  0.70580207091E+03  0.47000000000E+01 0. -1.
        -13    1    4    4    0    0 -0.43919112616E+02  0.29387323731E+02  0.23721639130E+03  0.24303110819E+03  0.00000000000E+00 0.  1.
         14    1    4    4    0    0  0.36319553625E+02  0.28205416305E+02  0.12187618375E+03  0.13026304023E+03  0.00000000000E+00 0. -1.
         -5    1    5    5    0  503 -0.41052538417E+02 -0.33916469245E+02  0.12800424016E+03  0.13871846775E+03  0.47000000000E+01 0.  1.
         13    1    6    6    0    0  0.47477669726E+02  0.18565510843E+02  0.19945489154E+03  0.20586660991E+03  0.00000000000E+00 0. -1.
        -14    1    6    6    0    0  0.18459857610E+02 -0.22647979503E+02  0.54780796808E+03  0.54858660867E+03  0.00000000000E+00 0.  1.
</event>
<event>
12    1  0.9246030E-003  0.2139917E+03  0.7818608E-02  0.1139385E+00
         21   -1    0    0  503  502  0.00000000000E+00  0.00000000000E+00  0.15443900406E+03  0.15443900406E+03  0.00000000000E+00 0. -1.
         21   -1    0    0  501  503 -0.00000000000E+00 -0.00000000000E+00 -0.29138842091E+03  0.29138842091E+03  0.00000000000E+00 0.  1.
          6    2    1    2  501    0  0.12046592847E+03 -0.41530935667E+02 -0.85307686590E+02  0.23036889575E+03  0.17191732955E+03 0.  0.
         24    2    3    3    0    0  0.12379252888E+03 -0.79068769741E+02 -0.46875502294E+02  0.17633855199E+03  0.85565832246E+02 0.  0.
         -6    2    1    2    0  502 -0.12046592847E+03  0.41530935667E+02 -0.51641730260E+02  0.21545852922E+03  0.16588746477E+03 0.  0.
        -24    2    5    5    0    0 -0.11478398083E+02 -0.48082903059E+01 -0.54201071769E+02  0.96907924527E+02  0.79363192836E+02 0.  0.
          5    1    3    3  501    0 -0.33266004088E+01  0.37537834074E+02 -0.38432184297E+02  0.54030343762E+02  0.47000000000E+01 0. -1.
        -11    1    4    4    0    0 -0.11905903959E+02 -0.13588074982E+02 -0.11986035839E+02  0.21680668485E+02  0.00000000000E+00 0.  1.
         12    1    4    4    0    0  0.13569843284E+03 -0.65480694759E+02 -0.34889466455E+02  0.15465788350E+03  0.00000000000E+00 0. -1.
         -5    1    5    5    0  502 -0.10898753038E+03  0.46339225973E+02  0.25593415086E+01  0.11855060469E+03  0.47000000000E+01 0.  1.
         11    1    6    6    0    0 -0.44856933280E+01  0.37340012118E+02 -0.25308473685E+02  0.45331190033E+02  0.00000000000E+00 0. -1.
        -12    1    6    6    0    0 -0.69927047554E+01 -0.42148302424E+02 -0.28892598084E+02  0.51576734494E+02  0.00000000000E+00 0.  1.
</event>
<event>
12    1  0.9246030E-003  0.1748218E+03  0.7818608E-02  0.1172948E+00
         21   -1    0    0  501  502  0.00000000000E+00  0.00000000000E+00  0.27235603059E+02  0.27235603059E+02  0.00000000000E+00 0. -1.
         21   -1    0    0  502  503 -0.00000000000E+00 -0.00000000000E+00 -0.29521616349E+04  0.29521616349E+04  0.00000000000E+00 0. -1.
          6    2    1    2  501    0  0.95780575095E+01  0.29778867418E+02 -0.28903912643E+03  0.33771927575E+03  0.17184927255E+03 0.  0.
         24    2    3    3    0    0  0.21103152449E+02 -0.56864426967E+01 -0.28861586598E+03  0.30013091074E+03  0.79383668405E+02 0.  0.
         -6    2    1    2    0  503 -0.95780575095E+01 -0.29778867418E+02 -0.26358869054E+04  0.26416779622E+04  0.17200045864E+03 0.  0.
        -24    2    5    5    0    0 -0.22588114864E+02  0.37228871868E+02 -0.20096098192E+04  0.20116744881E+04  0.80040044259E+02 0.  0.
          5    1    3    3  501    0 -0.11525094939E+02  0.35465310115E+02 -0.42326044748E+00  0.37588365012E+02  0.47000000000E+01 0. -1.
        -13    1    4    4    0    0 -0.14582878019E+01 -0.16851255920E+02 -0.85801020051E+01  0.18966011173E+02  0.00000000000E+00 0.  1.
         14    1    4    4    0    0  0.22561440251E+02  0.11164813224E+02 -0.28003576398E+03  0.28116489956E+03  0.00000000000E+00 0. -1.
         -5    1    5    5    0  503  0.13010057354E+02 -0.67007739286E+02 -0.62627708625E+03  0.63000347418E+03  0.47000000000E+01 0.  1.
         13    1    6    6    0    0 -0.17072414602E+02  0.43680612410E+01 -0.17295044597E+04  0.17295942367E+04  0.00000000000E+00 0. -1.
        -14    1    6    6    0    0 -0.55157002614E+01  0.32860810627E+02 -0.28010535947E+03  0.28208025140E+03  0.00000000000E+00 0.  1.
</event>
<event>
12    1  0.9246030E-003  0.2281044E+03  0.7818608E-02  0.1128175E+00
         21   -1    0    0  503  502  0.00000000000E+00  0.00000000000E+00  0.24534956113E+03  0.24534956113E+03  0.00000000000E+00 0. -1.
         21   -1    0    0  501  503 -0.00000000000E+00 -0.00000000000E+00 -0.22808088597E+03  0.22808088597E+03  0.00000000000E+00 0. -1.
          6    2    1    2  501    0 -0.15121454933E+03  0.51384627800E+01 -0.56013234222E+02  0.23488103912E+03  0.17070259635E+03 0.  0.
         24    2    3    3    0    0 -0.29679476400E+02  0.43318061207E+02 -0.45907426671E+02  0.10700346863E+03  0.81147549120E+02 0.  0.
         -6    2    1    2    0  502  0.15121454933E+03 -0.51384627800E+01  0.73281909387E+02  0.23854940799E+03  0.16924342846E+03 0.  0.
        -24    2    5    5    0    0  0.54276581016E+02  0.41044664015E+02 -0.54990634888E+01  0.10528882646E+03  0.80155384018E+02 0.  0.
          5    1    3    3  501    0 -0.12153507293E+03 -0.38179598427E+02 -0.10105807551E+02  0.12787757049E+03  0.47000000000E+01 0. -1.
        -11    1    4    4    0    0  0.13453067835E+02 -0.96522064327E+01 -0.33787706149E+02  0.37626575848E+02  0.00000000000E+00 0.  1.
         12    1    4    4    0    0 -0.43132544235E+02  0.52970267640E+02 -0.12119720522E+02  0.69376892778E+02  0.00000000000E+00 0. -1.
         -5    1    5    5    0  502  0.96937968314E+02 -0.46183126795E+02  0.78780972875E+02  0.13326058153E+03  0.47000000000E+01 0.  1.
         11    1    6    6    0    0  0.59084304398E+02  0.10569651279E+02  0.22032980172E+02  0.63938445161E+02  0.00000000000E+00 0. -1.
        -12    1    6    6    0    0 -0.48077233815E+01  0.30475012736E+02 -0.27532043661E+02  0.41350381299E+02  0.00000000000E+00 0.  1.
</event>
<event>
12    1  0.9246030E-003  0.2256650E+03  0.7818608E-02  0.1130292E+00
         21   -1    0    0  503  502  0.00000000000E+00  0.00000000000E+00  0.10782372875E+03  0.10782372875E+03  0.00000000000E+00 0.  1.
         21   -1    0    0  501  503 -0.00000000000E+00 -0.00000000000E+00 -0.71650637776E+03  0.71650637776E+03  0.00000000000E+00 0.  1.
          6    2    1    2  501    0 -0.89093926344E+02  0.11557471083E+03 -0.54949453372E+03  0.59402770571E+03  0.17213201639E+03 0.  0.
         24    2    3    3    0    0 -0.55285876532E+02 -0.55534517650E+01 -0.29409250076E+03  0.30930449899E+03  0.78048094915E+02 0.  0.
         -6    2    1    2    0  502  0.89093926344E+02 -0.11557471083E+03 -0.59188115292E+02  0.23030240080E+03  0.16804975848E+03 0.  0.
        -24    2    5    5    0    0  0.20376067287E+02 -0.71431726941E+02 -0.91384193502E+02  0.14238525439E+03  0.80030082557E+02 0.  0.
          5    1    3    3  501    0 -0.33808049811E+02  0.12112816259E+03 -0.25540203296E+03  0.28472320672E+03  0.47000000000E+01 0. -1.
        -13    1    4    4    0    0 -0.49759630242E+02  0.13024749875E+02 -0.28156770683E+03  0.28622724965E+03  0.00000000000E+00 0.  1.
         14    1    4    4    0    0 -0.55262462905E+01 -0.18578201640E+02 -0.12524793937E+02  0.23077249346E+02  0.00000000000E+00 0. -1.
         -5    1    5    5    0  502  0.68717859057E+02 -0.44142983888E+02  0.32196078209E+02  0.87917146405E+02  0.47000000000E+01 0.  1.
         11    1    6    6    0    0  0.13575068126E+02  0.48140415497E+01 -0.56420284726E+02  0.58229769012E+02  0.00000000000E+00 0. -1.
        -12    1    6    6    0    0  0.68009991607E+01 -0.76245768491E+02 -0.34963908776E+02  0.84155485378E+02  0.00000000000E+00 0.  1.
</event>
<event>
12    1  0.9246030E-003  0.1978773E+03  0.7818608E-02  0.1151760E+00
         21   -1    0    0  501  502  0.00000000000E+00  0.00000000000E+00  0.16544024254E+03  0.16544024254E+03  0.00000000000E+00 0.  1.
         21   -1    0    0  502  503 -0.00000000000E+00 -0.00000000000E+00 -0.24551714911E+03  0.24551714911E+03  0.00000000000E+00 0.  1.
          6    2    1    2  501    0  0.86203390575E+02 -0.46629397312E+02 -0.81522069614E+02  0.21307483223E+03  0.17073286460E+03 0.  0.
         24    2    3    3    0    0  0.11325435585E+03 -0.37533862949E+02 -0.10407410138E+03  0.17639830561E+03  0.77779198094E+02 0.  0.
         -6    2    1    2    0  503 -0.86203390575E+02  0.46629397312E+02  0.14451630416E+01  0.19788255943E+03  0.17190140659E+03 0.  0.
        -24    2    5    5    0    0  0.19862292726E+02  0.21286508077E+02  0.27259127001E+02  0.85719098603E+02  0.75875409468E+02 0.  0.
          5    1    3    3  501    0 -0.27050965279E+02 -0.90955343626E+01  0.22552031766E+02  0.36676526616E+02  0.47000000000E+01 0. -1.
        -11    1    4    4    0    0  0.28163837463E+02 -0.36071079945E+01  0.99935020394E+01  0.30101213459E+02  0.00000000000E+00 0.  1.
         12    1    4    4    0    0  0.85090518391E+02 -0.33926754955E+02 -0.11406760342E+03  0.14629709215E+03  0.00000000000E+00 0. -1.
         -5    1    5    5    0  503 -0.10606568330E+03  0.25342889234E+02 -0.25813963959E+02  0.11216346082E+03  0.47000000000E+01 0.  1.
         11    1    6    6    0    0  0.37114896729E+02  0.17427133895E+02 -0.11950016638E+02  0.42708587575E+02  0.00000000000E+00 0. -1.
        -12    1    6    6    0    0 -0.17252604002E+02  0.38593741822E+01  0.39209143639E+02  0.43010511028E+02  0.00000000000E+00 0.  1.
</event>
<event>
12    1  0.9246030E-003  0.3247956E+03  0.7818608E-02  0.1073496E+00
         21   -1    0    0  501  502  0.00000000000E+00  0.00000000000E+00  0.57264380694E+03  0.57264380694E+03  0.00000000000E+00 0. -1.
         21   -1    0    0  502  503 -0.00000000000E+00 -0.00000000000E+00 -0.25010034545E+03  0.25010034545E+03  0.00000000000E+00 0.  1.
          6    2    1    2  501    0  0.27332963734E+03  0.30366992956E+02 -0.50074409493E+02  0.32863293660E+03  0.17280311231E+03 0.  0.
         24    2    3    3    0    0  0.14363789830E+03 -0.36298985014E+02  0.13370543107E+02  0.16953657648E+03  0.81329067377E+02 0.  0.
         -6    2    1    2    0  503 -0.27332963734E+03 -0.30366992956E+02  0.37261787099E+03  0.49411121579E+03  0.17225147570E+03 0.  0.
        -24    2    5    5    0    0 -0.10088641008E+03  0.10616883913E+02  0.82416454275E+02  0.15402990632E+03  0.81498184899E+02 0.  0.
          5    1    3    3  501    0  0.12969173903E+03  0.66665977969E+02 -0.63444952599E+02  0.15909636012E+03  0.47000000000E+01 0. -1.
        -13    1    4    4    0    0  0.14085439134E+03 -0.38896737749E+02 -0.94204824392E+01  0.14642971439E+03  0.00000000000E+00 0.  1.
         14    1    4    4    0    0  0.27835069638E+01  0.25977527356E+01  0.22791025546E+02  0.23106862092E+02  0.00000000000E+00 0. -1.
         -5    1    5    5    0  503 -0.17244322725E+03 -0.40983876869E+02  0.29020141671E+03  0.34008130947E+03  0.47000000000E+01 0.  1.
         13    1    6    6    0    0 -0.11018209000E+03  0.18242451512E+02  0.55847727309E+02  0.12486732415E+03  0.00000000000E+00 0. -1.
        -14    1    6    6    0    0  0.92956799179E+01 -0.76255675989E+01  0.26568726966E+02  0.29162582172E+02  0.00000000000E+00 0.  1.
</event>
<event>
12    1  0.9246030E-003  0.2128348E+03  0.7818608E-02  0.1139370E+00
         21   -1    0    0  503  502  0.00000000000E+00  0.00000000000E+00  0.30536036586E+03  0.30536036586E+03  0.00000000000E+00 0. -1.
         21   -1    0    0  501  503 -0.00000000000E+00 -0.00000000000E+00 -0.14898738353E+03  0.14898738353E+03  0.00000000000E+00 0. -1.
          6    2    1    2  501    0 -0.36821078573E+02  0.11969566103E+03  0.62069525375E+02  0.22155640241E+03  0.17190628369E+03 0.  0.
         24    2    3    3    0    0 -0.13866847534E+02  0.54962414323E+01  0.65666328195E+02  0.10492265451E+03  0.80462405138E+02 0.  0.
         -6    2    1    2    0  502  0.36821078573E+02 -0.11969566103E+03  0.94303456959E+02  0.23279134699E+03  0.17209249298E+03 0.  0.
        -24    2    5    5    0    0  0.55013189584E+02 -0.44397943426E+01  0.65403723379E+02  0.11249108801E+03  0.73009828437E+02 0.  0.
          5    1    3    3  501    0 -0.22954231039E+02  0.11419941959E+03 -0.35968028196E+01  0.11663374790E+03  0.47000000000E+01 0. -1.
        -13    1    4    4    0    0  0.28757933199E+00  0.18979934883E+02 -0.13554960486E+02  0.23325041989E+02  0.00000000000E+00 0.  1.
         14    1    4    4    0    0 -0.14154426866E+02 -0.13483693450E+02  0.79221288681E+02  0.81597612522E+02  0.00000000000E+00 0. -1.
         -5    1    5    5    0  502 -0.18192111012E+02 -0.11525586668E+03  0.28899733579E+02  0.12030025897E+03  0.47000000000E+01 0.  1.
         13    1    6    6    0    0  0.26685557231E+02 -0.21149800119E+02 -0.53488268482E+01  0.34467999049E+02  0.00000000000E+00 0. -1.
        -14    1    6    6    0    0  0.28327632354E+02  0.16710005776E+02  0.70752550227E+02  0.78023088964E+02  0.00000000000E+00 0.  1.
</event>
<event>
12    1  0.9246030E-003  0.1870665E+03  0.7818608E-02  0.1161507E+00
         21   -1    0    0  503  502  0.00000000000E+00  0.00000000000E+00  0.25718253733E+03  0.25718253733E+03  0.00000000000E+00 0. -1.
         21   -1    0    0  501  503 -0.00000000000E+00 -0.00000000000E+00 -0.26548621036E+03  0.26548621036E+03  0.00000000000E+00 0. -1.
          6    2    1    2  501    0 -0.41464819768E+02  0.53632930865E+02 -0.18742824550E+03  0.26367167940E+03  0.17261976930E+03 0.  0.
         24    2    3    3    0    0 -0.51479305208E+02  0.87634879269E+02 -0.83652307994E+02  0.15390849058E+03  0.79750385026E+02 0.  0.
         -6    2    1    2    0  502  0.41464819768E+02 -0.53632930865E+02  0.17912457247E+03  0.25899706829E+03  0.17435035523E+03 0.  0.
        -24    2    5    5    0    0  0.70134851660E+02 -0.95367465481E+02  0.12369041614E+03  0.18377222003E+03  0.66776185276E+02 0.  0.
          5    1    3    3  501    0  0.10014485440E+02 -0.34001948404E+02 -0.10377593750E+03  0.10976318881E+03  0.47000000000E+01 0. -1.
        -11    1    4    4    0    0  0.15329212353E+02  0.17806025891E+02  0.35235811794E+01  0.23758260326E+02  0.00000000000E+00 0.  1.
         12    1    4    4    0    0 -0.66808517561E+02  0.69828853378E+02 -0.87175889173E+02  0.13015023026E+03  0.00000000000E+00 0. -1.
         -5    1    5    5    0  502 -0.28670031891E+02  0.41734534616E+02  0.55434156326E+02  0.75224848260E+02  0.47000000000E+01 0.  1.
         13    1    6    6    0    0  0.13816177804E+02 -0.71837270034E+02  0.52755342561E+02  0.90192052332E+02  0.00000000000E+00 0. -1.
        -14    1    6    6    0    0  0.56318673856E+02 -0.23530195447E+02  0.70935073584E+02  0.93580167701E+02  0.00000000000E+00 0.  1.
</event>
<event>
12    1  0.9246030E-003  0.2619149E+03  0.7818608E-02  0.1106102E+00
         21   -1    0    0  503  502  0.00000000000E+00  0.00000000000E+00  0.20098138426E+03  0.20098138426E+03  0.00000000000E+00 0.  1.
         21   -1    0    0  501  503 -0.00000000000E+00 -0.00000000000E+00 -0.42759213244E+03  0.42759213244E+03  0.00000000000E+00 0. -1.
          6    2    1    2  501    0 -0.16296218528E+03 -0.10961541167E+03 -0.25509457024E+03  0.36511431237E+03  0.17222952425E+03 0.  0.
         24    2    3    3    0    0 -0.80014691141E+02  0.10588989249E+02 -0.13192369047E+03  0.17400559879E+03  0.79747168035E+02 0.  0.
         -6    2    1    2    0  502  0.16296218528E+03  0.10961541167E+03  0.28483822065E+02  0.26345920433E+03  0.17328361700E+03 0.  0.
        -24    2    5    5    0    0  0.61877127027E+02 -0.33139811255E+01  0.45868849955E+02  0.11083035400E+03  0.79621948306E+02 0.  0.
          5    1    3    3  501    0 -0.82947494141E+02 -0.12020440092E+03 -0.12317087977E+03  0.19110871358E+03  0.47000000000E+01 0. -1.
        -11    1    4    4    0    0 -0.56783833641E+02  0.31785439757E+02 -0.38911649605E+02  0.75821068434E+02  0.00000000000E+00 0.  1.
         12    1    4    4    0    0 -0.23230857500E+02 -0.21196450509E+02 -0.93012040866E+02  0.98184530352E+02  0.00000000000E+00 0. -1.
         -5    1    5    5    0  502  0.10108505826E+03  0.11292939279E+03 -0.17385027890E+02  0.15262885033E+03  0.47000000000E+01 0.  1.
         13    1    6    6    0    0 -0.95794949756E+01 -0.11475771274E+02 -0.11476396120E+02  0.18845893935E+02  0.00000000000E+00 0. -1.
        -14    1    6    6    0    0  0.71456622002E+02  0.81617901480E+01  0.57345246075E+02  0.91984460067E+02  0.00000000000E+00 0.  1.
</event>
<event>
12    1  0.9246030E-003  0.2755488E+03  0.7818608E-02  0.1098146E+00
         21   -1    0    0  503  502  0.00000000000E+00  0.00000000000E+00  0.88740338186E+02  0.88740338186E+02  0.00000000000E+00 0. -1.
         21   -1    0    0  501  503 -0.00000000000E+00 -0.00000000000E+00 -0.90215418229E+03  0.90215418229E+03  0.00000000000E+00 0. -1.
          6    2    1    2  501    0  0.10559552014E+03 -0.18709741428E+03 -0.29414849622E+03  0.40305146755E+03  0.17254359264E+03 0.  0.
         24    2    3    3    0    0  0.14262293396E+03 -0.14617770006E+03 -0.24571690573E+03  0.32947727816E+03  0.80431696368E+02 0.  0.
         -6    2    1    2    0  502 -0.10559552014E+03  0.18709741428E+03 -0.51926534789E+03  0.58784305293E+03  0.17253143788E+03 0.  0.
        -24    2    5    5    0    0 -0.69397839915E+02  0.99000526496E+02 -0.44140143897E+03  0.46473248473E+03  0.80770586270E+02 0.  0.
          5    1    3    3  501    0 -0.37027413816E+02 -0.40919714223E+02 -0.48431590490E+02  0.73574189383E+02  0.47000000000E+01 0. -1.
        -13    1    4    4    0    0  0.15063360622E+02 -0.65238105770E+02 -0.58512042024E+02  0.88918920031E+02  0.00000000000E+00 0.  1.
         14    1    4    4    0    0  0.12755957334E+03 -0.80939594288E+02 -0.18720486370E+03  0.24055835813E+03  0.00000000000E+00 0. -1.
         -5    1    5    5    0  502 -0.36197680227E+02  0.88096887784E+02 -0.77863908918E+02  0.12311056820E+03  0.47000000000E+01 0.  1.
         13    1    6    6    0    0  0.14432936738E+00  0.62884661608E+02 -0.25271110628E+03  0.26041775042E+03  0.00000000000E+00 0. -1.
        -14    1    6    6    0    0 -0.69542169282E+02  0.36115864888E+02 -0.18869033268E+03  0.20431473430E+03  0.00000000000E+00 0.  1.
</event>
<event>
12    1  0.9246030E-003  0.3125380E+03  0.7818608E-02  0.1079377E+00
         21   -1    0    0  501  502  0.00000000000E+00  0.00000000000E+00  0.39216735601E+03  0.39216735601E+03  0.00000000000E+00 0. -1.
         21   -1    0    0  502  503 -0.00000000000E+00 -0.00000000000E+00 -0.36591728153E+03  0.36591728153E+03  0.00000000000E+00 0.  1.
          6    2    1    2  501    0 -0.24178177815E+03  0.91029799544E+02  0.22881304596E+03  0.38734407499E+03  0.17588396680E+03 0.  0.
         24    2    3    3    0    0 -0.95346250158E+02  0.97747235872E+02  0.16214480308E+03  0.22623779821E+03  0.79039070291E+02 0.  0.
         -6    2    1    2    0  503  0.24178177815E+03 -0.91029799544E+02 -0.20256297148E+03  0.37074056255E+03  0.17225549238E+03 0.  0.
        -24    2    5    5    0    0  0.93701167746E+02 -0.14138854010E+02 -0.24881753925E+02  0.12695215069E+03  0.80733703357E+02 0.  0.
          5    1    3    3  501    0 -0.14643552799E+03 -0.67174363281E+01  0.66668242880E+02  0.16110627678E+03  0.47000000000E+01 0. -1.
        -11    1    4    4    0    0  0.11016983634E+02 -0.19977488272E+01  0.18021689899E+02  0.21216649962E+02  0.00000000000E+00 0.  1.
         12    1    4    4    0    0 -0.10636323379E+03  0.99744984699E+02  0.14412311318E+03  0.20502114825E+03  0.00000000000E+00 0. -1.
         -5    1    5    5    0  503  0.14808061041E+03 -0.76890945534E+02 -0.17768121756E+03  0.24378841186E+03  0.47000000000E+01 0.  1.
         13    1    6    6    0    0  0.14539631896E+02  0.30369558324E+02 -0.71416358815E+01  0.34419673612E+02  0.00000000000E+00 0. -1.
        -14    1    6    6    0    0  0.79161535850E+02 -0.44508412335E+02 -0.17740118043E+02  0.92532477082E+02  0.00000000000E+00 0.  1.
</event>
<event>
12    1  0.9246030E-003  0.2723443E+03  0.7818608E-02  0.1099997E+00
         21   -1    0    0  501  502  0.00000000000E+00  0.00000000000E+00  0.43817535641E+02  0.43817535641E+02  0.00000000000E+00 0.  1.
         21   -1    0    0  502  503 -0.00000000000E+00 -0.00000000000E+00 -0.17665362908E+04  0.17665362908E+04  0.00000000000E+00 0. -1.
          6    2    1    2  501    0 -0.43995111566E+02  0.20671410361E+03 -0.10486504344E+04  0.10833465913E+04  0.17118940577E+03 0.  0.
         24    2    3    3    0    0 -0.87291988143E+01  0.11268315161E+03 -0.33450993391E+03  0.36216405608E+03  0.80574289098E+02 0.  0.
         -6    2    1    2    0  503  0.43995111566E+02 -0.20671410361E+03 -0.67406832075E+03  0.72700723522E+03  0.17177056952E+03 0.  0.
        -24    2    5    5    0    0 -0.22055281875E+02 -0.65660357282E+02 -0.22239786317E+03  0.24921323560E+03  0.88592941464E+02 0.  0.
          5    1    3    3  501    0 -0.35265912752E+02  0.94030952003E+02 -0.71414050053E+03  0.72118253517E+03  0.47000000000E+01 0. -1.
        -13    1    4    4    0    0 -0.54445507702E+01  0.31886110753E+02 -0.21411854941E+02  0.38792199268E+02  0.00000000000E+00 0.  1.
         14    1    4    4    0    0 -0.32846480440E+01  0.80797040855E+02 -0.31309807897E+03  0.32337185681E+03  0.00000000000E+00 0. -1.
         -5    1    5    5    0  503  0.66050393441E+02 -0.14105374633E+03 -0.45167045758E+03  0.47779399963E+03  0.47000000000E+01 0.  1.
         11    1    6    6    0    0 -0.39201887576E+02 -0.22320592866E+02 -0.18208438449E+03  0.18758923191E+03  0.00000000000E+00 0. -1.
        -12    1    6    6    0    0  0.17146605701E+02 -0.43339764416E+02 -0.40313478685E+02  0.61624003687E+02  0.00000000000E+00 0.  1.
</event>
<event>
12    1  0.9246030E-003  0.1877558E+03  0.7818608E-02  0.1160612E+00
         21   -1    0    0  501  502  0.00000000000E+00  0.00000000000E+00  0.61908528056E+02  0.61908528056E+02  0.00000000000E+00 0. -1.
         21   -1    0    0  502  503 -0.00000000000E+00 -0.00000000000E+00 -0.57796778956E+03  0.57796778956E+03  0.00000000000E+00 0.  1.
          6    2    1    2  501    0  0.87623712011E+01 -0.73270552556E+02 -0.29980100781E+03  0.35348517170E+03  0.17212137958E+03 0.  0.
         24    2    3    3    0    0  0.39643646242E+02 -0.89948624035E+02 -0.29050426829E+03  0.31687464614E+03  0.79714727703E+02 0.  0.
         -6    2    1    2    0  503 -0.87623712011E+01  0.73270552556E+02 -0.21625825369E+03  0.28639114592E+03  0.17264675829E+03 0.  0.
        -24    2    5    5    0    0  0.43034971512E+02  0.83266765175E+02 -0.97379882095E+02  0.15624873848E+03  0.78393009155E+02 0.  0.
          5    1    3    3  501    0 -0.30881275041E+02  0.16678071479E+02 -0.92967395132E+01  0.36610525563E+02  0.47000000000E+01 0. -1.
        -11    1    4    4    0    0  0.44314837923E+02 -0.47914745611E+02 -0.24976674584E+03  0.25815316197E+03  0.00000000000E+00 0.  1.
         12    1    4    4    0    0 -0.46711916815E+01 -0.42033878424E+02 -0.40737522459E+02  0.58721484170E+02  0.00000000000E+00 0. -1.
         -5    1    5    5    0  503 -0.51797342713E+02 -0.99962126197E+01 -0.11887837160E+03  0.13014240743E+03  0.47000000000E+01 0.  1.
         13    1    6    6    0    0 -0.21867888588E+02  0.92412896215E+01 -0.18514583152E+02  0.30106407531E+02  0.00000000000E+00 0. -1.
        -14    1    6    6    0    0  0.64902860100E+02  0.74025475554E+02 -0.78865298944E+02  0.12614233095E+03  0.00000000000E+00 0.  1.
</event>
<event>
12    1  0.9246030E-003  0.1866899E+03  0.7818608E-02  0.1161495E+00
         21   -1    0    0  501  502  0.00000000000E+00  0.00000000000E+00  0.61642032001E+02  0.61642032001E+02  0.00000000000E+00 0. -1.
         21   -1    0    0  502  503 -0.00000000000E+00 -0.00000000000E+00 -0.57318077814E+03  0.57318077814E+03  0.00000000000E+00 0. -1.
          6    2    1    2  501    0 -0.65543277927E+02  0.30215372845E+02 -0.21833129621E+03  0.28722572261E+03  0.17210802069E+03 0.  0.
         24    2    3    3    0    0 -0.47191573773E+02  0.16348274631E+02 -0.23954882577E+03  0.25558152854E+03  0.73783243922E+02 0.  0.
         -6    2    1    2    0  503  0.65543277927E+02 -0.30215372845E+02 -0.29320744993E+03  0.34759708753E+03  0.17217501714E+03 0.  0.
        -24    2    5    5    0    0  0.17501071572E+02 -0.13179343709E+02 -0.44927798702E+02  0.94095302342E+02  0.79720989833E+02 0.  0.
          5    1    3    3  501    0 -0.18351704154E+02  0.13867098215E+02  0.21217529556E+02  0.31644194076E+02  0.47000000000E+01 0. -1.
        -13    1    4    4    0    0 -0.46363314536E+02  0.41563071555E+02 -0.14672318053E+03  0.15938863685E+03  0.00000000000E+00 0.  1.
         14    1    4    4    0    0 -0.82825923703E+00 -0.25214796925E+02 -0.92825645238E+02  0.96192891687E+02  0.00000000000E+00 0. -1.
         -5    1    5    5    0  503  0.48042206355E+02 -0.17036029136E+02 -0.24827965122E+03  0.25350178518E+03  0.47000000000E+01 0.  1.
         11    1    6    6    0    0  0.29297696040E+02  0.22152076519E+02 -0.43343181813E+02  0.56812858554E+02  0.00000000000E+00 0. -1.
        -12    1    6    6    0    0 -0.11796624468E+02 -0.35331420228E+02 -0.15846168889E+01  0.37282443789E+02  0.00000000000E+00 0.  1.
</event>
<event>
12    1  0.9246030E-003  0.1873808E+03  0.7818608E-02  0.1161202E+00
         21   -1    0    0  501  502  0.00000000000E+00  0.00000000000E+00  0.81639710155E+02  0.81639710155E+02  0.00000000000E+00 0. -1.
         21   -1    0    0  502  503 -0.00000000000E+00 -0.00000000000E+00 -0.48277941178E+03  0.48277941178E+03  0.00000000000E+00 0. -1.
          6    2    1    2  501    0  0.60083408002E+02 -0.41880518176E+02 -0.29763009118E+03  0.35170330862E+03  0.17247478772E+03 0.  0.
         24    2    3    3    0    0 -0.24724974216E+02 -0.53263178540E+02 -0.19306523744E+03  0.21650743113E+03  0.78441005164E+02 0.  0.
         -6    2    1    2    0  503 -0.60083408002E+02  0.41880518176E+02 -0.10350961045E+03  0.21271581332E+03  0.17079163932E+03 0.  0.
        -24    2    5    5    0    0 -0.35914557526E+02  0.45921391441E+02  0.75900077571E+01  0.98848885919E+02  0.79466121054E+02 0.  0.
          5    1    3    3  501    0  0.84808382218E+02  0.11382660364E+02 -0.10456485374E+03  0.13519587749E+03  0.47000000000E+01 0. -1.
        -13    1    4    4    0    0 -0.24042963295E+02 -0.28488751463E+02 -0.21241342940E+02  0.42905334095E+02  0.00000000000E+00 0.  1.
         14    1    4    4    0    0 -0.68201092124E+00 -0.24774427077E+02 -0.17182389450E+03  0.17360209704E+03  0.00000000000E+00 0. -1.
         -5    1    5    5    0  503 -0.24168850475E+02 -0.40408732653E+01 -0.11109961820E+03  0.11386692740E+03  0.47000000000E+01 0.  1.
         13    1    6    6    0    0 -0.40482413369E+02  0.65748609623E+02  0.11693758756E+02  0.78092569770E+02  0.00000000000E+00 0. -1.
        -14    1    6    6    0    0  0.45678558423E+01 -0.19827218181E+02 -0.41037509984E+01  0.20756316149E+02  0.00000000000E+00 0.  1.
</event>
<event>
12    1  0.9246030E-003  0.1880814E+03  0.7818608E-02  0.1160883E+00
         21   -1    0    0  501  502  0.00000000000E+00  0.00000000000E+00  0.40648380788E+03  0.40648380788E+03  0.00000000000E+00 0. -1.
         21   -1    0    0  502  503 -0.00000000000E+00 -0.00000000000E+00 -0.86787462213E+02  0.86787462213E+02  0.00000000000E+00 0.  1.
          6    2    1    2  501    0 -0.77109447204E+02 -0.13336617701E+02  0.13057815087E+03  0.22654987439E+03  0.16778098785E+03 0.  0.
         24    2    3    3    0    0  0.42436189665E+01 -0.49943411243E+02  0.73512315618E+02  0.12054526005E+03  0.81331092115E+02 0.  0.
         -6    2    1    2    0  503  0.77109447204E+02  0.13336617701E+02  0.18911819480E+03  0.26672139570E+03  0.17102888382E+03 0.  0.
        -24    2    5    5    0    0  0.77938400733E+02 -0.24980943066E+01  0.21162431241E+03  0.23879218880E+03  0.78461615118E+02 0.  0.
          5    1    3    3  501    0 -0.81353066170E+02  0.36606793542E+02  0.57065835248E+02  0.10600461434E+03  0.47000000000E+01 0. -1.
        -11    1    4    4    0    0  0.42156655145E+02 -0.18199072504E+02  0.38998934006E+02  0.60243727197E+02  0.00000000000E+00 0.  1.
         12    1    4    4    0    0 -0.37913036178E+02 -0.31744338739E+02  0.34513381612E+02  0.60301532854E+02  0.00000000000E+00 0. -1.
         -5    1    5    5    0  503 -0.82895352902E+00  0.15834712008E+02 -0.22506117607E+02  0.27929206900E+02  0.47000000000E+01 0.  1.
         13    1    6    6    0    0  0.11246716184E+02  0.38799482991E+01  0.14079702783E+03  0.14129878156E+03  0.00000000000E+00 0. -1.
        -14    1    6    6    0    0  0.66691684548E+02 -0.63780426057E+01  0.70827284573E+02  0.97493407241E+02  0.00000000000E+00 0.  1.
</event>
<event>
12    1  0.9246030E-003  0.2710227E+03  0.7818608E-02  0.1100846E+00
         21   -1    0    0  503  502  0.00000000000E+00  0.00000000000E+00  0.38962140942E+03  0.38962140942E+03  0.00000000000E+00 0.  1.
         21   -1    0    0  501  503 -0.00000000000E+00 -0.00000000000E+00 -0.20381307130E+03  0.20381307130E+03  0.00000000000E+00 0.  1.
          6    2    1    2  501    0 -0.19442351444E+03 -0.77124478594E+02  0.17592312088E+03  0.32223154094E+03  0.17069133941E+03 0.  0.
         24    2    3    3    0    0 -0.18075860487E+03 -0.22528332985E+02  0.17589246848E+03  0.26575535296E+03  0.80663177087E+02 0.  0.
         -6    2    1    2    0  502  0.19442351444E+03  0.77124478594E+02  0.98852172320E+01  0.27120293978E+03  0.17235030856E+03 0.  0.
        -24    2    5    5    0    0  0.65264603315E+02  0.66829544157E+01  0.54899544434E+02  0.11727954226E+03  0.80227181977E+02 0.  0.
          5    1    3    3  501    0 -0.13664909572E+02 -0.54596145609E+02  0.30652401531E-01  0.56476187978E+02  0.47000000000E+01 0. -1.
        -11    1    4    4    0    0 -0.12856108494E+03  0.11936148740E+02  0.82054845580E+02  0.15298176980E+03  0.00000000000E+00 0.  1.
         12    1    4    4    0    0 -0.52197519926E+02 -0.34464481725E+02  0.93837622901E+02  0.11277358316E+03  0.00000000000E+00 0. -1.
         -5    1    5    5    0  502  0.12915891112E+03  0.70441524178E+02 -0.45014327202E+02  0.15392339752E+03  0.47000000000E+01 0.  1.
         13    1    6    6    0    0  0.66146852513E+01 -0.12762676248E+02 -0.17140581990E+02  0.22370505514E+02  0.00000000000E+00 0. -1.
        -14    1    6    6    0    0  0.58649918064E+02  0.19445630663E+02  0.72040126424E+02  0.94909036746E+02  0.00000000000E+00 0.  1.
</event>
<event>
12    1  0.9246030E-003  0.1965086E+03  0.7818608E-02  0.1157298E+00
         21   -1    0    0  503  502  0.00000000000E+00  0.00000000000E+00  0.23733957273E+03  0.23733957273E+03  0.00000000000E+00 0.  1.
         21   -1    0    0  501  503 -0.00000000000E+00 -0.00000000000E+00 -0.20153321858E+03  0.20153321858E+03  0.00000000000E+00 0.  1.
          6    2    1    2  501    0 -0.79138635163E+01  0.36062816047E+02 -0.97307978124E+02  0.20152276063E+03  0.17256715941E+03 0.  0.
         24    2    3    3    0    0  0.60942466145E+02  0.17028272405E+02 -0.76682483937E+02  0.12701766687E+03  0.79052755249E+02 0.  0.
         -6    2    1    2    0  502  0.79138635163E+01 -0.36062816047E+02  0.13311433227E+03  0.23735003068E+03  0.19300895231E+03 0.  0.
        -24    2    5    5    0    0 -0.71072279311E+02 -0.42055008743E+02  0.10461805385E+03  0.15303606377E+03  0.75201110210E+02 0.  0.
          5    1    3    3  501    0 -0.68856329661E+02  0.19034543642E+02 -0.20625494187E+02  0.74505093762E+02  0.47000000000E+01 0. -1.
        -11    1    4    4    0    0 -0.69477095762E+01  0.30768136403E+02 -0.29665321249E+02  0.43301041221E+02  0.00000000000E+00 0.  1.
         12    1    4    4    0    0  0.67890175721E+02 -0.13739863998E+02 -0.47017162688E+02  0.83716625645E+02  0.00000000000E+00 0. -1.
         -5    1    5    5    0  502  0.78986142828E+02  0.59921926961E+01  0.28496278423E+02  0.84313966910E+02  0.47000000000E+01 0.  1.
         13    1    6    6    0    0 -0.20738122605E+02 -0.45371403826E+02  0.18449619972E+02  0.53188556020E+02  0.00000000000E+00 0. -1.
        -14    1    6    6    0    0 -0.50334156706E+02  0.33163950832E+01  0.86168433873E+02  0.99847507750E+02  0.00000000000E+00 0.  1.
</event>
<event>
12    1  0.9246030E-003  0.1800766E+03  0.7818608E-02  0.1168051E+00
         21   -1    0    0  503  502  0.00000000000E+00  0.00000000000E+00  0.63120275790E+03  0.63120275790E+03  0.00000000000E+00 0.  1.
         21   -1    0    0  501  503 -0.00000000000E+00 -0.00000000000E+00 -0.57228761539E+02  0.57228761539E+02  0.00000000000E+00 0.  1.
          6    2    1    2  501    0  0.52518656944E+02 -0.13523361149E+01  0.17244748233E+03  0.24837341457E+03  0.17085426761E+03 0.  0.
         24    2    3    3    0    0 -0.26957151315E+02  0.30824859139E+02  0.10724598957E+03  0.14055365454E+03  0.81097272324E+02 0.  0.
         -6    2    1    2    0  502 -0.52518656944E+02  0.13523361149E+01  0.40152651403E+03  0.44005810487E+03  0.17224272425E+03 0.  0.
        -24    2    5    5    0    0 -0.40392967713E+02 -0.23134018123E+02  0.95773118059E+02  0.13305021730E+03  0.79769013702E+02 0.  0.
          5    1    3    3  501    0  0.79475808259E+02 -0.32177195254E+02  0.65201492769E+02  0.10781976003E+03  0.47000000000E+01 0. -1.
        -11    1    4    4    0    0  0.19765275819E+02  0.18004692234E+02  0.47109084861E+01  0.27148254629E+02  0.00000000000E+00 0.  1.
         12    1    4    4    0    0 -0.46722427134E+02  0.12820166905E+02  0.10253508108E+03  0.11340539991E+03  0.00000000000E+00 0. -1.
         -5    1    5    5    0  502 -0.12125689231E+02  0.24486354238E+02  0.30575339597E+03  0.30700788757E+03  0.47000000000E+01 0.  1.
         11    1    6    6    0    0 -0.11040541436E+02  0.25448624041E+02  0.59607964638E+02  0.65746752536E+02  0.00000000000E+00 0. -1.
        -12    1    6    6    0    0 -0.29352426277E+02 -0.48582642163E+02  0.36165153421E+02  0.67303464769E+02  0.00000000000E+00 0.  1.
</event>
<event>
12    1  0.9246030E-003  0.1839152E+03  0.7818608E-02  0.1164193E+00
         21   -1    0    0  501  502  0.00000000000E+00  0.00000000000E+00  0.34817105800E+03  0.34817105800E+03  0.00000000000E+00 0.  1.
         21   -1    0    0  502  503 -0.00000000000E+00 -0.00000000000E+00 -0.10115513648E+03  0.10115513648E+03  0.00000000000E+00 0. -1.
          6    2    1    2  501    0  0.52952357523E+02  0.35975845123E+02  0.16959596598E+03  0.24978004120E+03  0.17184022727E+03 0.  0.
         24    2    3    3    0    0  0.98039998513E+02  0.48880387623E+02  0.13715633882E+03  0.19256254390E+03  0.79166523440E+02 0.  0.
         -6    2    1    2    0  503 -0.52952357523E+02 -0.35975845123E+02  0.77419955544E+02  0.19954615328E+03  0.17241404865E+03 0.  0.
        -24    2    5    5    0    0 -0.10361684051E+02 -0.17381775296E+02 -0.25723177727E+02  0.86319385947E+02  0.79874050286E+02 0.  0.
          5    1    3    3  501    0 -0.45087640989E+02 -0.12904542500E+02  0.32439627158E+02  0.57217497300E+02  0.47000000000E+01 0. -1.
        -11    1    4    4    0    0  0.68579783421E+02  0.26927964689E+02  0.30473089598E+02  0.79730239972E+02  0.00000000000E+00 0.  1.
         12    1    4    4    0    0  0.29460215091E+02  0.21952422934E+02  0.10668324922E+03  0.11283230393E+03  0.00000000000E+00 0. -1.
         -5    1    5    5    0  503 -0.42590673473E+02 -0.18594069827E+02  0.10314313327E+03  0.11322676733E+03  0.47000000000E+01 0.  1.
         13    1    6    6    0    0 -0.21246031520E+02  0.26180334835E+02 -0.23998157654E+02  0.41384965364E+02  0.00000000000E+00 0. -1.
        -14    1    6    6    0    0  0.10884347469E+02 -0.43562110131E+02 -0.17250200729E+01  0.44934420583E+02  0.00000000000E+00 0.  1.
</event>
<event>
12    1  0.9246030E-003  0.1750994E+03  0.7818608E-02  0.1172693E+00
         21   -1    0    0  503  502  0.00000000000E+00  0.00000000000E+00  0.55130157131E+03  0.55130157131E+03  0.00000000000E+00 0.  1.
         21   -1    0    0  501  503 -0.00000000000E+00 -0.00000000000E+00 -0.57025904213E+02  0.57025904213E+02  0.00000000000E+00 0.  1.
          6    2    1    2  501    0 -0.32101952691E+02  0.77060974192E+01  0.29613608799E+03  0.34390526719E+03  0.17171001976E+03 0.  0.
         24    2    3    3    0    0 -0.70169089214E+02 -0.30301303745E+02  0.14086213868E+03  0.17951013721E+03  0.80869506973E+02 0.  0.
         -6    2    1    2    0  502  0.32101952691E+02 -0.77060974192E+01  0.19813957911E+03  0.26442220834E+03  0.17195898391E+03 0.  0.
        -24    2    5    5    0    0  0.10676980819E+02 -0.67595040501E+02  0.81177255417E+02  0.13120062568E+03  0.77076390425E+02 0.  0.
          5    1    3    3  501    0  0.38067136523E+02  0.38007401164E+02  0.15527394931E+03  0.16439512998E+03  0.47000000000E+01 0. -1.
        -11    1    4    4    0    0  0.45870172300E+01 -0.35196751284E+02  0.35240995097E+02  0.50017794468E+02  0.00000000000E+00 0.  1.
         12    1    4    4    0    0 -0.74756106444E+02  0.48954475386E+01  0.10562114358E+03  0.12949234274E+03  0.00000000000E+00 0. -1.
         -5    1    5    5    0  502  0.21424971872E+02  0.59888943082E+02  0.11696232369E+03  0.13322158266E+03  0.47000000000E+01 0.  1.
         11    1    6    6    0    0 -0.32616391076E+02 -0.24633011996E+02  0.22942508491E+02  0.46871877951E+02  0.00000000000E+00 0. -1.
        -12    1    6    6    0    0  0.43293371895E+02 -0.42962028505E+02  0.58234746927E+02  0.84328747725E+02  0.00000000000E+00 0.  1.
</event>
<event>
12    1  0.9246030E-003  0.1821306E+03  0.7818608E-02  0.1167815E+00
         21   -1    0    0  503  502  0.00000000000E+00  0.00000000000E+00  0.31969652916E+03  0.31969652916E+03  0.00000000000E+00 0. -1.
         21   -1    0    0  501  503 -0.00000000000E+00 -0.00000000000E+00 -0.15094726959E+03  0.15094726959E+03  0.00000000000E+00 0. -1.
          6    2    1    2  501    0 -0.33913836767E+02 -0.14535239834E+02 -0.54935889754E+02  0.18218828144E+03  0.16974450327E+03 0.  0.
         24    2    3    3    0    0  0.85180818213E+01 -0.22114136597E+01  0.29524568307E+02  0.86752421393E+02  0.81097684403E+02 0.  0.
         -6    2    1    2    0  502  0.33913836767E+02  0.14535239834E+02  0.22368514933E+03  0.28845551731E+03  0.17835391197E+03 0.  0.
        -24    2    5    5    0    0  0.11341550124E+02 -0.57101587549E+02  0.80876642853E+02  0.12703153308E+03  0.78782973914E+02 0.  0.
          5    1    3    3  501    0 -0.42431918588E+02 -0.12323826174E+02 -0.84460458061E+02  0.95435860045E+02  0.47000000000E+01 0. -1.
        -13    1    4    4    0    0 -0.17044676281E+02 -0.24531705213E+02  0.41177474097E+02  0.50871504039E+02  0.00000000000E+00 0.  1.
         14    1    4    4    0    0  0.25562758102E+02  0.22320291554E+02 -0.11652905790E+02  0.35880917354E+02  0.00000000000E+00 0. -1.
         -5    1    5    5    0  502  0.22572286642E+02  0.71636827383E+02  0.14280850648E+03  0.16142398423E+03  0.47000000000E+01 0.  1.
         11    1    6    6    0    0 -0.22212904632E+02 -0.20217075889E+02  0.69749401896E+02  0.75941571978E+02  0.00000000000E+00 0. -1.
        -12    1    6    6    0    0  0.33554454757E+02 -0.36884511661E+02  0.11127240956E+02  0.51089961106E+02  0.00000000000E+00 0.  1.
</event>
<event>
12    1  0.9246030E-003  0.1956106E+03  0.7818608E-02  0.1153603E+00
         21   -1    0    0  503  502  0.00000000000E+00  0.00000000000E+00  0.57852461132E+03  0.57852461132E+03  0.00000000000E+00 0. -1.
         21   -1    0    0  501  503 -0.00000000000E+00 -0.00000000000E+00 -0.77091753996E+02  0.77091753996E+02  0.00000000000E+00 0.  1.
          6    2    1    2  501    0  0.86603676825E+02  0.30550328288E+02  0.12596110696E+03  0.23224591441E+03  0.17215819729E+03 0.  0.
         24    2    3    3    0    0  0.11877378445E+03  0.25045467589E+02  0.58024971464E+02  0.15673016889E+03  0.80392544468E+02 0.  0.
         -6    2    1    2    0  502 -0.86603676825E+02 -0.30550328288E+02  0.37547175037E+03  0.42337045091E+03  0.17271358945E+03 0.  0.
        -24    2    5    5    0    0 -0.11942221103E+03 -0.50192416394E+02  0.25401952746E+03  0.29595145601E+03  0.79248979995E+02 0.  0.
          5    1    3    3  501    0 -0.32170107627E+02  0.55048606989E+01  0.67936135492E+02  0.75515745522E+02  0.47000000000E+01 0. -1.
        -11    1    4    4    0    0  0.86569994033E+02  0.38472568373E+02  0.71005742521E+01  0.94999581782E+02  0.00000000000E+00 0.  1.
         12    1    4    4    0    0  0.32203790419E+02 -0.13427100784E+02  0.50924397212E+02  0.61730587104E+02  0.00000000000E+00 0. -1.
         -5    1    5    5    0  502  0.32818534208E+02  0.19642088106E+02  0.12145222291E+03  0.12741899491E+03  0.47000000000E+01 0.  1.
         11    1    6    6    0    0 -0.91872871435E+02 -0.39350689037E+02  0.24562175087E+03  0.26517757396E+03  0.00000000000E+00 0. -1.
        -12    1    6    6    0    0 -0.27549339598E+02 -0.10841727357E+02  0.83977765918E+01  0.30773882044E+02  0.00000000000E+00 0.  1.
</event>
<event>
12    1  0.9246030E-003  0.2072389E+03  0.7818608E-02  0.1143806E+00
         21   -1    0    0  501  502  0.00000000000E+00  0.00000000000E+00  0.82634620615E+03  0.82634620615E+03  0.00000000000E+00 0. -1.
         21   -1    0    0  502  503 -0.00000000000E+00 -0.00000000000E+00 -0.52708336060E+02  0.52708336060E+02  0.00000000000E+00 0. -1.
          6    2    1    2  501    0 -0.51194986153E+02 -0.10365975532E+03  0.33357108724E+03  0.39270554233E+03  0.17199331747E+03 0.  0.
         24    2    3    3    0    0  0.10308883186E+01 -0.12370213344E+03  0.20484795931E+03  0.25227416212E+03  0.79851649256E+02 0.  0.
         -6    2    1    2    0  503  0.51194986153E+02  0.10365975532E+03  0.44006678285E+03  0.48634899988E+03  0.17178563629E+03 0.  0.
        -24    2    5    5    0    0  0.92332679799E+02  0.91133999858E+02  0.39413051824E+03  0.42325038821E+03  0.83494287377E+02 0.  0.
          5    1    3    3  501    0 -0.52225874472E+02  0.20042378123E+02  0.12872312793E+03  0.14043138021E+03  0.47000000000E+01 0. -1.
        -13    1    4    4    0    0 -0.18862833956E+02  0.32649467295E+00  0.46302192661E+02  0.49998061450E+02  0.00000000000E+00 0.  1.
         14    1    4    4    0    0  0.19893722274E+02 -0.12402862811E+03  0.15854576665E+03  0.20227610066E+03  0.00000000000E+00 0. -1.
         -5    1    5    5    0  503 -0.41137693646E+02  0.12525755459E+02  0.45936264617E+02  0.63098611674E+02  0.47000000000E+01 0.  1.
         11    1    6    6    0    0 -0.35699612219E+01  0.33612127076E+01  0.11741224500E+03  0.11751458484E+03  0.00000000000E+00 0. -1.
        -12    1    6    6    0    0  0.95902641021E+02  0.87772787151E+02  0.27671827323E+03  0.30573580337E+03  0.00000000000E+00 0.  1.
</event>
<event>
12    1  0.9246030E-003  0.1906400E+03  0.7818608E-02  0.1158752E+00
         21   -1    0    0  501  502  0.00000000000E+00  0.00000000000E+00  0.12992674123E+03  0.12992674123E+03  0.00000000000E+00 0.  1.
         21   -1    0    0  502  503 -0.00000000000E+00 -0.00000000000E+00 -0.27558826315E+03  0.27558826315E+03  0.00000000000E+00 0.  1.
          6    2    1    2  501    0  0.36247063096E+02 -0.72289639892E+02 -0.57459252329E+02  0.19545961324E+03  0.16841393384E+03 0.  0.
         24    2    3    3    0    0  0.48711573402E+02 -0.65803482283E+02 -0.98987059025E+02  0.15136785680E+03  0.80067937107E+02 0.  0.
         -6    2    1    2    0  503 -0.36247063096E+02  0.72289639892E+02 -0.88202269591E+02  0.21005539113E+03  0.17263830793E+03 0.  0.
        -24    2    5    5    0    0 -0.81009009943E+02  0.30831968592E+02 -0.91365709311E+02  0.14878167943E+03  0.79216319764E+02 0.  0.
          5    1    3    3  501    0 -0.12464510306E+02 -0.64861576086E+01  0.41527806696E+02  0.44091756448E+02  0.47000000000E+01 0. -1.
        -13    1    4    4    0    0 -0.44901899121E+01 -0.54972761786E+02 -0.27587386081E+02  0.61670334964E+02  0.00000000000E+00 0.  1.
         14    1    4    4    0    0  0.53201763314E+02 -0.10830720497E+02 -0.71399672944E+02  0.89697521832E+02  0.00000000000E+00 0. -1.
         -5    1    5    5    0  503  0.44761946846E+02  0.41457671300E+02  0.31634397206E+01  0.61273711704E+02  0.47000000000E+01 0.  1.
         11    1    6    6    0    0 -0.19502216022E+02  0.23106541098E+02  0.83496472072E+01  0.31368220857E+02  0.00000000000E+00 0. -1.
        -12    1    6    6    0    0 -0.61506793921E+02  0.77254274934E+01 -0.99715356518E+02  0.11741345857E+03  0.00000000000E+00 0.  1.
</event>
<event>
12    1  0.9246030E-003  0.3114867E+03  0.7818608E-02  0.1079655E+00
         21   -1    0    0  503  502  0.00000000000E+00  0.00000000000E+00  0.20741958023E+03  0.20741958023E+03  0.00000000000E+00 0.  1.
         21   -1    0    0  501  503 -0.00000000000E+00 -0.00000000000E+00 -0.46763673695E+03  0.46763673695E+03  0.00000000000E+00 0. -1.
          6    2    1    2  501    0  0.10300160008E+03 -0.23813756640E+03 -0.13542327258E+03  0.33965193494E+03  0.17235180302E+03 0.  0.
         24    2    3    3    0    0 -0.13672902857E+02 -0.81319789527E+02 -0.37129871531E+02  0.12081766553E+03  0.80115070387E+02 0.  0.
         -6    2    1    2    0  502 -0.10300160008E+03  0.23813756640E+03 -0.12479388414E+03  0.33540438224E+03  0.17205742051E+03 0.  0.
        -24    2    5    5    0    0 -0.13252382456E+03  0.14241322864E+03 -0.74709140112E+02  0.22330941285E+03  0.80259245459E+02 0.  0.
          5    1    3    3  501    0  0.11667450294E+03 -0.15681777688E+03 -0.98293401048E+02  0.21883426941E+03  0.47000000000E+01 0. -1.
        -13    1    4    4    0    0 -0.32239696346E+02 -0.17360186703E+02 -0.39906321600E+02  0.54159843117E+02  0.00000000000E+00 0.  1.
         14    1    4    4    0    0  0.18566793488E+02 -0.63959602824E+02  0.27764500694E+01  0.66657822413E+02  0.00000000000E+00 0. -1.
         -5    1    5    5    0  502  0.29522224480E+02  0.95724337762E+02 -0.50084744031E+02  0.11209496939E+03  0.47000000000E+01 0.  1.
         13    1    6    6    0    0 -0.90140421307E+02  0.95859706425E+02 -0.88864604028E+02  0.15878065600E+03  0.00000000000E+00 0. -1.
        -14    1    6    6    0    0 -0.42383403254E+02  0.46553522215E+02  0.14155463917E+02  0.64528756851E+02  0.00000000000E+00 0.  1.
</event>
<event>
12    1  0.9246030E-003  0.3625109E+03  0.7818608E-02  0.1057718E+00
         21   -1    0    0  501  502  0.00000000000E+00  0.00000000000E+00  0.22072856611E+04  0.22072856611E+04  0.00000000000E+00 0.  1.
         21   -1    0    0  502  503 -0.00000000000E+00 -0.00000000000E+00 -0.61233116941E+02  0.61233116941E+02  0.00000000000E+00 0.  1.
          6    2    1    2  501    0 -0.37935415738E+01  0.31884620262E+03  0.12712219383E+04  0.13215537752E+04  0.16977005760E+03 0.  0.
         24    2    3    3    0    0 -0.28394318047E+02  0.16994020645E+03  0.91765063492E+03  0.93708927687E+03  0.79797957370E+02 0.  0.
         -6    2    1    2    0  503  0.37935415738E+01 -0.31884620262E+03  0.87483060589E+03  0.94696500287E+03  0.17244371768E+03 0.  0.
        -24    2    5    5    0    0  0.42425863143E+02 -0.15471792971E+03  0.58265350117E+03  0.60959266144E+03  0.79878149805E+02 0.  0.
          5    1    3    3  501    0  0.24600776473E+02  0.14890599618E+03  0.35357130334E+03  0.38446449829E+03  0.47000000000E+01 0. -1.
        -11    1    4    4    0    0 -0.45795093724E+02  0.15501214191E+03  0.70943790680E+03  0.72761809925E+03  0.00000000000E+00 0.  1.
         12    1    4    4    0    0  0.17400775678E+02  0.14928064533E+02  0.20821272811E+03  0.20947117762E+03  0.00000000000E+00 0. -1.
         -5    1    5    5    0  503 -0.38632321569E+02 -0.16412827291E+03  0.29217710473E+03  0.33737234144E+03  0.47000000000E+01 0.  1.
         11    1    6    6    0    0  0.24245402669E+02 -0.63685161655E+01  0.14426842297E+03  0.14643010420E+03  0.00000000000E+00 0. -1.
        -12    1    6    6    0    0  0.18180460474E+02 -0.14834941354E+03  0.43838507820E+03  0.46316255724E+03  0.00000000000E+00 0.  1.
</event>
<event>
12    1  0.9246030E-003  0.2268260E+03  0.7818608E-02  0.1129007E+00
         21   -1    0    0  501  502  0.00000000000E+00  0.00000000000E+00  0.54640351195E+03  0.54640351195E+03  0.00000000000E+00 0.  1.
         21   -1    0    0  502  503 -0.00000000000E+00 -0.00000000000E+00 -0.99163111951E+02  0.99163111951E+02  0.00000000000E+00 0. -1.
          6    2    1    2  501    0  0.14512537208E+03  0.27439212606E+02  0.14895613744E+03  0.27083535667E+03  0.17131717816E+03 0.  0.
         24    2    3    3    0    0  0.16220822631E+03  0.24078869989E+02  0.16546717203E+03  0.24638499728E+03  0.80217711291E+02 0.  0.
         -6    2    1    2    0  503 -0.14512537208E+03 -0.27439212606E+02  0.29828426256E+03  0.37473126723E+03  0.17215033354E+03 0.  0.
        -24    2    5    5    0    0 -0.94570569183E+02  0.38299978427E+02  0.23933164400E+03  0.27287386412E+03  0.82280185918E+02 0.  0.
          5    1    3    3  501    0 -0.17082854230E+02  0.33603426167E+01 -0.16511034587E+02  0.24450359390E+02  0.47000000000E+01 0. -1.
        -13    1    4    4    0    0  0.93037552364E+02 -0.25594115027E+02  0.75636050101E+02  0.12260447361E+03  0.00000000000E+00 0.  1.
         14    1    4    4    0    0  0.69170673946E+02  0.49672985016E+02  0.89831121926E+02  0.12378052367E+03  0.00000000000E+00 0. -1.
         -5    1    5    5    0  503 -0.50554802897E+02 -0.65739191033E+02  0.58952618555E+02  0.10185740311E+03  0.47000000000E+01 0.  1.
         11    1    6    6    0    0 -0.38736726211E+02  0.48323841739E+02  0.66055892597E+02  0.90548929231E+02  0.00000000000E+00 0. -1.
        -12    1    6    6    0    0 -0.55833842972E+02 -0.10023863312E+02  0.17327575140E+03  0.18232493489E+03  0.00000000000E+00 0.  1.
</event>
<event>
12    1  0.9246030E-003  0.2176633E+03  0.7818608E-02  0.1135728E+00
         21   -1    0    0  501  502  0.00000000000E+00  0.00000000000E+00  0.92834153488E+03  0.92834153488E+03  0.00000000000E+00 0. -1.
         21   -1    0    0  502  503 -0.00000000000E+00 -0.00000000000E+00 -0.51015504249E+02  0.51015504249E+02  0.00000000000E+00 0.  1.
          6    2    1    2  501    0  0.42466132965E+02 -0.12625407095E+03  0.46010510304E+03  0.50899314669E+03  0.17214486532E+03 0.  0.
         24    2    3    3    0    0  0.25136139707E+02 -0.15411836290E+03  0.43023764041E+03  0.46437361334E+03  0.78448264761E+02 0.  0.
         -6    2    1    2    0  503 -0.42466132965E+02  0.12625407095E+03  0.41722092760E+03  0.47036389244E+03  0.17153840972E+03 0.  0.
        -24    2    5    5    0    0  0.52535879948E+01  0.11280117589E+03  0.37728721002E+03  0.40652860476E+03  0.10083730548E+03 0.  0.
          5    1    3    3  501    0  0.17329993258E+02  0.27864291951E+02  0.29867462630E+02  0.44619533348E+02  0.47000000000E+01 0. -1.
        -13    1    4    4    0    0 -0.67441709651E+01 -0.12535358264E+03  0.25878637941E+03  0.28762718003E+03  0.00000000000E+00 0.  1.
         14    1    4    4    0    0  0.31880310672E+02 -0.28764780256E+02  0.17145126100E+03  0.17674643331E+03  0.00000000000E+00 0. -1.
         -5    1    5    5    0  503 -0.47719720960E+02  0.13452895051E+02  0.39933717581E+02  0.63835287683E+02  0.47000000000E+01 0.  1.
         11    1    6    6    0    0 -0.42780421120E+02  0.84203145873E+02  0.21330949997E+03  0.23328368350E+03  0.00000000000E+00 0. -1.
        -12    1    6    6    0    0  0.48034009115E+02  0.28598030020E+02  0.16397771004E+03  0.17324492126E+03  0.00000000000E+00 0.  1.
</event>
<event>
12    1  0.9246030E-003  0.2067369E+03  0.7818608E-02  0.1144272E+00
         21   -1    0    0  501  502  0.00000000000E+00  0.00000000000E+00  0.11220931416E+03  0.11220931416E+03  0.00000000000E+00 0.  1.
         21   -1    0    0  502  503 -0.00000000000E+00 -0.00000000000E+00 -0.38004491662E+03  0.38004491662E+03  0.00000000000E+00 0.  1.
          6    2    1    2  501    0  0.10435712625E+03  0.49464847657E+02 -0.13565860414E+03  0.24687508686E+03  0.17090017753E+03 0.  0.
         24    2    3    3    0    0  0.94242670771E+02  0.42258659669E+02 -0.16760794892E+03  0.21227621423E+03  0.79380673177E+02 0.  0.
         -6    2    1    2    0  503 -0.10435712625E+03 -0.49464847657E+02 -0.13217699833E+03  0.24537914392E+03  0.17147298456E+03 0.  0.
        -24    2    5    5    0    0 -0.10136084248E+03 -0.57246626608E+02 -0.30773849653E+02  0.14352521733E+03  0.78110572536E+02 0.  0.
          5    1    3    3  501    0  0.10114455478E+02  0.72061879873E+01  0.31949344785E+02  0.34598872628E+02  0.47000000000E+01 0. -1.
        -11    1    4    4    0    0  0.14473547977E+02  0.15426939515E+02  0.36405057607E+01  0.21464560000E+02  0.00000000000E+00 0.  1.
         12    1    4    4    0    0  0.79769122794E+02  0.26831720155E+02 -0.17124845468E+03  0.19081165423E+03  0.00000000000E+00 0. -1.
         -5    1    5    5    0  503 -0.29962837669E+01  0.77817789508E+01 -0.10140314868E+03  0.10185392659E+03  0.47000000000E+01 0.  1.
         13    1    6    6    0    0 -0.13068357957E+02  0.12212675443E+02  0.13875896648E+02  0.22637842851E+02  0.00000000000E+00 0. -1.
        -14    1    6    6    0    0 -0.88292484525E+02 -0.69459302050E+02 -0.44649746300E+02  0.12088737448E+03  0.00000000000E+00 0.  1.
</event>
<event>
12    1  0.9246030E-003  0.1981565E+03  0.7818608E-02  0.1152066E+00
         21   -1    0    0  501  502  0.00000000000E+00  0.00000000000E+00  0.29482068197E+03  0.29482068197E+03  0.00000000000E+00 0.  1.
         21   -1    0    0  502  503 -0.00000000000E+00 -0.00000000000E+00 -0.17102140921E+03  0.17102140921E+03  0.00000000000E+00 0.  1.
          6    2    1    2  501    0  0.68765916753E+01  0.90753301939E+02 -0.50601254981E+02  0.20451521229E+03  0.17601856642E+03 0.  0.
         24    2    3    3    0    0  0.46471684968E+02  0.68262424790E+02 -0.86389609677E+02  0.14640749077E+03  0.84573119555E+02 0.  0.
         -6    2    1    2    0  503 -0.68765916753E+01 -0.90753301939E+02  0.17440052774E+03  0.26132687890E+03  0.17202541741E+03 0.  0.
        -24    2    5    5    0    0 -0.68709074627E+02 -0.76678056605E+02  0.10491961767E+03  0.16714059889E+03  0.79544907585E+02 0.  0.
          5    1    3    3  501    0 -0.39595093293E+02  0.22490877149E+02  0.35788354696E+02  0.58107721515E+02  0.47000000000E+01 0. -1.
        -11    1    4    4    0    0 -0.82362169850E+01 -0.15442942872E+02 -0.18939143052E+02  0.25787805148E+02  0.00000000000E+00 0.  1.
         12    1    4    4    0    0  0.54707901953E+02  0.83705367663E+02 -0.67450466625E+02  0.12061968562E+03  0.00000000000E+00 0. -1.
         -5    1    5    5    0  503  0.61832482952E+02 -0.14075245334E+02  0.69480910070E+02  0.94186280017E+02  0.47000000000E+01 0.  1.
         13    1    6    6    0    0 -0.16677144563E+02  0.12219622361E+02  0.81681226659E+00  0.20690903888E+02  0.00000000000E+00 0. -1.
        -14    1    6    6    0    0 -0.52031930064E+02 -0.88897678966E+02  0.10410280540E+03  0.14644969500E+03  0.00000000000E+00 0.  1.
</event>
<event>
12    1  0.9246030E-003  0.2109144E+03  0.7818608E-02  0.1141104E+00
         21   -1    0    0  503  502  0.00000000000E+00  0.00000000000E+00  0.29334907228E+03  0.29334907228E+03  0.00000000000E+00 0. -1.
         21   -1    0    0  501  503 -0.00000000000E+00 -0.00000000000E+00 -0.17153530008E+03  0.17153530008E+03  0.00000000000E+00 0. -1.
          6    2    1    2  501    0  0.10278459835E+03 -0.63482675169E+02 -0.19936412934E+02  0.21185457033E+03  0.17288775175E+03 0.  0.
         24    2    3    3    0    0 -0.12356068600E+02 -0.39394313012E+01 -0.14597298593E+02  0.82034051082E+02  0.79676300494E+02 0.  0.
         -6    2    1    2    0  502 -0.10278459835E+03  0.63482675169E+02  0.14175018514E+03  0.25302980202E+03  0.17127825904E+03 0.  0.
        -24    2    5    5    0    0 -0.11918653042E+03  0.64322132356E+02  0.46083413937E+02  0.15584981861E+03  0.61828142267E+02 0.  0.
          5    1    3    3  501    0  0.11514066695E+03 -0.59543243868E+02 -0.53391143414E+01  0.12982051925E+03  0.47000000000E+01 0. -1.
        -13    1    4    4    0    0 -0.31509369906E+01 -0.11544659394E+02 -0.46476307638E+02  0.47992236206E+02  0.00000000000E+00 0.  1.
         14    1    4    4    0    0 -0.92051316097E+01  0.76052280929E+01  0.31879009045E+02  0.34041814875E+02  0.00000000000E+00 0. -1.
         -5    1    5    5    0  502  0.16401932067E+02 -0.83945718642E+00  0.95666771202E+02  0.97179983412E+02  0.47000000000E+01 0.  1.
         11    1    6    6    0    0 -0.46410091333E+02 -0.64816203800E+01  0.87668045149E+01  0.47673523487E+02  0.00000000000E+00 0. -1.
        -12    1    6    6    0    0 -0.72776439088E+02  0.70803752736E+02  0.37316609422E+02  0.10817629512E+03  0.00000000000E+00 0.  1.
</event>
<event>
12    1  0.9246030E-003  0.4757932E+03  0.7818608E-02  0.1020319E+00
         21   -1    0    0  503  502  0.00000000000E+00  0.00000000000E+00  0.10367392136E+04  0.10367392136E+04  0.00000000000E+00 0. -1.
         21   -1    0    0  501  503 -0.00000000000E+00 -0.00000000000E+00 -0.21953281733E+03  0.21953281733E+03  0.00000000000E+00 0.  1.
          6    2    1    2  501    0 -0.39724119920E+03 -0.19751148528E+03  0.45705336434E+03  0.65953976172E+03  0.17112440585E+03 0.  0.
         24    2    3    3    0    0 -0.38799277583E+03 -0.15943198128E+03  0.44815137711E+03  0.61908092664E+03  0.80402650253E+02 0.  0.
         -6    2    1    2    0  502  0.39724119920E+03  0.19751148528E+03  0.36015303197E+03  0.59673226926E+03  0.17195300979E+03 0.  0.
        -24    2    5    5    0    0  0.19722833884E+03  0.16834307794E+03  0.17694296949E+03  0.32388806959E+03  0.79726141521E+02 0.  0.
          5    1    3    3  501    0 -0.92484233637E+01 -0.38079503998E+02  0.89019872319E+01  0.40458835081E+02  0.47000000000E+01 0. -1.
        -13    1    4    4    0    0 -0.11659291127E+03 -0.78510944382E+02  0.11341407794E+03  0.18061181695E+03  0.00000000000E+00 0.  1.
         14    1    4    4    0    0 -0.27139986457E+03 -0.80921036898E+02  0.33473729916E+03  0.43846910969E+03  0.00000000000E+00 0. -1.
         -5    1    5    5    0  502  0.20001286036E+03  0.29168407340E+02  0.18321006248E+03  0.27284419966E+03  0.47000000000E+01 0.  1.
         13    1    6    6    0    0  0.15949346773E+03  0.87162258018E+02  0.11766863789E+03  0.21652097777E+03  0.00000000000E+00 0. -1.
        -14    1    6    6    0    0  0.37734871116E+02  0.81180819920E+02  0.59274331597E+02  0.10736709183E+03  0.00000000000E+00 0.  1.
</event>
<event>
12    1  0.9246030E-003  0.2026176E+03  0.7818608E-02  0.1147985E+00
         21   -1    0    0  503  502  0.00000000000E+00  0.00000000000E+00  0.59496343289E+03  0.59496343289E+03  0.00000000000E+00 0. -1.
         21   -1    0    0  501  503 -0.00000000000E+00 -0.00000000000E+00 -0.68432182889E+02  0.68432182889E+02  0.00000000000E+00 0. -1.
          6    2    1    2  501    0 -0.10104322678E+03  0.17919975587E+02  0.27959549302E+03  0.34529339252E+03  0.17470840850E+03 0.  0.
         24    2    3    3    0    0 -0.44466523441E+02  0.64144403027E+02  0.23325883471E+03  0.25865161879E+03  0.79994998501E+02 0.  0.
         -6    2    1    2    0  502  0.10104322678E+03 -0.17919975587E+02  0.24693575698E+03  0.31810222325E+03  0.17228144752E+03 0.  0.
        -24    2    5    5    0    0  0.66174424128E+02  0.36153063112E+02  0.69372789499E+02  0.12918312858E+03  0.78674000820E+02 0.  0.
          5    1    3    3  501    0 -0.56576703336E+02 -0.46224427441E+02  0.46336658306E+02  0.86641773733E+02  0.47000000000E+01 0. -1.
        -13    1    4    4    0    0 -0.34426198967E+02  0.35524022260E+02  0.41679341347E+02  0.64686063630E+02  0.00000000000E+00 0.  1.
         14    1    4    4    0    0 -0.10040324474E+02  0.28620380768E+02  0.19157949337E+03  0.19396555516E+03  0.00000000000E+00 0. -1.
         -5    1    5    5    0  502  0.34868802649E+02 -0.54073038698E+02  0.17756296748E+03  0.18891909467E+03  0.47000000000E+01 0.  1.
         13    1    6    6    0    0  0.54520260305E+02 -0.13903662230E+02  0.46211762731E+02  0.72810010451E+02  0.00000000000E+00 0. -1.
        -14    1    6    6    0    0  0.11654163824E+02  0.50056725342E+02  0.23161026768E+02  0.56373118126E+02  0.00000000000E+00 0.  1.
</event>
<event>
12    1  0.9246030E-003  0.1913792E+03  0.7818608E-02  0.1158255E+00
         21   -1    0    0  503  502  0.00000000000E+00  0.00000000000E+00  0.19411994491E+03  0.19411994491E+03  0.00000000000E+00 0.  1.
         21   -1    0    0  501  503 -0.00000000000E+00 -0.00000000000E+00 -0.19225453666E+03  0.19225453666E+03  0.00000000000E+00 0.  1.
          6    2    1    2  501    0  0.31903568507E+01  0.78289477731E+02 -0.38576399188E+02  0.19522841220E+03  0.17460404822E+03 0.  0.
         24    2    3    3    0    0  0.58268134172E+02  0.66695162420E+02 -0.33501113257E+02  0.13852005100E+03  0.10110420263E+03 0.  0.
         -6    2    1    2    0  502 -0.31903568507E+01 -0.78289477731E+02  0.40441807433E+02  0.19114606938E+03  0.16959321729E+03 0.  0.
        -24    2    5    5    0    0  0.33924228925E+02 -0.50102443628E+02  0.82948893154E+02  0.12789305597E+03  0.76256191382E+02 0.  0.
          5    1    3    3  501    0 -0.55077777322E+02  0.11594315310E+02 -0.50752859306E+01  0.56708361196E+02  0.47000000000E+01 0. -1.
        -13    1    4    4    0    0 -0.18112003406E+02  0.30517631095E+02  0.17750590871E+02  0.39679389503E+02  0.00000000000E+00 0.  1.
         14    1    4    4    0    0  0.76380137578E+02  0.36177531325E+02 -0.51251704128E+02  0.98840661498E+02  0.00000000000E+00 0. -1.
         -5    1    5    5    0  502 -0.37114585775E+02 -0.28187034103E+02 -0.42507085721E+02  0.63253013409E+02  0.47000000000E+01 0.  1.
         13    1    6    6    0    0  0.19204052675E+02 -0.40206775261E+01  0.76635261841E+02  0.79107046743E+02  0.00000000000E+00 0. -1.
        -14    1    6    6    0    0  0.14720176249E+02 -0.46081766102E+02  0.63136313129E+01  0.48786009227E+02  0.00000000000E+00 0.  1.
</event>
<event>
12    1  0.9246030E-003  0.2216668E+03  0.7818608E-02  0.1133056E+00
         21   -1    0    0  501  502  0.00000000000E+00  0.00000000000E+00  0.72650788501E+03  0.72650788501E+03  0.00000000000E+00 0.  1.
         21   -1    0    0  502  503 -0.00000000000E+00 -0.00000000000E+00 -0.67787083363E+02  0.67787083363E+02  0.00000000000E+00 0.  1.
          6    2    1    2  501    0  0.81343016226E+02  0.10974863183E+03  0.37156982882E+03  0.43153905946E+03  0.17175672816E+03 0.  0.
         24    2    3    3    0    0  0.11211235626E+03  0.70645756591E+02  0.19823448139E+03  0.25114221966E+03  0.78838452126E+02 0.  0.
         -6    2    1    2    0  503 -0.81343016226E+02 -0.10974863183E+03  0.28715097283E+03  0.36275590892E+03  0.17457009991E+03 0.  0.
        -24    2    5    5    0    0 -0.92147409683E+02 -0.73335949830E+02  0.29151439615E+03  0.32423646199E+03  0.79242245477E+02 0.  0.
          5    1    3    3  501    0 -0.30769340035E+02  0.39102875243E+02  0.17333534744E+03  0.18039683980E+03  0.47000000000E+01 0. -1.
        -11    1    4    4    0    0  0.80430021340E+02  0.85141582899E+02  0.16923277827E+03  0.20581013268E+03  0.00000000000E+00 0.  1.
         12    1    4    4    0    0  0.31682334921E+02 -0.14495826308E+02  0.29001703112E+02  0.45332086978E+02  0.00000000000E+00 0. -1.
         -5    1    5    5    0  503  0.10804393457E+02 -0.36412682004E+02 -0.43634233285E+01  0.38519446930E+02  0.47000000000E+01 0.  1.
         13    1    6    6    0    0 -0.74453925527E+02 -0.96753143412E+01  0.17202354956E+03  0.18769416703E+03  0.00000000000E+00 0. -1.
        -14    1    6    6    0    0 -0.17693484156E+02 -0.63660635488E+02  0.11949084659E+03  0.13654229496E+03  0.00000000000E+00 0.  1.
</event>
<event>
12    1  0.9246030E-003  0.2289488E+03  0.7818608E-02  0.1128015E+00
         21   -1    0    0  503  502  0.00000000000E+00  0.00000000000E+00  0.11982278076E+04  0.11982278076E+04  0.00000000000E+00 0. -1.
         21   -1    0    0  501  503 -0.00000000000E+00 -0.00000000000E+00 -0.47630946965E+02  0.47630946965E+02  0.00000000000E+00 0. -1.
          6    2    1    2  501    0  0.16336835692E+02  0.15106060062E+03  0.38662021587E+03  0.44932476807E+03  0.17126400271E+03 0.  0.
         24    2    3    3    0    0  0.50365987359E+02  0.30357181038E+02  0.21471549406E+03  0.23648534023E+03  0.79776447858E+02 0.  0.
         -6    2    1    2    0  502 -0.16336835692E+02 -0.15106060062E+03  0.76397664476E+03  0.79653398648E+03  0.16649288460E+03 0.  0.
        -24    2    5    5    0    0  0.13135669069E+02 -0.14467958857E+03  0.41802341532E+03  0.44923717854E+03  0.77238187902E+02 0.  0.
          5    1    3    3  501    0 -0.34029151667E+02  0.12070341959E+03  0.17190472180E+03  0.21283942784E+03  0.47000000000E+01 0. -1.
        -11    1    4    4    0    0 -0.17487135541E+02  0.16849759635E+02  0.26434528626E+02  0.35895662870E+02  0.00000000000E+00 0.  1.
         12    1    4    4    0    0  0.67853122900E+02  0.13507421403E+02  0.18828096543E+03  0.20058967736E+03  0.00000000000E+00 0. -1.
         -5    1    5    5    0  502 -0.29472504761E+02 -0.63810120523E+01  0.34595322944E+03  0.34729680794E+03  0.47000000000E+01 0.  1.
         13    1    6    6    0    0  0.36952842040E+02 -0.92925120879E+02  0.32611314212E+03  0.34110170344E+03  0.00000000000E+00 0. -1.
        -14    1    6    6    0    0 -0.23817172971E+02 -0.51754467694E+02  0.91910273203E+02  0.10813547510E+03  0.00000000000E+00 0.  1.
</event>
<event>
12    1  0.9246030E-003  0.1874889E+03  0.7818608E-02  0.1160752E+00
         21   -1    0    0  503  502  0.00000000000E+00  0.00000000000E+00  0.64719712986E+02  0.64719712986E+02  0.00000000000E+00 0. -1.
         21   -1    0    0  501  503 -0.00000000000E+00 -0.00000000000E+00 -0.59032951083E+03  0.59032951083E+03  0.00000000000E+00 0. -1.
          6    2    1    2  501    0 -0.65542287399E+02 -0.36003210569E+02 -0.35549767283E+03  0.40190879220E+03  0.17193039072E+03 0.  0.
         24    2    3    3    0    0 -0.32510441402E+02 -0.89716927182E+02 -0.22654518253E+03  0.25828741163E+03  0.79269233994E+02 0.  0.
         -6    2    1    2    0  502  0.65542287399E+02  0.36003210569E+02 -0.17011212502E+03  0.25314043162E+03  0.17190090294E+03 0.  0.
        -24    2    5    5    0    0  0.38728062661E+02  0.69418251962E+02 -0.46635370979E+02  0.12235753354E+03  0.80484480777E+02 0.  0.
          5    1    3    3  501    0 -0.33031845997E+02  0.53713716613E+02 -0.12895249030E+03  0.14362138057E+03  0.47000000000E+01 0. -1.
        -11    1    4    4    0    0 -0.16631037440E+02 -0.71641866714E+02 -0.75733083980E+02  0.10556821719E+03  0.00000000000E+00 0.  1.
         12    1    4    4    0    0 -0.15879403962E+02 -0.18075060468E+02 -0.15081209855E+03  0.15271919444E+03  0.00000000000E+00 0. -1.
         -5    1    5    5    0  502  0.26814224738E+02 -0.33415041393E+02 -0.12347675404E+03  0.13078289807E+03  0.47000000000E+01 0.  1.
         13    1    6    6    0    0  0.14899580150E+02 -0.53017641352E+01  0.15617304666E+02  0.22226254669E+02  0.00000000000E+00 0. -1.
        -14    1    6    6    0    0  0.23828482511E+02  0.74720016097E+02 -0.62252675645E+02  0.10013127888E+03  0.00000000000E+00 0.  1.
</event>
<event>
12    1  0.9246030E-003  0.2098865E+03  0.7818608E-02  0.1141735E+00
         21   -1    0    0  503  502  0.00000000000E+00  0.00000000000E+00  0.36355346569E+03  0.36355346569E+03  0.00000000000E+00 0.  1.
         21   -1    0    0  501  503 -0.00000000000E+00 -0.00000000000E+00 -0.12412193890E+03  0.12412193890E+03  0.00000000000E+00 0. -1.
          6    2    1    2  501    0 -0.89868514161E+02  0.78762901800E+02  0.80789365123E+02  0.22489832952E+03  0.17254678370E+03 0.  0.
         24    2    3    3    0    0 -0.48097327436E+02 -0.31711193392E+02  0.37406313630E+02  0.98987500336E+02  0.71276505460E+02 0.  0.
         -6    2    1    2    0  502  0.89868514161E+02 -0.78762901800E+02  0.15864216167E+03  0.26277707507E+03  0.17205961520E+03 0.  0.
        -24    2    5    5    0    0 -0.12463257684E+02 -0.34054712727E+02  0.10900447395E+03  0.14047988074E+03  0.80855211944E+02 0.  0.
          5    1    3    3  501    0 -0.41771186725E+02  0.11047409519E+03  0.43383051493E+02  0.12591082918E+03  0.47000000000E+01 0. -1.
        -11    1    4    4    0    0  0.11013973497E+02  0.12808437987E+02  0.21893660350E+01  0.17033995993E+02  0.00000000000E+00 0.  1.
         12    1    4    4    0    0 -0.59111300933E+02 -0.44519631379E+02  0.35216947595E+02  0.81953504343E+02  0.00000000000E+00 0. -1.
         -5    1    5    5    0  502  0.10233177184E+03 -0.44708189073E+02  0.49637687718E+02  0.12229719433E+03  0.47000000000E+01 0.  1.
         11    1    6    6    0    0 -0.11432126817E+02 -0.51380593293E+02  0.32125672740E+02  0.61666179869E+02  0.00000000000E+00 0. -1.
        -12    1    6    6    0    0 -0.10311308666E+01  0.17325880565E+02  0.76878801213E+02  0.78813700866E+02  0.00000000000E+00 0.  1.
</event>
<event>
12    1  0.9246030E-003  0.3386645E+03  0.7818608E-02  0.1067393E+00
         21   -1    0    0  501  502  0.00000000000E+00  0.00000000000E+00  0.26331808914E+03  0.26331808914E+03  0.00000000000E+00 0. -1.
         21   -1    0    0  502  503 -0.00000000000E+00 -0.00000000000E+00 -0.44141400054E+03  0.44141400054E+03  0.00000000000E+00 0.  1.
          6    2    1    2  501    0  0.26668562909E+03  0.11792505439E+03 -0.13065599152E+03  0.36276105377E+03  0.17174705470E+03 0.  0.
         24    2    3    3    0    0  0.14579693008E+03 -0.55597784702E+01 -0.54699737031E+02  0.17393832186E+03  0.77296976785E+02 0.  0.
         -6    2    1    2    0  503 -0.26668562909E+03 -0.11792505439E+03 -0.47439919888E+02  0.34197103591E+03  0.17223849800E+03 0.  0.
        -24    2    5    5    0    0 -0.16941085762E+03 -0.87507588389E+02 -0.97332975999E+02  0.22839722534E+03  0.79586227571E+02 0.  0.
          5    1    3    3  501    0  0.12088869900E+03  0.12348483286E+03 -0.75956254485E+02  0.18882273191E+03  0.47000000000E+01 0. -1.
        -11    1    4    4    0    0 -0.28970529860E+01  0.14545468239E+02 -0.76479092429E+01  0.16686943341E+02  0.00000000000E+00 0.  1.
         12    1    4    4    0    0  0.14869398307E+03 -0.20105246709E+02 -0.47051827788E+02  0.15725137851E+03  0.00000000000E+00 0. -1.
         -5    1    5    5    0  503 -0.97274771464E+02 -0.30417465997E+02  0.49893056110E+02  0.11357381058E+03  0.47000000000E+01 0.  1.
         11    1    6    6    0    0 -0.41511973419E+02 -0.33300019400E+02  0.83298858899E+01  0.53865779750E+02  0.00000000000E+00 0. -1.
        -12    1    6    6    0    0 -0.12789888420E+03 -0.54207568989E+02 -0.10566286189E+03  0.17453144559E+03  0.00000000000E+00 0.  1.
</event>
<event>
12    1  0.9246030E-003  0.1785854E+03  0.7818608E-02  0.1169347E+00
         21   -1    0    0  501  502  0.00000000000E+00  0.00000000000E+00  0.26070140326E+03  0.26070140326E+03  0.00000000000E+00 0. -1.
         21   -1    0    0  502  503 -0.00000000000E+00 -0.00000000000E+00 -0.14043127355E+03  0.14043127355E+03  0.00000000000E+00 0. -1.
          6    2    1    2  501    0 -0.27508489268E+02 -0.39616432985E+02  0.13316293336E+03  0.22276690699E+03  0.17194926369E+03 0.  0.
         24    2    3    3    0    0 -0.18182539818E+02 -0.62236238409E+02  0.15747058522E+03  0.18795913675E+03  0.79546827415E+02 0.  0.
         -6    2    1    2    0  503  0.27508489268E+02  0.39616432985E+02 -0.12892803654E+02  0.17836576982E+03  0.17123651688E+03 0.  0.
        -24    2    5    5    0    0  0.50789424939E+02  0.69716599693E+02  0.29705772047E+02  0.12105302558E+03  0.79570296905E+02 0.  0.
          5    1    3    3  501    0 -0.93259494505E+01  0.22619805424E+02 -0.24307651857E+02  0.34807770245E+02  0.47000000000E+01 0. -1.
        -11    1    4    4    0    0  0.69252308666E+01 -0.92073767183E+00  0.10001885690E+03  0.10026254693E+03  0.00000000000E+00 0.  1.
         12    1    4    4    0    0 -0.25107770684E+02 -0.61315500737E+02  0.57451728319E+02  0.87696589821E+02  0.00000000000E+00 0. -1.
         -5    1    5    5    0  503 -0.23280935671E+02 -0.30100166709E+02 -0.42598575701E+02  0.57312744249E+02  0.47000000000E+01 0.  1.
         11    1    6    6    0    0 -0.96393089114E+01  0.46047678107E+02  0.30646856322E+02  0.56147437499E+02  0.00000000000E+00 0. -1.
        -12    1    6    6    0    0  0.60428733850E+02  0.23668921587E+02 -0.94108427558E+00  0.64905588076E+02  0.00000000000E+00 0.  1.
</event>
<event>
12    1  0.9246030E-003  0.1805834E+03  0.7818608E-02  0.1168002E+00
         21   -1    0    0  501  502  0.00000000000E+00  0.00000000000E+00  0.51484006783E+03  0.51484006783E+03  0.00000000000E+00 0. -1.
         21   -1    0    0  502  503 -0.00000000000E+00 -0.00000000000E+00 -0.68122527288E+02  0.68122527288E+02  0.00000000000E+00 0. -1.
          6    2    1    2  501    0 -0.29047324646E+02 -0.46283713984E+02  0.13954024609E+03  0.22821448641E+03  0.17211752461E+03 0.  0.
         24    2    3    3    0    0  0.36986450386E+02 -0.66916333997E+02  0.66289036239E+02  0.12734826710E+03  0.77314626944E+02 0.  0.
         -6    2    1    2    0  503  0.29047324646E+02  0.46283713984E+02  0.30717729446E+03  0.35474810871E+03  0.16882654162E+03 0.  0.
        -24    2    5    5    0    0  0.52009084922E+02  0.48806835465E+02  0.31294873042E+03  0.33047862067E+03  0.78690270962E+02 0.  0.
          5    1    3    3  501    0 -0.66033775032E+02  0.20632620013E+02  0.73251209848E+02  0.10086621931E+03  0.47000000000E+01 0. -1.
        -13    1    4    4    0    0 -0.16394085401E+02 -0.33267755695E+02  0.49864728747E+02  0.62144998014E+02  0.00000000000E+00 0.  1.
         14    1    4    4    0    0  0.53380535787E+02 -0.33648578302E+02  0.16424307492E+02  0.65203269084E+02  0.00000000000E+00 0. -1.
         -5    1    5    5    0  503 -0.22961760276E+02 -0.25231214812E+01 -0.57714359620E+01  0.24269488047E+02  0.47000000000E+01 0.  1.
         11    1    6    6    0    0  0.55223875540E+02 -0.14371411374E+01  0.18137439432E+03  0.18960066645E+03  0.00000000000E+00 0. -1.
        -12    1    6    6    0    0 -0.32147906181E+01  0.50243976602E+02  0.13157433610E+03  0.14087795422E+03  0.00000000000E+00 0.  1.
</event>
<event>
12    1  0.9246030E-003  0.2749707E+03  0.7818608E-02  0.1098606E+00
         21   -1    0    0  503  502  0.00000000000E+00  0.00000000000E+00  0.41381114212E+03  0.41381114212E+03  0.00000000000E+00 0. -1.
         21   -1    0    0  501  503 -0.00000000000E+00 -0.00000000000E+00 -0.33209614144E+03  0.33209614144E+03  0.00000000000E+00 0. -1.
          6    2    1    2  501    0 -0.21215502359E+03  0.21871923932E+02 -0.20986305619E+03  0.34512475747E+03  0.17198971124E+03 0.  0.
         24    2    3    3    0    0 -0.17827025730E+03  0.42142014943E+02 -0.22674141077E+03  0.30192727109E+03  0.78690378118E+02 0.  0.
         -6    2    1    2    0  502  0.21215502359E+03 -0.21871923932E+02  0.29157805687E+03  0.40078252609E+03  0.17355326237E+03 0.  0.
        -24    2    5    5    0    0  0.71829302342E+02 -0.79445416538E+02  0.96615177553E+02  0.15372255482E+03  0.53151749186E+02 0.  0.
          5    1    3    3  501    0 -0.33884766290E+02 -0.20270091012E+02  0.16878354579E+02  0.43197486379E+02  0.47000000000E+01 0. -1.
        -13    1    4    4    0    0  0.23197319783E+01  0.15879106961E+02 -0.11532144772E+02  0.19761517082E+02  0.00000000000E+00 0.  1.
         14    1    4    4    0    0 -0.18058998928E+03  0.26262907982E+02 -0.21520926600E+03  0.28216575401E+03  0.00000000000E+00 0. -1.
         -5    1    5    5    0  502  0.14032572125E+03  0.57573492606E+02  0.19496287931E+03  0.24705997127E+03  0.47000000000E+01 0.  1.
         11    1    6    6    0    0  0.66734555477E+02 -0.72642165031E+02  0.58529468202E+02  0.11469997246E+03  0.00000000000E+00 0. -1.
        -12    1    6    6    0    0  0.50947468650E+01 -0.68032515072E+01  0.38085709350E+02  0.39022582352E+02  0.00000000000E+00 0.  1.
</event>
<event>
12    1  0.9246030E-003  0.1777085E+03  0.7818608E-02  0.1170514E+00
         21   -1    0    0  503  502  0.00000000000E+00  0.00000000000E+00  0.11375528185E+03  0.11375528185E+03  0.00000000000E+00 0.  1.
         21   -1    0    0  501  503 -0.00000000000E+00 -0.00000000000E+00 -0.27893684210E+03  0.27893684210E+03  0.00000000000E+00 0.  1.
          6    2    1    2  501    0 -0.15895491752E+02 -0.23607293929E+02 -0.10743100827E+03  0.20765774168E+03  0.17541478032E+03 0.  0.
         24    2    3    3    0    0  0.48797589468E+02  0.18919738198E+02 -0.62119108975E+02  0.11783012100E+03  0.85358025300E+02 0.  0.
         -6    2    1    2    0  502  0.15895491752E+02  0.23607293929E+02 -0.57750551981E+02  0.18503438227E+03  0.17347226114E+03 0.  0.
        -24    2    5    5    0    0 -0.33516644287E+02  0.50730336316E+02 -0.13524682274E+01  0.10515915165E+03  0.85788609607E+02 0.  0.
          5    1    3    3  501    0 -0.64693081220E+02 -0.42527032127E+02 -0.45311899298E+02  0.89827620681E+02  0.47000000000E+01 0. -1.
        -11    1    4    4    0    0 -0.17146205477E+02 -0.12326875663E+02  0.12906451368E+01  0.21156795380E+02  0.00000000000E+00 0.  1.
         12    1    4    4    0    0  0.65943794945E+02  0.31246613861E+02 -0.63409754111E+02  0.96673325618E+02  0.00000000000E+00 0. -1.
         -5    1    5    5    0  502  0.49412136039E+02 -0.27123042387E+02 -0.56398083754E+02  0.79875230625E+02  0.47000000000E+01 0.  1.
         11    1    6    6    0    0 -0.98216259178E+01  0.23550897481E+02 -0.43043319017E+02  0.50038349492E+02  0.00000000000E+00 0. -1.
        -12    1    6    6    0    0 -0.23695018369E+02  0.27179438835E+02  0.41690850790E+02  0.55120802158E+02  0.00000000000E+00 0.  1.
</event>
<event>
12    1  0.9246030E-003  0.2550444E+03  0.7818608E-02  0.1110213E+00
         21   -1    0    0  501  502  0.00000000000E+00  0.00000000000E+00  0.29372823618E+03  0.29372823618E+03  0.00000000000E+00 0. -1.
         21   -1    0    0  502  503 -0.00000000000E+00 -0.00000000000E+00 -0.24019641761E+03  0.24019641761E+03  0.00000000000E+00 0. -1.
          6    2    1    2  501    0 -0.61744850111E+02 -0.17756112502E+03  0.10197241016E+03  0.27467443103E+03  0.17235803142E+03 0.  0.
         24    2    3    3    0    0 -0.78995000471E+02 -0.43448353513E+02  0.49490260056E+02  0.12955286389E+03  0.78782543626E+02 0.  0.
         -6    2    1    2    0  503  0.61744850111E+02  0.17756112502E+03 -0.48440591596E+02  0.25925022275E+03  0.17182493256E+03 0.  0.
        -24    2    5    5    0    0  0.10656569822E+03  0.15372566807E+03 -0.32793374481E+02  0.20592140468E+03  0.79626568663E+02 0.  0.
          5    1    3    3  501    0  0.17250150360E+02 -0.13411277151E+03  0.52482150108E+02  0.14512156714E+03  0.47000000000E+01 0. -1.
        -13    1    4    4    0    0 -0.60786062894E+02 -0.48851968703E+02  0.15632666060E+01  0.77999385195E+02  0.00000000000E+00 0.  1.
         14    1    4    4    0    0 -0.18208937577E+02  0.54036151896E+01  0.47926993450E+02  0.51553478699E+02  0.00000000000E+00 0. -1.
         -5    1    5    5    0  503 -0.44820848109E+02  0.23835456952E+02 -0.15647217115E+02  0.53328818070E+02  0.47000000000E+01 0.  1.
         11    1    6    6    0    0  0.80213865734E+02  0.15697278124E+03 -0.33138643557E+02  0.17936802392E+03  0.00000000000E+00 0. -1.
        -12    1    6    6    0    0  0.26351832485E+02 -0.32471131764E+01  0.34526907612E+00  0.26553380765E+02  0.00000000000E+00 0.  1.
</event>
<event>
12    1  0.9246030E-003  0.2139363E+03  0.7818608E-02  0.1138628E+00
         21   -1    0    0  503  502  0.00000000000E+00  0.00000000000E+00  0.10067995904E+03  0.10067995904E+03  0.00000000000E+00 0. -1.
         21   -1    0    0  501  503 -0.00000000000E+00 -0.00000000000E+00 -0.53082170772E+03  0.53082170772E+03  0.00000000000E+00 0.  1.
          6    2    1    2  501    0 -0.12688287668E+03  0.52605016356E+01 -0.33625271308E+03  0.39854060727E+03  0.17216791605E+03 0.  0.
         24    2    3    3    0    0 -0.48151007634E+02 -0.58606089974E+02 -0.17452732432E+03  0.20760910097E+03  0.82997340644E+02 0.  0.
         -6    2    1    2    0  502  0.12688287668E+03 -0.52605016356E+01 -0.93889035596E+02  0.23296105949E+03  0.17125643626E+03 0.  0.
        -24    2    5    5    0    0  0.74927546479E+02  0.41896302756E+02 -0.10974384130E+03  0.16087371386E+03  0.80418926264E+02 0.  0.
          5    1    3    3  501    0 -0.78731869041E+02  0.63866591610E+02 -0.16172538876E+03  0.19093150630E+03  0.47000000000E+01 0. -1.
        -11    1    4    4    0    0 -0.35238521640E+02  0.14549976976E+02 -0.61252567347E+02  0.72147988496E+02  0.00000000000E+00 0.  1.
         12    1    4    4    0    0 -0.12912485994E+02 -0.73156066950E+02 -0.11327475697E+03  0.13546111248E+03  0.00000000000E+00 0. -1.
         -5    1    5    5    0  502  0.51955330196E+02 -0.47156804392E+02  0.15854805702E+02  0.72087345631E+02  0.47000000000E+01 0.  1.
         11    1    6    6    0    0 -0.61143972435E+00 -0.65675411785E+01  0.95393060851E+01  0.11597621146E+02  0.00000000000E+00 0. -1.
        -12    1    6    6    0    0  0.75538986203E+02  0.48463843935E+02 -0.11928314738E+03  0.14927609271E+03  0.00000000000E+00 0.  1.
</event>
<event>
12    1  0.9246030E-003  0.1989755E+03  0.7818608E-02  0.1150889E+00
         21   -1    0    0  503  502  0.00000000000E+00  0.00000000000E+00  0.56773033050E+02  0.56773033050E+02  0.00000000000E+00 0. -1.
         21   -1    0    0  501  503 -0.00000000000E+00 -0.00000000000E+00 -0.70467513376E+03  0.70467513376E+03  0.00000000000E+00 0.  1.
          6    2    1    2  501    0 -0.95421971885E+02  0.26920592366E+02 -0.37249387342E+03  0.42168215905E+03  0.17097978393E+03 0.  0.
         24    2    3    3    0    0  0.76028848891E+01 -0.17336139747E+01 -0.22703114589E+03  0.24108127379E+03  0.80723169500E+02 0.  0.
         -6    2    1    2    0  502  0.95421971885E+02 -0.26920592366E+02 -0.27540822730E+03  0.33976600777E+03  0.17251428161E+03 0.  0.
        -24    2    5    5    0    0  0.68823460434E+02  0.42614698889E+02 -0.11625019467E+03  0.16399340782E+03  0.82625957067E+02 0.  0.
          5    1    3    3  501    0 -0.10302485677E+03  0.28654206341E+02 -0.14546272753E+03  0.18060088526E+03  0.47000000000E+01 0. -1.
        -13    1    4    4    0    0 -0.11412683511E+02 -0.32938150316E+02 -0.16858903584E+03  0.17215526160E+03  0.00000000000E+00 0.  1.
         14    1    4    4    0    0  0.19015568400E+02  0.31204536341E+02 -0.58442110046E+02  0.68926012190E+02  0.00000000000E+00 0. -1.
         -5    1    5    5    0  502  0.26598511451E+02 -0.69535291255E+02 -0.15915803263E+03  0.17577259995E+03  0.47000000000E+01 0.  1.
         13    1    6    6    0    0  0.83968825720E+02  0.24954195803E+02 -0.10855015342E+03  0.13948695777E+03  0.00000000000E+00 0. -1.
        -14    1    6    6    0    0 -0.15145365285E+02  0.17660503087E+02 -0.77000412493E+01  0.24506450052E+02  0.00000000000E+00 0.  1.
</event>
<event>
12    1  0.9246030E-003  0.2271912E+03  0.7818608E-02  0.1128836E+00
         21   -1    0    0  501  502  0.00000000000E+00  0.00000000000E+00  0.12080584498E+04  0.12080584498E+04  0.00000000000E+00 0. -1.
         21   -1    0    0  502  503 -0.00000000000E+00 -0.00000000000E+00 -0.43230815762E+02  0.43230815762E+02  0.00000000000E+00 0. -1.
          6    2    1    2  501    0 -0.14365426151E+03  0.26386867049E+02  0.50323049645E+03  0.55213835912E+03  0.17402017543E+03 0.  0.
         24    2    3    3    0    0 -0.65492298245E+02 -0.48648915186E+02  0.19464354865E+03  0.22504868416E+03  0.78133482786E+02 0.  0.
         -6    2    1    2    0  503  0.14365426151E+03 -0.26386867049E+02  0.66159713761E+03  0.69915090646E+03  0.17253522512E+03 0.  0.
        -24    2    5    5    0    0  0.52955094936E+02 -0.73094784067E+02  0.34550388723E+03  0.36696872562E+03  0.84534134862E+02 0.  0.
          5    1    3    3  501    0 -0.78161963263E+02  0.75035782235E+02  0.30858694780E+03  0.32708967496E+03  0.47000000000E+01 0. -1.
        -13    1    4    4    0    0 -0.10946846099E+01  0.17912286903E+02  0.17035833891E+02  0.24744049646E+02  0.00000000000E+00 0.  1.
         14    1    4    4    0    0 -0.64397613635E+02 -0.66561202089E+02  0.17760771476E+03  0.20030463451E+03  0.00000000000E+00 0. -1.
         -5    1    5    5    0  503  0.90699166572E+02  0.46707917018E+02  0.31609325039E+03  0.33218218084E+03  0.47000000000E+01 0.  1.
         13    1    6    6    0    0  0.60391662506E+02 -0.13110374665E+02  0.20237919527E+03  0.21160428517E+03  0.00000000000E+00 0. -1.
        -14    1    6    6    0    0 -0.74365675706E+01 -0.59984409403E+02  0.14312469195E+03  0.15536444045E+03  0.00000000000E+00 0.  1.
</event>
<event>
12    1  0.9246030E-003  0.1797298E+03  0.7818608E-02  0.1168532E+00
         21   -1    0    0  501  502  0.00000000000E+00  0.00000000000E+00  0.90208637002E+02  0.90208637002E+02  0.00000000000E+00 0.  1.
         21   -1    0    0  502  503 -0.00000000000E+00 -0.00000000000E+00 -0.35463031369E+03  0.35463031369E+03  0.00000000000E+00 0.  1.
          6    2    1    2  501    0 -0.43657010245E+02 -0.51961463914E+01 -0.12596896292E+03  0.21947887883E+03  0.17426951584E+03 0.  0.
         24    2    3    3    0    0 -0.78771823688E+02  0.14021560359E+02 -0.12935639818E+03  0.17903218436E+03  0.94434320683E+02 0.  0.
         -6    2    1    2    0  503  0.43657010245E+02  0.51961463914E+01 -0.13845271376E+03  0.22536007186E+03  0.17229356796E+03 0.  0.
        -24    2    5    5    0    0 -0.31753515526E+02  0.28631064659E+02 -0.12688779611E+03  0.14541146267E+03  0.56709408946E+02 0.  0.
          5    1    3    3  501    0  0.35114813443E+02 -0.19217706750E+02  0.33874352602E+01  0.40446694470E+02  0.47000000000E+01 0. -1.
        -11    1    4    4    0    0  0.10171275116E+02  0.27231920723E+02 -0.55571328082E+02  0.62715268065E+02  0.00000000000E+00 0.  1.
         12    1    4    4    0    0 -0.88943098805E+02 -0.13210360364E+02 -0.73785070103E+02  0.11631691629E+03  0.00000000000E+00 0. -1.
         -5    1    5    5    0  503  0.75410525772E+02 -0.23434918268E+02 -0.11564917656E+02  0.79948609192E+02  0.47000000000E+01 0.  1.
         11    1    6    6    0    0 -0.22757497625E+02  0.40351522871E+02 -0.12089551355E+03  0.12946765732E+03  0.00000000000E+00 0. -1.
        -12    1    6    6    0    0 -0.89960179016E+01 -0.11720458212E+02 -0.59922825616E+01  0.15943805351E+02  0.00000000000E+00 0.  1.
</event>
<event>
12    1  0.9246030E-003  0.2549527E+03  0.7818608E-02  0.1111581E+00
         21   -1    0    0  503  502  0.00000000000E+00  0.00000000000E+00  0.11484960889E+04  0.11484960889E+04  0.00000000000E+00 0. -1.
         21   -1    0    0  501  503 -0.00000000000E+00 -0.00000000000E+00 -0.55788443773E+02  0.55788443773E+02  0.00000000000E+00 0. -1.
          6    2    1    2  501    0  0.15396240942E+03 -0.79583133505E+02  0.45216662398E+03  0.51486905451E+03  0.17492166476E+03 0.  0.
         24    2    3    3    0    0  0.13133842476E+03 -0.78174918070E+02  0.45931270874E+03  0.49064129605E+03  0.79997608416E+02 0.  0.
         -6    2    1    2    0  502 -0.15396240942E+03  0.79583133505E+02  0.64054102114E+03  0.68941547816E+03  0.18698396483E+03 0.  0.
        -24    2    5    5    0    0 -0.13018789788E+03  0.12797187618E+03  0.55132618380E+03  0.58506953899E+03  0.70852767574E+02 0.  0.
          5    1    3    3  501    0  0.22623984662E+02 -0.14082154347E+01 -0.71460847560E+01  0.24227758461E+02  0.47000000000E+01 0. -1.
        -13    1    4    4    0    0 -0.54923560236E+01 -0.10818488868E+02  0.93879390000E+02  0.94660158160E+02  0.00000000000E+00 0.  1.
         14    1    4    4    0    0  0.13683078078E+03 -0.67356429202E+02  0.36543331874E+03  0.39598113789E+03  0.00000000000E+00 0. -1.
         -5    1    5    5    0  502 -0.23774511544E+02 -0.48388742676E+02  0.89214837347E+02  0.10434593916E+03  0.47000000000E+01 0.  1.
         13    1    6    6    0    0 -0.85877744718E+02  0.10880172384E+03  0.31953299183E+03  0.34830178727E+03  0.00000000000E+00 0. -1.
        -14    1    6    6    0    0 -0.44310153157E+02  0.19170152336E+02  0.23179319196E+03  0.23676775172E+03  0.00000000000E+00 0.  1.
</event>
<event>
12    1  0.9246030E-003  0.4325367E+03  0.7818608E-02  0.1033239E+00
         21   -1    0    0  501  502  0.00000000000E+00  0.00000000000E+00  0.28912190559E+03  0.28912190559E+03  0.00000000000E+00 0. -1.
         21   -1    0    0  502  503 -0.00000000000E+00 -0.00000000000E+00 -0.66984699671E+03  0.66984699671E+03  0.00000000000E+00 0.  1.
          6    2    1    2  501    0  0.32074711790E+03 -0.23353391204E+03 -0.95179147531E+02  0.44067894842E+03  0.16649944067E+03 0.  0.
         24    2    3    3    0    0  0.90891848173E+02 -0.44691834147E+02 -0.58493268325E+02  0.14090783718E+03  0.78580328549E+02 0.  0.
         -6    2    1    2    0  503 -0.32074711790E+03  0.23353391204E+03 -0.28554594360E+03  0.51828995388E+03  0.17225326898E+03 0.  0.
        -24    2    5    5    0    0 -0.33385272928E+03  0.21499236916E+03 -0.25095204133E+03  0.47664413853E+03  0.80829104325E+02 0.  0.
          5    1    3    3  501    0  0.22985526973E+03 -0.18884207789E+03 -0.36685879207E+02  0.29977111124E+03  0.47000000000E+01 0. -1.
        -11    1    4    4    0    0  0.90499325335E+02 -0.62696684156E+02 -0.52065942297E+02  0.12178614222E+03  0.00000000000E+00 0.  1.
         12    1    4    4    0    0  0.39252283819E+00  0.18004850010E+02 -0.64273260276E+01  0.19121694954E+02  0.00000000000E+00 0. -1.
         -5    1    5    5    0  503  0.13105611376E+02  0.18541542876E+02 -0.34593902267E+02  0.41645815346E+02  0.47000000000E+01 0.  1.
         11    1    6    6    0    0 -0.16081757592E+03  0.77383803280E+02 -0.15201613731E+03  0.23443432286E+03  0.00000000000E+00 0. -1.
        -12    1    6    6    0    0 -0.17303515336E+03  0.13760856588E+03 -0.98935904023E+02  0.24220981567E+03  0.00000000000E+00 0.  1.
</event>
<event>
12    1  0.9246030E-003  0.2451218E+03  0.7818608E-02  0.1116825E+00
         21   -1    0    0  501  502  0.00000000000E+00  0.00000000000E+00  0.61511007477E+03  0.61511007477E+03  0.00000000000E+00 0. -1.
         21   -1    0    0  502  503 -0.00000000000E+00 -0.00000000000E+00 -0.12503937345E+03  0.12503937345E+03  0.00000000000E+00 0. -1.
          6    2    1    2  501    0  0.22445584667E+02  0.16987932998E+03  0.42023597320E+03  0.48527377730E+03  0.17184171419E+03 0.  0.
         24    2    3    3    0    0 -0.78822889160E+01  0.27462915332E+02  0.23444099575E+03  0.24917193757E+03  0.79421230079E+02 0.  0.
         -6    2    1    2    0  503 -0.22445584667E+02 -0.16987932998E+03  0.69834728122E+02  0.25487567091E+03  0.17527671649E+03 0.  0.
        -24    2    5    5    0    0  0.25161563657E+02 -0.85540285132E+02  0.96854971456E+02  0.15421933178E+03  0.80327281368E+02 0.  0.
          5    1    3    3  501    0  0.30327873583E+02  0.14241641465E+03  0.18579497745E+03  0.23610183973E+03  0.47000000000E+01 0. -1.
        -13    1    4    4    0    0  0.15959451058E+02 -0.83080636123E+01  0.98667071609E+01  0.20520231706E+02  0.00000000000E+00 0.  1.
         14    1    4    4    0    0 -0.23841739974E+02  0.35770978944E+02  0.22457428859E+03  0.22865170586E+03  0.00000000000E+00 0. -1.
         -5    1    5    5    0  503 -0.47607148324E+02 -0.84339044852E+02 -0.27020243334E+02  0.10065633913E+03  0.47000000000E+01 0.  1.
         11    1    6    6    0    0 -0.24054754059E+02 -0.25687955054E+02  0.75692989447E+01  0.35997173697E+02  0.00000000000E+00 0. -1.
        -12    1    6    6    0    0  0.49216317716E+02 -0.59852330078E+02  0.89285672511E+02  0.11822215808E+03  0.00000000000E+00 0.  1.
</event>
<event>
12    1  0.9246030E-003  0.2605600E+03  0.7818608E-02  0.1107472E+00
         21   -1    0    0  501  502  0.00000000000E+00  0.00000000000E+00  0.11786844414E+03  0.11786844414E+03  0.00000000000E+00 0. -1.
         21   -1    0    0  502  503 -0.00000000000E+00 -0.00000000000E+00 -0.10834693033E+04  0.10834693033E+04  0.00000000000E+00 0. -1.
          6    2    1    2  501    0  0.16951034187E+03  0.87142033081E+02 -0.69964948978E+02  0.26978990753E+03  0.17766263026E+03 0.  0.
         24    2    3    3    0    0  0.12057439345E+03  0.17475633571E+02 -0.10260760844E+03  0.17848948319E+03  0.80539382748E+02 0.  0.
         -6    2    1    2    0  503 -0.16951034187E+03 -0.87142033081E+02 -0.89563591019E+03  0.93154783992E+03  0.17114381235E+03 0.  0.
        -24    2    5    5    0    0 -0.19330723871E+03 -0.78795408215E+02 -0.85328215247E+03  0.88203128472E+03  0.79450302769E+02 0.  0.
          5    1    3    3  501    0  0.48935948415E+02  0.69666399509E+02  0.32642659465E+02  0.91300424341E+02  0.47000000000E+01 0. -1.
        -11    1    4    4    0    0  0.70172131311E+02  0.46142077749E+02 -0.80796704765E+02  0.11653894994E+03  0.00000000000E+00 0.  1.
         12    1    4    4    0    0  0.50402262143E+02 -0.28666444178E+02 -0.21810903677E+02  0.61950533252E+02  0.00000000000E+00 0. -1.
         -5    1    5    5    0  503  0.23796896837E+02 -0.83466248659E+01 -0.42353757729E+02  0.49516555206E+02  0.47000000000E+01 0.  1.
         13    1    6    6    0    0 -0.11235301400E+03 -0.26396543950E+02 -0.60028477297E+03  0.61127881195E+03  0.00000000000E+00 0. -1.
        -14    1    6    6    0    0 -0.80954224705E+02 -0.52398864265E+02 -0.25299737950E+03  0.27075247276E+03  0.00000000000E+00 0.  1.
</event>
<event>
12    1  0.9246030E-003  0.2074552E+03  0.7818608E-02  0.1147704E+00
         21   -1    0    0  501  502  0.00000000000E+00  0.00000000000E+00  0.11579365806E+03  0.11579365806E+03  0.00000000000E+00 0. -1.
         21   -1    0    0  502  503 -0.00000000000E+00 -0.00000000000E+00 -0.33825357507E+03  0.33825357507E+03  0.00000000000E+00 0. -1.
          6    2    1    2  501    0  0.44513019672E+02 -0.61082819369E+02 -0.11436389843E+03  0.22011903117E+03  0.17222301494E+03 0.  0.
         24    2    3    3    0    0  0.17416357851E+02  0.61891572476E+00  0.90974835924E+01  0.79384756568E+02  0.76912045807E+02 0.  0.
         -6    2    1    2    0  503 -0.44513019672E+02  0.61082819369E+02 -0.10809601857E+03  0.23392820197E+03  0.19319713948E+03 0.  0.
        -24    2    5    5    0    0  0.41990639617E+02  0.78932234744E+02 -0.75852165541E+02  0.13978341582E+03  0.76107429496E+02 0.  0.
          5    1    3    3  501    0  0.27096661822E+02 -0.61701735093E+02 -0.12346138202E+03  0.14073427460E+03  0.47000000000E+01 0. -1.
        -11    1    4    4    0    0  0.18955904032E+02 -0.36114231732E+02  0.11970880843E+02  0.42507246670E+02  0.00000000000E+00 0.  1.
         12    1    4    4    0    0 -0.15395461817E+01  0.36733147457E+02 -0.28733972506E+01  0.36877509898E+02  0.00000000000E+00 0. -1.
         -5    1    5    5    0  503 -0.86503659290E+02 -0.17849415375E+02 -0.32243853029E+02  0.94144786143E+02  0.47000000000E+01 0.  1.
         13    1    6    6    0    0  0.37534977926E+02  0.19954444906E+02  0.13477955723E+01  0.42530824025E+02  0.00000000000E+00 0. -1.
        -14    1    6    6    0    0  0.44556616918E+01  0.58977789838E+02 -0.77199961114E+02  0.97252591797E+02  0.00000000000E+00 0.  1.
</event>
<event>
12    1  0.9246030E-003  0.2053429E+03  0.7818608E-02  0.1146514E+00
         21   -1    0    0  503  502  0.00000000000E+00  0.00000000000E+00  0.18948025210E+03  0.18948025210E+03  0.00000000000E+00 0. -1.
         21   -1    0    0  501  503 -0.00000000000E+00 -0.00000000000E+00 -0.21885094419E+03  0.21885094419E+03  0.00000000000E+00 0. -1.
          6    2    1    2  501    0  0.79699620933E+02  0.64757121632E+02  0.77276998877E+01  0.19966400622E+03  0.17105696026E+03 0.  0.
         24    2    3    3    0    0  0.11182064745E+03  0.14154380929E+02  0.13458209186E+01  0.13920562309E+03  0.81683477963E+02 0.  0.
         -6    2    1    2    0  502 -0.79699620933E+02 -0.64757121632E+02 -0.37098391980E+02  0.20866719007E+03  0.17782067131E+03 0.  0.
        -24    2    5    5    0    0  0.54862599472E+01 -0.16448784717E+02  0.32528419928E+02  0.88416149936E+02  0.80365763231E+02 0.  0.
          5    1    3    3  501    0 -0.32121026512E+02  0.50602740702E+02  0.63818789691E+01  0.60458383124E+02  0.47000000000E+01 0. -1.
        -11    1    4    4    0    0 -0.28608855950E+01  0.87978002935E+01 -0.20361746320E+02  0.22364853444E+02  0.00000000000E+00 0.  1.
         12    1    4    4    0    0  0.11468153304E+03  0.53565806360E+01  0.21707567239E+02  0.11684076965E+03  0.00000000000E+00 0. -1.
         -5    1    5    5    0  502 -0.85185880881E+02 -0.48308336914E+02 -0.69626811908E+02  0.12025104013E+03  0.47000000000E+01 0.  1.
         11    1    6    6    0    0 -0.26710415776E+02  0.20138852016E+02  0.12139423973E+02  0.35586307561E+02  0.00000000000E+00 0. -1.
        -12    1    6    6    0    0  0.32196675723E+02 -0.36587636733E+02  0.20388995955E+02  0.52829842375E+02  0.00000000000E+00 0.  1.
</event>
<event>
12    1  0.9246030E-003  0.2167026E+03  0.7818608E-02  0.1136456E+00
         21   -1    0    0  503  502  0.00000000000E+00  0.00000000000E+00  0.98741604569E+03  0.98741604569E+03  0.00000000000E+00 0.  1.
         21   -1    0    0  501  503 -0.00000000000E+00 -0.00000000000E+00 -0.87542531709E+02  0.87542531709E+02  0.00000000000E+00 0. -1.
          6    2    1    2  501    0 -0.68002147278E+02  0.11110790285E+03  0.85952450121E+02  0.23268338031E+03  0.17258178838E+03 0.  0.
         24    2    3    3    0    0 -0.52848749416E+02 -0.58109584901E+01  0.57388068625E+02  0.11128461798E+03  0.79146182632E+02 0.  0.
         -6    2    1    2    0  502  0.68002147278E+02 -0.11110790285E+03  0.81392106386E+03  0.84227519709E+03  0.17317838008E+03 0.  0.
        -24    2    5    5    0    0  0.49030752950E+02  0.20348963304E+01  0.25703549704E+03  0.27367618958E+03  0.80145208631E+02 0.  0.
          5    1    3    3  501    0 -0.15153397861E+02  0.11691886134E+03  0.28564381496E+02  0.12139876233E+03  0.47000000000E+01 0. -1.
        -11    1    4    4    0    0 -0.39332118623E+02  0.25584862487E+02  0.60948775033E+02  0.76917838776E+02  0.00000000000E+00 0.  1.
         12    1    4    4    0    0 -0.13516630793E+02 -0.31395820977E+02 -0.35607064083E+01  0.34366779205E+02  0.00000000000E+00 0. -1.
         -5    1    5    5    0  502  0.18971394328E+02 -0.11314279918E+03  0.55688556682E+03  0.56859900751E+03  0.47000000000E+01 0.  1.
         11    1    6    6    0    0  0.14647728142E+01  0.21830272276E+02  0.17794503491E+03  0.17928508526E+03  0.00000000000E+00 0. -1.
        -12    1    6    6    0    0  0.47565980136E+02 -0.19795375945E+02  0.79090462131E+02  0.94391104322E+02  0.00000000000E+00 0.  1.
</event>
<event>
12    1  0.9246030E-003  0.2703707E+03  0.7818608E-02  0.1101163E+00
         21   -1    0    0  503  502  0.00000000000E+00  0.00000000000E+00  0.11176504960E+04  0.11176504960E+04  0.00000000000E+00 0.  1.
         21   -1    0    0  501  503 -0.00000000000E+00 -0.00000000000E+00 -0.65637790693E+02  0.65637790693E+02  0.00000000000E+00 0. -1.
          6    2    1    2  501    0 -0.19596223451E+03  0.68639932282E+02  0.57251892604E+03  0.63314943993E+03  0.17316943998E+03 0.  0.
         24    2    3    3    0    0 -0.88544433442E+02  0.10139098814E+02  0.14240349439E+03  0.18595562730E+03  0.79735952322E+02 0.  0.
         -6    2    1    2    0  502  0.19596223451E+03 -0.68639932282E+02  0.47949377931E+03  0.55013884681E+03  0.17212155216E+03 0.  0.
        -24    2    5    5    0    0  0.45570575830E+02  0.20491185307E+02  0.14619473247E+03  0.17374496835E+03  0.79484892692E+02 0.  0.
          5    1    3    3  501    0 -0.10741780107E+03  0.58500833468E+02  0.43011543166E+03  0.44719381263E+03  0.47000000000E+01 0. -1.
        -13    1    4    4    0    0 -0.41332165969E+01 -0.19842270388E+02  0.63247303081E+02  0.66415514156E+02  0.00000000000E+00 0.  1.
         14    1    4    4    0    0 -0.84411216845E+02  0.29981369202E+02  0.79156191306E+02  0.11954011314E+03  0.00000000000E+00 0. -1.
         -5    1    5    5    0  502  0.15039165868E+03 -0.89131117588E+02  0.33329904683E+03  0.37639387846E+03  0.47000000000E+01 0.  1.
         13    1    6    6    0    0  0.11429470986E+00  0.40495533644E+02  0.90358131215E+02  0.99017640777E+02  0.00000000000E+00 0. -1.
        -14    1    6    6    0    0  0.45456281120E+02 -0.20004348338E+02  0.55836601257E+02  0.74727327569E+02  0.00000000000E+00 0.  1.
</event>
<event>
12    1  0.9246030E-003  0.1815987E+03  0.7818608E-02  0.1166888E+00
         21   -1    0    0  503  502  0.00000000000E+00  0.00000000000E+00  0.33753789401E+03  0.33753789401E+03  0.00000000000E+00 0.  1.
         21   -1    0    0  501  503 -0.00000000000E+00 -0.00000000000E+00 -0.96393419061E+02  0.96393419061E+02  0.00000000000E+00 0.  1.
          6    2    1    2  501    0  0.31492085167E+02  0.38133367603E+02  0.11354901700E+03  0.21198835883E+03  0.17204586558E+03 0.  0.
         24    2    3    3    0    0  0.15848285048E+02  0.91820872753E+02  0.70778364102E+02  0.14142990476E+03  0.79439287025E+02 0.  0.
         -6    2    1    2    0  502 -0.31492085167E+02 -0.38133367603E+02  0.12759545794E+03  0.22194295424E+03  0.17473456697E+03 0.  0.
        -24    2    5    5    0    0  0.43346787846E+02 -0.95278072183E+01  0.34143070147E+02  0.98757834262E+02  0.81348862697E+02 0.  0.
          5    1    3    3  501    0  0.15643800119E+02 -0.53687505150E+02  0.42770652901E+02  0.70558454071E+02  0.47000000000E+01 0. -1.
        -11    1    4    4    0    0  0.30713364425E+02  0.51735240137E+02  0.16969413783E+01  0.60189080707E+02  0.00000000000E+00 0.  1.
         12    1    4    4    0    0 -0.14865079377E+02  0.40085632616E+02  0.69081422723E+02  0.81240824051E+02  0.00000000000E+00 0. -1.
         -5    1    5    5    0  502 -0.74838873013E+02 -0.28605560384E+02  0.93452387795E+02  0.12318511998E+03  0.47000000000E+01 0.  1.
         13    1    6    6    0    0 -0.20125256355E+02 -0.17827127498E+02  0.19163294834E+02  0.33016121624E+02  0.00000000000E+00 0. -1.
        -14    1    6    6    0    0  0.63472044201E+02  0.82993202799E+01  0.14979775313E+02  0.65741712638E+02  0.00000000000E+00 0.  1.
</event>
<event>
12    1  0.9246030E-003  0.1799478E+03  0.7818608E-02  0.1168398E+00
         21   -1    0    0  501  502  0.00000000000E+00  0.00000000000E+00  0.68866857530E+03  0.68866857530E+03  0.00000000000E+00 0. -1.
         21   -1    0    0  502  503 -0.00000000000E+00 -0.00000000000E+00 -0.47416461867E+02  0.47416461867E+02  0.00000000000E+00 0. -1.
          6    2    1    2  501    0  0.43180737544E+02  0.37327670502E+01  0.37545460366E+03  0.41635006474E+03  0.17465024294E+03 0.  0.
         24    2    3    3    0    0  0.14581652232E+01  0.65379532193E+02  0.18079131430E+03  0.20788667967E+03  0.79087058244E+02 0.  0.
         -6    2    1    2    0  503 -0.43180737544E+02 -0.37327670502E+01  0.26579750977E+03  0.31973497242E+03  0.17234740132E+03 0.  0.
        -24    2    5    5    0    0 -0.22714028227E+02 -0.50895295175E+02  0.24566644366E+03  0.26432251829E+03  0.80050821283E+02 0.  0.
          5    1    3    3  501    0  0.41722572321E+02 -0.61646765142E+02  0.19466328936E+03  0.20846338507E+03  0.47000000000E+01 0. -1.
        -13    1    4    4    0    0  0.10139771760E+01 -0.18067860055E+02  0.21850704007E+02  0.28371270368E+02  0.00000000000E+00 0.  1.
         14    1    4    4    0    0  0.44418804719E+00  0.83447392248E+02  0.15894061029E+03  0.17951540930E+03  0.00000000000E+00 0. -1.
         -5    1    5    5    0  503 -0.20466709317E+02  0.47162528125E+02  0.20131066114E+02  0.55412454126E+02  0.47000000000E+01 0.  1.
         11    1    6    6    0    0 -0.26796151014E+02  0.96596683115E+01  0.35207116585E+02  0.45286686336E+02  0.00000000000E+00 0. -1.
        -12    1    6    6    0    0  0.40821227870E+01 -0.60554963487E+02  0.21045932707E+03  0.21903583196E+03  0.00000000000E+00 0.  1.
</event>
<event>
12    1  0.9246030E-003  0.1979605E+03  0.7818608E-02  0.1151567E+00
         21   -1    0    0  503  502  0.00000000000E+00  0.00000000000E+00  0.48417457259E+03  0.48417457259E+03  0.00000000000E+00 0. -1.
         21   -1    0    0  501  503 -0.00000000000E+00 -0.00000000000E+00 -0.91342177693E+02  0.91342177693E+02  0.00000000000E+00 0. -1.
          6    2    1    2  501    0 -0.85192620129E+02 -0.46762921296E+02  0.98646897662E+02  0.22117771416E+03  0.17246395997E+03 0.  0.
         24    2    3    3    0    0 -0.11206442959E+03  0.46738990533E+01  0.81306429121E+02  0.16042722049E+03  0.80906587786E+02 0.  0.
         -6    2    1    2    0  502  0.85192620129E+02  0.46762921296E+02  0.29418549723E+03  0.35433903612E+03  0.17194909830E+03 0.  0.
        -24    2    5    5    0    0  0.76822159605E+02 -0.19811684002E+02  0.11247272727E+03  0.16057664698E+03  0.82707908607E+02 0.  0.
          5    1    3    3  501    0  0.26871809459E+02 -0.51436820350E+02  0.17340468542E+02  0.60750493665E+02  0.47000000000E+01 0. -1.
        -11    1    4    4    0    0 -0.74636123294E+02  0.35342409390E+02  0.25207548111E+02  0.86342673596E+02  0.00000000000E+00 0.  1.
         12    1    4    4    0    0 -0.37428306293E+02 -0.30668510336E+02  0.56098881010E+02  0.74084546896E+02  0.00000000000E+00 0. -1.
         -5    1    5    5    0  502  0.83704605235E+01  0.66574605298E+02  0.18171276996E+03  0.19376238914E+03  0.47000000000E+01 0.  1.
         13    1    6    6    0    0  0.51426655122E+01 -0.25011525410E+02  0.75611914738E+02  0.79807174253E+02  0.00000000000E+00 0. -1.
        -14    1    6    6    0    0  0.71679494093E+02  0.51998414083E+01  0.36860812535E+02  0.80769472728E+02  0.00000000000E+00 0.  1.
</event>
<event>
12    1  0.9246030E-003  0.1777328E+03  0.7818608E-02  0.1170430E+00
         21   -1    0    0  503  502  0.00000000000E+00  0.00000000000E+00  0.23168193321E+03  0.23168193321E+03  0.00000000000E+00 0. -1.
         21   -1    0    0  501  503 -0.00000000000E+00 -0.00000000000E+00 -0.18101423075E+03  0.18101423075E+03  0.00000000000E+00 0. -1.
          6    2    1    2  501    0 -0.13192497327E+02 -0.39050395054E+02 -0.78720461724E+02  0.19285478585E+03  0.17116390388E+03 0.  0.
         24    2    3    3    0    0 -0.86408509372E+01  0.44076372988E+02 -0.39568911127E+02  0.10073686705E+03  0.81023618123E+02 0.  0.
         -6    2    1    2    0  502  0.13192497327E+02  0.39050395054E+02  0.12938816418E+03  0.21984137811E+03  0.17288712838E+03 0.  0.
        -24    2    5    5    0    0 -0.33180949045E+01  0.73055039145E+02  0.14270988195E+03  0.17948702717E+03  0.80631470410E+02 0.  0.
          5    1    3    3  501    0 -0.45516463901E+01 -0.83126768042E+02 -0.39151550597E+02  0.92117918800E+02  0.47000000000E+01 0. -1.
        -11    1    4    4    0    0  0.36389665178E+02  0.18753611309E+02 -0.18968217707E+02  0.45118720636E+02  0.00000000000E+00 0.  1.
         12    1    4    4    0    0 -0.45030516115E+02  0.25322761679E+02 -0.20600693420E+02  0.55618146410E+02  0.00000000000E+00 0. -1.
         -5    1    5    5    0  502  0.16510592232E+02 -0.34004644091E+02 -0.13321717762E+02  0.40354350939E+02  0.47000000000E+01 0.  1.
         13    1    6    6    0    0  0.21830609495E+02  0.32968275390E+02  0.13334865604E+02  0.41728902859E+02  0.00000000000E+00 0. -1.
        -14    1    6    6    0    0 -0.25148704400E+02  0.40086763755E+02  0.12937501634E+03  0.13775812432E+03  0.00000000000E+00 0.  1.
</event>
<event>
12    1  0.9246030E-003  0.1964923E+03  0.7818608E-02  0.1153098E+00
         21   -1    0    0  503  502  0.00000000000E+00  0.00000000000E+00  0.29990976897E+02  0.29990976897E+02  0.00000000000E+00 0.  1.
         21   -1    0    0  501  503 -0.00000000000E+00 -0.00000000000E+00 -0.14010403398E+04  0.14010403398E+04  0.00000000000E+00 0. -1.
          6    2    1    2  501    0  0.53978365817E+02 -0.76489452474E+02 -0.46938906520E+03  0.50820928675E+03  0.17083993763E+03 0.  0.
         24    2    3    3    0    0 -0.34149912289E+01  0.67614176166E+01 -0.30478770993E+03  0.31497264177E+03  0.79087533833E+02 0.  0.
         -6    2    1    2    0  502 -0.53978365817E+02  0.76489452474E+02 -0.90166029772E+03  0.92282202997E+03  0.17275678336E+03 0.  0.
        -24    2    5    5    0    0 -0.45740773827E+02 -0.65623853335E+01 -0.67346202676E+03  0.67979526898E+03  0.80219841410E+02 0.  0.
          5    1    3    3  501    0  0.57393357046E+02 -0.83250870091E+02 -0.16460135528E+03  0.19323664498E+03  0.47000000000E+01 0. -1.
        -11    1    4    4    0    0  0.18921940991E+02  0.29643380426E+02 -0.24168593804E+03  0.24423116612E+03  0.00000000000E+00 0.  1.
         12    1    4    4    0    0 -0.22336932220E+02 -0.22881962810E+02 -0.63101771883E+02  0.70741475655E+02  0.00000000000E+00 0. -1.
         -5    1    5    5    0  502 -0.82375919893E+01  0.83051837808E+02 -0.22819827096E+03  0.24302676098E+03  0.47000000000E+01 0.  1.
         13    1    6    6    0    0 -0.29399776157E+02 -0.10649893893E+02 -0.65084038607E+03  0.65159111045E+03  0.00000000000E+00 0. -1.
        -14    1    6    6    0    0 -0.16340997671E+02  0.40875085598E+01 -0.22621640684E+02  0.28204158529E+02  0.00000000000E+00 0.  1.
</event>
<event>
12    1  0.9246030E-003  0.1925680E+03  0.7818608E-02  0.1156830E+00
         21   -1    0    0  503  502  0.00000000000E+00  0.00000000000E+00  0.19599209351E+02  0.19599209351E+02  0.00000000000E+00 0. -1.
         21   -1    0    0  501  503 -0.00000000000E+00 -0.00000000000E+00 -0.21362551560E+04  0.21362551560E+04  0.00000000000E+00 0.  1.
          6    2    1    2  501    0  0.58569559818E+02  0.64776579326E+02 -0.14367042017E+04  0.14491600702E+04  0.16828412723E+03 0.  0.
         24    2    3    3    0    0 -0.28665898122E+02  0.41492880949E+02 -0.57895781934E+03  0.58666189508E+03  0.80228608853E+02 0.  0.
         -6    2    1    2    0  502 -0.58569559818E+02 -0.64776579326E+02 -0.67995174501E+03  0.70669429515E+03  0.17162765714E+03 0.  0.
        -24    2    5    5    0    0 -0.34880979619E+02 -0.35212370287E+02 -0.65341390414E+03  0.66020194862E+03  0.80375923527E+02 0.  0.
          5    1    3    3  501    0  0.87235457941E+02  0.23283698377E+02 -0.85774638233E+03  0.86249817515E+03  0.47000000000E+01 0. -1.
        -13    1    4    4    0    0 -0.15820673622E+02  0.42582439510E+01 -0.47817558313E+03  0.47845617841E+03  0.00000000000E+00 0.  1.
         14    1    4    4    0    0 -0.12845224500E+02  0.37234636998E+02 -0.10078223621E+03  0.10820571667E+03  0.00000000000E+00 0. -1.
         -5    1    5    5    0  502 -0.23688580199E+02 -0.29564209038E+02 -0.26537840868E+02  0.46492346530E+02  0.47000000000E+01 0.  1.
         13    1    6    6    0    0  0.19287682862E+02 -0.31022046950E+02 -0.35573670180E+03  0.35760730293E+03  0.00000000000E+00 0. -1.
        -14    1    6    6    0    0 -0.54168662481E+02 -0.41903233373E+01 -0.29767720234E+03  0.30259464569E+03  0.00000000000E+00 0.  1.
</event>
<event>
12    1  0.9246030E-003  0.1913210E+03  0.7818608E-02  0.1158784E+00
         21   -1    0    0  501  502  0.00000000000E+00  0.00000000000E+00  0.27662818703E+02  0.27662818703E+02  0.00000000000E+00 0.  1.
         21   -1    0    0  502  503 -0.00000000000E+00 -0.00000000000E+00 -0.12781011953E+04  0.12781011953E+04  0.00000000000E+00 0.  1.
          6    2    1    2  501    0 -0.72662081159E+02  0.11194320717E+02 -0.64650101764E+03  0.67421606143E+03  0.17663136989E+03 0.  0.
         24    2    3    3    0    0  0.19259598077E+01  0.51530866945E+02 -0.43142945207E+03  0.44298396779E+03  0.86280264430E+02 0.  0.
         -6    2    1    2    0  503  0.72662081159E+02 -0.11194320717E+02 -0.60393735895E+03  0.63154795256E+03  0.16943255884E+03 0.  0.
        -24    2    5    5    0    0  0.11065377626E+03  0.32872191357E+01 -0.53102302605E+03  0.54793172306E+03  0.77386400207E+02 0.  0.
          5    1    3    3  501    0 -0.74588040966E+02 -0.40336546228E+02 -0.21507156557E+03  0.23123209365E+03  0.47000000000E+01 0. -1.
        -13    1    4    4    0    0 -0.30291006365E+02 -0.22041820175E+01 -0.23106153977E+03  0.23304900482E+03  0.00000000000E+00 0.  1.
         14    1    4    4    0    0  0.32216966173E+02  0.53735048962E+02 -0.20036791230E+03  0.20993496297E+03  0.00000000000E+00 0. -1.
         -5    1    5    5    0  503 -0.37991695101E+02 -0.14481539853E+02 -0.72914332905E+02  0.83616229501E+02  0.47000000000E+01 0.  1.
         11    1    6    6    0    0  0.73453345851E+02  0.38923820861E+02 -0.34856668880E+03  0.35834228663E+03  0.00000000000E+00 0. -1.
        -12    1    6    6    0    0  0.37200430409E+02 -0.35636601725E+02 -0.18245633725E+03  0.18958943643E+03  0.00000000000E+00 0.  1.
</event>
<event>
12    1  0.9246030E-003  0.1762589E+03  0.7818608E-02  0.1171700E+00
         21   -1    0    0  503  502  0.00000000000E+00  0.00000000000E+00  0.26750276042E+03  0.26750276042E+03  0.00000000000E+00 0. -1.
         21   -1    0    0  501  503 -0.00000000000E+00 -0.00000000000E+00 -0.12060153166E+03  0.12060153166E+03  0.00000000000E+00 0. -1.
          6    2    1    2  501    0 -0.31495942794E+02  0.67029616823E+01  0.11338416744E+03  0.20957855235E+03  0.17329245821E+03 0.  0.
         24    2    3    3    0    0 -0.49308859010E+02 -0.36676195397E+02  0.17637707378E+02  0.10286151591E+03  0.80578507353E+02 0.  0.
         -6    2    1    2    0  502  0.31495942794E+02 -0.67029616823E+01  0.33517061324E+02  0.17852573972E+03  0.17236914526E+03 0.  0.
        -24    2    5    5    0    0  0.42954853409E+00 -0.39845287056E+02  0.61729467837E+02  0.12484553420E+03  0.10093586478E+03 0.  0.
          5    1    3    3  501    0  0.17812916216E+02  0.43379157079E+02  0.95746460061E+02  0.10671703644E+03  0.47000000000E+01 0. -1.
        -13    1    4    4    0    0  0.10259457250E+02 -0.39292252036E+02 -0.25028143230E+00  0.40610345651E+02  0.00000000000E+00 0.  1.
         14    1    4    4    0    0 -0.59568316261E+02  0.26160566386E+01  0.17887988810E+02  0.62251170255E+02  0.00000000000E+00 0. -1.
         -5    1    5    5    0  502  0.31066394260E+02  0.33142325374E+02 -0.28212406513E+02  0.53680205521E+02  0.47000000000E+01 0.  1.
         13    1    6    6    0    0 -0.12031000810E+02  0.50958983127E+01 -0.23957784556E+02  0.27288983142E+02  0.00000000000E+00 0. -1.
        -14    1    6    6    0    0  0.12460549344E+02 -0.44941185369E+02  0.85687252393E+02  0.97556551061E+02  0.00000000000E+00 0.  1.
</event>
<event>
12    1  0.9246030E-003  0.2491239E+03  0.7818608E-02  0.1113890E+00
         21   -1    0    0  501  502  0.00000000000E+00  0.00000000000E+00  0.23471863482E+03  0.23471863482E+03  0.00000000000E+00 0. -1.
         21   -1    0    0  502  503 -0.00000000000E+00 -0.00000000000E+00 -0.27198074928E+03  0.27198074928E+03  0.00000000000E+00 0.  1.
          6    2    1    2  501    0  0.12318006908E+03 -0.13009886260E+03  0.24174965255E+02  0.25029411001E+03  0.17310017070E+03 0.  0.
         24    2    3    3    0    0  0.13285337373E+03 -0.63131405644E+02  0.54531999624E+02  0.17598494066E+03  0.79758178677E+02 0.  0.
         -6    2    1    2    0  503 -0.12318006908E+03  0.13009886260E+03 -0.61437079714E+02  0.25640527408E+03  0.17282970331E+03 0.  0.
        -24    2    5    5    0    0 -0.87808470618E+02  0.11000824507E+02 -0.62281346197E+01  0.12036994678E+03  0.81355938783E+02 0.  0.
          5    1    3    3  501    0 -0.96733046561E+01 -0.66967456957E+02 -0.30357034369E+02  0.74309169353E+02  0.47000000000E+01 0. -1.
        -13    1    4    4    0    0  0.32991306504E+02 -0.57121989040E+02  0.10975322718E+02  0.66871560812E+02  0.00000000000E+00 0.  1.
         14    1    4    4    0    0  0.99862067228E+02 -0.60094166042E+01  0.43556676906E+02  0.10911337985E+03  0.00000000000E+00 0. -1.
         -5    1    5    5    0  503 -0.35371598458E+02  0.11909803809E+03 -0.55208945094E+02  0.13603532730E+03  0.47000000000E+01 0.  1.
         13    1    6    6    0    0 -0.78749885825E+02 -0.15034108770E+01 -0.36176903767E+02  0.86675100968E+02  0.00000000000E+00 0. -1.
        -14    1    6    6    0    0 -0.90585847935E+01  0.12504235384E+02  0.29948769147E+02  0.33694845814E+02  0.00000000000E+00 0.  1.
</event>
<event>
12    1  0.9246030E-003  0.2292556E+03  0.7818608E-02  0.1128541E+00
         21   -1    0    0  503  502  0.00000000000E+00  0.00000000000E+00  0.67496790769E+02  0.67496790769E+02  0.00000000000E+00 0.  1.
         21   -1    0    0  501  503 -0.00000000000E+00 -0.00000000000E+00 -0.75999232780E+03  0.75999232780E+03  0.00000000000E+00 0. -1.
          6    2    1    2  501    0 -0.21763181989E+02  0.13824096272E+03 -0.31214631436E+03  0.38728988952E+03  0.18158727127E+03 0.  0.
         24    2    3    3    0    0 -0.65403745988E+02  0.25314356941E+02 -0.12944012115E+03  0.16806270107E+03  0.81067008512E+02 0.  0.
         -6    2    1    2    0  502  0.21763181989E+02 -0.13824096272E+03 -0.38034922267E+03  0.44019922905E+03  0.17183023659E+03 0.  0.
        -24    2    5    5    0    0  0.42836503459E+02 -0.15755591921E+02 -0.21439271282E+03  0.23280973052E+03  0.78440618365E+02 0.  0.
          5    1    3    3  501    0  0.43640563999E+02  0.11292660578E+03 -0.18270619321E+03  0.21922718845E+03  0.47000000000E+01 0. -1.
        -13    1    4    4    0    0 -0.72029532997E+02  0.42994405030E+02 -0.12135030913E+03  0.14752176115E+03  0.00000000000E+00 0.  1.
         14    1    4    4    0    0  0.66257870085E+01 -0.17680048089E+02 -0.80898120186E+01  0.20540939911E+02  0.00000000000E+00 0. -1.
         -5    1    5    5    0  502 -0.21073321470E+02 -0.12248537080E+03 -0.16595650985E+03  0.20738949853E+03  0.47000000000E+01 0.  1.
         11    1    6    6    0    0  0.47097807655E+02  0.12790439697E+02 -0.68607639644E+02  0.84195053602E+02  0.00000000000E+00 0. -1.
        -12    1    6    6    0    0 -0.42613041960E+01 -0.28546031618E+02 -0.14578507318E+03  0.14861467692E+03  0.00000000000E+00 0.  1.
</event>
<event>
12    1  0.9246030E-003  0.1891466E+03  0.7818608E-02  0.1159325E+00
         21   -1    0    0  503  502  0.00000000000E+00  0.00000000000E+00  0.74099154616E+03  0.74099154616E+03  0.00000000000E+00 0.  1.
         21   -1    0    0  501  503 -0.00000000000E+00 -0.00000000000E+00 -0.49005488405E+02  0.49005488405E+02  0.00000000000E+00 0.  1.
          6    2    1    2  501    0 -0.33847223731E+02 -0.70127357154E+02  0.29504213148E+03  0.35046581242E+03  0.17237443417E+03 0.  0.
         24    2    3    3    0    0 -0.60622525762E+02  0.13103531116E+02  0.15248630749E+03  0.18316802250E+03  0.80322209484E+02 0.  0.
         -6    2    1    2    0  502  0.33847223731E+02  0.70127357154E+02  0.39694392628E+03  0.43953122214E+03  0.17192944441E+03 0.  0.
        -24    2    5    5    0    0  0.75103311955E+02  0.82769055242E+02  0.34865147696E+03  0.37459950411E+03  0.79219392304E+02 0.  0.
          5    1    3    3  501    0  0.26775302030E+02 -0.83230888270E+02  0.14255582398E+03  0.16729778992E+03  0.47000000000E+01 0. -1.
        -13    1    4    4    0    0 -0.22920469176E+02  0.49512607771E+01 -0.23804978416E+01  0.23569676716E+02  0.00000000000E+00 0.  1.
         14    1    4    4    0    0 -0.37702056585E+02  0.81522703386E+01  0.15486680534E+03  0.15959834578E+03  0.00000000000E+00 0. -1.
         -5    1    5    5    0  502 -0.41256088224E+02 -0.12641698088E+02  0.48292449313E+02  0.64931718033E+02  0.47000000000E+01 0.  1.
         11    1    6    6    0    0  0.15475691834E+02 -0.28481917162E+01  0.67311206324E+01  0.17114824532E+02  0.00000000000E+00 0. -1.
        -12    1    6    6    0    0  0.59627620121E+02  0.85617246959E+02  0.34192035633E+03  0.35748467958E+03  0.00000000000E+00 0.  1.
</event>
<event>
12    1  0.9246030E-003  0.2276717E+03  0.7818608E-02  0.1130229E+00
         21   -1    0    0  503  502  0.00000000000E+00  0.00000000000E+00  0.79608558994E+02  0.79608558994E+02  0.00000000000E+00 0. -1.
         21   -1    0    0  501  503 -0.00000000000E+00 -0.00000000000E+00 -0.62635991038E+03  0.62635991038E+03  0.00000000000E+00 0.  1.
          6    2    1    2  501    0  0.94889014587E+02  0.11364840515E+03 -0.31207455990E+03  0.38629642442E+03  0.17295812065E+03 0.  0.
         24    2    3    3    0    0  0.82237115941E+02  0.39392267897E+02 -0.27729844039E+03  0.30319700837E+03  0.81971378141E+02 0.  0.
         -6    2    1    2    0  502 -0.94889014587E+02 -0.11364840515E+03 -0.23467679148E+03  0.31967204496E+03  0.15873605382E+03 0.  0.
        -24    2    5    5    0    0 -0.12155179491E+03 -0.12124620666E+03 -0.20975808392E+03  0.28209994854E+03  0.78143750375E+02 0.  0.
          5    1    3    3  501    0  0.12651898646E+02  0.74256137253E+02 -0.34776119515E+02  0.83099416049E+02  0.47000000000E+01 0. -1.
        -13    1    4    4    0    0  0.43171659281E+02  0.53001480878E+02 -0.23195509267E+03  0.24181834951E+03  0.00000000000E+00 0.  1.
         14    1    4    4    0    0  0.39065456660E+02 -0.13609212981E+02 -0.45343347715E+02  0.61378658864E+02  0.00000000000E+00 0. -1.
         -5    1    5    5    0  502  0.26662780326E+02  0.75978015055E+01 -0.24918707566E+02  0.37572096417E+02  0.47000000000E+01 0.  1.
         13    1    6    6    0    0 -0.10075787276E+02 -0.60746095473E+02 -0.75034339102E+02  0.97065759405E+02  0.00000000000E+00 0. -1.
        -14    1    6    6    0    0 -0.11147600764E+03 -0.60500111183E+02 -0.13472374482E+03  0.18503418913E+03  0.00000000000E+00 0.  1.
</event>
<event>
12    1  0.9246030E-003  0.1828821E+03  0.7818608E-02  0.1167985E+00
         21   -1    0    0  503  502  0.00000000000E+00  0.00000000000E+00  0.20877592464E+03  0.20877592464E+03  0.00000000000E+00 0. -1.
         21   -1    0    0  501  503 -0.00000000000E+00 -0.00000000000E+00 -0.17783050177E+03  0.17783050177E+03  0.00000000000E+00 0. -1.
          6    2    1    2  501    0 -0.14215295941E+02  0.44168182045E+02 -0.60683312790E+02  0.19268713954E+03  0.17689818074E+03 0.  0.
         24    2    3    3    0    0  0.23130349041E+02 -0.26967482266E+02 -0.68784445124E+02  0.11180019200E+03  0.80658073958E+02 0.  0.
         -6    2    1    2    0  502  0.14215295941E+02 -0.44168182045E+02  0.91628735656E+02  0.19391928687E+03  0.16448696508E+03 0.  0.
        -24    2    5    5    0    0  0.45350552645E+02  0.47659454233E+01  0.77647625755E+01  0.91844760071E+02  0.79345961168E+02 0.  0.
          5    1    3    3  501    0 -0.37345644982E+02  0.71135664311E+02  0.81011323336E+01  0.80886947533E+02  0.47000000000E+01 0. -1.
        -13    1    4    4    0    0 -0.27972740781E+02 -0.21875908054E+02 -0.19000187932E+02  0.40274517023E+02  0.00000000000E+00 0.  1.
         14    1    4    4    0    0  0.51103089822E+02 -0.50915742120E+01 -0.49784257192E+02  0.71525674981E+02  0.00000000000E+00 0. -1.
         -5    1    5    5    0  502 -0.31135256704E+02 -0.48934127468E+02  0.83863973081E+02  0.10207452680E+03  0.47000000000E+01 0.  1.
         11    1    6    6    0    0 -0.54650641901E+01 -0.96539718044E+01  0.31897180179E+02  0.33771233344E+02  0.00000000000E+00 0. -1.
        -12    1    6    6    0    0  0.50815616835E+02  0.14419917228E+02 -0.24132417603E+02  0.58073526728E+02  0.00000000000E+00 0.  1.
</event>
<event>
12    1  0.9246030E-003  0.1859349E+03  0.7818608E-02  0.1162600E+00
         21   -1    0    0  503  502  0.00000000000E+00  0.00000000000E+00  0.12006824551E+03  0.12006824551E+03  0.00000000000E+00 0. -1.
         21   -1    0    0  501  503 -0.00000000000E+00 -0.00000000000E+00 -0.33861589203E+03  0.33861589203E+03  0.00000000000E+00 0. -1.
          6    2    1    2  501    0  0.38929184304E+02 -0.59015531062E+02 -0.20085318349E+03  0.27370386535E+03  0.17196944581E+03 0.  0.
         24    2    3    3    0    0 -0.28297989098E+02  0.10689755963E+01 -0.54211746737E+02  0.10149631105E+03  0.80997955391E+02 0.  0.
         -6    2    1    2    0  502 -0.38929184304E+02  0.59015531062E+02 -0.17694463029E+02  0.18498027219E+03  0.17001850717E+03 0.  0.
        -24    2    5    5    0    0 -0.25817052206E+02  0.10173567580E+03  0.10036782611E+02  0.13217827640E+03  0.79710048499E+02 0.  0.
          5    1    3    3  501    0  0.67227173402E+02 -0.60084506659E+02 -0.14664143675E+03  0.17220755430E+03  0.47000000000E+01 0. -1.
        -11    1    4    4    0    0 -0.10363243556E+02  0.66932661777E+01  0.20790236889E+02  0.24174999050E+02  0.00000000000E+00 0.  1.
         12    1    4    4    0    0 -0.17934745541E+02 -0.56242905814E+01 -0.75001983626E+02  0.77321312004E+02  0.00000000000E+00 0. -1.
         -5    1    5    5    0  502 -0.13112132098E+02 -0.42720144737E+02 -0.27731245640E+02  0.52801995788E+02  0.47000000000E+01 0.  1.
         11    1    6    6    0    0 -0.37553155858E+01  0.83191593954E+02 -0.24870747847E+02  0.86910861222E+02  0.00000000000E+00 0. -1.
        -12    1    6    6    0    0 -0.22061736620E+02  0.18544081845E+02  0.34907530458E+02  0.45267415177E+02  0.00000000000E+00 0.  1.
</event>
<event>
12    1  0.9246030E-003  0.2010687E+03  0.7818608E-02  0.1148850E+00
         21   -1    0    0  501  502  0.00000000000E+00  0.00000000000E+00  0.11107146703E+03  0.11107146703E+03  0.00000000000E+00 0.  1.
         21   -1    0    0  502  503 -0.00000000000E+00 -0.00000000000E+00 -0.55229771948E+03  0.55229771948E+03  0.00000000000E+00 0. -1.
          6    2    1    2  501    0  0.58910456653E+02  0.84901625279E+02 -0.26912628349E+02  0.20286182865E+03  0.17248160505E+03 0.  0.
         24    2    3    3    0    0  0.89491471460E+02  0.88931064412E+02  0.16264922486E+02  0.14959058178E+03  0.78710461652E+02 0.  0.
         -6    2    1    2    0  503 -0.58910456653E+02 -0.84901625279E+02 -0.41431362410E+03  0.46050735786E+03  0.17243120264E+03 0.  0.
        -24    2    5    5    0    0  0.34682175091E+02 -0.30265084176E+02 -0.19939257592E+03  0.21976293052E+03  0.80121892830E+02 0.  0.
          5    1    3    3  501    0 -0.30581014807E+02 -0.40294391329E+01 -0.43177550835E+02  0.53271246864E+02  0.47000000000E+01 0. -1.
        -11    1    4    4    0    0  0.68311208068E+02  0.34378498804E+02  0.40162744107E+02  0.86379096672E+02  0.00000000000E+00 0.  1.
         12    1    4    4    0    0  0.21180263392E+02  0.54552565609E+02 -0.23897821621E+02  0.63211485112E+02  0.00000000000E+00 0. -1.
         -5    1    5    5    0  503 -0.93592631744E+02 -0.54636541104E+02 -0.21492104819E+03  0.24074442734E+03  0.47000000000E+01 0.  1.
         13    1    6    6    0    0 -0.18017662683E+02 -0.30799518160E+02 -0.50629706809E+02  0.61940404415E+02  0.00000000000E+00 0. -1.
        -14    1    6    6    0    0  0.52699837774E+02  0.53443398468E+00 -0.14876286911E+03  0.15782252610E+03  0.00000000000E+00 0.  1.
</event>
<event>
12    1  0.9246030E-003  0.1963191E+03  0.7818608E-02  0.1153119E+00
         21   -1    0    0  501  502  0.00000000000E+00  0.00000000000E+00  0.25350458091E+02  0.25350458091E+02  0.00000000000E+00 0.  1.
         21   -1    0    0  502  503 -0.00000000000E+00 -0.00000000000E+00 -0.16643251997E+04  0.16643251997E+04  0.00000000000E+00 0.  1.
          6    2    1    2  501    0  0.77548164642E+01 -0.91181788470E+02 -0.10731003134E+04  0.10907139978E+04  0.17244850438E+03 0.  0.
         24    2    3    3    0    0  0.31282598436E+02 -0.16735982731E+02 -0.84578583493E+03  0.85031912133E+03  0.80188748835E+02 0.  0.
         -6    2    1    2    0  503 -0.77548164642E+01  0.91181788470E+02 -0.56587442820E+03  0.59896165998E+03  0.17368634346E+03 0.  0.
        -24    2    5    5    0    0 -0.24464533793E+02 -0.15999834916E+02 -0.19708765377E+03  0.21452325134E+03  0.79512099482E+02 0.  0.
          5    1    3    3  501    0 -0.23527781972E+02 -0.74445805739E+02 -0.22731447850E+03  0.24039487651E+03  0.47000000000E+01 0. -1.
        -13    1    4    4    0    0 -0.15175830361E+02  0.83895244902E+01 -0.52764001514E+02  0.55540343932E+02  0.00000000000E+00 0.  1.
         14    1    4    4    0    0  0.46458428797E+02 -0.25125507221E+02 -0.79302183342E+03  0.79477877740E+03  0.00000000000E+00 0. -1.
         -5    1    5    5    0  503  0.16709717329E+02  0.10718162339E+03 -0.36878677443E+03  0.38443840864E+03  0.47000000000E+01 0.  1.
         13    1    6    6    0    0 -0.49207048780E+02  0.83969679108E+01 -0.11257977877E+03  0.12315051485E+03  0.00000000000E+00 0. -1.
        -14    1    6    6    0    0  0.24742514986E+02 -0.24396802827E+02 -0.84507875003E+02  0.91372736489E+02  0.00000000000E+00 0.  1.
</event>
<event>
12    1  0.9246030E-003  0.1937810E+03  0.7818608E-02  0.1155657E+00
         21   -1    0    0  503  502  0.00000000000E+00  0.00000000000E+00  0.10219172747E+03  0.10219172747E+03  0.00000000000E+00 0.  1.
         21   -1    0    0  501  503 -0.00000000000E+00 -0.00000000000E+00 -0.46026264600E+03  0.46026264600E+03  0.00000000000E+00 0.  1.
          6    2    1    2  501    0  0.69157723307E+02 -0.52192958871E+02 -0.30761082371E+03  0.36221129169E+03  0.17048667196E+03 0.  0.
         24    2    3    3    0    0  0.17491156876E+02 -0.33046988294E+02 -0.29125225857E+03  0.30454245323E+03  0.80747654414E+02 0.  0.
         -6    2    1    2    0  502 -0.69157723307E+02  0.52192958871E+02 -0.50460094826E+02  0.20024308178E+03  0.17333255604E+03 0.  0.
        -24    2    5    5    0    0  0.17394815667E+02  0.62651955064E+02 -0.49062563752E+02  0.11292312016E+03  0.78209007280E+02 0.  0.
          5    1    3    3  501    0  0.51666566431E+02 -0.19145970576E+02 -0.16358565147E+02  0.57668838464E+02  0.47000000000E+01 0. -1.
        -11    1    4    4    0    0 -0.26903651318E+02 -0.19652127147E+02 -0.19352060093E+03  0.19636760308E+03  0.00000000000E+00 0.  1.
         12    1    4    4    0    0  0.44394808193E+02 -0.13394861147E+02 -0.97731657636E+02  0.10817485015E+03  0.00000000000E+00 0. -1.
         -5    1    5    5    0  502 -0.86552538974E+02 -0.10458996193E+02 -0.13975310736E+01  0.87319961620E+02  0.47000000000E+01 0.  1.
         13    1    6    6    0    0  0.14341748750E+02  0.55574122249E+02 -0.70052683407E+02  0.90562394367E+02  0.00000000000E+00 0. -1.
        -14    1    6    6    0    0  0.30530669167E+01  0.70778328151E+01  0.20990119655E+02  0.22360725795E+02  0.00000000000E+00 0.  1.
</event>
<event>
12    1  0.9246030E-003  0.1796880E+03  0.7818608E-02  0.1169009E+00
         21   -1    0    0  503  502  0.00000000000E+00  0.00000000000E+00  0.41348263480E+03  0.41348263480E+03  0.00000000000E+00 0. -1.
         21   -1    0    0  501  503 -0.00000000000E+00 -0.00000000000E+00 -0.10013802473E+03  0.10013802473E+03  0.00000000000E+00 0. -1.
          6    2    1    2  501    0 -0.24602467155E+02 -0.26233490764E+02  0.33127806628E+02  0.18271628665E+03  0.17605201620E+03 0.  0.
         24    2    3    3    0    0  0.32559852879E+02 -0.14042228394E+02  0.71198206496E+02  0.11280489233E+03  0.79990192698E+02 0.  0.
         -6    2    1    2    0  502  0.24602467155E+02  0.26233490764E+02  0.28021680344E+03  0.33090437287E+03  0.17228688176E+03 0.  0.
        -24    2    5    5    0    0 -0.36930968485E+02  0.29481628357E+02  0.23625363482E+03  0.25506398591E+03  0.83718540941E+02 0.  0.
          5    1    3    3  501    0 -0.57162320035E+02 -0.12191262370E+02 -0.38070399868E+02  0.69911394322E+02  0.47000000000E+01 0. -1.
        -11    1    4    4    0    0  0.47649650757E+02  0.18853211647E+02  0.39627522494E+02  0.64778648841E+02  0.00000000000E+00 0.  1.
         12    1    4    4    0    0 -0.15089797877E+02 -0.32895440041E+02  0.31570684002E+02  0.48026243491E+02  0.00000000000E+00 0. -1.
         -5    1    5    5    0  502  0.61533435641E+02 -0.32481375935E+01  0.43963168622E+02  0.75840386964E+02  0.47000000000E+01 0.  1.
         13    1    6    6    0    0  0.23007864952E+02 -0.90157148253E+01  0.54122912524E+02  0.59497349718E+02  0.00000000000E+00 0. -1.
        -14    1    6    6    0    0 -0.59938833437E+02  0.38497343183E+02  0.18213072230E+03  0.19556663619E+03  0.00000000000E+00 0.  1.
</event>
<event>
12    1  0.9246030E-003  0.1785264E+03  0.7818608E-02  0.1169648E+00
         21   -1    0    0  503  502  0.00000000000E+00  0.00000000000E+00  0.17386315634E+03  0.17386315634E+03  0.00000000000E+00 0. -1.
         21   -1    0    0  501  503 -0.00000000000E+00 -0.00000000000E+00 -0.20489727932E+03  0.20489727932E+03  0.00000000000E+00 0. -1.
          6    2    1    2  501    0  0.25331254637E+02  0.36099031778E+02 -0.79436975763E+02  0.19540194391E+03  0.17299385541E+03 0.  0.
         24    2    3    3    0    0 -0.36987781316E+02  0.46761230400E+02 -0.36768559046E+02  0.11898186470E+03  0.96177172747E+02 0.  0.
         -6    2    1    2    0  502 -0.25331254637E+02 -0.36099031778E+02  0.48402852784E+02  0.18335849176E+03  0.17126788311E+03 0.  0.
        -24    2    5    5    0    0 -0.30904452499E+02 -0.77537370497E+02  0.71561663124E+02  0.13533123963E+03  0.78907184614E+02 0.  0.
          5    1    3    3  501    0  0.62319035953E+02 -0.10662198622E+02 -0.42668416718E+02  0.76420079212E+02  0.47000000000E+01 0. -1.
        -13    1    4    4    0    0  0.31864150777E+01  0.64271789544E+02 -0.38741988590E+02  0.75112967270E+02  0.00000000000E+00 0.  1.
         14    1    4    4    0    0 -0.40174196394E+02 -0.17510559144E+02  0.19734295442E+01  0.43868897429E+02  0.00000000000E+00 0. -1.
         -5    1    5    5    0  502  0.55731978629E+01  0.41438338719E+02 -0.23158810341E+02  0.48027252124E+02  0.47000000000E+01 0.  1.
         13    1    6    6    0    0 -0.49777023224E+02 -0.44292969391E+02  0.17095603498E+02  0.68788653406E+02  0.00000000000E+00 0. -1.
        -14    1    6    6    0    0  0.18872570724E+02 -0.33244401106E+02  0.54466059626E+02  0.66542586227E+02  0.00000000000E+00 0.  1.
</event>
<event>
12    1  0.9246030E-003  0.1960534E+03  0.7818608E-02  0.1154846E+00
         21   -1    0    0  503  502  0.00000000000E+00  0.00000000000E+00  0.14359900631E+03  0.14359900631E+03  0.00000000000E+00 0.  1.
         21   -1    0    0  501  503 -0.00000000000E+00 -0.00000000000E+00 -0.33702945489E+03  0.33702945489E+03  0.00000000000E+00 0.  1.
          6    2    1    2  501    0  0.57723786207E+02  0.73627338348E+02 -0.21224189595E+03  0.28367463866E+03  0.16331459756E+03 0.  0.
         24    2    3    3    0    0  0.54442477772E+02  0.20159031293E+02 -0.20810854672E+03  0.22974133336E+03  0.78112374885E+02 0.  0.
         -6    2    1    2    0  502 -0.57723786207E+02 -0.73627338348E+02  0.18811447361E+02  0.19695382254E+03  0.17229021219E+03 0.  0.
        -24    2    5    5    0    0 -0.12762507846E+02 -0.57582527410E+02 -0.51286301948E+02  0.11201421477E+03  0.80238833954E+02 0.  0.
          5    1    3    3  501    0  0.32813084346E+01  0.53468307055E+02 -0.41333492293E+01  0.53933305296E+02  0.47000000000E+01 0. -1.
        -11    1    4    4    0    0  0.74806300175E+02  0.14776033327E+02 -0.16177992422E+03  0.17884925940E+03  0.00000000000E+00 0.  1.
         12    1    4    4    0    0 -0.20363822403E+02  0.53829979660E+01 -0.46328622496E+02  0.50892073964E+02  0.00000000000E+00 0. -1.
         -5    1    5    5    0  502 -0.44961278360E+02 -0.16044810938E+02  0.70097749310E+02  0.84939607770E+02  0.47000000000E+01 0.  1.
         13    1    6    6    0    0  0.16741109027E+02 -0.32937227981E+02  0.11236400969E+02  0.38618420802E+02  0.00000000000E+00 0. -1.
        -14    1    6    6    0    0 -0.29503616873E+02 -0.24645299429E+02 -0.62522702918E+02  0.73395793971E+02  0.00000000000E+00 0.  1.
</event>
<event>
12    1  0.9246030E-003  0.2178215E+03  0.7818608E-02  0.1135704E+00
         21   -1    0    0  501  502  0.00000000000E+00  0.00000000000E+00  0.11430920500E+03  0.11430920500E+03  0.00000000000E+00 0. -1.
         21   -1    0    0  502  503 -0.00000000000E+00 -0.00000000000E+00 -0.41540677218E+03  0.41540677218E+03  0.00000000000E+00 0. -1.
          6    2    1    2  501    0 -0.86365945845E+02  0.98799150611E+02 -0.16952325295E+03  0.27523999918E+03  0.17262263784E+03 0.  0.
         24    2    3    3    0    0 -0.24394288820E+02 -0.14301169192E+02 -0.46659157432E+02  0.97055138482E+02  0.80268413253E+02 0.  0.
         -6    2    1    2    0  503  0.86365945845E+02 -0.98799150611E+02 -0.13157431423E+03  0.25447597800E+03  0.17385590140E+03 0.  0.
        -24    2    5    5    0    0  0.67275127774E+02 -0.10974780295E+03 -0.35218821161E+02  0.15552748955E+03  0.79861827994E+02 0.  0.
          5    1    3    3  501    0 -0.61971657024E+02  0.11310031980E+03 -0.12286409552E+03  0.17818486070E+03  0.47000000000E+01 0. -1.
        -11    1    4    4    0    0  0.81660238945E+01  0.29233854207E+02 -0.21208541855E+02  0.37028427264E+02  0.00000000000E+00 0.  1.
         12    1    4    4    0    0 -0.32560312715E+02 -0.43535023399E+02 -0.25450615577E+02  0.60026711218E+02  0.00000000000E+00 0. -1.
         -5    1    5    5    0  503  0.19090818070E+02  0.10948652341E+02 -0.96355493068E+02  0.98948488452E+02  0.47000000000E+01 0.  1.
         11    1    6    6    0    0  0.42547962020E+02 -0.80581490438E+02  0.15059751074E+02  0.92360715543E+02  0.00000000000E+00 0. -1.
        -12    1    6    6    0    0  0.24727165754E+02 -0.29166312515E+02 -0.50278572235E+02  0.63166774003E+02  0.00000000000E+00 0.  1.
</event>
<event>
12    1  0.9246030E-003  0.1749636E+03  0.7818608E-02  0.1172818E+00
         21   -1    0    0  503  502  0.00000000000E+00  0.00000000000E+00  0.13074186788E+03  0.13074186788E+03  0.00000000000E+00 0. -1.
         21   -1    0    0  501  503 -0.00000000000E+00 -0.00000000000E+00 -0.26914518468E+03  0.26914518468E+03  0.00000000000E+00 0. -1.
          6    2    1    2  501    0 -0.29360286968E+02 -0.24030299004E+01  0.32069301852E+01  0.17479654337E+03  0.17226649752E+03 0.  0.
         24    2    3    3    0    0  0.98830527971E+01 -0.63231338713E+02 -0.74840708037E+01  0.10147185195E+03  0.78387808331E+02 0.  0.
         -6    2    1    2    0  502  0.29360286968E+02  0.24030299004E+01 -0.14161024698E+03  0.22509050919E+03  0.17246586407E+03 0.  0.
        -24    2    5    5    0    0  0.34920927023E+02  0.56434748885E+02 -0.73693233946E+02  0.13799769643E+03  0.95959988868E+02 0.  0.
          5    1    3    3  501    0 -0.39243339765E+02  0.60828308813E+02  0.10691000989E+02  0.73324691415E+02  0.47000000000E+01 0. -1.
        -13    1    4    4    0    0  0.21448149067E+01  0.55101663566E+00  0.27991184621E+02  0.28078644319E+02  0.00000000000E+00 0.  1.
         14    1    4    4    0    0  0.77382378904E+01 -0.63782355349E+02 -0.35475255424E+02  0.73393207635E+02  0.00000000000E+00 0. -1.
         -5    1    5    5    0  502 -0.55606400553E+01 -0.54031718985E+02 -0.67917013039E+02  0.87092812760E+02  0.47000000000E+01 0.  1.
         13    1    6    6    0    0 -0.18774538275E+01  0.75270639379E+02 -0.49301560537E+02  0.89999099200E+02  0.00000000000E+00 0. -1.
        -14    1    6    6    0    0  0.36798380851E+02 -0.18835890494E+02 -0.24391673408E+02  0.47998597225E+02  0.00000000000E+00 0.  1.
</event>
<event>
12    1  0.9246030E-003  0.1921552E+03  0.7818608E-02  0.1156695E+00
         21   -1    0    0  503  502  0.00000000000E+00  0.00000000000E+00  0.92480715205E+02  0.92480715205E+02  0.00000000000E+00 0.  1.
         21   -1    0    0  501  503 -0.00000000000E+00 -0.00000000000E+00 -0.40377983369E+03  0.40377983369E+03  0.00000000000E+00 0.  1.
          6    2    1    2  501    0 -0.39446397609E+01  0.79981326036E+02 -0.12498908343E+03  0.22861332673E+03  0.17386549251E+03 0.  0.
         24    2    3    3    0    0 -0.60440526033E+02  0.44899255488E+02 -0.91755536667E+02  0.15412107566E+03  0.98311886984E+02 0.  0.
         -6    2    1    2    0  502  0.39446397609E+01 -0.79981326036E+02 -0.18631003505E+03  0.26764722216E+03  0.17467407842E+03 0.  0.
        -24    2    5    5    0    0  0.39192599936E+02 -0.83316633601E+02 -0.19524875701E+03  0.23082964860E+03  0.81746732248E+02 0.  0.
          5    1    3    3  501    0  0.56495886272E+02  0.35082070548E+02 -0.33233546764E+02  0.74492251075E+02  0.47000000000E+01 0. -1.
        -11    1    4    4    0    0 -0.71235878224E+02  0.67724490055E+02 -0.68612394726E+02  0.11987000296E+03  0.00000000000E+00 0.  1.
         12    1    4    4    0    0  0.10795352191E+02 -0.22825234568E+02 -0.23143141941E+02  0.34251072697E+02  0.00000000000E+00 0. -1.
         -5    1    5    5    0  502 -0.35247960175E+02  0.33353075649E+01  0.89387219569E+01  0.36817573566E+02  0.47000000000E+01 0.  1.
         13    1    6    6    0    0  0.39272149533E+02 -0.25570219314E+01 -0.41704448853E+02  0.57341966693E+02  0.00000000000E+00 0. -1.
        -14    1    6    6    0    0 -0.79549596554E-01 -0.80759611669E+02 -0.15354430816E+03  0.17348768191E+03  0.00000000000E+00 0.  1.
</event>
<event>
12    1  0.9246030E-003  0.2673247E+03  0.7818608E-02  0.1104211E+00
         21   -1    0    0  503  502  0.00000000000E+00  0.00000000000E+00  0.37765986270E+02  0.37765986270E+02  0.00000000000E+00 0.  1.
         21   -1    0    0  501  503 -0.00000000000E+00 -0.00000000000E+00 -0.22017006032E+04  0.22017006032E+04  0.00000000000E+00 0. -1.
          6    2    1    2  501    0 -0.91808541300E+01 -0.19245340687E+03 -0.60354309239E+03  0.65634177177E+03  0.17145744401E+03 0.  0.
         24    2    3    3    0    0  0.32644960567E+02 -0.15531357379E+03 -0.55393077292E+03  0.58142689862E+03  0.77652672829E+02 0.  0.
         -6    2    1    2    0  502  0.91808541300E+01  0.19245340687E+03 -0.15603915246E+04  0.15831248177E+04  0.18531021732E+03 0.  0.
        -24    2    5    5    0    0  0.33476389166E+02  0.15268718851E+03 -0.70544042566E+03  0.72689173224E+03  0.79318031245E+02 0.  0.
          5    1    3    3  501    0 -0.41825814697E+02 -0.37139833083E+02 -0.49612319465E+02  0.74914873151E+02  0.47000000000E+01 0. -1.
        -11    1    4    4    0    0  0.41555009801E-01 -0.79235415568E+02 -0.38788298098E+03  0.39589324285E+03  0.00000000000E+00 0.  1.
         12    1    4    4    0    0  0.32603405558E+02 -0.76078158221E+02 -0.16604779195E+03  0.18553365577E+03  0.00000000000E+00 0. -1.
         -5    1    5    5    0  502 -0.24295535036E+02  0.39766218367E+02 -0.85495109890E+03  0.85623308547E+03  0.47000000000E+01 0.  1.
         13    1    6    6    0    0  0.18402743061E+02  0.13451744365E+02 -0.23349437720E+03  0.23460442145E+03  0.00000000000E+00 0. -1.
        -14    1    6    6    0    0  0.15073646105E+02  0.13923544414E+03 -0.47194604846E+03  0.49228731079E+03  0.00000000000E+00 0.  1.
</event>
<event>
12    1  0.9246030E-003  0.2114975E+03  0.7818608E-02  0.1140665E+00
         21   -1    0    0  503  502  0.00000000000E+00  0.00000000000E+00  0.23829226210E+03  0.23829226210E+03  0.00000000000E+00 0.  1.
         21   -1    0    0  501  503 -0.00000000000E+00 -0.00000000000E+00 -0.20379950504E+03  0.20379950504E+03  0.00000000000E+00 0.  1.
          6    2    1    2  501    0 -0.10180806100E+03  0.67727436569E+02  0.81775360870E+02  0.22675623705E+03  0.17256678257E+03 0.  0.
         24    2    3    3    0    0 -0.11737897391E+03  0.48139057746E+02  0.90157419624E+01  0.14967050518E+03  0.78897301097E+02 0.  0.
         -6    2    1    2    0  502  0.10180806100E+03 -0.67727436569E+02 -0.47282603800E+02  0.21533553009E+03  0.17082698542E+03 0.  0.
        -24    2    5    5    0    0  0.73664674809E+02  0.89123012474E+01  0.23949860960E+02  0.10688345019E+03  0.73106515828E+02 0.  0.
          5    1    3    3  501    0  0.15570912911E+02  0.19588378823E+02  0.72759618908E+02  0.77085731867E+02  0.47000000000E+01 0. -1.
        -13    1    4    4    0    0 -0.93114257818E+02  0.36356107082E+02  0.40814791568E+02  0.10797165712E+03  0.00000000000E+00 0.  1.
         14    1    4    4    0    0 -0.24264716096E+02  0.11782950664E+02 -0.31799049606E+02  0.41698848058E+02  0.00000000000E+00 0. -1.
         -5    1    5    5    0  502  0.28143386193E+02 -0.76639737816E+02 -0.71232464761E+02  0.10845207990E+03  0.47000000000E+01 0.  1.
         13    1    6    6    0    0  0.11376740271E+02 -0.29061461760E+02  0.66492257228E+01  0.31909418383E+02  0.00000000000E+00 0. -1.
        -14    1    6    6    0    0  0.62287934538E+02  0.37973763008E+02  0.17300635237E+02  0.74974031808E+02  0.00000000000E+00 0.  1.
</event>
<event>
12    1  0.9246030E-003  0.2329814E+03  0.7818608E-02  0.1124591E+00
         21   -1    0    0  503  502  0.00000000000E+00  0.00000000000E+00  0.16053010146E+03  0.16053010146E+03  0.00000000000E+00 0.  1.
         21   -1    0    0  501  503 -0.00000000000E+00 -0.00000000000E+00 -0.38974618327E+03  0.38974618327E+03  0.00000000000E+00 0. -1.
          6    2    1    2  501    0 -0.15183113054E+02 -0.15600398269E+03 -0.21503755125E+03  0.31705123662E+03  0.17237334091E+03 0.  0.
         24    2    3    3    0    0  0.21472480185E+02 -0.87857746746E+01 -0.75672544756E+02  0.11098928399E+03  0.77807646726E+02 0.  0.
         -6    2    1    2    0  502  0.15183113054E+02  0.15600398269E+03 -0.14178530571E+02  0.23322504811E+03  0.17211950151E+03 0.  0.
        -24    2    5    5    0    0  0.73750815709E+02  0.73089139127E+02 -0.17646467649E+02  0.13154337000E+03  0.78810248658E+02 0.  0.
          5    1    3    3  501    0 -0.36655593238E+02 -0.14721820801E+03 -0.13936500649E+03  0.20606195263E+03  0.47000000000E+01 0. -1.
        -13    1    4    4    0    0  0.88457924911E+01  0.68327896824E+01  0.14668987359E+02  0.18442186686E+02  0.00000000000E+00 0.  1.
         14    1    4    4    0    0  0.12626687694E+02 -0.15618564357E+02 -0.90341532115E+02  0.92547097305E+02  0.00000000000E+00 0. -1.
         -5    1    5    5    0  502 -0.58567702655E+02  0.82914843559E+02  0.34679370775E+01  0.10168167812E+03  0.47000000000E+01 0.  1.
         13    1    6    6    0    0  0.19532782092E+02 -0.16289434187E+02 -0.74888968575E+01  0.26513370562E+02  0.00000000000E+00 0. -1.
        -14    1    6    6    0    0  0.54218033616E+02  0.89378573314E+02 -0.10157570791E+02  0.10502999943E+03  0.00000000000E+00 0.  1.
</event>
<event>
12    1  0.9246030E-003  0.2428207E+03  0.7818608E-02  0.1117945E+00
         21   -1    0    0  501  502  0.00000000000E+00  0.00000000000E+00  0.24874900529E+03  0.24874900529E+03  0.00000000000E+00 0.  1.
         21   -1    0    0  502  503 -0.00000000000E+00 -0.00000000000E+00 -0.23697660685E+03  0.23697660685E+03  0.00000000000E+00 0.  1.
          6    2    1    2  501    0 -0.14800402946E+03 -0.88325273836E+02  0.26653753667E+01  0.24283530353E+03  0.17104190621E+03 0.  0.
         24    2    3    3    0    0 -0.17036826451E+03 -0.86359024483E+02 -0.23238229541E+02  0.20823599872E+03  0.79617769304E+02 0.  0.
         -6    2    1    2    0  503  0.14800402946E+03  0.88325273836E+02  0.91070230727E+01  0.24289030862E+03  0.17089826628E+03 0.  0.
        -24    2    5    5    0    0  0.15887797692E+03  0.97223294881E+02  0.42875630388E+02  0.20601448521E+03  0.76870461302E+02 0.  0.
          5    1    3    3  501    0  0.22364235050E+02 -0.19662493529E+01  0.25903604907E+02  0.34599304806E+02  0.47000000000E+01 0. -1.
        -13    1    4    4    0    0 -0.94240260527E+02 -0.86754609806E+02  0.17707984792E+01  0.12810435103E+03  0.00000000000E+00 0.  1.
         14    1    4    4    0    0 -0.76128003985E+02  0.39558532359E+00 -0.25009028020E+02  0.80131647686E+02  0.00000000000E+00 0. -1.
         -5    1    5    5    0  503 -0.10873947454E+02 -0.88980210455E+01 -0.33768607316E+02  0.36875823405E+02  0.47000000000E+01 0.  1.
         11    1    6    6    0    0  0.31207318341E+02  0.54565048732E+02 -0.52108747953E+01  0.63074515276E+02  0.00000000000E+00 0. -1.
        -12    1    6    6    0    0  0.12767065857E+03  0.42658246150E+02  0.48086505183E+02  0.14293996994E+03  0.00000000000E+00 0.  1.
</event>
<event>
12    1  0.9246030E-003  0.2017878E+03  0.7818608E-02  0.1148274E+00
         21   -1    0    0  503  502  0.00000000000E+00  0.00000000000E+00  0.38292228445E+03  0.38292228445E+03  0.00000000000E+00 0. -1.
         21   -1    0    0  501  503 -0.00000000000E+00 -0.00000000000E+00 -0.38374651484E+03  0.38374651484E+03  0.00000000000E+00 0. -1.
          6    2    1    2  501    0 -0.43470532681E+02  0.95470695200E+02 -0.32638782890E+03  0.38364143802E+03  0.17218419572E+03 0.  0.
         24    2    3    3    0    0 -0.15281905378E+01 -0.19018871641E+02 -0.13160766625E+03  0.15379709342E+03  0.77258755395E+02 0.  0.
         -6    2    1    2    0  502  0.43470532681E+02 -0.95470695200E+02  0.32556359851E+03  0.38302736127E+03  0.17237738238E+03 0.  0.
        -24    2    5    5    0    0  0.61002350050E+02 -0.84134540689E+02  0.33239397931E+03  0.36056367677E+03  0.93383616746E+02 0.  0.
          5    1    3    3  501    0 -0.41942342143E+02  0.11448956684E+03 -0.19478016265E+03  0.22984434460E+03  0.47000000000E+01 0. -1.
        -11    1    4    4    0    0 -0.31504988070E+02 -0.17760884587E+01 -0.10646025288E+03  0.11103830063E+03  0.00000000000E+00 0.  1.
         12    1    4    4    0    0  0.29976797532E+02 -0.17242783182E+02 -0.25147413374E+02  0.42758792798E+02  0.00000000000E+00 0. -1.
         -5    1    5    5    0  502 -0.17531817370E+02 -0.11336154511E+02 -0.68303808019E+01  0.22463684499E+02  0.47000000000E+01 0.  1.
         11    1    6    6    0    0  0.48736555839E+02 -0.11275692150E+02  0.58952107129E+02  0.77315871872E+02  0.00000000000E+00 0. -1.
        -12    1    6    6    0    0  0.12265794212E+02 -0.72858848539E+02  0.27344187218E+03  0.28324780490E+03  0.00000000000E+00 0.  1.
</event>
<event>
12    1  0.9246030E-003  0.1794354E+03  0.7818608E-02  0.1168449E+00
         21   -1    0    0  503  502  0.00000000000E+00  0.00000000000E+00  0.58613651387E+03  0.58613651387E+03  0.00000000000E+00 0. -1.
         21   -1    0    0  501  503 -0.00000000000E+00 -0.00000000000E+00 -0.59461586354E+02  0.59461586354E+02  0.00000000000E+00 0. -1.
          6    2    1    2  501    0 -0.43197486590E+02  0.25798361879E+02  0.35391731224E+03  0.39680538874E+03  0.17223668106E+03 0.  0.
         24    2    3    3    0    0 -0.60873233538E+02  0.58146244707E+02  0.14976150968E+03  0.18929514978E+03  0.79483379469E+02 0.  0.
         -6    2    1    2    0  502  0.43197486590E+02 -0.25798361879E+02  0.17275761527E+03  0.24879271149E+03  0.17181688314E+03 0.  0.
        -24    2    5    5    0    0 -0.39370396117E+02 -0.22388722475E+02  0.12090291673E+03  0.15111937502E+03  0.78538317067E+02 0.  0.
          5    1    3    3  501    0  0.17675746949E+02 -0.32347882828E+02  0.20415580256E+03  0.20751023896E+03  0.47000000000E+01 0. -1.
        -11    1    4    4    0    0 -0.13134982858E+02  0.29756378042E+02  0.33451929661E+01  0.32698014081E+02  0.00000000000E+00 0.  1.
         12    1    4    4    0    0 -0.47738250680E+02  0.28389866665E+02  0.14641631672E+03  0.15659713570E+03  0.00000000000E+00 0. -1.
         -5    1    5    5    0  502  0.82567882707E+02 -0.34096394033E+01  0.51854698537E+02  0.97673336464E+02  0.47000000000E+01 0.  1.
         11    1    6    6    0    0 -0.32439930288E+00 -0.45336281694E+02  0.62562406243E+02  0.77262787599E+02  0.00000000000E+00 0. -1.
        -12    1    6    6    0    0 -0.39045996814E+02  0.22947559218E+02  0.58340510491E+02  0.73856587422E+02  0.00000000000E+00 0.  1.
</event>
<event>
12    1  0.9246030E-003  0.1759568E+03  0.7818608E-02  0.1171859E+00
         21   -1    0    0  501  502  0.00000000000E+00  0.00000000000E+00  0.19911404571E+03  0.19911404571E+03  0.00000000000E+00 0.  1.
         21   -1    0    0  502  503 -0.00000000000E+00 -0.00000000000E+00 -0.15907476245E+03  0.15907476245E+03  0.00000000000E+00 0. -1.
          6    2    1    2  501    0 -0.44461245112E+02  0.88632718091E+01  0.48008669226E+02  0.18238863268E+03  0.17001594368E+03 0.  0.
         24    2    3    3    0    0  0.22480067390E+02 -0.29429519087E+02  0.57294707152E+02  0.10456962694E+03  0.79250699599E+02 0.  0.
         -6    2    1    2    0  503  0.44461245112E+02 -0.88632718091E+01 -0.79693859621E+01  0.17580017548E+03  0.16966682258E+03 0.  0.
        -24    2    5    5    0    0  0.21670541547E+02 -0.23589985552E+02 -0.68270058091E+02  0.10950874824E+03  0.79405700805E+02 0.  0.
          5    1    3    3  501    0 -0.66941312502E+02  0.38292790896E+02 -0.92860379261E+01  0.77819005740E+02  0.47000000000E+01 0. -1.
        -11    1    4    4    0    0 -0.16083054276E+02  0.16569329553E+02  0.23781975732E+01  0.23213425865E+02  0.00000000000E+00 0.  1.
         12    1    4    4    0    0  0.38563121666E+02 -0.45998848640E+02  0.54916509579E+02  0.81356201074E+02  0.00000000000E+00 0. -1.
         -5    1    5    5    0  503  0.22790703565E+02  0.14726713743E+02  0.60300672129E+02  0.66291427243E+02  0.47000000000E+01 0.  1.
         13    1    6    6    0    0  0.15635497238E+02 -0.43758009515E+02 -0.99710198366E+01  0.47525292289E+02  0.00000000000E+00 0. -1.
        -14    1    6    6    0    0  0.60350443089E+01  0.20168023963E+02 -0.58299038255E+02  0.61983455953E+02  0.00000000000E+00 0.  1.
</event>
<event>
12    1  0.9246030E-003  0.1830514E+03  0.7818608E-02  0.1165976E+00
         21   -1    0    0  501  502  0.00000000000E+00  0.00000000000E+00  0.16476391594E+04  0.16476391594E+04  0.00000000000E+00 0. -1.
         21   -1    0    0  502  503 -0.00000000000E+00 -0.00000000000E+00 -0.25604155580E+02  0.25604155580E+02  0.00000000000E+00 0. -1.
          6    2    1    2  501    0  0.44478928183E+02  0.22251494039E+02  0.12160887641E+04  0.12297884796E+04  0.17616559883E+03 0.  0.
         24    2    3    3    0    0  0.30028420485E+02 -0.54370649134E+02  0.81061103416E+03  0.81685501097E+03  0.79397649271E+02 0.  0.
         -6    2    1    2    0  503 -0.44478928183E+02 -0.22251494039E+02  0.40594623965E+03  0.44345483537E+03  0.17142443666E+03 0.  0.
        -24    2    5    5    0    0 -0.66984562615E+02  0.15020215018E+02  0.15026429193E+03  0.18404968455E+03  0.81131932477E+02 0.  0.
          5    1    3    3  501    0  0.14450507698E+02  0.76622143172E+02  0.40547772996E+03  0.41293346860E+03  0.47000000000E+01 0. -1.
        -11    1    4    4    0    0  0.23207860132E+00 -0.28318542754E+02  0.74819074229E+02  0.79999297451E+02  0.00000000000E+00 0.  1.
         12    1    4    4    0    0  0.29796341883E+02 -0.26052106380E+02  0.73579195994E+03  0.73685571352E+03  0.00000000000E+00 0. -1.
         -5    1    5    5    0  503  0.22505634433E+02 -0.37271709057E+02  0.25568194773E+03  0.25940515082E+03  0.47000000000E+01 0.  1.
         13    1    6    6    0    0 -0.78457051072E+02 -0.48054449216E+01  0.13595249647E+03  0.15704038481E+03  0.00000000000E+00 0. -1.
        -14    1    6    6    0    0  0.11472488457E+02  0.19825659940E+02  0.14311795453E+02  0.27009299742E+02  0.00000000000E+00 0.  1.
</event>
<event>
12    1  0.9246030E-003  0.2883504E+03  0.7818608E-02  0.1091341E+00
         21   -1    0    0  503  502  0.00000000000E+00  0.00000000000E+00  0.33298349119E+03  0.33298349119E+03  0.00000000000E+00 0. -1.
         21   -1    0    0  501  503 -0.00000000000E+00 -0.00000000000E+00 -0.24886067469E+03  0.24886067469E+03  0.00000000000E+00 0.  1.
          6    2    1    2  501    0  0.73806545499E+02 -0.21765842965E+03  0.42245334749E+02  0.29142853941E+03  0.17413594436E+03 0.  0.
         24    2    3    3    0    0  0.55034709208E+02 -0.20691674485E+03  0.84635794179E+02  0.24360797186E+03  0.79613238718E+02 0.  0.
         -6    2    1    2    0  502 -0.73806545499E+02  0.21765842965E+03  0.41877481753E+02  0.29041562647E+03  0.17252511257E+03 0.  0.
        -24    2    5    5    0    0 -0.44826207603E+02  0.23421024416E+03  0.48337334355E+02  0.25609883403E+03  0.79914251185E+02 0.  0.
          5    1    3    3  501    0  0.18771836291E+02 -0.10741684797E+02 -0.42390459430E+02  0.47820567549E+02  0.47000000000E+01 0. -1.
        -13    1    4    4    0    0  0.55385318724E+02 -0.11801947541E+03  0.83281855438E+02  0.15469970120E+03  0.00000000000E+00 0.  1.
         14    1    4    4    0    0 -0.35060951631E+00 -0.88897269443E+02  0.13539387405E+01  0.88908270659E+02  0.00000000000E+00 0. -1.
         -5    1    5    5    0  502 -0.28980337897E+02 -0.16551814510E+02 -0.64598526018E+01  0.34316792447E+02  0.47000000000E+01 0.  1.
         13    1    6    6    0    0 -0.61349377790E+02  0.12073123056E+03  0.39577197639E+02  0.14108908803E+03  0.00000000000E+00 0. -1.
        -14    1    6    6    0    0  0.16523170187E+02  0.11347901359E+03  0.87601367153E+01  0.11500974600E+03  0.00000000000E+00 0.  1.
</event>
<event>
12    1  0.9246030E-003  0.2066956E+03  0.7818608E-02  0.1144702E+00
         21   -1    0    0  503  502  0.00000000000E+00  0.00000000000E+00  0.53080899020E+02  0.53080899020E+02  0.00000000000E+00 0.  1.
         21   -1    0    0  501  503 -0.00000000000E+00 -0.00000000000E+00 -0.83150622010E+03  0.83150622010E+03  0.00000000000E+00 0. -1.
          6    2    1    2  501    0  0.10815317502E+03  0.25651468099E+02 -0.47908960247E+03  0.52082214790E+03  0.17138773432E+03 0.  0.
         24    2    3    3    0    0  0.96711146664E+02 -0.13537481919E+02 -0.18060145512E+03  0.21951838436E+03  0.77686074539E+02 0.  0.
         -6    2    1    2    0  502 -0.10815317502E+03 -0.25651468099E+02 -0.29933571861E+03  0.36376497122E+03  0.17426409487E+03 0.  0.
        -24    2    5    5    0    0 -0.53827665192E+01 -0.56909299142E+02 -0.11505023292E+03  0.15040602694E+03  0.78216202545E+02 0.  0.
          5    1    3    3  501    0  0.11442028356E+02  0.39188950018E+02 -0.29848814735E+03  0.30130376354E+03  0.47000000000E+01 0. -1.
        -13    1    4    4    0    0  0.10152790486E+03 -0.28593194355E+02 -0.17132276798E+03  0.20118890888E+03  0.00000000000E+00 0.  1.
         14    1    4    4    0    0 -0.48167581950E+01  0.15055712435E+02 -0.92786871357E+01  0.18329475481E+02  0.00000000000E+00 0. -1.
         -5    1    5    5    0  502 -0.10277040850E+03  0.31257831043E+02 -0.18428548570E+03  0.21335894428E+03  0.47000000000E+01 0.  1.
         11    1    6    6    0    0 -0.39147051132E+02 -0.31391614577E+02 -0.84255414597E+02  0.98065794072E+02  0.00000000000E+00 0. -1.
        -12    1    6    6    0    0  0.33764284613E+02 -0.25517684565E+02 -0.30794818321E+02  0.52340232866E+02  0.00000000000E+00 0.  1.
</event>
<event>
12    1  0.9246030E-003  0.1963000E+03  0.7818608E-02  0.1155285E+00
         21   -1    0    0  501  502  0.00000000000E+00  0.00000000000E+00  0.28141029166E+03  0.28141029166E+03  0.00000000000E+00 0.  1.
         21   -1    0    0  502  503 -0.00000000000E+00 -0.00000000000E+00 -0.13455592367E+03  0.13455592367E+03  0.00000000000E+00 0.  1.
          6    2    1    2  501    0  0.60559186400E+02 -0.74016275027E+02  0.11151035048E+03  0.21650969323E+03  0.15904736707E+03 0.  0.
         24    2    3    3    0    0  0.93060229917E+02 -0.43621013683E+02  0.11208214858E+03  0.17175919943E+03  0.79848702768E+02 0.  0.
         -6    2    1    2    0  503 -0.60559186400E+02  0.74016275027E+02  0.35344017506E+02  0.19945652210E+03  0.17142893749E+03 0.  0.
        -24    2    5    5    0    0 -0.77930674694E+02  0.49464539965E+02  0.80260425646E+02  0.14519668409E+03  0.78233051678E+02 0.  0.
          5    1    3    3  501    0 -0.32501043517E+02 -0.30395261344E+02 -0.57179809505E+00  0.44750493796E+02  0.47000000000E+01 0. -1.
        -11    1    4    4    0    0  0.66802711860E+02 -0.61719668309E+02  0.54759631234E+02  0.10616278529E+03  0.00000000000E+00 0.  1.
         12    1    4    4    0    0  0.26257518057E+02  0.18098654626E+02  0.57322517343E+02  0.65596414142E+02  0.00000000000E+00 0. -1.
         -5    1    5    5    0  503  0.17371488294E+02  0.24551735063E+02 -0.44916408140E+02  0.54259838005E+02  0.47000000000E+01 0.  1.
         13    1    6    6    0    0  0.12057478284E+02 -0.55204369364E+01  0.19210270055E+02  0.23342932166E+02  0.00000000000E+00 0. -1.
        -14    1    6    6    0    0 -0.89988152978E+02  0.54984976901E+02  0.61050155591E+02  0.12185375193E+03  0.00000000000E+00 0.  1.
</event>
<event>
12    1  0.9246030E-003  0.2151743E+03  0.7818608E-02  0.1137551E+00
         21   -1    0    0  501  502  0.00000000000E+00  0.00000000000E+00  0.64641641560E+03  0.64641641560E+03  0.00000000000E+00 0.  1.
         21   -1    0    0  502  503 -0.00000000000E+00 -0.00000000000E+00 -0.27147852316E+03  0.27147852316E+03  0.00000000000E+00 0. -1.
          6    2    1    2  501    0 -0.82731415732E+02  0.10127996426E+03  0.58126579243E+03  0.61978226440E+03  0.17075718289E+03 0.  0.
         24    2    3    3    0    0 -0.48263036486E+02  0.76397562570E+02  0.55813034100E+03  0.57115570587E+03  0.80891622238E+02 0.  0.
         -6    2    1    2    0  503  0.82731415732E+02 -0.10127996426E+03 -0.20632789999E+03  0.29811267435E+03  0.17087377208E+03 0.  0.
        -24    2    5    5    0    0 -0.10728825925E+02 -0.86931711272E+02 -0.85998824437E+02  0.14500530824E+03  0.77191395137E+02 0.  0.
          5    1    3    3  501    0 -0.34468379247E+02  0.24882401690E+02  0.23135451435E+02  0.48626558534E+02  0.47000000000E+01 0. -1.
        -13    1    4    4    0    0 -0.22964453238E+02  0.77270231769E+02  0.26639448841E+03  0.27832369336E+03  0.00000000000E+00 0.  1.
         14    1    4    4    0    0 -0.25298583247E+02 -0.87266919942E+00  0.29173585258E+03  0.29283201251E+03  0.00000000000E+00 0. -1.
         -5    1    5    5    0  503  0.93460241657E+02 -0.14348252989E+02 -0.12032907555E+03  0.15310736611E+03  0.47000000000E+01 0.  1.
         11    1    6    6    0    0  0.26989993470E+02 -0.47062597263E+02 -0.68535973782E+02  0.87410111034E+02  0.00000000000E+00 0. -1.
        -12    1    6    6    0    0 -0.37718819395E+02 -0.39869114008E+02 -0.17462850655E+02  0.57595197208E+02  0.00000000000E+00 0.  1.
</event>
<event>
12    1  0.9246030E-003  0.1913878E+03  0.7818608E-02  0.1157492E+00
         21   -1    0    0  503  502  0.00000000000E+00  0.00000000000E+00  0.65061538015E+03  0.65061538015E+03  0.00000000000E+00 0.  1.
         21   -1    0    0  501  503 -0.00000000000E+00 -0.00000000000E+00 -0.56687577293E+02  0.56687577293E+02  0.00000000000E+00 0.  1.
          6    2    1    2  501    0 -0.78745404204E+02  0.19170560852E+02  0.25721082214E+03  0.32060363033E+03  0.17338088612E+03 0.  0.
         24    2    3    3    0    0 -0.35518829635E+02  0.77313734145E+02  0.18684538284E+03  0.21949700149E+03  0.77644934325E+02 0.  0.
         -6    2    1    2    0  502  0.78745404204E+02 -0.19170560852E+02  0.33671698072E+03  0.38669932711E+03  0.17201655558E+03 0.  0.
        -24    2    5    5    0    0  0.10353308778E+03  0.12672544122E+02  0.16825500672E+03  0.21340784066E+03  0.79708628950E+02 0.  0.
          5    1    3    3  501    0 -0.43226574569E+02 -0.58143173293E+02  0.70365439292E+02  0.10110662884E+03  0.47000000000E+01 0. -1.
        -11    1    4    4    0    0 -0.13667826798E+02  0.41881239999E+01 -0.32439831871E+01  0.14658557191E+02  0.00000000000E+00 0.  1.
         12    1    4    4    0    0 -0.21851002837E+02  0.73125610145E+02  0.19008936603E+03  0.20483844430E+03  0.00000000000E+00 0. -1.
         -5    1    5    5    0  502 -0.24787683577E+02 -0.31843104974E+02  0.16846197401E+03  0.17329148645E+03  0.47000000000E+01 0.  1.
         13    1    6    6    0    0  0.30092682278E+02  0.27327774268E+02  0.15911408069E+02  0.43652602212E+02  0.00000000000E+00 0. -1.
        -14    1    6    6    0    0  0.73440405503E+02 -0.14655230146E+02  0.15234359865E+03  0.16975523845E+03  0.00000000000E+00 0.  1.
</event>
<event>
12    1  0.9246030E-003  0.2005672E+03  0.7818608E-02  0.1149471E+00
         21   -1    0    0  501  502  0.00000000000E+00  0.00000000000E+00  0.30723876680E+02  0.30723876680E+02  0.00000000000E+00 0. -1.
         21   -1    0    0  502  503 -0.00000000000E+00 -0.00000000000E+00 -0.16699417164E+04  0.16699417164E+04  0.00000000000E+00 0.  1.
          6    2    1    2  501    0  0.96128575976E+02 -0.33086255750E+02 -0.42250358911E+03  0.46769273149E+03  0.17289246613E+03 0.  0.
         24    2    3    3    0    0  0.89686922126E+02 -0.80321677333E+02 -0.24468144797E+03  0.28353116157E+03  0.77624691636E+02 0.  0.
         -6    2    1    2    0  503 -0.96128575976E+02  0.33086255750E+02 -0.12167142506E+04  0.12329728616E+04  0.17173557095E+03 0.  0.
        -24    2    5    5    0    0 -0.18075353280E+02  0.37699590954E+02 -0.32026091803E+03  0.33310384005E+03  0.81505429764E+02 0.  0.
          5    1    3    3  501    0  0.64416538498E+01  0.47235421583E+02 -0.17782214114E+03  0.18416156992E+03  0.47000000000E+01 0. -1.
        -13    1    4    4    0    0  0.51554029932E+02  0.19259714571E+01 -0.73092647633E+02  0.89465426318E+02  0.00000000000E+00 0.  1.
         14    1    4    4    0    0  0.38132892194E+02 -0.82247648790E+02 -0.17158880033E+03  0.19406573525E+03  0.00000000000E+00 0. -1.
         -5    1    5    5    0  503 -0.78053222695E+02 -0.46133352042E+01 -0.89645333258E+03  0.89986902155E+03  0.47000000000E+01 0.  1.
         13    1    6    6    0    0 -0.33527925049E+02  0.21071659299E+02 -0.30022897702E+03  0.30282928396E+03  0.00000000000E+00 0. -1.
        -14    1    6    6    0    0  0.15452571769E+02  0.16627931656E+02 -0.20031941017E+02  0.30274556088E+02  0.00000000000E+00 0.  1.
</event>
<event>
12    1  0.9246030E-003  0.1981255E+03  0.7818608E-02  0.1151522E+00
         21   -1    0    0  501  502  0.00000000000E+00  0.00000000000E+00  0.37478312328E+02  0.37478312328E+02  0.00000000000E+00 0. -1.
         21   -1    0    0  502  503 -0.00000000000E+00 -0.00000000000E+00 -0.11507130433E+04  0.11507130433E+04  0.00000000000E+00 0. -1.
          6    2    1    2  501    0  0.41695083495E+02  0.88384993977E+02 -0.73753418932E+03  0.76345071768E+03  0.17131821491E+03 0.  0.
         24    2    3    3    0    0  0.64843232840E+02  0.21817373647E+02 -0.25602157921E+03  0.27678495087E+03  0.79888781224E+02 0.  0.
         -6    2    1    2    0  503 -0.41695083495E+02 -0.88384993977E+02 -0.37570054167E+03  0.42474063797E+03  0.17234652704E+03 0.  0.
        -24    2    5    5    0    0  0.71574133014E+00 -0.10614580240E+01 -0.26888357965E+03  0.28032446377E+03  0.79257722697E+02 0.  0.
          5    1    3    3  501    0 -0.23148149345E+02  0.66567620330E+02 -0.48151261011E+03  0.48666576681E+03  0.47000000000E+01 0. -1.
        -11    1    4    4    0    0  0.24825316784E+02  0.47445057243E+02 -0.17331400891E+03  0.18139756198E+03  0.00000000000E+00 0.  1.
         12    1    4    4    0    0  0.40017916056E+02 -0.25627683596E+02 -0.82707570307E+02  0.95387388884E+02  0.00000000000E+00 0. -1.
         -5    1    5    5    0  503 -0.42410824825E+02 -0.87323535953E+02 -0.10681696202E+03  0.14441617420E+03  0.47000000000E+01 0.  1.
         11    1    6    6    0    0 -0.73055258067E+01  0.40028568136E+00  0.32947018961E+01  0.80240885167E+01  0.00000000000E+00 0. -1.
        -12    1    6    6    0    0  0.80212671369E+01 -0.14617437054E+01 -0.27217828154E+03  0.27230037526E+03  0.00000000000E+00 0.  1.
</event>
<event>
12    1  0.9246030E-003  0.1905193E+03  0.7818608E-02  0.1158095E+00
         21   -1    0    0  501  502  0.00000000000E+00  0.00000000000E+00  0.72901882719E+03  0.72901882719E+03  0.00000000000E+00 0.  1.
         21   -1    0    0  502  503 -0.00000000000E+00 -0.00000000000E+00 -0.62476746827E+02  0.62476746827E+02  0.00000000000E+00 0.  1.
          6    2    1    2  501    0 -0.18057960798E+02 -0.79975111114E+02  0.51212020925E+03  0.54625337852E+03  0.17147459427E+03 0.  0.
         24    2    3    3    0    0 -0.99934114302E+01 -0.11273385071E+03  0.26469470706E+03  0.29649421231E+03  0.70969998001E+02 0.  0.
         -6    2    1    2    0  503  0.18057960798E+02  0.79975111114E+02  0.15442187112E+03  0.24524219550E+03  0.17197532331E+03 0.  0.
        -24    2    5    5    0    0  0.80452114045E+01  0.12166971477E+03  0.87652360826E+02  0.16575035548E+03  0.70156960205E+02 0.  0.
          5    1    3    3  501    0 -0.80645493677E+01  0.32758739598E+02  0.24742550219E+03  0.24975916621E+03  0.47000000000E+01 0. -1.
        -11    1    4    4    0    0  0.22961632594E+02 -0.23309742155E+02  0.11033336671E+03  0.11508272008E+03  0.00000000000E+00 0.  1.
         12    1    4    4    0    0 -0.32955044024E+02 -0.89424108556E+02  0.15436134035E+03  0.18141149223E+03  0.00000000000E+00 0. -1.
         -5    1    5    5    0  503  0.10012749393E+02 -0.41694603657E+02  0.66769510292E+02  0.79491840016E+02  0.47000000000E+01 0.  1.
         11    1    6    6    0    0 -0.16937347655E+02  0.39101432710E+01  0.97241993434E+00  0.17410013397E+02  0.00000000000E+00 0. -1.
        -12    1    6    6    0    0  0.24982559059E+02  0.11775957150E+03  0.86679940892E+02  0.14834034208E+03  0.00000000000E+00 0.  1.
</event>
<event>
12    1  0.9246030E-003  0.1820806E+03  0.7818608E-02  0.1166377E+00
         21   -1    0    0  501  502  0.00000000000E+00  0.00000000000E+00  0.80799475960E+03  0.80799475960E+03  0.00000000000E+00 0.  1.
         21   -1    0    0  502  503 -0.00000000000E+00 -0.00000000000E+00 -0.42644766868E+02  0.42644766868E+02  0.00000000000E+00 0. -1.
          6    2    1    2  501    0 -0.55928871279E+01  0.54716574630E+02  0.28481870037E+03  0.33676827071E+03  0.17107306084E+03 0.  0.
         24    2    3    3    0    0  0.27483549530E+02  0.11773479789E+02  0.26139646051E+03  0.27753271233E+03  0.88330835620E+02 0.  0.
         -6    2    1    2    0  503  0.55928871279E+01 -0.54716574630E+02  0.48053129235E+03  0.51387125576E+03  0.17357465436E+03 0.  0.
        -24    2    5    5    0    0  0.45414134937E+02  0.14612014928E+02  0.35265880646E+03  0.36298836158E+03  0.71528751115E+02 0.  0.
          5    1    3    3  501    0 -0.33076436658E+02  0.42943094841E+02  0.23422239861E+02  0.59235558380E+02  0.47000000000E+01 0. -1.
        -13    1    4    4    0    0  0.11003767766E+02 -0.29209580711E+02  0.19690738745E+03  0.19936599947E+03  0.00000000000E+00 0.  1.
         14    1    4    4    0    0  0.16479781764E+02  0.40983060500E+02  0.64489073061E+02  0.78166712859E+02  0.00000000000E+00 0. -1.
         -5    1    5    5    0  503 -0.39821247810E+02 -0.69328589558E+02  0.12787248590E+03  0.15088289418E+03  0.47000000000E+01 0.  1.
         13    1    6    6    0    0  0.63954392959E+02  0.19396200093E+02  0.27428635176E+03  0.28231078569E+03  0.00000000000E+00 0. -1.
        -14    1    6    6    0    0 -0.18540258022E+02 -0.47841851648E+01  0.78372454698E+02  0.80677575884E+02  0.00000000000E+00 0.  1.
</event>
<event>
12    1  0.9246030E-003  0.2042804E+03  0.7818608E-02  0.1146337E+00
         21   -1    0    0  503  502  0.00000000000E+00  0.00000000000E+00  0.48599687375E+03  0.48599687375E+03  0.00000000000E+00 0. -1.
         21   -1    0    0  501  503 -0.00000000000E+00 -0.00000000000E+00 -0.11293209213E+03  0.11293209213E+03  0.00000000000E+00 0.  1.
          6    2    1    2  501    0 -0.11018730887E+03  0.85160699097E+00  0.39313179952E+02  0.20802885245E+03  0.17201310724E+03 0.  0.
         24    2    3    3    0    0 -0.16686715865E+01  0.14623186001E+02 -0.22287599997E+02  0.82399647576E+02  0.77950899760E+02 0.  0.
         -6    2    1    2    0  502  0.11018730887E+03 -0.85160699097E+00  0.33375160166E+03  0.39090011343E+03  0.17108710879E+03 0.  0.
        -24    2    5    5    0    0  0.80905538983E+02 -0.28818627184E+02  0.33090399728E+03  0.35003723153E+03  0.75182368478E+02 0.  0.
          5    1    3    3  501    0 -0.10851863729E+03 -0.13771579010E+02  0.61600779949E+02  0.12562920488E+03  0.47000000000E+01 0. -1.
        -11    1    4    4    0    0 -0.64810922130E+01 -0.48254097429E+01 -0.48634024634E+02  0.49300684453E+02  0.00000000000E+00 0.  1.
         12    1    4    4    0    0  0.48124206266E+01  0.19448595744E+02  0.26346424637E+02  0.33098963123E+02  0.00000000000E+00 0. -1.
         -5    1    5    5    0  502  0.29281769891E+02  0.27967020193E+02  0.28476043855E+01  0.40862881900E+02  0.47000000000E+01 0.  1.
         11    1    6    6    0    0  0.62659031244E+02  0.12810900126E+02  0.14193269491E+03  0.15567646978E+03  0.00000000000E+00 0. -1.
        -12    1    6    6    0    0  0.18246507740E+02 -0.41629527310E+02  0.18897130237E+03  0.19436076175E+03  0.00000000000E+00 0.  1.
</event>
<event>
12    1  0.9246030E-003  0.1862398E+03  0.7818608E-02  0.1162042E+00
         21   -1    0    0  501  502  0.00000000000E+00  0.00000000000E+00  0.10401765780E+03  0.10401765780E+03  0.00000000000E+00 0.  1.
         21   -1    0    0  502  503 -0.00000000000E+00 -0.00000000000E+00 -0.41306215645E+03  0.41306215645E+03  0.00000000000E+00 0.  1.
          6    2    1    2  501    0  0.53712443846E+02  0.20222887698E+02 -0.40438842703E+02  0.19057958006E+03  0.17717585762E+03 0.  0.
         24    2    3    3    0    0 -0.21485579221E+01  0.64367924562E+02 -0.52655420922E+02  0.11818779474E+03  0.83951863939E+02 0.  0.
         -6    2    1    2    0  503 -0.53712443846E+02 -0.20222887698E+02 -0.26860565595E+03  0.32650023420E+03  0.17652028980E+03 0.  0.
        -24    2    5    5    0    0  0.34838945659E+02  0.19069856275E+02 -0.12956077559E+03  0.15696900679E+03  0.79220344401E+02 0.  0.
          5    1    3    3  501    0  0.55861001768E+02 -0.44145036864E+02  0.12216578219E+02  0.72391785318E+02  0.47000000000E+01 0. -1.
        -13    1    4    4    0    0 -0.22690129728E+02  0.50422640100E+02  0.48962453293E+01  0.55509078898E+02  0.00000000000E+00 0.  1.
         14    1    4    4    0    0  0.20541571806E+02  0.13945284462E+02 -0.57551666252E+02  0.62678715840E+02  0.00000000000E+00 0. -1.
         -5    1    5    5    0  503 -0.88551389504E+02 -0.39292743973E+02 -0.13904488036E+03  0.16953122741E+03  0.47000000000E+01 0.  1.
         11    1    6    6    0    0 -0.12215038387E+02 -0.30134796354E+01  0.43596011132E+01  0.13315192232E+02  0.00000000000E+00 0. -1.
        -12    1    6    6    0    0  0.47053984046E+02  0.22083335910E+02 -0.13392037670E+03  0.14365381455E+03  0.00000000000E+00 0.  1.
</event>
<event>
12    1  0.9246030E-003  0.1770038E+03  0.7818608E-02  0.1170869E+00
         21   -1    0    0  501  502  0.00000000000E+00  0.00000000000E+00  0.83622305417E+02  0.83622305417E+02  0.00000000000E+00 0.  1.
         21   -1    0    0  502  503 -0.00000000000E+00 -0.00000000000E+00 -0.44595413896E+03  0.44595413896E+03  0.00000000000E+00 0.  1.
          6    2    1    2  501    0 -0.24480617755E+02 -0.31487936032E+02 -0.74682424877E+02  0.19211402702E+03  0.17245157010E+03 0.  0.
         24    2    3    3    0    0 -0.45093117244E+02  0.25990160837E+02 -0.19360072230E+02  0.10958367226E+03  0.94471642017E+02 0.  0.
         -6    2    1    2    0  503  0.24480617755E+02  0.31487936032E+02 -0.28764940866E+03  0.33746241736E+03  0.17189505537E+03 0.  0.
        -24    2    5    5    0    0  0.80040072633E+02  0.37408590721E+02 -0.17556157731E+03  0.21213213723E+03  0.79827065159E+02 0.  0.
          5    1    3    3  501    0  0.20612499489E+02 -0.57478096869E+02 -0.55322352647E+02  0.82530354762E+02  0.47000000000E+01 0. -1.
        -11    1    4    4    0    0 -0.42462249614E+02  0.15349507109E+02 -0.55656696594E+02  0.71668109272E+02  0.00000000000E+00 0.  1.
         12    1    4    4    0    0 -0.26308676299E+01  0.10640653728E+02  0.36296624364E+02  0.37915562985E+02  0.00000000000E+00 0. -1.
         -5    1    5    5    0  503 -0.55559454878E+02 -0.59206546891E+01 -0.11208783136E+03  0.12533028013E+03  0.47000000000E+01 0.  1.
         11    1    6    6    0    0  0.68189695197E+02  0.58376775526E+02 -0.10816273696E+03  0.14055909831E+03  0.00000000000E+00 0. -1.
        -12    1    6    6    0    0  0.11850377436E+02 -0.20968184805E+02 -0.67398840351E+02  0.71573038919E+02  0.00000000000E+00 0.  1.
</event>
<event>
12    1  0.9246030E-003  0.1831109E+03  0.7818608E-02  0.1165392E+00
         21   -1    0    0  501  502  0.00000000000E+00  0.00000000000E+00  0.19023333356E+03  0.19023333356E+03  0.00000000000E+00 0. -1.
         21   -1    0    0  502  503 -0.00000000000E+00 -0.00000000000E+00 -0.17949288750E+03  0.17949288750E+03  0.00000000000E+00 0. -1.
          6    2    1    2  501    0  0.51784294801E+02 -0.33312938597E+02  0.37815071367E+02  0.18697486051E+03  0.17244782914E+03 0.  0.
         24    2    3    3    0    0  0.55968654293E+02 -0.44770572838E+02  0.85604683504E+02  0.13742969652E+03  0.80136540926E+02 0.  0.
         -6    2    1    2    0  503 -0.51784294801E+02  0.33312938597E+02 -0.27074625304E+02  0.18275136055E+03  0.16992250993E+03 0.  0.
        -24    2    5    5    0    0 -0.19640868082E+02  0.49062318853E+02 -0.76257626908E+02  0.12174070159E+03  0.78820669445E+02 0.  0.
          5    1    3    3  501    0 -0.41843594920E+01  0.11457634242E+02 -0.47789612137E+02  0.49545163992E+02  0.47000000000E+01 0. -1.
        -11    1    4    4    0    0 -0.69281904212E+01 -0.30591915155E+02  0.60674211544E+02  0.68302452678E+02  0.00000000000E+00 0.  1.
         12    1    4    4    0    0  0.62896844714E+02 -0.14178657683E+02  0.24930471960E+02  0.69127243840E+02  0.00000000000E+00 0. -1.
         -5    1    5    5    0  503 -0.32143426720E+02 -0.15749380256E+02  0.49183001604E+02  0.61010658958E+02  0.47000000000E+01 0.  1.
         11    1    6    6    0    0 -0.28080152686E+02  0.18165174139E+02  0.55369382817E+01  0.33898764164E+02  0.00000000000E+00 0. -1.
        -12    1    6    6    0    0  0.84392846041E+01  0.30897144714E+02 -0.81794565190E+02  0.87841937426E+02  0.00000000000E+00 0.  1.
</event>
<event>
12    1  0.9246030E-003  0.3111291E+03  0.7818608E-02  0.1079854E+00
         21   -1    0    0  501  502  0.00000000000E+00  0.00000000000E+00  0.70370152559E+03  0.70370152559E+03  0.00000000000E+00 0.  1.
         21   -1    0    0  502  503 -0.00000000000E+00 -0.00000000000E+00 -0.22590138616E+03  0.22590138616E+03  0.00000000000E+00 0.  1.
          6    2    1    2  501    0  0.59970376536E+02 -0.25135176912E+03  0.52995040019E+03  0.61453130226E+03  0.17328340053E+03 0.  0.
         24    2    3    3    0    0  0.15153518218E+02 -0.25308277653E+03  0.44429755377E+03  0.51773229775E+03  0.79786558696E+02 0.  0.
         -6    2    1    2    0  503 -0.59970376536E+02  0.25135176912E+03 -0.52150260752E+02  0.31507160949E+03  0.17255813950E+03 0.  0.
        -24    2    5    5    0    0 -0.87836377969E+02  0.23494110431E+03 -0.11288972517E+02  0.26274992343E+03  0.77443718753E+02 0.  0.
          5    1    3    3  501    0  0.44816858317E+02  0.17310074155E+01  0.85652846415E+02  0.96799004515E+02  0.47000000000E+01 0. -1.
        -11    1    4    4    0    0 -0.29540939229E+02 -0.56779977029E+02  0.12064451002E+03  0.13657133916E+03  0.00000000000E+00 0.  1.
         12    1    4    4    0    0  0.44694457447E+02 -0.19630279951E+03  0.32365304375E+03  0.38116095859E+03  0.00000000000E+00 0. -1.
         -5    1    5    5    0  503  0.27866001433E+02  0.16410664809E+02 -0.40861288234E+02  0.52321686054E+02  0.47000000000E+01 0.  1.
         11    1    6    6    0    0  0.89422264888E+01  0.74529065587E+01  0.89798507556E+01  0.14701936959E+02  0.00000000000E+00 0. -1.
        -12    1    6    6    0    0 -0.96778604458E+02  0.22748819775E+03 -0.20268823273E+02  0.24804798647E+03  0.00000000000E+00 0.  1.
</event>
<event>
12    1  0.9246030E-003  0.2084457E+03  0.7818608E-02  0.1143812E+00
         21   -1    0    0  503  502  0.00000000000E+00  0.00000000000E+00  0.46729118869E+02  0.46729118869E+02  0.00000000000E+00 0. -1.
         21   -1    0    0  501  503 -0.00000000000E+00 -0.00000000000E+00 -0.97584524440E+03  0.97584524440E+03  0.00000000000E+00 0. -1.
          6    2    1    2  501    0 -0.35578202447E+02 -0.11297559878E+03 -0.60487841051E+03  0.63978706543E+03  0.17152347708E+03 0.  0.
         24    2    3    3    0    0  0.25358756359E+02 -0.11147380979E+03 -0.32837691842E+03  0.35660738141E+03  0.79170367756E+02 0.  0.
         -6    2    1    2    0  502  0.35578202447E+02  0.11297559878E+03 -0.32423771502E+03  0.38278729783E+03  0.16542891263E+03 0.  0.
        -24    2    5    5    0    0  0.42547682605E+02  0.13144118092E+03 -0.19073617533E+03  0.24775284861E+03  0.76903160390E+02 0.  0.
          5    1    3    3  501    0 -0.60936958805E+02 -0.15017889881E+01 -0.27650149208E+03  0.28317968402E+03  0.47000000000E+01 0. -1.
        -13    1    4    4    0    0  0.51980545230E+02 -0.75240814713E+02 -0.25066572213E+03  0.26682665071E+03  0.00000000000E+00 0.  1.
         14    1    4    4    0    0 -0.26621788872E+02 -0.36232995074E+02 -0.77711196295E+02  0.89780730697E+02  0.00000000000E+00 0. -1.
         -5    1    5    5    0  502 -0.69694801587E+01 -0.18465582142E+02 -0.13350153970E+03  0.13503444923E+03  0.47000000000E+01 0.  1.
         11    1    6    6    0    0 -0.40178581995E+01  0.10073402079E+03 -0.10581846161E+03  0.14615414105E+03  0.00000000000E+00 0. -1.
        -12    1    6    6    0    0  0.46565540805E+02  0.30707160124E+02 -0.84917713716E+02  0.10159870755E+03  0.00000000000E+00 0.  1.
</event>
<event>
12    1  0.9246030E-003  0.2550186E+03  0.7818608E-02  0.1110253E+00
         21   -1    0    0  501  502  0.00000000000E+00  0.00000000000E+00  0.55355438022E+03  0.55355438022E+03  0.00000000000E+00 0.  1.
         21   -1    0    0  502  503 -0.00000000000E+00 -0.00000000000E+00 -0.12892447139E+03  0.12892447139E+03  0.00000000000E+00 0.  1.
          6    2    1    2  501    0  0.68016705327E+02  0.17435828900E+03  0.31481846222E+03  0.40482252780E+03  0.17246312564E+03 0.  0.
         24    2    3    3    0    0  0.85772068219E+02  0.18547940316E+03  0.23246620971E+03  0.31971720725E+03  0.80119269030E+02 0.  0.
         -6    2    1    2    0  503 -0.68016705327E+02 -0.17435828900E+03  0.10981144661E+03  0.27765632381E+03  0.17322642754E+03 0.  0.
        -24    2    5    5    0    0 -0.22062889062E+02 -0.18372540864E+03  0.61213347838E+02  0.20995579676E+03  0.78054889564E+02 0.  0.
          5    1    3    3  501    0 -0.17755362892E+02 -0.11121114160E+02  0.82352252513E+02  0.85105320548E+02  0.47000000000E+01 0. -1.
        -11    1    4    4    0    0  0.39795620238E+02  0.55328842923E+02  0.13344002507E+03  0.14983728688E+03  0.00000000000E+00 0.  1.
         12    1    4    4    0    0  0.45976447981E+02  0.13015056024E+03  0.99026184640E+02  0.16987992037E+03  0.00000000000E+00 0. -1.
         -5    1    5    5    0  503 -0.45953816265E+02  0.93671196375E+01  0.48598098768E+02  0.67700527055E+02  0.47000000000E+01 0.  1.
         11    1    6    6    0    0  0.22196066745E+02 -0.29510453929E+02  0.27424570154E+02  0.45996079379E+02  0.00000000000E+00 0. -1.
        -12    1    6    6    0    0 -0.44258955807E+02 -0.15421495471E+03  0.33788777683E+02  0.16395971738E+03  0.00000000000E+00 0.  1.
</event>
<event>
12    1  0.9246030E-003  0.1812219E+03  0.7818608E-02  0.1166823E+00
         21   -1    0    0  501  502  0.00000000000E+00  0.00000000000E+00  0.18360772586E+04  0.18360772586E+04  0.00000000000E+00 0.  1.
         21   -1    0    0  502  503 -0.00000000000E+00 -0.00000000000E+00 -0.25380866506E+02  0.25380866506E+02  0.00000000000E+00 0.  1.
          6    2    1    2  501    0  0.39143776198E+02 -0.38149287922E+02  0.14152606787E+04  0.14268160988E+04  0.17278248706E+03 0.  0.
         24    2    3    3    0    0 -0.19177219379E+02  0.33817109298E+01  0.11246442789E+04  0.11274732449E+04  0.77407765160E+02 0.  0.
         -6    2    1    2    0  503 -0.39143776198E+02  0.38149287922E+02  0.39543571343E+03  0.43464202631E+03  0.17192057524E+03 0.  0.
        -24    2    5    5    0    0 -0.91105142774E+02  0.33905190405E+02  0.30466991086E+03  0.32986360822E+03  0.80848849526E+02 0.  0.
          5    1    3    3  501    0  0.58320995577E+02 -0.41530998851E+02  0.29061639977E+03  0.29934285395E+03  0.47000000000E+01 0. -1.
        -11    1    4    4    0    0 -0.48223985690E+02  0.96073558718E+01  0.78155663742E+03  0.78310192924E+03  0.00000000000E+00 0.  1.
         12    1    4    4    0    0  0.29046766312E+02 -0.62256449420E+01  0.34308764147E+03  0.34437131562E+03  0.00000000000E+00 0. -1.
         -5    1    5    5    0  503  0.51961366575E+02  0.42440975165E+01  0.90765802570E+02  0.10477841808E+03  0.47000000000E+01 0.  1.
         13    1    6    6    0    0 -0.28991913992E+00  0.35595150387E+02  0.87605174109E+02  0.94560907963E+02  0.00000000000E+00 0. -1.
        -14    1    6    6    0    0 -0.90815223634E+02 -0.16899599816E+01  0.21706473675E+03  0.23530270026E+03  0.00000000000E+00 0.  1.
</event>
<event>
12    1  0.9246030E-003  0.2498046E+03  0.7818608E-02  0.1113780E+00
         21   -1    0    0  503  502  0.00000000000E+00  0.00000000000E+00  0.16488499483E+03  0.16488499483E+03  0.00000000000E+00 0.  1.
         21   -1    0    0  501  503 -0.00000000000E+00 -0.00000000000E+00 -0.39806695395E+03  0.39806695395E+03  0.00000000000E+00 0. -1.
          6    2    1    2  501    0 -0.16815515731E+03 -0.63439215192E+02 -0.18466721963E+03  0.31065144803E+03  0.17349826858E+03 0.  0.
         24    2    3    3    0    0 -0.11532206354E+03 -0.11151704951E+03 -0.12003843878E+03  0.21420569506E+03  0.75760295294E+02 0.  0.
         -6    2    1    2    0  502  0.16815515731E+03  0.63439215192E+02 -0.48514739491E+02  0.25230050075E+03  0.17029730408E+03 0.  0.
        -24    2    5    5    0    0  0.17946086562E+03  0.15126815837E+02 -0.31724559035E+02  0.19970860849E+03  0.80262430893E+02 0.  0.
          5    1    3    3  501    0 -0.52833093776E+02  0.48077834319E+02 -0.64628780850E+02  0.96445752964E+02  0.47000000000E+01 0. -1.
        -13    1    4    4    0    0 -0.71097168437E+02 -0.55511716102E+02 -0.21825614572E+02  0.92804716668E+02  0.00000000000E+00 0.  1.
         14    1    4    4    0    0 -0.44224895099E+02 -0.56005333409E+02 -0.98212824205E+02  0.12140097839E+03  0.00000000000E+00 0. -1.
         -5    1    5    5    0  502 -0.11305708308E+02  0.48312399355E+02 -0.16790180455E+02  0.52591892260E+02  0.47000000000E+01 0.  1.
         11    1    6    6    0    0  0.15404783846E+03  0.42431751621E+02 -0.28031450647E+02  0.16222500518E+03  0.00000000000E+00 0. -1.
        -12    1    6    6    0    0  0.25413027155E+02 -0.27304935784E+02 -0.36931083886E+01  0.37483603308E+02  0.00000000000E+00 0.  1.
</event>
<event>
12    1  0.9246030E-003  0.2267701E+03  0.7818608E-02  0.1129360E+00
         21   -1    0    0  501  502  0.00000000000E+00  0.00000000000E+00  0.10620607625E+03  0.10620607625E+03  0.00000000000E+00 0. -1.
         21   -1    0    0  502  503 -0.00000000000E+00 -0.00000000000E+00 -0.88590596270E+03  0.88590596270E+03  0.00000000000E+00 0. -1.
          6    2    1    2  501    0  0.12837177049E+03 -0.67618070196E+02 -0.72707702563E+03  0.76162042406E+03  0.17427895532E+03 0.  0.
         24    2    3    3    0    0  0.11763634601E+03 -0.74469033750E+02 -0.36151448332E+03  0.39580592547E+03  0.81152092352E+02 0.  0.
         -6    2    1    2    0  503 -0.12837177049E+03  0.67618070196E+02 -0.52622860825E+02  0.23049161489E+03  0.17118908895E+03 0.  0.
        -24    2    5    5    0    0 -0.10497874217E+03 -0.15164488153E+02 -0.47871422761E+01  0.13194958472E+03  0.78340782274E+02 0.  0.
          5    1    3    3  501    0  0.10735424474E+02  0.68509635536E+01 -0.36556254231E+03  0.36581449859E+03  0.47000000000E+01 0. -1.
        -11    1    4    4    0    0  0.90913476683E+02 -0.25920610764E+02 -0.15127327024E+03  0.17838368926E+03  0.00000000000E+00 0.  1.
         12    1    4    4    0    0  0.26722869332E+02 -0.48548422986E+02 -0.21024121308E+03  0.21742223621E+03  0.00000000000E+00 0. -1.
         -5    1    5    5    0  503 -0.23393028315E+02  0.82782558349E+02 -0.47835718549E+02  0.98542030168E+02  0.47000000000E+01 0.  1.
         13    1    6    6    0    0 -0.61271759062E+02 -0.26471658190E+02  0.31710954265E+02  0.73895613986E+02  0.00000000000E+00 0. -1.
        -14    1    6    6    0    0 -0.43706983111E+02  0.11307170037E+02 -0.36498096541E+02  0.58053970734E+02  0.00000000000E+00 0.  1.
</event>
<event>
12    1  0.9246030E-003  0.1985525E+03  0.7818608E-02  0.1152227E+00
         21   -1    0    0  501  502  0.00000000000E+00  0.00000000000E+00  0.72627830635E+03  0.72627830635E+03  0.00000000000E+00 0. -1.
         21   -1    0    0  502  503 -0.00000000000E+00 -0.00000000000E+00 -0.61254601872E+02  0.61254601872E+02  0.00000000000E+00 0. -1.
          6    2    1    2  501    0  0.13378187900E+02 -0.89010953033E+02  0.48391210741E+03  0.52306216485E+03  0.17697789388E+03 0.  0.
         24    2    3    3    0    0 -0.56858022092E+01  0.21734538041E+02  0.25419992595E+03  0.26729317567E+03  0.79519311597E+02 0.  0.
         -6    2    1    2    0  503 -0.13378187900E+02  0.89010953033E+02  0.18111159707E+03  0.26447074337E+03  0.17041548591E+03 0.  0.
        -24    2    5    5    0    0  0.41584845850E+02  0.67532958237E+02  0.56491306668E+02  0.12650500082E+03  0.80760433698E+02 0.  0.
          5    1    3    3  501    0  0.19063990109E+02 -0.11074549107E+03  0.22971218146E+03  0.25576898917E+03  0.47000000000E+01 0. -1.
        -13    1    4    4    0    0  0.36413132309E+02  0.43469275504E+01  0.12676585818E+03  0.13196361159E+03  0.00000000000E+00 0.  1.
         14    1    4    4    0    0 -0.42098934518E+02  0.17387610491E+02  0.12743406777E+03  0.13532956409E+03  0.00000000000E+00 0. -1.
         -5    1    5    5    0  503 -0.54963033750E+02  0.21477994796E+02  0.12462029040E+03  0.13796574255E+03  0.47000000000E+01 0.  1.
         11    1    6    6    0    0  0.16228157612E+02  0.94819577242E+01 -0.19828157014E+02  0.27320622840E+02  0.00000000000E+00 0. -1.
        -12    1    6    6    0    0  0.25356688237E+02  0.58051000513E+02  0.76319463681E+02  0.99184377981E+02  0.00000000000E+00 0.  1.
</event>
<event>
12    1  0.9246030E-003  0.2632153E+03  0.7818608E-02  0.1105375E+00
         21   -1    0    0  501  502  0.00000000000E+00  0.00000000000E+00  0.97364106227E+03  0.97364106227E+03  0.00000000000E+00 0. -1.
         21   -1    0    0  502  503 -0.00000000000E+00 -0.00000000000E+00 -0.77460662192E+02  0.77460662192E+02  0.00000000000E+00 0.  1.
          6    2    1    2  501    0  0.87393025513E+02 -0.17843985002E+03  0.60039651663E+03  0.65515929043E+03  0.17111223705E+03 0.  0.
         24    2    3    3    0    0  0.60182079749E+02 -0.36672982658E+02  0.16455278636E+03  0.19600776047E+03  0.79841294351E+02 0.  0.
         -6    2    1    2    0  503 -0.87393025513E+02  0.17843985002E+03  0.29578388345E+03  0.39594243404E+03  0.17263830507E+03 0.  0.
        -24    2    5    5    0    0 -0.63753420496E+02  0.58599324372E+02  0.64191341912E+02  0.13406884276E+03  0.79721683251E+02 0.  0.
          5    1    3    3  501    0  0.27210945764E+02 -0.14176686736E+03  0.43584373026E+03  0.45915152996E+03  0.47000000000E+01 0. -1.
        -11    1    4    4    0    0  0.44799387179E+02 -0.32169546666E+02  0.34681537503E+02  0.65151161677E+02  0.00000000000E+00 0.  1.
         12    1    4    4    0    0  0.15382692569E+02 -0.45034359920E+01  0.12987124886E+03  0.13085659879E+03  0.00000000000E+00 0. -1.
         -5    1    5    5    0  503 -0.23639605017E+02  0.11984052565E+03  0.23159254154E+03  0.26187359128E+03  0.47000000000E+01 0.  1.
         11    1    6    6    0    0 -0.64871871128E+01  0.34089482989E+01  0.53291520545E+02  0.53793035675E+02  0.00000000000E+00 0. -1.
        -12    1    6    6    0    0 -0.57266233383E+02  0.55190376073E+02  0.10899821367E+02  0.80275807083E+02  0.00000000000E+00 0.  1.
</event>
<event>
12    1  0.9246030E-003  0.2515035E+03  0.7818608E-02  0.1112504E+00
         21   -1    0    0  501  502  0.00000000000E+00  0.00000000000E+00  0.58806100501E+03  0.58806100501E+03  0.00000000000E+00 0.  1.
         21   -1    0    0  502  503 -0.00000000000E+00 -0.00000000000E+00 -0.11501470423E+03  0.11501470423E+03  0.00000000000E+00 0.  1.
          6    2    1    2  501    0  0.30724636016E+02 -0.18007682103E+03  0.32793882464E+03  0.41271350002E+03  0.17151354366E+03 0.  0.
         24    2    3    3    0    0 -0.27349874168E+02 -0.36886020943E+02  0.15909748165E+03  0.18379049317E+03  0.79739215903E+02 0.  0.
         -6    2    1    2    0  503 -0.30724636016E+02  0.18007682103E+03  0.14510747615E+03  0.29036220923E+03  0.17286517342E+03 0.  0.
        -24    2    5    5    0    0 -0.61832519727E+02  0.40419669668E+02  0.57497289332E+02  0.12252462348E+03  0.79052734845E+02 0.  0.
          5    1    3    3  501    0  0.58074510183E+02 -0.14319080009E+03  0.16884134298E+03  0.22892300685E+03  0.47000000000E+01 0. -1.
        -11    1    4    4    0    0 -0.10308691164E+02 -0.46332606887E+02  0.37093380771E+02  0.60240339238E+02  0.00000000000E+00 0.  1.
         12    1    4    4    0    0 -0.17041183003E+02  0.94465859443E+01  0.12200410088E+03  0.12355015393E+03  0.00000000000E+00 0. -1.
         -5    1    5    5    0  503  0.31107883711E+02  0.13965715136E+03  0.87610186815E+02  0.16783758575E+03  0.47000000000E+01 0.  1.
         13    1    6    6    0    0 -0.58788902872E+02  0.95330860363E+01  0.27842924705E+01  0.59621867757E+02  0.00000000000E+00 0. -1.
        -14    1    6    6    0    0 -0.30436168556E+01  0.30886583632E+02  0.54712996861E+02  0.62902755723E+02  0.00000000000E+00 0.  1.
</event>
<event>
12    1  0.9246030E-003  0.1954008E+03  0.7818608E-02  0.1153954E+00
         21   -1    0    0  501  502  0.00000000000E+00  0.00000000000E+00  0.33306632640E+02  0.33306632640E+02  0.00000000000E+00 0.  1.
         21   -1    0    0  502  503 -0.00000000000E+00 -0.00000000000E+00 -0.11400314389E+04  0.11400314389E+04  0.00000000000E+00 0.  1.
          6    2    1    2  501    0 -0.91511618482E+02  0.15164637144E+02 -0.53355381362E+03  0.56777514363E+03  0.17054207446E+03 0.  0.
         24    2    3    3    0    0 -0.57704123252E+02  0.75605033002E+02 -0.31604842219E+03  0.33946247757E+03  0.79386911081E+02 0.  0.
         -6    2    1    2    0  503  0.91511618482E+02 -0.15164637144E+02 -0.57317099268E+03  0.60556292795E+03  0.17198002884E+03 0.  0.
        -24    2    5    5    0    0  0.41667641267E+02  0.41681018958E+02 -0.16281469816E+03  0.18827378463E+03  0.73924910351E+02 0.  0.
          5    1    3    3  501    0 -0.33807495230E+02 -0.60440395858E+02 -0.21750539143E+03  0.22831266606E+03  0.47000000000E+01 0. -1.
        -13    1    4    4    0    0 -0.42247753079E+01  0.38696557043E+02 -0.39787254632E+02  0.55662356081E+02  0.00000000000E+00 0.  1.
         14    1    4    4    0    0 -0.53479347944E+02  0.36908475959E+02 -0.27626116756E+03  0.28380012149E+03  0.00000000000E+00 0. -1.
         -5    1    5    5    0  503  0.49843977215E+02 -0.56845656102E+02 -0.41035629452E+03  0.41728914332E+03  0.47000000000E+01 0.  1.
         11    1    6    6    0    0 -0.17582253103E+02  0.16229611949E+02 -0.18627563753E+02  0.30323622138E+02  0.00000000000E+00 0. -1.
        -12    1    6    6    0    0  0.59249894370E+02  0.25451407009E+02 -0.14418713441E+03  0.15795016249E+03  0.00000000000E+00 0.  1.
</event>
<event>
12    1  0.9246030E-003  0.3519855E+03  0.7818608E-02  0.1062352E+00
         21   -1    0    0  503  502  0.00000000000E+00  0.00000000000E+00  0.25486826736E+03  0.25486826736E+03  0.00000000000E+00 0. -1.
         21   -1    0    0  501  503 -0.00000000000E+00 -0.00000000000E+00 -0.48532984220E+03  0.48532984220E+03  0.00000000000E+00 0. -1.
          6    2    1    2  501    0 -0.80046314708E+02  0.29588150095E+03 -0.71282352266E+02  0.35389273988E+03  0.16188150756E+03 0.  0.
         24    2    3    3    0    0 -0.21355960594E+01  0.16491654970E+03 -0.80645907468E+02  0.20114567869E+03  0.82181460973E+02 0.  0.
         -6    2    1    2    0  502  0.80046314708E+02 -0.29588150095E+03 -0.15917922257E+03  0.38630536968E+03  0.17303334546E+03 0.  0.
        -24    2    5    5    0    0  0.55395044680E+02 -0.17466111330E+03 -0.21279141978E+02  0.20099322835E+03  0.79814538060E+02 0.  0.
          5    1    3    3  501    0 -0.77910718649E+02  0.13096495125E+03  0.93635552019E+01  0.15274706119E+03  0.47000000000E+01 0. -1.
        -11    1    4    4    0    0 -0.35165334160E+02  0.11294109579E+03 -0.73220731357E+02  0.13911709940E+03  0.00000000000E+00 0.  1.
         12    1    4    4    0    0  0.33029738101E+02  0.51975453917E+02 -0.74251761108E+01  0.62028579293E+02  0.00000000000E+00 0. -1.
         -5    1    5    5    0  502  0.24651270028E+02 -0.12122038765E+03 -0.13790008059E+03  0.18531214133E+03  0.47000000000E+01 0.  1.
         13    1    6    6    0    0  0.55538676899E+02 -0.80946396213E+02 -0.38976347723E+02  0.10562205912E+03  0.00000000000E+00 0. -1.
        -14    1    6    6    0    0 -0.14363221895E+00 -0.93714717085E+02  0.17697205746E+02  0.95371169227E+02  0.00000000000E+00 0.  1.
</event>
<event>
12    1  0.9246030E-003  0.2166143E+03  0.7818608E-02  0.1136488E+00
         21   -1    0    0  503  502  0.00000000000E+00  0.00000000000E+00  0.37484498967E+02  0.37484498967E+02  0.00000000000E+00 0. -1.
         21   -1    0    0  501  503 -0.00000000000E+00 -0.00000000000E+00 -0.14928799182E+04  0.14928799182E+04  0.00000000000E+00 0.  1.
          6    2    1    2  501    0 -0.12972989643E+03 -0.89110722767E+01 -0.10366999064E+04  0.10590884998E+04  0.17324116494E+03 0.  0.
         24    2    3    3    0    0 -0.46887081624E+02 -0.10649230169E+02 -0.84747416879E+03  0.85246221170E+03  0.78533757623E+02 0.  0.
         -6    2    1    2    0  502  0.12972989643E+03  0.89110722767E+01 -0.41869551280E+03  0.47127591734E+03  0.17287511269E+03 0.  0.
        -24    2    5    5    0    0  0.64844797584E+02 -0.63249108591E+02 -0.19853593613E+03  0.23063199584E+03  0.74627756625E+02 0.  0.
          5    1    3    3  501    0 -0.82842814810E+02  0.17381578919E+01 -0.18922573766E+03  0.20662628814E+03  0.47000000000E+01 0. -1.
        -13    1    4    4    0    0 -0.50068759368E+02  0.13646597310E+02 -0.75549160677E+03  0.75727186543E+03  0.00000000000E+00 0.  1.
         14    1    4    4    0    0  0.31816777445E+01 -0.24295827479E+02 -0.91982562020E+02  0.95190346264E+02  0.00000000000E+00 0. -1.
         -5    1    5    5    0  502  0.64885098850E+02  0.72160180868E+02 -0.22015957666E+03  0.24064392150E+03  0.47000000000E+01 0.  1.
         13    1    6    6    0    0  0.15401693035E+02 -0.32599184242E+02 -0.16731463129E+02  0.39747463064E+02  0.00000000000E+00 0. -1.
        -14    1    6    6    0    0  0.49443104549E+02 -0.30649924350E+02 -0.18180447300E+03  0.19088453278E+03  0.00000000000E+00 0.  1.
</event>
<event>
12    1  0.9246030E-003  0.1775247E+03  0.7818608E-02  0.1170495E+00
         21   -1    0    0  503  502  0.00000000000E+00  0.00000000000E+00  0.92446819805E+03  0.92446819805E+03  0.00000000000E+00 0. -1.
         21   -1    0    0  501  503 -0.00000000000E+00 -0.00000000000E+00 -0.35749531076E+02  0.35749531076E+02  0.00000000000E+00 0. -1.
          6    2    1    2  501    0 -0.22541205526E+02  0.37656946339E+02  0.33579191254E+03  0.37983051412E+03  0.17201412552E+03 0.  0.
         24    2    3    3    0    0 -0.50508142561E+02 -0.82822634279E+01  0.30082490271E+03  0.31550833803E+03  0.80188658307E+02 0.  0.
         -6    2    1    2    0  502  0.22541205526E+02 -0.37656946339E+02  0.55292675444E+03  0.58038721501E+03  0.17086594750E+03 0.  0.
        -24    2    5    5    0    0  0.26131464231E+02 -0.30103885662E+02  0.13112166995E+03  0.15847305551E+03  0.79572103389E+02 0.  0.
          5    1    3    3  501    0  0.27966937036E+02  0.45939209767E+02  0.34967009826E+02  0.64322176093E+02  0.47000000000E+01 0. -1.
        -13    1    4    4    0    0  0.89650539058E+01 -0.23230435120E+02  0.15978840718E+03  0.16171691431E+03  0.00000000000E+00 0.  1.
         14    1    4    4    0    0 -0.59473196467E+02  0.14948171692E+02  0.14103649554E+03  0.15379142371E+03  0.00000000000E+00 0. -1.
         -5    1    5    5    0  502 -0.35902587058E+01 -0.75530606774E+01  0.42180508449E+03  0.42191415950E+03  0.47000000000E+01 0.  1.
         11    1    6    6    0    0  0.12927338794E+02 -0.28513902279E+02  0.13935687338E+03  0.14283030795E+03  0.00000000000E+00 0. -1.
        -12    1    6    6    0    0  0.13204125438E+02 -0.15899833833E+01 -0.82352034283E+01  0.15642747560E+02  0.00000000000E+00 0.  1.
</event>
<event>
12    1  0.9246030E-003  0.2428012E+03  0.7818608E-02  0.1118243E+00
         21   -1    0    0  501  502  0.00000000000E+00  0.00000000000E+00  0.18378475448E+03  0.18378475448E+03  0.00000000000E+00 0.  1.
         21   -1    0    0  502  503 -0.00000000000E+00 -0.00000000000E+00 -0.32008262505E+03  0.32008262505E+03  0.00000000000E+00 0.  1.
          6    2    1    2  501    0 -0.15539429332E+03  0.68962015530E+02 -0.49845996863E+02  0.24786493640E+03  0.17334721604E+03 0.  0.
         24    2    3    3    0    0 -0.11019658115E+03  0.11477645137E+03 -0.33008308865E+02  0.18117615583E+03  0.80114484957E+02 0.  0.
         -6    2    1    2    0  503  0.15539429332E+03 -0.68962015530E+02 -0.86451873706E+02  0.25600244313E+03  0.17076351611E+03 0.  0.
        -24    2    5    5    0    0  0.87471102186E+02  0.25280888668E+02 -0.33182738340E+02  0.12811586968E+03  0.83798955182E+02 0.  0.
          5    1    3    3  501    0 -0.45197712172E+02 -0.45814435837E+02 -0.16837687998E+02  0.66688780569E+02  0.47000000000E+01 0. -1.
        -13    1    4    4    0    0 -0.24436876638E+02  0.30379040328E+02 -0.45832047504E+02  0.60171617973E+02  0.00000000000E+00 0.  1.
         14    1    4    4    0    0 -0.85759704515E+02  0.84397411040E+02  0.12823738639E+02  0.12100453785E+03  0.00000000000E+00 0. -1.
         -5    1    5    5    0  503  0.67923191138E+02 -0.94242904198E+02 -0.53269135366E+02  0.12788657345E+03  0.47000000000E+01 0.  1.
         13    1    6    6    0    0  0.10277083196E+03  0.22243480776E+02 -0.37975512353E+02  0.11179783485E+03  0.00000000000E+00 0. -1.
        -14    1    6    6    0    0 -0.15299729774E+02  0.30374078915E+01  0.47927740131E+01  0.16318034826E+02  0.00000000000E+00 0.  1.
</event>
<event>
12    1  0.9246030E-003  0.1728094E+03  0.7818608E-02  0.1175160E+00
         21   -1    0    0  503  502  0.00000000000E+00  0.00000000000E+00  0.97777309858E+03  0.97777309858E+03  0.00000000000E+00 0.  1.
         21   -1    0    0  501  503 -0.00000000000E+00 -0.00000000000E+00 -0.31006847273E+02  0.31006847273E+02  0.00000000000E+00 0.  1.
          6    2    1    2  501    0  0.52254329537E+01 -0.74101863943E+01  0.40150416250E+03  0.43678881785E+03  0.17174592536E+03 0.  0.
         24    2    3    3    0    0  0.54322039481E+01  0.63739050457E+02  0.23407453059E+03  0.25480797187E+03  0.77743432307E+02 0.  0.
         -6    2    1    2    0  502 -0.52254329537E+01  0.74101863943E+01  0.54526208881E+03  0.57199112801E+03  0.17257140267E+03 0.  0.
        -24    2    5    5    0    0 -0.47948343771E+02  0.17502383814E+02  0.49941228861E+03  0.50834056842E+03  0.79950749720E+02 0.  0.
          5    1    3    3  501    0 -0.20677099431E+00 -0.71149236851E+02  0.16742963192E+03  0.18198084598E+03  0.47000000000E+01 0. -1.
        -13    1    4    4    0    0 -0.22440175709E+02  0.16264422654E+02  0.21097814384E+02  0.34831174282E+02  0.00000000000E+00 0.  1.
         14    1    4    4    0    0  0.27872379657E+02  0.47474627803E+02  0.21297671620E+03  0.21997679759E+03  0.00000000000E+00 0. -1.
         -5    1    5    5    0  502  0.42722910817E+02 -0.10092197420E+02  0.45849800198E+02  0.63650559586E+02  0.47000000000E+01 0.  1.
         11    1    6    6    0    0 -0.92862906551E+01 -0.17400628247E+02  0.29108963705E+02  0.35161752310E+02  0.00000000000E+00 0. -1.
        -12    1    6    6    0    0 -0.38662053116E+02  0.34903012061E+02  0.47030332490E+03  0.47317881611E+03  0.00000000000E+00 0.  1.
</event>
<event>
12    1  0.9246030E-003  0.2787050E+03  0.7818608E-02  0.1097130E+00
         21   -1    0    0  501  502  0.00000000000E+00  0.00000000000E+00  0.47657074242E+02  0.47657074242E+02  0.00000000000E+00 0. -1.
         21   -1    0    0  502  503 -0.00000000000E+00 -0.00000000000E+00 -0.16241469587E+04  0.16241469587E+04  0.00000000000E+00 0.  1.
          6    2    1    2  501    0 -0.12030113751E+03 -0.17671466327E+03 -0.67730350730E+03  0.73041535537E+03  0.17048787185E+03 0.  0.
         24    2    3    3    0    0 -0.25652100166E+02 -0.10197015712E+03 -0.47423788117E+03  0.49418893858E+03  0.90913122787E+02 0.  0.
         -6    2    1    2    0  503  0.12030113751E+03  0.17671466327E+03 -0.89918637719E+03  0.94138867761E+03  0.17881852675E+03 0.  0.
        -24    2    5    5    0    0  0.67457250499E+02  0.67052350482E+02 -0.22823655933E+03  0.25946929284E+03  0.78650419973E+02 0.  0.
          5    1    3    3  501    0 -0.94649037341E+02 -0.74744506152E+02 -0.20306562614E+03  0.23622641679E+03  0.47000000000E+01 0. -1.
        -11    1    4    4    0    0  0.31633498553E+02 -0.60140302272E+02 -0.24212448000E+03  0.25147921983E+03  0.00000000000E+00 0.  1.
         12    1    4    4    0    0 -0.57285598719E+02 -0.41829854848E+02 -0.23211340116E+03  0.24270971875E+03  0.00000000000E+00 0. -1.
         -5    1    5    5    0  503  0.52843887008E+02  0.10966231279E+03 -0.67094981786E+03  0.68191938477E+03  0.47000000000E+01 0.  1.
         13    1    6    6    0    0  0.73865916644E+02  0.20886887234E+02 -0.13843724033E+03  0.15829499427E+03  0.00000000000E+00 0. -1.
        -14    1    6    6    0    0 -0.64086661453E+01  0.46165463248E+02 -0.89799319001E+02  0.10117429857E+03  0.00000000000E+00 0.  1.
</event>
<event>
12    1  0.9246030E-003  0.1901993E+03  0.7818608E-02  0.1158546E+00
         21   -1    0    0  503  502  0.00000000000E+00  0.00000000000E+00  0.26887103431E+03  0.26887103431E+03  0.00000000000E+00 0. -1.
         21   -1    0    0  501  503 -0.00000000000E+00 -0.00000000000E+00 -0.13977627517E+03  0.13977627517E+03  0.00000000000E+00 0.  1.
          6    2    1    2  501    0  0.19704107594E+02  0.77136401757E+02  0.21831624262E+02  0.19028719061E+03  0.17144771436E+03 0.  0.
         24    2    3    3    0    0  0.81969308437E+01  0.11938366267E+03  0.24013087671E+02  0.14619529845E+03  0.80478496009E+02 0.  0.
         -6    2    1    2    0  502 -0.19704107594E+02 -0.77136401757E+02  0.10726313488E+03  0.21836011887E+03  0.17273530350E+03 0.  0.
        -24    2    5    5    0    0 -0.28870555903E+02  0.69200549147E+01  0.11396499725E+03  0.13341003563E+03  0.62680306714E+02 0.  0.
          5    1    3    3  501    0  0.11507176750E+02 -0.42247260915E+02 -0.21814634087E+01  0.44091892160E+02  0.47000000000E+01 0. -1.
        -11    1    4    4    0    0 -0.11846456908E+02  0.17076954983E+01 -0.16281173698E+02  0.20207211143E+02  0.00000000000E+00 0.  1.
         12    1    4    4    0    0  0.20043387751E+02  0.11767596717E+03  0.40294261369E+02  0.12598808730E+03  0.00000000000E+00 0. -1.
         -5    1    5    5    0  502  0.91664483090E+01 -0.84056456672E+02 -0.67018623733E+01  0.84950083237E+02  0.47000000000E+01 0.  1.
         11    1    6    6    0    0 -0.33413259029E+02  0.94262201396E+01  0.21576476905E+02  0.40875957000E+02  0.00000000000E+00 0. -1.
        -12    1    6    6    0    0  0.45427031256E+01 -0.25061652249E+01  0.92388520347E+02  0.92534078629E+02  0.00000000000E+00 0.  1.
</event>
<event>
12    1  0.9246030E-003  0.2581655E+03  0.7818608E-02  0.1108293E+00
         21   -1    0    0  501  502  0.00000000000E+00  0.00000000000E+00  0.24219891167E+03  0.24219891167E+03  0.00000000000E+00 0.  1.
         21   -1    0    0  502  503 -0.00000000000E+00 -0.00000000000E+00 -0.33675350928E+03  0.33675350928E+03  0.00000000000E+00 0. -1.
          6    2    1    2  501    0 -0.10162490250E+03  0.16285133534E+03  0.76776781545E+02  0.26934010699E+03  0.17263035891E+03 0.  0.
         24    2    3    3    0    0 -0.96200171972E+02  0.10383542591E+03  0.11525133145E+03  0.19852565749E+03  0.78059583124E+02 0.  0.
         -6    2    1    2    0  503  0.10162490250E+03 -0.16285133534E+03 -0.17133137916E+03  0.30961231396E+03  0.17221255832E+03 0.  0.
        -24    2    5    5    0    0  0.71729315679E+02 -0.21325578619E+02 -0.48618456990E+02  0.11986554273E+03  0.80025739247E+02 0.  0.
          5    1    3    3  501    0 -0.54247305235E+01  0.59015909432E+02 -0.38474549910E+02  0.70814449501E+02  0.47000000000E+01 0. -1.
        -11    1    4    4    0    0 -0.40381611610E+02  0.42290658019E+02  0.97304421209E+02  0.11352235330E+03  0.00000000000E+00 0.  1.
         12    1    4    4    0    0 -0.55818560362E+02  0.61544767887E+02  0.17946910246E+02  0.85003304186E+02  0.00000000000E+00 0. -1.
         -5    1    5    5    0  503  0.29895586817E+02 -0.14152575672E+03 -0.12271292217E+03  0.18974677124E+03  0.47000000000E+01 0.  1.
         11    1    6    6    0    0  0.16197978974E+01  0.16510598919E+02 -0.35419234928E+02  0.39111965238E+02  0.00000000000E+00 0. -1.
        -12    1    6    6    0    0  0.70109517781E+02 -0.37836177538E+02 -0.13199222062E+02  0.80753577489E+02  0.00000000000E+00 0.  1.
</event>
<event>
12    1  0.9246030E-003  0.1775175E+03  0.7818608E-02  0.1170422E+00
         21   -1    0    0  501  502  0.00000000000E+00  0.00000000000E+00  0.31582428106E+03  0.31582428106E+03  0.00000000000E+00 0.  1.
         21   -1    0    0  502  503 -0.00000000000E+00 -0.00000000000E+00 -0.10580326119E+03  0.10580326119E+03  0.00000000000E+00 0.  1.
          6    2    1    2  501    0  0.30323980360E+02  0.27818412582E+02  0.15734525497E+03  0.23721294229E+03  0.17268191239E+03 0.  0.
         24    2    3    3    0    0 -0.33213313122E+02  0.58552472407E+02  0.82949506229E+02  0.13455629357E+03  0.81812342353E+02 0.  0.
         -6    2    1    2    0  503 -0.30323980360E+02 -0.27818412582E+02  0.52675764898E+02  0.18441459997E+03  0.17187379268E+03 0.  0.
        -24    2    5    5    0    0  0.15692359223E+02 -0.69308550514E+02  0.40337176140E+01  0.10550278958E+03  0.77875814083E+02 0.  0.
          5    1    3    3  501    0  0.63537293482E+02 -0.30734059825E+02  0.74395748744E+02  0.10265664873E+03  0.47000000000E+01 0. -1.
        -11    1    4    4    0    0  0.18653217369E+02  0.36352079206E+01 -0.39546792079E+01  0.19411252986E+02  0.00000000000E+00 0.  1.
         12    1    4    4    0    0 -0.51866530492E+02  0.54917264486E+02  0.86904185437E+02  0.11514504058E+03  0.00000000000E+00 0. -1.
         -5    1    5    5    0  503 -0.46016339583E+02  0.41490137933E+02  0.48642047284E+02  0.78911810385E+02  0.47000000000E+01 0.  1.
         13    1    6    6    0    0 -0.15909536283E+02  0.10750265500E+02  0.29450247019E+01  0.19425620288E+02  0.00000000000E+00 0. -1.
        -14    1    6    6    0    0  0.31601895506E+02 -0.80058816015E+02  0.10886929121E+01  0.86077169293E+02  0.00000000000E+00 0.  1.
</event>
<event>
12    1  0.9246030E-003  0.2034065E+03  0.7818608E-02  0.1146905E+00
         21   -1    0    0  501  502  0.00000000000E+00  0.00000000000E+00  0.40661425941E+03  0.40661425941E+03  0.00000000000E+00 0. -1.
         21   -1    0    0  502  503 -0.00000000000E+00 -0.00000000000E+00 -0.13426476076E+03  0.13426476076E+03  0.00000000000E+00 0.  1.
          6    2    1    2  501    0  0.38764419413E+02 -0.10375698251E+03  0.26928454420E+03  0.33744938246E+03  0.17055711169E+03 0.  0.
         24    2    3    3    0    0  0.76401419597E+02 -0.29872635676E+02  0.11830181437E+03  0.16513189874E+03  0.80892975099E+02 0.  0.
         -6    2    1    2    0  503 -0.38764419413E+02  0.10375698251E+03  0.30649544493E+01  0.20342963771E+03  0.17060490005E+03 0.  0.
        -24    2    5    5    0    0 -0.21080973015E+02  0.13787506353E+03  0.24121792936E+02  0.15935891980E+03  0.73208359215E+02 0.  0.
          5    1    3    3  501    0 -0.37637000184E+02 -0.73884346832E+02  0.15098272983E+03  0.17231748372E+03  0.47000000000E+01 0. -1.
        -13    1    4    4    0    0 -0.15241996914E+02 -0.11145211979E+02  0.79938885616E+01  0.20504547649E+02  0.00000000000E+00 0.  1.
         14    1    4    4    0    0  0.91643416511E+02 -0.18727423698E+02  0.11030792581E+03  0.14462735109E+03  0.00000000000E+00 0. -1.
         -5    1    5    5    0  503 -0.17683446399E+02 -0.34118081025E+02 -0.21056838486E+02  0.44070717902E+02  0.47000000000E+01 0.  1.
         11    1    6    6    0    0  0.14294173022E+02  0.70082527684E+02  0.38986097498E+02  0.81460419021E+02  0.00000000000E+00 0. -1.
        -12    1    6    6    0    0 -0.35375146037E+02  0.67792535849E+02 -0.14864304562E+02  0.77898500782E+02  0.00000000000E+00 0.  1.
</event>
<event>
12    1  0.9246030E-003  0.1961074E+03  0.7818608E-02  0.1153426E+00
         21   -1    0    0  503  502  0.00000000000E+00  0.00000000000E+00  0.11497560097E+04  0.11497560097E+04  0.00000000000E+00 0. -1.
         21   -1    0    0  501  503 -0.00000000000E+00 -0.00000000000E+00 -0.35639756945E+02  0.35639756945E+02  0.00000000000E+00 0.  1.
          6    2    1    2  501    0  0.28828376879E+02  0.86737711617E+02  0.39871512154E+03  0.44360274406E+03  0.17162499953E+03 0.  0.
         24    2    3    3    0    0  0.67395928881E+00  0.41578713331E+02  0.78515721769E+02  0.11897718751E+03  0.79130328942E+02 0.  0.
         -6    2    1    2    0  502 -0.28828376879E+02 -0.86737711617E+02  0.71540113118E+03  0.74179302255E+03  0.17350390162E+03 0.  0.
        -24    2    5    5    0    0 -0.52995372479E+02 -0.68945204324E+02  0.27353375732E+03  0.29888277987E+03  0.83356157557E+02 0.  0.
          5    1    3    3  501    0  0.28154417590E+02  0.45158998287E+02  0.32019939977E+03  0.32462555655E+03  0.47000000000E+01 0. -1.
        -13    1    4    4    0    0  0.25484066228E+02  0.55407953999E+02  0.53573912426E+02  0.81176616649E+02  0.00000000000E+00 0.  1.
         14    1    4    4    0    0 -0.24810106939E+02 -0.13829240668E+02  0.24941809343E+02  0.37800570856E+02  0.00000000000E+00 0. -1.
         -5    1    5    5    0  502  0.24166995600E+02 -0.17792507293E+02  0.44186737386E+03  0.44291024268E+03  0.47000000000E+01 0.  1.
         13    1    6    6    0    0 -0.37351833463E+02 -0.58345259762E+02  0.27112203549E+03  0.27983296255E+03  0.00000000000E+00 0. -1.
        -14    1    6    6    0    0 -0.15643539016E+02 -0.10599944562E+02  0.24117218302E+01  0.19049817318E+02  0.00000000000E+00 0.  1.
</event>
<event>
12    1  0.9246030E-003  0.1989154E+03  0.7818608E-02  0.1150710E+00
         21   -1    0    0  503  502  0.00000000000E+00  0.00000000000E+00  0.62694609929E+03  0.62694609929E+03  0.00000000000E+00 0. -1.
         21   -1    0    0  501  503 -0.00000000000E+00 -0.00000000000E+00 -0.87763968206E+02  0.87763968206E+02  0.00000000000E+00 0. -1.
          6    2    1    2  501    0  0.10037754386E+03  0.11123583425E+01  0.79772996484E+02  0.21408637339E+03  0.17144198918E+03 0.  0.
         24    2    3    3    0    0  0.11309893949E+03  0.10977941523E+02  0.11452542591E+03  0.17549900514E+03  0.69079246604E+02 0.  0.
         -6    2    1    2    0  502 -0.10037754386E+03 -0.11123583425E+01  0.45940913460E+03  0.50062369410E+03  0.17172781221E+03 0.  0.
        -24    2    5    5    0    0 -0.67444698939E+02  0.61338356583E+02  0.34944863780E+03  0.36986412494E+03  0.79836952953E+02 0.  0.
          5    1    3    3  501    0 -0.12721395625E+02 -0.98655831805E+01 -0.34752429426E+02  0.38587368259E+02  0.47000000000E+01 0. -1.
        -13    1    4    4    0    0  0.35623396391E+02  0.76527156157E+00  0.84638762372E+02  0.91833175416E+02  0.00000000000E+00 0.  1.
         14    1    4    4    0    0  0.77475543094E+02  0.10212669961E+02  0.29886663537E+02  0.83665829720E+02  0.00000000000E+00 0. -1.
         -5    1    5    5    0  502 -0.32932844921E+02 -0.62450714926E+02  0.10996049680E+03  0.13075956915E+03  0.47000000000E+01 0.  1.
         11    1    6    6    0    0 -0.38800633631E+00 -0.17593058294E+02  0.52813119726E+02  0.55667691386E+02  0.00000000000E+00 0. -1.
        -12    1    6    6    0    0 -0.67056692602E+02  0.78931414878E+02  0.29663551808E+03  0.31419643356E+03  0.00000000000E+00 0.  1.
</event>
<event>
12    1  0.9246030E-003  0.2023283E+03  0.7818608E-02  0.1147880E+00
         21   -1    0    0  503  502  0.00000000000E+00  0.00000000000E+00  0.52558820163E+03  0.52558820163E+03  0.00000000000E+00 0. -1.
         21   -1    0    0  501  503 -0.00000000000E+00 -0.00000000000E+00 -0.78638046993E+02  0.78638046993E+02  0.00000000000E+00 0. -1.
          6    2    1    2  501    0 -0.10348027718E+03 -0.22886648486E+02  0.25634509553E+03  0.32657244183E+03  0.17235076246E+03 0.  0.
         24    2    3    3    0    0 -0.14326173410E+01 -0.41096235503E+02  0.72700618379E+02  0.11563951902E+03  0.79976030673E+02 0.  0.
         -6    2    1    2    0  502  0.10348027718E+03  0.22886648486E+02  0.19060505910E+03  0.27765380679E+03  0.17184115172E+03 0.  0.
        -24    2    5    5    0    0  0.80771326526E+02  0.67582173135E+01  0.34599779726E+02  0.11911182520E+03  0.80129903630E+02 0.  0.
          5    1    3    3  501    0 -0.10204765983E+03  0.18209587017E+02  0.18364447715E+03  0.21093292281E+03  0.47000000000E+01 0. -1.
        -13    1    4    4    0    0  0.36073641572E+02 -0.32668277782E+02  0.26082851645E+02  0.55216294148E+02  0.00000000000E+00 0.  1.
         14    1    4    4    0    0 -0.37506258913E+02 -0.84279577206E+01  0.46617766734E+02  0.60423224874E+02  0.00000000000E+00 0. -1.
         -5    1    5    5    0  502  0.22708950649E+02  0.16128431173E+02  0.15600527938E+03  0.15854198159E+03  0.47000000000E+01 0.  1.
         11    1    6    6    0    0  0.22244524673E+02  0.19837166691E+02 -0.21690435236E+02  0.36861999959E+02  0.00000000000E+00 0. -1.
        -12    1    6    6    0    0  0.58526801853E+02 -0.13078949377E+02  0.56290214962E+02  0.82249825243E+02  0.00000000000E+00 0.  1.
</event>
<event>
12    1  0.9246030E-003  0.3745707E+03  0.7818608E-02  0.1052999E+00
         21   -1    0    0  501  502  0.00000000000E+00  0.00000000000E+00  0.14817735370E+03  0.14817735370E+03  0.00000000000E+00 0.  1.
         21   -1    0    0  502  503 -0.00000000000E+00 -0.00000000000E+00 -0.94970974060E+03  0.94970974060E+03  0.00000000000E+00 0. -1.
          6    2    1    2  501    0  0.32251027473E+03  0.82558179444E+02 -0.43583021211E+03  0.57439755505E+03  0.17075083357E+03 0.  0.
         24    2    3    3    0    0  0.20537982055E+03 -0.15066998290E+02 -0.26978366126E+03  0.34891193318E+03  0.80922358494E+02 0.  0.
         -6    2    1    2    0  503 -0.32251027473E+03 -0.82558179444E+02 -0.36570217480E+03  0.52348953925E+03  0.17168135238E+03 0.  0.
        -24    2    5    5    0    0 -0.83268663766E+02 -0.39799773464E+02 -0.18499455735E+03  0.22059985190E+03  0.76965031529E+02 0.  0.
          5    1    3    3  501    0  0.11713045417E+03  0.97625177734E+02 -0.16604655085E+03  0.22548562187E+03  0.47000000000E+01 0. -1.
        -11    1    4    4    0    0  0.14186829420E+02 -0.41833650021E+01  0.35099841913E+01  0.15201534816E+02  0.00000000000E+00 0.  1.
         12    1    4    4    0    0  0.19119299113E+03 -0.10883633288E+02 -0.27329364545E+03  0.33371039836E+03  0.00000000000E+00 0. -1.
         -5    1    5    5    0  503 -0.23924161096E+03 -0.42758405980E+02 -0.18070761745E+03  0.30288968735E+03  0.47000000000E+01 0.  1.
         13    1    6    6    0    0 -0.84922814411E+02 -0.25169768038E+02 -0.96895001689E+02  0.13127849399E+03  0.00000000000E+00 0. -1.
        -14    1    6    6    0    0  0.16541506451E+01 -0.14630005427E+02 -0.88099555658E+02  0.89321357918E+02  0.00000000000E+00 0.  1.
</event>
<event>
12    1  0.9246030E-003  0.2229504E+03  0.7818608E-02  0.1131764E+00
         21   -1    0    0  501  502  0.00000000000E+00  0.00000000000E+00  0.12176295161E+03  0.12176295161E+03  0.00000000000E+00 0.  1.
         21   -1    0    0  502  503 -0.00000000000E+00 -0.00000000000E+00 -0.40983353961E+03  0.40983353961E+03  0.00000000000E+00 0.  1.
          6    2    1    2  501    0 -0.11499026520E+03 -0.81662334017E+02 -0.12436318438E+03  0.25499750030E+03  0.17223828159E+03 0.  0.
         24    2    3    3    0    0 -0.14621920097E+02  0.11671898225E+02 -0.22161645383E+02  0.83964380176E+02  0.78796223620E+02 0.  0.
         -6    2    1    2    0  503  0.11499026520E+03  0.81662334017E+02 -0.16370740361E+03  0.27659899092E+03  0.17267133489E+03 0.  0.
        -24    2    5    5    0    0  0.36084780044E+02  0.91371586878E+02 -0.14893902935E+03  0.19560183012E+03  0.80164600944E+02 0.  0.
          5    1    3    3  501    0 -0.10036834510E+03 -0.93334232242E+02 -0.10220153900E+03  0.17103312013E+03  0.47000000000E+01 0. -1.
        -13    1    4    4    0    0 -0.34441631470E+02  0.18206031581E+02  0.14672695246E+02  0.41628998907E+02  0.00000000000E+00 0.  1.
         14    1    4    4    0    0  0.19819711373E+02 -0.65341333555E+01 -0.36834340629E+02  0.42335381269E+02  0.00000000000E+00 0. -1.
         -5    1    5    5    0  503  0.78905485156E+02 -0.97092528610E+01 -0.14768374264E+02  0.80997160797E+02  0.47000000000E+01 0.  1.
         13    1    6    6    0    0  0.97302676488E+01  0.40567329852E+00 -0.74522346509E+02  0.75155989838E+02  0.00000000000E+00 0. -1.
        -14    1    6    6    0    0  0.26354512395E+02  0.90965913579E+02 -0.74416682838E+02  0.12044584028E+03  0.00000000000E+00 0.  1.
</event>
<event>
12    1  0.9246030E-003  0.3504614E+03  0.7818608E-02  0.1062437E+00
         21   -1    0    0  501  502  0.00000000000E+00  0.00000000000E+00  0.73533627632E+03  0.73533627632E+03  0.00000000000E+00 0.  1.
         21   -1    0    0  502  503 -0.00000000000E+00 -0.00000000000E+00 -0.16785528848E+03  0.16785528848E+03  0.00000000000E+00 0. -1.
          6    2    1    2  501    0  0.14600614258E+02  0.30490339139E+03  0.31640118511E+03  0.47215771583E+03  0.17217416375E+03 0.  0.
         24    2    3    3    0    0  0.53556322792E+02  0.29298590174E+03  0.26762296680E+03  0.40843190969E+03  0.80532938391E+02 0.  0.
         -6    2    1    2    0  503 -0.14600614258E+02 -0.30490339139E+03  0.25107980272E+03  0.43103384896E+03  0.17195887765E+03 0.  0.
        -24    2    5    5    0    0 -0.46336795098E+02 -0.29909357019E+03  0.20247997518E+03  0.37251058492E+03  0.78497982285E+02 0.  0.
          5    1    3    3  501    0 -0.38955708534E+02  0.11917489651E+02  0.48778218310E+02  0.63725806142E+02  0.47000000000E+01 0. -1.
        -11    1    4    4    0    0  0.14404186845E+02  0.18240561445E+03  0.20737926821E+03  0.27656002904E+03  0.00000000000E+00 0.  1.
         12    1    4    4    0    0  0.39152135947E+02  0.11058028728E+03  0.60243698598E+02  0.13187188065E+03  0.00000000000E+00 0. -1.
         -5    1    5    5    0  503  0.31736180840E+02 -0.58098211981E+01  0.48599827544E+02  0.58523264041E+02  0.47000000000E+01 0.  1.
         13    1    6    6    0    0 -0.65468706762E+02 -0.21322342698E+03  0.12749887143E+03  0.25691699748E+03  0.00000000000E+00 0. -1.
        -14    1    6    6    0    0  0.19131911664E+02 -0.85870143210E+02  0.74981103744E+02  0.11559358744E+03  0.00000000000E+00 0.  1.
</event>
<event>
12    1  0.9246030E-003  0.1860820E+03  0.7818608E-02  0.1162537E+00
         21   -1    0    0  503  502  0.00000000000E+00  0.00000000000E+00  0.13347227916E+03  0.13347227916E+03  0.00000000000E+00 0.  1.
         21   -1    0    0  501  503 -0.00000000000E+00 -0.00000000000E+00 -0.27266638771E+03  0.27266638771E+03  0.00000000000E+00 0.  1.
          6    2    1    2  501    0  0.12176495754E+02 -0.68254716303E+02 -0.11944545479E+03  0.22111926546E+03  0.17268335051E+03 0.  0.
         24    2    3    3    0    0  0.69904963758E+02 -0.52544759663E+02 -0.10873618067E+03  0.16015897258E+03  0.78610964791E+02 0.  0.
         -6    2    1    2    0  502 -0.12176495754E+02  0.68254716303E+02 -0.19748653760E+02  0.18501940141E+03  0.17039717200E+03 0.  0.
        -24    2    5    5    0    0  0.22344405973E+02  0.56433695224E+02  0.39672919378E+02  0.11513061440E+03  0.89426413351E+02 0.  0.
          5    1    3    3  501    0 -0.57728468004E+02 -0.15709956640E+02 -0.10709274113E+02  0.60960292878E+02  0.47000000000E+01 0. -1.
        -11    1    4    4    0    0 -0.32695349647E+01 -0.41904974054E+02 -0.52539810632E+02  0.67284087351E+02  0.00000000000E+00 0.  1.
         12    1    4    4    0    0  0.73174498722E+02 -0.10639785609E+02 -0.56196370040E+02  0.92874885232E+02  0.00000000000E+00 0. -1.
         -5    1    5    5    0  502 -0.34520901727E+02  0.11821021079E+02 -0.59421573139E+02  0.69888787010E+02  0.47000000000E+01 0.  1.
         11    1    6    6    0    0 -0.62179945690E+01  0.47417638471E+01 -0.25798877549E+02  0.26957927658E+02  0.00000000000E+00 0. -1.
        -12    1    6    6    0    0  0.28562400542E+02  0.51691931377E+02  0.65471796927E+02  0.88172686741E+02  0.00000000000E+00 0.  1.
</event>
<event>
12    1  0.9246030E-003  0.1742707E+03  0.7818608E-02  0.1173490E+00
         21   -1    0    0  503  502  0.00000000000E+00  0.00000000000E+00  0.18730821923E+04  0.18730821923E+04  0.00000000000E+00 0.  1.
         21   -1    0    0  501  503 -0.00000000000E+00 -0.00000000000E+00 -0.16284678214E+02  0.16284678214E+02  0.00000000000E+00 0.  1.
          6    2    1    2  501    0  0.10965912777E+02  0.18331753441E+02  0.99462697722E+03  0.10097787325E+04  0.17295652754E+03 0.  0.
         24    2    3    3    0    0  0.21686207676E+01  0.21602521235E+02  0.99578476997E+03  0.99921839386E+03  0.79866881062E+02 0.  0.
         -6    2    1    2    0  502 -0.10965912777E+02 -0.18331753441E+02  0.86217053691E+03  0.87958813803E+03  0.17286108129E+03 0.  0.
        -24    2    5    5    0    0  0.56871855646E+02 -0.64967897952E+01  0.62103466609E+03  0.62876822777E+03  0.79930041426E+02 0.  0.
          5    1    3    3  501    0  0.87972920090E+01 -0.32707677935E+01 -0.11577927477E+01  0.10560338664E+02  0.47000000000E+01 0. -1.
        -13    1    4    4    0    0 -0.34975932279E+02  0.21359541250E+02  0.68439579763E+03  0.68562172782E+03  0.00000000000E+00 0.  1.
         14    1    4    4    0    0  0.37144553046E+02  0.24297998419E+00  0.31138897234E+03  0.31359666604E+03  0.00000000000E+00 0. -1.
         -5    1    5    5    0  502 -0.67837768422E+02 -0.11834963646E+02  0.24113587082E+03  0.25081991027E+03  0.47000000000E+01 0.  1.
         11    1    6    6    0    0  0.27291598389E+02 -0.41665151917E+02  0.39346648451E+03  0.39660646825E+03  0.00000000000E+00 0. -1.
        -12    1    6    6    0    0  0.29580257256E+02  0.35168362122E+02  0.22756818158E+03  0.23216175952E+03  0.00000000000E+00 0.  1.
</event>
<event>
12    1  0.9246030E-003  0.2153284E+03  0.7818608E-02  0.1137587E+00
         21   -1    0    0  503  502  0.00000000000E+00  0.00000000000E+00  0.37378166066E+02  0.37378166066E+02  0.00000000000E+00 0.  1.
         21   -1    0    0  501  503 -0.00000000000E+00 -0.00000000000E+00 -0.15486403737E+04  0.15486403737E+04  0.00000000000E+00 0.  1.
          6    2    1    2  501    0 -0.21202990086E+02 -0.12733999455E+03 -0.11110760857E+04  0.11315790347E+04  0.17121916483E+03 0.  0.
         24    2    3    3    0    0 -0.69165554606E+02 -0.48844717567E+02 -0.74361660950E+03  0.75275127331E+03  0.80617226191E+02 0.  0.
         -6    2    1    2    0  502  0.21202990086E+02  0.12733999455E+03 -0.40018612187E+03  0.45443950507E+03  0.17234062386E+03 0.  0.
        -24    2    5    5    0    0 -0.15659583323E+02  0.16180070114E+02 -0.25215873677E+03  0.26562855502E+03  0.80420665848E+02 0.  0.
          5    1    3    3  501    0  0.47962564520E+02 -0.78495276982E+02 -0.36745947625E+03  0.37882776137E+03  0.47000000000E+01 0. -1.
        -11    1    4    4    0    0 -0.81746919837E+02 -0.36700435059E+02 -0.46306562826E+03  0.47165586704E+03  0.00000000000E+00 0.  1.
         12    1    4    4    0    0  0.12581365231E+02 -0.12144282508E+02 -0.28055098125E+03  0.28109540627E+03  0.00000000000E+00 0. -1.
         -5    1    5    5    0  502  0.36862573409E+02  0.11115992443E+03 -0.14802738510E+03  0.18881095005E+03  0.47000000000E+01 0.  1.
         13    1    6    6    0    0 -0.46610305529E+02  0.22235140318E+02 -0.16782354120E+03  0.17558947300E+03  0.00000000000E+00 0. -1.
        -14    1    6    6    0    0  0.30950722206E+02 -0.60550702041E+01 -0.84335195567E+02  0.90039082023E+02  0.00000000000E+00 0.  1.
</event>
<event>
12    1  0.9246030E-003  0.2107823E+03  0.7818608E-02  0.1140967E+00
         21   -1    0    0  501  502  0.00000000000E+00  0.00000000000E+00  0.27180114417E+03  0.27180114417E+03  0.00000000000E+00 0. -1.
         21   -1    0    0  502  503 -0.00000000000E+00 -0.00000000000E+00 -0.16344032988E+03  0.16344032988E+03  0.00000000000E+00 0.  1.
          6    2    1    2  501    0 -0.11555540621E+03 -0.39389634848E+02  0.58072934313E+02  0.21863585492E+03  0.17182716933E+03 0.  0.
         24    2    3    3    0    0 -0.81975963900E+02  0.41135132271E+02  0.52321014772E+02  0.13107449562E+03  0.77658721663E+02 0.  0.
         -6    2    1    2    0  503  0.11555540621E+03  0.39389634848E+02  0.50287879972E+02  0.21660561913E+03  0.17171059410E+03 0.  0.
        -24    2    5    5    0    0  0.14317145448E+03  0.17135523739E+02  0.65254564188E+02  0.17782439661E+03  0.81065814812E+02 0.  0.
          5    1    3    3  501    0 -0.33579442309E+02 -0.80524767119E+02  0.57519195418E+01  0.87561359307E+02  0.47000000000E+01 0. -1.
        -13    1    4    4    0    0 -0.70430292114E+02  0.54568988426E+02  0.15803148799E+02  0.90487236984E+02  0.00000000000E+00 0.  1.
         14    1    4    4    0    0 -0.11545671786E+02 -0.13433856155E+02  0.36517865972E+02  0.40587258633E+02  0.00000000000E+00 0. -1.
         -5    1    5    5    0  503 -0.27616048272E+02  0.22254111109E+02 -0.14966684215E+02  0.38781222515E+02  0.47000000000E+01 0.  1.
         13    1    6    6    0    0  0.75475552088E+02  0.44003980090E+02  0.57475850199E+02  0.10457716090E+03  0.00000000000E+00 0. -1.
        -14    1    6    6    0    0  0.67695902392E+02 -0.26868456351E+02  0.77787139888E+01  0.73247235707E+02  0.00000000000E+00 0.  1.
</event>
<event>
12    1  0.9246030E-003  0.1781364E+03  0.7818608E-02  0.1169704E+00
         21   -1    0    0  503  502  0.00000000000E+00  0.00000000000E+00  0.14714388288E+03  0.14714388288E+03  0.00000000000E+00 0.  1.
         21   -1    0    0  501  503 -0.00000000000E+00 -0.00000000000E+00 -0.21565963652E+03  0.21565963652E+03  0.00000000000E+00 0.  1.
          6    2    1    2  501    0 -0.86616500061E+01 -0.35231662565E+02 -0.26268705132E+02  0.18006286779E+03  0.17440268708E+03 0.  0.
         24    2    3    3    0    0  0.56032674677E+02  0.32056992281E+01 -0.29114968478E+02  0.10461104447E+03  0.83341778817E+02 0.  0.
         -6    2    1    2    0  502  0.86616500061E+01  0.35231662565E+02 -0.42247048507E+02  0.18274065160E+03  0.17404895407E+03 0.  0.
        -24    2    5    5    0    0  0.39592290324E+02  0.52702339173E+02 -0.79824331398E+02  0.13081694564E+03  0.79975392310E+02 0.  0.
          5    1    3    3  501    0 -0.64694324683E+02 -0.38437361793E+02  0.28462633459E+01  0.75451823323E+02  0.47000000000E+01 0. -1.
        -13    1    4    4    0    0  0.46445179254E+02  0.38461436884E+02 -0.31429231561E+02  0.68001716152E+02  0.00000000000E+00 0.  1.
         14    1    4    4    0    0  0.95874954225E+01 -0.35255737656E+02  0.23142630835E+01  0.36609328316E+02  0.00000000000E+00 0. -1.
         -5    1    5    5    0  502 -0.30930640318E+02 -0.17470676608E+02  0.37577282891E+02  0.51923705964E+02  0.47000000000E+01 0.  1.
         11    1    6    6    0    0 -0.61743751581E+01  0.44728568277E+02 -0.70053847468E+02  0.83344521558E+02  0.00000000000E+00 0. -1.
        -12    1    6    6    0    0  0.45766665482E+02  0.79737708960E+01 -0.97704839293E+01  0.47472424078E+02  0.00000000000E+00 0.  1.
</event>
<event>
12    1  0.9246030E-003  0.2239239E+03  0.7818608E-02  0.1131195E+00
         21   -1    0    0  501  502  0.00000000000E+00  0.00000000000E+00  0.16983663618E+03  0.16983663618E+03  0.00000000000E+00 0.  1.
         21   -1    0    0  502  503 -0.00000000000E+00 -0.00000000000E+00 -0.34712239049E+03  0.34712239049E+03  0.00000000000E+00 0.  1.
          6    2    1    2  501    0  0.10497026713E+03 -0.94639179697E+02 -0.19016757996E+03  0.29377821577E+03  0.17368534848E+03 0.  0.
         24    2    3    3    0    0  0.11997086879E+03 -0.92041773479E+02 -0.91984668523E+02  0.19431094141E+03  0.80192676008E+02 0.  0.
         -6    2    1    2    0  503 -0.10497026713E+03  0.94639179697E+02  0.12881825653E+02  0.22318081090E+03  0.17224517876E+03 0.  0.
        -24    2    5    5    0    0 -0.10457817370E+03  0.10242668743E+03  0.58881117899E+02  0.17628919223E+03  0.78632515792E+02 0.  0.
          5    1    3    3  501    0 -0.15000601663E+02 -0.25974062178E+01 -0.98182911440E+02  0.99467274358E+02  0.47000000000E+01 0. -1.
        -13    1    4    4    0    0  0.16393280971E+02 -0.92390877028E+01  0.14890826076E+02  0.23996606089E+02  0.00000000000E+00 0.  1.
         14    1    4    4    0    0  0.10357758782E+03 -0.82802685777E+02 -0.10687549460E+03  0.17031433532E+03  0.00000000000E+00 0. -1.
         -5    1    5    5    0  503 -0.39209342712E+00 -0.77875077342E+01 -0.45999292246E+02  0.46891618666E+02  0.47000000000E+01 0.  1.
         11    1    6    6    0    0  0.11007282351E+02  0.15234859173E+02  0.17565448898E+02  0.25725594138E+02  0.00000000000E+00 0. -1.
        -12    1    6    6    0    0 -0.11558545605E+03  0.87191828259E+02  0.41315669001E+02  0.15056359809E+03  0.00000000000E+00 0.  1.
</event>
<event>
12    1  0.9246030E-003  0.1909807E+03  0.7818608E-02  0.1157656E+00
         21   -1    0    0  503  502  0.00000000000E+00  0.00000000000E+00  0.19663016475E+02  0.19663016475E+02  0.00000000000E+00 0.  1.
         21   -1    0    0  501  503 -0.00000000000E+00 -0.00000000000E+00 -0.19044244246E+04  0.19044244246E+04  0.00000000000E+00 0. -1.
          6    2    1    2  501    0 -0.80556734801E+02 -0.18729156733E+02 -0.11017151344E+04  0.11180880138E+04  0.17176844986E+03 0.  0.
         24    2    3    3    0    0 -0.86647984915E+02 -0.37536322473E+02 -0.46635146130E+03  0.48239948950E+03  0.79427534393E+02 0.  0.
         -6    2    1    2    0  502  0.80556734801E+02  0.18729156733E+02 -0.78304627381E+03  0.80599942737E+03  0.17214366433E+03 0.  0.
        -24    2    5    5    0    0  0.86609253279E+02  0.23344707965E+02 -0.30556597920E+03  0.32843533949E+03  0.80330980579E+02 0.  0.
          5    1    3    3  501    0  0.60912501133E+01  0.18807165741E+02 -0.63536367307E+03  0.63568852425E+03  0.47000000000E+01 0. -1.
        -13    1    4    4    0    0 -0.31181396310E+01 -0.30618659878E+02 -0.59329116350E+02  0.66836884834E+02  0.00000000000E+00 0.  1.
         14    1    4    4    0    0 -0.83529845284E+02 -0.69176625954E+01 -0.40702234495E+03  0.41556260467E+03  0.00000000000E+00 0. -1.
         -5    1    5    5    0  502 -0.60525184772E+01 -0.46155512327E+01 -0.47748029461E+03  0.47756408788E+03  0.47000000000E+01 0.  1.
         11    1    6    6    0    0  0.51057212755E+02  0.25135664388E+02 -0.27702282635E+03  0.28280786219E+03  0.00000000000E+00 0. -1.
        -12    1    6    6    0    0  0.35552040524E+02 -0.17909564224E+01 -0.28543152848E+02  0.45627477300E+02  0.00000000000E+00 0.  1.
</event>
<event>
12    1  0.9246030E-003  0.1847986E+03  0.7818608E-02  0.1167280E+00
         21   -1    0    0  503  502  0.00000000000E+00  0.00000000000E+00  0.19700365591E+02  0.19700365591E+02  0.00000000000E+00 0.  1.
         21   -1    0    0  501  503 -0.00000000000E+00 -0.00000000000E+00 -0.24759202387E+04  0.24759202387E+04  0.00000000000E+00 0.  1.
          6    2    1    2  501    0  0.58381242582E+02  0.33157595952E+02 -0.20136546607E+04  0.20221166220E+04  0.17217068581E+03 0.  0.
         24    2    3    3    0    0  0.37054135082E+00  0.42262328209E+02 -0.17249872975E+04  0.17274997960E+04  0.82994741306E+02 0.  0.
         -6    2    1    2    0  502 -0.58381242582E+02 -0.33157595952E+02 -0.44256521246E+03  0.47350398227E+03  0.15438347803E+03 0.  0.
        -24    2    5    5    0    0  0.22467737327E+02 -0.11992735610E+01 -0.23095438355E+03  0.24468281884E+03  0.77611320535E+02 0.  0.
          5    1    3    3  501    0  0.58010701231E+02 -0.91047322566E+01 -0.28866736317E+03  0.29461682601E+03  0.47000000000E+01 0. -1.
        -11    1    4    4    0    0 -0.14758177953E+02 -0.19610626250E+02 -0.26819914133E+03  0.26931980968E+03  0.00000000000E+00 0.  1.
         12    1    4    4    0    0  0.15128719303E+02  0.61872954459E+02 -0.14567881562E+04  0.14581799863E+04  0.00000000000E+00 0. -1.
         -5    1    5    5    0  502 -0.80848979909E+02 -0.31958322391E+02 -0.21161082891E+03  0.22882116343E+03  0.47000000000E+01 0.  1.
         11    1    6    6    0    0  0.32687601169E+02 -0.13756219154E+02 -0.22445067703E+03  0.22723516289E+03  0.00000000000E+00 0. -1.
        -12    1    6    6    0    0 -0.10219863842E+02  0.12556945593E+02 -0.65037065265E+01  0.17447655950E+02  0.00000000000E+00 0.  1.
</event>
<event>
12    1  0.9246030E-003  0.2156433E+03  0.7818608E-02  0.1137322E+00
         21   -1    0    0  503  502  0.00000000000E+00  0.00000000000E+00  0.84656169142E+02  0.84656169142E+02  0.00000000000E+00 0.  1.
         21   -1    0    0  501  503 -0.00000000000E+00 -0.00000000000E+00 -0.55151537359E+03  0.55151537359E+03  0.00000000000E+00 0.  1.
          6    2    1    2  501    0  0.36419834084E+02  0.12427586568E+03 -0.20615987832E+03  0.29833527812E+03  0.17242722416E+03 0.  0.
         24    2    3    3    0    0 -0.65130109099E+01  0.10795120123E+03 -0.21275921517E+03  0.25169446878E+03  0.79923343373E+02 0.  0.
         -6    2    1    2    0  502 -0.36419834084E+02 -0.12427586568E+03 -0.26069932612E+03  0.33783626461E+03  0.17145934778E+03 0.  0.
        -24    2    5    5    0    0 -0.16438634562E+01 -0.43834581880E+02 -0.40984107352E+02  0.10124159935E+03  0.81522950924E+02 0.  0.
          5    1    3    3  501    0  0.42932844994E+02  0.16324664452E+02  0.65993368479E+01  0.46640809336E+02  0.47000000000E+01 0. -1.
        -11    1    4    4    0    0  0.33884093120E+02  0.72545570879E+02 -0.11463372611E+03  0.13982804720E+03  0.00000000000E+00 0.  1.
         12    1    4    4    0    0 -0.40397104030E+02  0.35405630352E+02 -0.98125489061E+02  0.11186642158E+03  0.00000000000E+00 0. -1.
         -5    1    5    5    0  502 -0.34775970627E+02 -0.80441283802E+02 -0.21971521877E+03  0.23659466527E+03  0.47000000000E+01 0.  1.
         13    1    6    6    0    0  0.13577723191E+01 -0.63486115992E+02 -0.48588529410E+02  0.79957336497E+02  0.00000000000E+00 0. -1.
        -14    1    6    6    0    0 -0.30016357753E+01  0.19651534111E+02  0.76044220582E+01  0.21284262851E+02  0.00000000000E+00 0.  1.
</event>
<event>
12    1  0.9246030E-003  0.1736275E+03  0.7818608E-02  0.1174358E+00
         21   -1    0    0  503  502  0.00000000000E+00  0.00000000000E+00  0.92694048200E+02  0.92694048200E+02  0.00000000000E+00 0.  1.
         21   -1    0    0  501  503 -0.00000000000E+00 -0.00000000000E+00 -0.33060464037E+03  0.33060464037E+03  0.00000000000E+00 0.  1.
          6    2    1    2  501    0 -0.22378312971E+02 -0.35721059881E+01 -0.87501133519E+02  0.19358254819E+03  0.17118471241E+03 0.  0.
         24    2    3    3    0    0 -0.78936708518E+02 -0.18289205319E+02 -0.55357603445E+02  0.12671894340E+03  0.80173108801E+02 0.  0.
         -6    2    1    2    0  502  0.22378312971E+02  0.35721059881E+01 -0.15040945865E+03  0.22971614038E+03  0.17214224080E+03 0.  0.
        -24    2    5    5    0    0 -0.22817218445E+02  0.55853190309E+02 -0.47245688197E+02  0.10545511925E+03  0.72445999186E+02 0.  0.
          5    1    3    3  501    0  0.56558395547E+02  0.14717099331E+02 -0.32143530074E+02  0.66863604787E+02  0.47000000000E+01 0. -1.
        -13    1    4    4    0    0 -0.46286241834E+02 -0.34397172834E+02  0.32103868629E+01  0.57757149045E+02  0.00000000000E+00 0.  1.
         14    1    4    4    0    0 -0.32650466684E+02  0.16107967515E+02 -0.58567990308E+02  0.68961794356E+02  0.00000000000E+00 0. -1.
         -5    1    5    5    0  502  0.45195531416E+02 -0.52281084321E+02 -0.10316377045E+03  0.12426102113E+03  0.47000000000E+01 0.  1.
         11    1    6    6    0    0  0.33623947438E+01 -0.15887121239E+02 -0.16440220754E+02  0.23108162587E+02  0.00000000000E+00 0. -1.
        -12    1    6    6    0    0 -0.26179613189E+02  0.71740311548E+02 -0.30805467443E+02  0.82346956666E+02  0.00000000000E+00 0.  1.
</event>
<event>
12    1  0.9246030E-003  0.2406021E+03  0.7818608E-02  0.1119554E+00
         21   -1    0    0  503  502  0.00000000000E+00  0.00000000000E+00  0.19754174216E+03  0.19754174216E+03  0.00000000000E+00 0. -1.
         21   -1    0    0  501  503 -0.00000000000E+00 -0.00000000000E+00 -0.33739505840E+03  0.33739505840E+03  0.00000000000E+00 0. -1.
          6    2    1    2  501    0  0.73702776334E+02  0.15208547468E+03 -0.16830293920E+03  0.29362429871E+03  0.17125203240E+03 0.  0.
         24    2    3    3    0    0  0.15151869743E+02  0.43121424106E+01 -0.58595277321E+02  0.10043261289E+03  0.80032052827E+02 0.  0.
         -6    2    1    2    0  502 -0.73702776334E+02 -0.15208547468E+03  0.28449622968E+02  0.24131250185E+03  0.16988305287E+03 0.  0.
        -24    2    5    5    0    0 -0.11042668430E+03 -0.64228494968E+02 -0.89492475861E+01  0.13890029643E+03  0.53794527098E+02 0.  0.
          5    1    3    3  501    0  0.58550906592E+02  0.14777333227E+03 -0.10970766188E+03  0.19319168582E+03  0.47000000000E+01 0. -1.
        -11    1    4    4    0    0  0.10999997615E+01  0.32078896589E+02 -0.61300359217E+02  0.69195373010E+02  0.00000000000E+00 0.  1.
         12    1    4    4    0    0  0.14051869981E+02 -0.27766754178E+02  0.27050818964E+01  0.31237239885E+02  0.00000000000E+00 0. -1.
         -5    1    5    5    0  502  0.36723907961E+02 -0.87856979715E+02  0.37398870555E+02  0.10241220542E+03  0.47000000000E+01 0.  1.
         13    1    6    6    0    0 -0.88215677922E+02 -0.26477194492E+02  0.68004209025E+01  0.92354173614E+02  0.00000000000E+00 0. -1.
        -14    1    6    6    0    0 -0.22211006373E+02 -0.37751300475E+02 -0.15749668489E+02  0.46546122816E+02  0.00000000000E+00 0.  1.
</event>
<event>
12    1  0.9246030E-003  0.3685493E+03  0.7818608E-02  0.1055365E+00
         21   -1    0    0  501  502  0.00000000000E+00  0.00000000000E+00  0.13435878554E+03  0.13435878554E+03  0.00000000000E+00 0. -1.
         21   -1    0    0  502  503 -0.00000000000E+00 -0.00000000000E+00 -0.10076584277E+04  0.10076584277E+04  0.00000000000E+00 0.  1.
          6    2    1    2  501    0  0.31292069171E+03  0.88374769260E+02 -0.43348083134E+03  0.56819739287E+03  0.17091865603E+03 0.  0.
         24    2    3    3    0    0  0.18307155871E+03  0.46506218898E+02 -0.14966546286E+03  0.25325767445E+03  0.77856758794E+02 0.  0.
         -6    2    1    2    0  503 -0.31292069171E+03 -0.88374769260E+02 -0.43981881079E+03  0.57381982034E+03  0.17349103938E+03 0.  0.
        -24    2    5    5    0    0 -0.14463414197E+03  0.85300321664E+01 -0.14315148144E+03  0.21921511412E+03  0.81062464500E+02 0.  0.
          5    1    3    3  501    0  0.12984913300E+03  0.41868550362E+02 -0.28381536848E+03  0.31493971842E+03  0.47000000000E+01 0. -1.
        -13    1    4    4    0    0  0.52704633966E+02  0.36048235592E+02 -0.15115382707E+02  0.65618050300E+02  0.00000000000E+00 0.  1.
         14    1    4    4    0    0  0.13036692475E+03  0.10457983306E+02 -0.13455008015E+03  0.18763962415E+03  0.00000000000E+00 0. -1.
         -5    1    5    5    0  503 -0.16828654974E+03 -0.96904801426E+02 -0.29666732935E+03  0.35460470621E+03  0.47000000000E+01 0.  1.
         11    1    6    6    0    0 -0.14353806393E+03 -0.13302678283E+02 -0.12499976061E+03  0.19080114570E+03  0.00000000000E+00 0. -1.
        -12    1    6    6    0    0 -0.10960780341E+01  0.21832710450E+02 -0.18151720830E+02  0.28413968426E+02  0.00000000000E+00 0.  1.
</event>
<event>
12    1  0.9246030E-003  0.2284826E+03  0.7818608E-02  0.1128491E+00
         21   -1    0    0  503  502  0.00000000000E+00  0.00000000000E+00  0.33401738835E+03  0.33401738835E+03  0.00000000000E+00 0. -1.
         21   -1    0    0  501  503 -0.00000000000E+00 -0.00000000000E+00 -0.15581888912E+03  0.15581888912E+03  0.00000000000E+00 0. -1.
          6    2    1    2  501    0 -0.85286951224E+02  0.12350731375E+03  0.59015309141E+02  0.23598115917E+03  0.17226833769E+03 0.  0.
         24    2    3    3    0    0 -0.45636129543E+02  0.27288720112E+02  0.85163719417E+02  0.12857522459E+03  0.80320599535E+02 0.  0.
         -6    2    1    2    0  502  0.85286951224E+02 -0.12350731375E+03  0.11918319009E+03  0.25385511830E+03  0.16646281173E+03 0.  0.
        -24    2    5    5    0    0  0.37741851853E+02 -0.12970375796E+03  0.12820912627E+03  0.20483991741E+03  0.85289504015E+02 0.  0.
          5    1    3    3  501    0 -0.39650821681E+02  0.96218593639E+02 -0.26148410276E+02  0.10740593457E+03  0.47000000000E+01 0. -1.
        -11    1    4    4    0    0 -0.39346391045E+02  0.53751061127E+02  0.72863038119E+02  0.98723540174E+02  0.00000000000E+00 0.  1.
         12    1    4    4    0    0 -0.62897384976E+01 -0.26462341015E+02  0.12300681298E+02  0.29851684421E+02  0.00000000000E+00 0. -1.
         -5    1    5    5    0  502  0.47545099370E+02  0.61964442063E+01 -0.90259361828E+01  0.49015200896E+02  0.47000000000E+01 0.  1.
         11    1    6    6    0    0  0.64420155080E+01 -0.64705340528E+02  0.11410436279E+03  0.13133196970E+03  0.00000000000E+00 0. -1.
        -12    1    6    6    0    0  0.31299836345E+02 -0.64998417430E+02  0.14104763477E+02  0.73507947709E+02  0.00000000000E+00 0.  1.
</event>
<event>
12    1  0.9246030E-003  0.2090698E+03  0.7818608E-02  0.1142406E+00
         21   -1    0    0  503  502  0.00000000000E+00  0.00000000000E+00  0.23086091339E+03  0.23086091339E+03  0.00000000000E+00 0.  1.
         21   -1    0    0  501  503 -0.00000000000E+00 -0.00000000000E+00 -0.28432179209E+03  0.28432179209E+03  0.00000000000E+00 0.  1.
          6    2    1    2  501    0 -0.94494873626E+02  0.71593531749E+02 -0.17595458817E+03  0.27287112382E+03  0.17159171946E+03 0.  0.
         24    2    3    3    0    0 -0.49413864454E+02  0.14307806569E+02 -0.17581146041E+03  0.19982276872E+03  0.79831234242E+02 0.  0.
         -6    2    1    2    0  502  0.94494873626E+02 -0.71593531749E+02  0.12249370947E+03  0.24231158167E+03  0.17220708121E+03 0.  0.
        -24    2    5    5    0    0 -0.15186053653E+02 -0.10246725984E+02  0.27913019992E+02  0.84955510260E+02  0.78119718506E+02 0.  0.
          5    1    3    3  501    0 -0.45081009173E+02  0.57285725180E+02 -0.14312776319E+00  0.73048355101E+02  0.47000000000E+01 0. -1.
        -11    1    4    4    0    0 -0.14000233263E+02 -0.24812261978E+02 -0.18680037813E+02  0.34067560649E+02  0.00000000000E+00 0.  1.
         12    1    4    4    0    0 -0.35413631191E+02  0.39120068547E+02 -0.15713142259E+03  0.16575520807E+03  0.00000000000E+00 0. -1.
         -5    1    5    5    0  502  0.10968092728E+03 -0.61346805765E+02  0.94580689476E+02  0.15735607141E+03  0.47000000000E+01 0.  1.
         13    1    6    6    0    0 -0.21810148225E+02  0.88987298304E+01 -0.21286124468E+02  0.31748528360E+02  0.00000000000E+00 0. -1.
        -14    1    6    6    0    0  0.66240945718E+01 -0.19145455815E+02  0.49199144460E+02  0.53206981899E+02  0.00000000000E+00 0.  1.
</event>
<event>
12    1  0.9246030E-003  0.2518963E+03  0.7818608E-02  0.1113119E+00
         21   -1    0    0  503  502  0.00000000000E+00  0.00000000000E+00  0.26452208174E+03  0.26452208174E+03  0.00000000000E+00 0. -1.
         21   -1    0    0  501  503 -0.00000000000E+00 -0.00000000000E+00 -0.28375355780E+03  0.28375355780E+03  0.00000000000E+00 0. -1.
          6    2    1    2  501    0  0.13436316194E+03  0.11186826504E+03 -0.12444983239E+03  0.27528729253E+03  0.17241625398E+03 0.  0.
         24    2    3    3    0    0  0.13630309959E+03  0.13608662009E+03 -0.13519480095E+03  0.24830884875E+03  0.79256211370E+02 0.  0.
         -6    2    1    2    0  502 -0.13436316194E+03 -0.11186826504E+03  0.10521835633E+03  0.27298834701E+03  0.18133881846E+03 0.  0.
        -24    2    5    5    0    0 -0.63850965128E+02 -0.14255615010E+03  0.59855583519E+02  0.18358148292E+03  0.75632455416E+02 0.  0.
          5    1    3    3  501    0 -0.19399376422E+01 -0.24218355049E+02  0.10744968557E+02  0.26978443777E+02  0.47000000000E+01 0. -1.
        -11    1    4    4    0    0 -0.41078890324E+01  0.52278223873E+00 -0.22620133193E+02  0.22996053558E+02  0.00000000000E+00 0.  1.
         12    1    4    4    0    0  0.14041098862E+03  0.13556383785E+03 -0.11257466775E+03  0.22531279519E+03  0.00000000000E+00 0. -1.
         -5    1    5    5    0  502 -0.70512196815E+02  0.30687885059E+02  0.45362772813E+02  0.89406864090E+02  0.47000000000E+01 0.  1.
         11    1    6    6    0    0 -0.30753484946E+02 -0.89433899797E+02  0.73191054744E+02  0.11958733112E+03  0.00000000000E+00 0. -1.
        -12    1    6    6    0    0 -0.33097480182E+02 -0.53122250305E+02 -0.13335471225E+02  0.63994151800E+02  0.00000000000E+00 0.  1.
</event>
<event>
12    1  0.9246030E-003  0.1764275E+03  0.7818608E-02  0.1171521E+00
         21   -1    0    0  503  502  0.00000000000E+00  0.00000000000E+00  0.11798935781E+03  0.11798935781E+03  0.00000000000E+00 0.  1.
         21   -1    0    0  501  503 -0.00000000000E+00 -0.00000000000E+00 -0.29258868226E+03  0.29258868226E+03  0.00000000000E+00 0.  1.
          6    2    1    2  501    0 -0.24565619971E+01 -0.32783157917E+02 -0.15330467612E+03  0.23372847371E+03  0.17333754804E+03 0.  0.
         24    2    3    3    0    0 -0.50107686879E+01 -0.85366891995E+02 -0.13446072614E+03  0.17761468296E+03  0.78451734698E+02 0.  0.
         -6    2    1    2    0  502  0.24565619971E+01  0.32783157917E+02 -0.21294648325E+02  0.17684956635E+03  0.17245734815E+03 0.  0.
        -24    2    5    5    0    0 -0.88380100373E+00 -0.47792325101E+02 -0.25577688647E+02  0.95954566983E+02  0.79171796277E+02 0.  0.
          5    1    3    3  501    0  0.25542066908E+01  0.52583734078E+02 -0.18843949989E+02  0.56113790752E+02  0.47000000000E+01 0. -1.
        -11    1    4    4    0    0 -0.16228930654E+02  0.33446553395E+01 -0.53141598748E+00  0.16578519611E+02  0.00000000000E+00 0.  1.
         12    1    4    4    0    0  0.11218161967E+02 -0.88711547335E+02 -0.13392931015E+03  0.16103616335E+03  0.00000000000E+00 0. -1.
         -5    1    5    5    0  502  0.33403630008E+01  0.80575483018E+02  0.42830403214E+01  0.80894999370E+02  0.47000000000E+01 0.  1.
         11    1    6    6    0    0 -0.25285697781E+02 -0.24333853910E+02 -0.44893709744E+02  0.56981998323E+02  0.00000000000E+00 0. -1.
        -12    1    6    6    0    0  0.24401896777E+02 -0.23458471191E+02  0.19316021097E+02  0.38972568660E+02  0.00000000000E+00 0.  1.
</event>
<event>
12    1  0.9246030E-003  0.1747149E+03  0.7818608E-02  0.1173312E+00
         21   -1    0    0  501  502  0.00000000000E+00  0.00000000000E+00  0.48119737500E+02  0.48119737500E+02  0.00000000000E+00 0.  1.
         21   -1    0    0  502  503 -0.00000000000E+00 -0.00000000000E+00 -0.65034861023E+03  0.65034861023E+03  0.00000000000E+00 0. -1.
          6    2    1    2  501    0  0.88947792512E+00 -0.32242951424E+02 -0.36364987291E+03  0.40344332429E+03  0.17171163838E+03 0.  0.
         24    2    3    3    0    0 -0.18222675812E+02  0.34817694797E+02 -0.28239779252E+03  0.29626872254E+03  0.80512762652E+02 0.  0.
         -6    2    1    2    0  503 -0.88947792512E+00  0.32242951424E+02 -0.23857899981E+03  0.29502502344E+03  0.17052690760E+03 0.  0.
        -24    2    5    5    0    0  0.57918474631E+02 -0.12758079348E+01 -0.18052535895E+03  0.20572665990E+03  0.79861605173E+02 0.  0.
          5    1    3    3  501    0  0.19112153737E+02 -0.67060646221E+02 -0.81252080395E+02  0.10717460175E+03  0.47000000000E+01 0. -1.
        -13    1    4    4    0    0 -0.30549992424E+02  0.30963264685E+02 -0.63379547156E+02  0.76869973297E+02  0.00000000000E+00 0.  1.
         14    1    4    4    0    0  0.12327316612E+02  0.38544301124E+01 -0.21901824536E+03  0.21939874924E+03  0.00000000000E+00 0. -1.
         -5    1    5    5    0  503 -0.58807952557E+02  0.33518759359E+02 -0.58053640865E+02  0.89298363538E+02  0.47000000000E+01 0.  1.
         13    1    6    6    0    0  0.16891221158E+02  0.33985437710E+02 -0.11300351088E+03  0.11920619447E+03  0.00000000000E+00 0. -1.
        -14    1    6    6    0    0  0.41027253473E+02 -0.35261245645E+02 -0.67521848071E+02  0.86520465434E+02  0.00000000000E+00 0.  1.
</event>
<event>
12    1  0.9246030E-003  0.3856543E+03  0.7818608E-02  0.1048900E+00
         21   -1    0    0  503  502  0.00000000000E+00  0.00000000000E+00  0.36784754618E+03  0.36784754618E+03  0.00000000000E+00 0. -1.
         21   -1    0    0  501  503 -0.00000000000E+00 -0.00000000000E+00 -0.45070422813E+03  0.45070422813E+03  0.00000000000E+00 0. -1.
          6    2    1    2  501    0 -0.27044695304E+02  0.34387376780E+03 -0.17333225842E+03  0.42281596549E+03  0.17247807146E+03 0.  0.
         24    2    3    3    0    0  0.21130057866E+01  0.32826543179E+03 -0.18729943843E+03  0.38660873135E+03  0.81379192823E+02 0.  0.
         -6    2    1    2    0  502  0.27044695304E+02 -0.34387376780E+03  0.90475576472E+02  0.39573580883E+03  0.17158209908E+03 0.  0.
        -24    2    5    5    0    0 -0.25667593654E+01 -0.32124277661E+03  0.11556851965E+03  0.35056119419E+03  0.79583656359E+02 0.  0.
          5    1    3    3  501    0 -0.29157701091E+02  0.15608336014E+02  0.13967180007E+02  0.36207234131E+02  0.47000000000E+01 0. -1.
        -13    1    4    4    0    0  0.10314897170E+02  0.85645770299E+02 -0.11825840221E+02  0.87071496890E+02  0.00000000000E+00 0.  1.
         14    1    4    4    0    0 -0.82018913830E+01  0.24261966149E+03 -0.17547359821E+03  0.29953723446E+03  0.00000000000E+00 0. -1.
         -5    1    5    5    0  502  0.29611454669E+02 -0.22630991190E+02 -0.25092943182E+02  0.45174614635E+02  0.47000000000E+01 0.  1.
         11    1    6    6    0    0 -0.20080842633E+02 -0.95219276045E+02  0.68554704124E+02  0.11903654157E+03  0.00000000000E+00 0. -1.
        -12    1    6    6    0    0  0.17514083268E+02 -0.22602350056E+03  0.47013815530E+02  0.23152465262E+03  0.00000000000E+00 0.  1.
</event>
<event>
12    1  0.9246030E-003  0.1883832E+03  0.7818608E-02  0.1160391E+00
         21   -1    0    0  501  502  0.00000000000E+00  0.00000000000E+00  0.13810381479E+04  0.13810381479E+04  0.00000000000E+00 0.  1.
         21   -1    0    0  502  503 -0.00000000000E+00 -0.00000000000E+00 -0.25705371794E+02  0.25705371794E+02  0.00000000000E+00 0. -1.
          6    2    1    2  501    0 -0.22681560806E+02 -0.74247373136E+02  0.74789469141E+03  0.77076453491E+03  0.16942365009E+03 0.  0.
         24    2    3    3    0    0  0.15065438397E+02 -0.25025352803E+01  0.56245889228E+03  0.56832767238E+03  0.80019420010E+02 0.  0.
         -6    2    1    2    0  503  0.22681560806E+02  0.74247373136E+02  0.60743808467E+03  0.63597898476E+03  0.17164240948E+03 0.  0.
        -24    2    5    5    0    0  0.47780598991E+02 -0.12141477007E+02  0.21429072664E+03  0.23264298306E+03  0.75972632818E+02 0.  0.
          5    1    3    3  501    0 -0.37746999203E+02 -0.71744837856E+02  0.18543579913E+03  0.20243686252E+03  0.47000000000E+01 0. -1.
        -13    1    4    4    0    0  0.31358413751E+02 -0.15904444179E+02  0.51719464364E+03  0.51838846521E+03  0.00000000000E+00 0.  1.
         14    1    4    4    0    0 -0.16292975354E+02  0.13401908899E+02  0.45264248637E+02  0.49939207169E+02  0.00000000000E+00 0. -1.
         -5    1    5    5    0  503 -0.25099038185E+02  0.86388850143E+02  0.39314735803E+03  0.40333600170E+03  0.47000000000E+01 0.  1.
         13    1    6    6    0    0  0.38995281596E+02 -0.42707868163E+02  0.15354730552E+03  0.16407732635E+03  0.00000000000E+00 0. -1.
        -14    1    6    6    0    0  0.87853173953E+01  0.30566391157E+02  0.60743421121E+02  0.68565656706E+02  0.00000000000E+00 0.  1.
</event>
<event>
12    1  0.9246030E-003  0.3259927E+03  0.7818608E-02  0.1073374E+00
         21   -1    0    0  503  502  0.00000000000E+00  0.00000000000E+00  0.13647426682E+04  0.13647426682E+04  0.00000000000E+00 0.  1.
         21   -1    0    0  501  503 -0.00000000000E+00 -0.00000000000E+00 -0.80570298811E+02  0.80570298811E+02  0.00000000000E+00 0. -1.
          6    2    1    2  501    0  0.16825669594E+03 -0.21620219725E+03  0.48454635209E+03  0.58178936503E+03  0.16923354313E+03 0.  0.
         24    2    3    3    0    0  0.29280815004E+02 -0.60930602250E+02  0.23024898484E+03  0.25298424846E+03  0.80103249194E+02 0.  0.
         -6    2    1    2    0  502 -0.16825669594E+03  0.21620219725E+03  0.79962601731E+03  0.86352360198E+03  0.17668485449E+03 0.  0.
        -24    2    5    5    0    0 -0.10270152137E+03  0.89087458348E+02  0.25012519715E+03  0.29569538930E+03  0.79931040786E+02 0.  0.
          5    1    3    3  501    0  0.13897588093E+03 -0.15527159500E+03  0.25429736725E+03  0.32880511657E+03  0.47000000000E+01 0. -1.
        -13    1    4    4    0    0  0.55866817952E+02 -0.52421836510E+02  0.16011423582E+03  0.17749850367E+03  0.00000000000E+00 0.  1.
         14    1    4    4    0    0 -0.26586002949E+02 -0.85087657395E+01  0.70134749020E+02  0.75485744795E+02  0.00000000000E+00 0. -1.
         -5    1    5    5    0  502 -0.65555174567E+02  0.12711473890E+03  0.54950082016E+03  0.56782821268E+03  0.47000000000E+01 0.  1.
         11    1    6    6    0    0 -0.29791861089E+01  0.24561622752E+02  0.79958527267E+01  0.26001586930E+02  0.00000000000E+00 0. -1.
        -12    1    6    6    0    0 -0.99722335261E+02  0.64525835596E+02  0.24212934442E+03  0.26969380237E+03  0.00000000000E+00 0.  1.
</event>
<event>
12    1  0.9246030E-003  0.2251670E+03  0.7818608E-02  0.1130151E+00
         21   -1    0    0  501  502  0.00000000000E+00  0.00000000000E+00  0.89268634803E+02  0.89268634803E+02  0.00000000000E+00 0. -1.
         21   -1    0    0  502  503 -0.00000000000E+00 -0.00000000000E+00 -0.61901285130E+03  0.61901285130E+03  0.00000000000E+00 0.  1.
          6    2    1    2  501    0  0.13662186761E+03  0.50322965792E+02 -0.16210509930E+03  0.27716816041E+03  0.17130729795E+03 0.  0.
         24    2    3    3    0    0 -0.32629936983E+01  0.53723476754E-01 -0.66369521288E+02  0.10030052051E+03  0.75130759640E+02 0.  0.
         -6    2    1    2    0  503 -0.13662186761E+03 -0.50322965792E+02 -0.36763911720E+03  0.43111332569E+03  0.17176217133E+03 0.  0.
        -24    2    5    5    0    0 -0.44054805453E+02 -0.20459277516E+01 -0.75815532306E+02  0.12114166877E+03  0.83560141628E+02 0.  0.
          5    1    3    3  501    0  0.13988486131E+03  0.50269242315E+02 -0.95735578012E+02  0.17686763990E+03  0.47000000000E+01 0. -1.
        -11    1    4    4    0    0 -0.84110723389E+01  0.35707913491E+02 -0.20662836321E+02  0.42104085652E+02  0.00000000000E+00 0.  1.
         12    1    4    4    0    0  0.51480786406E+01 -0.35654190014E+02 -0.45706684967E+02  0.58196434856E+02  0.00000000000E+00 0. -1.
         -5    1    5    5    0  503 -0.92567062161E+02 -0.48277038040E+02 -0.29182358489E+03  0.30997165693E+03  0.47000000000E+01 0.  1.
         11    1    6    6    0    0 -0.34009236359E+02 -0.40963857155E+02 -0.34168661083E+02  0.63262652102E+02  0.00000000000E+00 0. -1.
        -12    1    6    6    0    0 -0.10045569094E+02  0.38917929403E+02 -0.41646871223E+02  0.57879016665E+02  0.00000000000E+00 0.  1.
</event>
<event>
12    1  0.9246030E-003  0.4249296E+03  0.7818608E-02  0.1035479E+00
         21   -1    0    0  503  502  0.00000000000E+00  0.00000000000E+00  0.50778083238E+03  0.50778083238E+03  0.00000000000E+00 0. -1.
         21   -1    0    0  501  503 -0.00000000000E+00 -0.00000000000E+00 -0.42958007864E+03  0.42958007864E+03  0.00000000000E+00 0.  1.
          6    2    1    2  501    0 -0.33600875114E+03  0.19436750149E+03 -0.15546793480E+03  0.45247704154E+03  0.17287159363E+03 0.  0.
         24    2    3    3    0    0 -0.28674502162E+03  0.21078430589E+03 -0.16378596116E+03  0.39967830977E+03  0.79146567832E+02 0.  0.
         -6    2    1    2    0  502  0.33600875114E+03 -0.19436750149E+03  0.23366868854E+03  0.48488386949E+03  0.17271567503E+03 0.  0.
        -24    2    5    5    0    0  0.34829388585E+03 -0.18043439577E+03  0.23621771116E+03  0.46555400952E+03  0.84122093495E+02 0.  0.
          5    1    3    3  501    0 -0.49263729525E+02 -0.16416804393E+02  0.83180263593E+01  0.52798731762E+02  0.47000000000E+01 0. -1.
        -13    1    4    4    0    0 -0.10676584569E+03  0.12615593922E+03 -0.64753046731E+02  0.17750274326E+03  0.00000000000E+00 0.  1.
         14    1    4    4    0    0 -0.17997917593E+03  0.84628366669E+02 -0.99032914432E+02  0.22217556651E+03  0.00000000000E+00 0. -1.
         -5    1    5    5    0  502 -0.12285134709E+02 -0.13933105729E+02 -0.25490226187E+01  0.19329859968E+02  0.47000000000E+01 0.  1.
         13    1    6    6    0    0  0.62741964612E+02 -0.56409269507E+02  0.83825378706E+02  0.11893382162E+03  0.00000000000E+00 0. -1.
        -14    1    6    6    0    0  0.28555192124E+03 -0.12402512626E+03  0.15239233246E+03  0.34662018790E+03  0.00000000000E+00 0.  1.
</event>
<event>
12    1  0.9246030E-003  0.2029737E+03  0.7818608E-02  0.1148500E+00
         21   -1    0    0  501  502  0.00000000000E+00  0.00000000000E+00  0.41971730058E+02  0.41971730058E+02  0.00000000000E+00 0. -1.
         21   -1    0    0  502  503 -0.00000000000E+00 -0.00000000000E+00 -0.11515797063E+04  0.11515797063E+04  0.00000000000E+00 0.  1.
          6    2    1    2  501    0  0.58996866336E+02  0.76896593769E+02 -0.30028313393E+03  0.35916242616E+03  0.17156331621E+03 0.  0.
         24    2    3    3    0    0  0.62292367494E+02  0.16529924263E+02 -0.27435377309E+03  0.29321231722E+03  0.80931407492E+02 0.  0.
         -6    2    1    2    0  503 -0.58996866336E+02 -0.76896593769E+02 -0.80932484226E+03  0.83438901015E+03  0.17833845235E+03 0.  0.
        -24    2    5    5    0    0  0.19125970227E+02 -0.80159022035E+01 -0.21776998932E+03  0.23371691882E+03  0.82278627053E+02 0.  0.
          5    1    3    3  501    0 -0.32955011586E+01  0.60366669506E+02 -0.25929360845E+02  0.65950108939E+02  0.47000000000E+01 0. -1.
        -13    1    4    4    0    0  0.11550452987E+02 -0.23345483576E+02 -0.26748432499E+02  0.37335013174E+02  0.00000000000E+00 0.  1.
         14    1    4    4    0    0  0.50741914508E+02  0.39875407838E+02 -0.24760534059E+03  0.25587730405E+03  0.00000000000E+00 0. -1.
         -5    1    5    5    0  503 -0.78122836563E+02 -0.68880691566E+02 -0.59155485294E+03  0.60067209132E+03  0.47000000000E+01 0.  1.
         13    1    6    6    0    0 -0.36587023588E+01  0.94102726431E+00 -0.20689290079E+03  0.20692738831E+03  0.00000000000E+00 0. -1.
        -14    1    6    6    0    0  0.22784672586E+02 -0.89569294678E+01 -0.10877088536E+02  0.26789530518E+02  0.00000000000E+00 0.  1.
</event>
<event>
12    1  0.9246030E-003  0.1994426E+03  0.7818608E-02  0.1150464E+00
         21   -1    0    0  501  502  0.00000000000E+00  0.00000000000E+00  0.17632577402E+03  0.17632577402E+03  0.00000000000E+00 0. -1.
         21   -1    0    0  502  503 -0.00000000000E+00 -0.00000000000E+00 -0.25704494387E+03  0.25704494387E+03  0.00000000000E+00 0. -1.
          6    2    1    2  501    0 -0.97254245419E+02  0.23648371324E+02 -0.11787219204E+03  0.23167045652E+03  0.17251003753E+03 0.  0.
         24    2    3    3    0    0 -0.13681600615E+03  0.15422257492E+02 -0.95694268764E+02  0.18533739983E+03  0.78968937790E+02 0.  0.
         -6    2    1    2    0  503  0.97254245419E+02 -0.23648371324E+02  0.37153022189E+02  0.20170026137E+03  0.17112864945E+03 0.  0.
        -24    2    5    5    0    0  0.12204490365E+03  0.17236436001E+02  0.29004649244E+02  0.15297008400E+03  0.85828455008E+02 0.  0.
          5    1    3    3  501    0  0.39561760736E+02  0.82261138320E+01 -0.22177923275E+02  0.46333056688E+02  0.47000000000E+01 0. -1.
        -11    1    4    4    0    0 -0.14151638296E+03  0.98327413929E+01 -0.10276740802E+03  0.17517051578E+03  0.00000000000E+00 0.  1.
         12    1    4    4    0    0  0.47003768063E+01  0.55895160989E+01  0.70731392526E+01  0.10166884047E+02  0.00000000000E+00 0. -1.
         -5    1    5    5    0  503 -0.24790658226E+02 -0.40884807325E+02  0.81483729447E+01  0.48730177374E+02  0.47000000000E+01 0.  1.
         11    1    6    6    0    0  0.63452128340E+02 -0.20115991276E+02  0.46643661264E+02  0.81280113385E+02  0.00000000000E+00 0. -1.
        -12    1    6    6    0    0  0.58592775305E+02  0.37352427278E+02 -0.17639012020E+02  0.71689970614E+02  0.00000000000E+00 0.  1.
</event>
<event>
12    1  0.9246030E-003  0.2961872E+03  0.7818608E-02  0.1088061E+00
         21   -1    0    0  503  502  0.00000000000E+00  0.00000000000E+00  0.42106123294E+03  0.42106123294E+03  0.00000000000E+00 0. -1.
         21   -1    0    0  501  503 -0.00000000000E+00 -0.00000000000E+00 -0.28470010338E+03  0.28470010338E+03  0.00000000000E+00 0. -1.
          6    2    1    2  501    0  0.48829854112E+02 -0.22653075971E+03 -0.11972911590E+03  0.31947132589E+03  0.18446226477E+03 0.  0.
         24    2    3    3    0    0  0.10389672880E+03 -0.12735868646E+03 -0.65340758953E+02  0.19358389930E+03  0.78680022988E+02 0.  0.
         -6    2    1    2    0  502 -0.48829854112E+02  0.22653075971E+03  0.25609024547E+03  0.38629001043E+03  0.17302375151E+03 0.  0.
        -24    2    5    5    0    0 -0.57053639617E+02  0.57602287280E+02  0.89102139659E+02  0.14856837295E+03  0.86949576510E+02 0.  0.
          5    1    3    3  501    0 -0.55066874689E+02 -0.99172073252E+02 -0.54388356951E+02  0.12588742659E+03  0.47000000000E+01 0. -1.
        -13    1    4    4    0    0  0.29598969012E+02 -0.58865099838E+02  0.11178491060E+02  0.66829316979E+02  0.00000000000E+00 0.  1.
         14    1    4    4    0    0  0.74297759789E+02 -0.68493586617E+02 -0.76519250013E+02  0.12675458232E+03  0.00000000000E+00 0. -1.
         -5    1    5    5    0  502  0.82237855050E+01  0.16892847243E+03  0.16698810581E+03  0.23772163748E+03  0.47000000000E+01 0.  1.
         11    1    6    6    0    0 -0.20087995506E+02  0.13682632851E+02  0.87848893897E+02  0.91149164363E+02  0.00000000000E+00 0. -1.
        -12    1    6    6    0    0 -0.36965644111E+02  0.43919654428E+02  0.12532457625E+01  0.57419208585E+02  0.00000000000E+00 0.  1.
</event>
<event>
12    1  0.9246030E-003  0.1937638E+03  0.7818608E-02  0.1155258E+00
         21   -1    0    0  503  502  0.00000000000E+00  0.00000000000E+00  0.73447250846E+02  0.73447250846E+02  0.00000000000E+00 0. -1.
         21   -1    0    0  501  503 -0.00000000000E+00 -0.00000000000E+00 -0.63448246436E+03  0.63448246436E+03  0.00000000000E+00 0. -1.
          6    2    1    2  501    0 -0.22175882802E+02 -0.86097472395E+02 -0.43728609336E+03  0.47802046424E+03  0.17140563659E+03 0.  0.
         24    2    3    3    0    0 -0.22011378158E+02 -0.79496298915E+02 -0.14261892956E+03  0.18324185244E+03  0.80207575122E+02 0.  0.
         -6    2    1    2    0  502  0.22175882802E+02  0.86097472395E+02 -0.12374912015E+03  0.22990925096E+03  0.17216234899E+03 0.  0.
        -24    2    5    5    0    0 -0.12636626323E+02 -0.19779818941E+02 -0.51805186448E+02  0.97169162034E+02  0.78785424701E+02 0.  0.
          5    1    3    3  501    0 -0.16450464424E+00 -0.66011734804E+01 -0.29466716380E+03  0.29477861180E+03  0.47000000000E+01 0. -1.
        -13    1    4    4    0    0 -0.25611276945E+02 -0.66561863819E+02 -0.15129112474E+03  0.16725855329E+03  0.00000000000E+00 0.  1.
         14    1    4    4    0    0  0.35998987874E+01 -0.12934435095E+02  0.86721951820E+01  0.15983299152E+02  0.00000000000E+00 0. -1.
         -5    1    5    5    0  502  0.34812509125E+02  0.10587729134E+03 -0.71943933702E+02  0.13274008893E+03  0.47000000000E+01 0.  1.
         13    1    6    6    0    0 -0.31579006635E+02  0.32530435526E+01  0.58289272677E+01  0.32276808167E+02  0.00000000000E+00 0. -1.
        -14    1    6    6    0    0  0.18942380312E+02 -0.23032862493E+02 -0.57634113716E+02  0.64892353866E+02  0.00000000000E+00 0.  1.
</event>
<event>
12    1  0.9246030E-003  0.2590930E+03  0.7818608E-02  0.1107755E+00
         21   -1    0    0  503  502  0.00000000000E+00  0.00000000000E+00  0.32695651382E+04  0.32695651382E+04  0.00000000000E+00 0.  1.
         21   -1    0    0  501  503 -0.00000000000E+00 -0.00000000000E+00 -0.22092109043E+02  0.22092109043E+02  0.00000000000E+00 0.  1.
          6    2    1    2  501    0 -0.13663339007E+03  0.13657102632E+03  0.11802891246E+04  0.12082997494E+04  0.17200447185E+03 0.  0.
         24    2    3    3    0    0 -0.55460514944E+02 -0.21963331925E+01  0.49735702763E+03  0.50668464499E+03  0.79275620071E+02 0.  0.
         -6    2    1    2    0  502  0.13663339007E+03 -0.13657102632E+03  0.20671839045E+04  0.20833574978E+04  0.17265236712E+03 0.  0.
        -24    2    5    5    0    0  0.13207915962E+03 -0.67283328163E+02  0.10223071661E+04  0.10361655313E+04  0.80963669281E+02 0.  0.
          5    1    3    3  501    0 -0.81172875128E+02  0.13876735951E+03  0.68293209696E+03  0.70161510444E+03  0.47000000000E+01 0. -1.
        -13    1    4    4    0    0  0.13152364439E+01  0.30883960252E+02  0.14612542580E+03  0.14935926122E+03  0.00000000000E+00 0.  1.
         14    1    4    4    0    0 -0.56775751388E+02 -0.33080293444E+02  0.35123160182E+03  0.35732538376E+03  0.00000000000E+00 0. -1.
         -5    1    5    5    0  502  0.45542304506E+01 -0.69287698156E+02  0.10448767385E+04  0.10471919665E+04  0.47000000000E+01 0.  1.
         13    1    6    6    0    0  0.34701865429E+02 -0.21227730891E+02  0.10582175825E+03  0.11337142737E+03  0.00000000000E+00 0. -1.
        -14    1    6    6    0    0  0.97377294192E+02 -0.46055597271E+02  0.91648540780E+03  0.92279410389E+03  0.00000000000E+00 0.  1.
</event>
<event>
12    1  0.9246030E-003  0.2114804E+03  0.7818608E-02  0.1140418E+00
         21   -1    0    0  501  502  0.00000000000E+00  0.00000000000E+00  0.60299975514E+03  0.60299975514E+03  0.00000000000E+00 0. -1.
         21   -1    0    0  502  503 -0.00000000000E+00 -0.00000000000E+00 -0.91304447424E+02  0.91304447424E+02  0.00000000000E+00 0.  1.
          6    2    1    2  501    0 -0.11999631070E+03  0.28892115854E+02  0.40633882003E+03  0.45803328598E+03  0.17160823251E+03 0.  0.
         24    2    3    3    0    0 -0.91981559205E+02  0.62377744593E+02  0.17674239920E+03  0.22427546239E+03  0.81914694045E+02 0.  0.
         -6    2    1    2    0  503  0.11999631070E+03 -0.28892115854E+02  0.10535648768E+03  0.23627091658E+03  0.17172678179E+03 0.  0.
        -24    2    5    5    0    0  0.20262232894E+02 -0.10650952508E+01  0.10271530213E+03  0.13258728618E+03  0.81346558956E+02 0.  0.
          5    1    3    3  501    0 -0.28014751498E+02 -0.33485628739E+02  0.22959642083E+03  0.23375782360E+03  0.47000000000E+01 0. -1.
        -11    1    4    4    0    0 -0.38014557100E+01 -0.18171319582E+02  0.26236088928E+02  0.32140010627E+02  0.00000000000E+00 0.  1.
         12    1    4    4    0    0 -0.88180103496E+02  0.80549064175E+02  0.15050631027E+03  0.19213545176E+03  0.00000000000E+00 0. -1.
         -5    1    5    5    0  503  0.99734077809E+02 -0.27827020603E+02  0.26411855516E+01  0.10368363040E+03  0.47000000000E+01 0.  1.
         11    1    6    6    0    0 -0.25323569406E+02  0.14222950390E+02  0.65944479524E+02  0.72057267954E+02  0.00000000000E+00 0. -1.
        -12    1    6    6    0    0  0.45585802300E+02 -0.15288045641E+02  0.36770822609E+02  0.60530018224E+02  0.00000000000E+00 0.  1.
</event>
<event>
12    1  0.9246030E-003  0.2552123E+03  0.7818608E-02  0.1110099E+00
         21   -1    0    0  501  502  0.00000000000E+00  0.00000000000E+00  0.11479966047E+03  0.11479966047E+03  0.00000000000E+00 0.  1.
         21   -1    0    0  502  503 -0.00000000000E+00 -0.00000000000E+00 -0.65408862559E+03  0.65408862559E+03  0.00000000000E+00 0. -1.
          6    2    1    2  501    0  0.80763254737E+02  0.17065232407E+03 -0.41001302331E+03  0.48280163153E+03  0.17129453316E+03 0.  0.
         24    2    3    3    0    0  0.11744472992E+03  0.14122874501E+03 -0.27888311921E+03  0.34341576647E+03  0.80123476463E+02 0.  0.
         -6    2    1    2    0  503 -0.80763254737E+02 -0.17065232407E+03 -0.12927594181E+03  0.28608665454E+03  0.17172182664E+03 0.  0.
        -24    2    5    5    0    0 -0.87284189375E+02 -0.84260840734E+02 -0.20222669222E+02  0.14672842104E+03  0.80011587872E+02 0.  0.
          5    1    3    3  501    0 -0.36681475180E+02  0.29423579069E+02 -0.13112990411E+03  0.13938586506E+03  0.47000000000E+01 0. -1.
        -13    1    4    4    0    0  0.81134319561E+02  0.14235344841E+03 -0.23424072670E+03  0.28586010587E+03  0.00000000000E+00 0.  1.
         14    1    4    4    0    0  0.36310410356E+02 -0.11247034053E+01 -0.44642392510E+02  0.57555660599E+02  0.00000000000E+00 0. -1.
         -5    1    5    5    0  503  0.65209346376E+01 -0.86391483341E+02 -0.10905327259E+03  0.13935823350E+03  0.47000000000E+01 0.  1.
         11    1    6    6    0    0 -0.33163178948E+02 -0.43636338885E+00 -0.32210297635E+02  0.46232998223E+02  0.00000000000E+00 0. -1.
        -12    1    6    6    0    0 -0.54121010427E+02 -0.83824477345E+02  0.11987628413E+02  0.10049542281E+03  0.00000000000E+00 0.  1.
</event>
<event>
12    1  0.9246030E-003  0.3034602E+03  0.7818608E-02  0.1083606E+00
         21   -1    0    0  501  502  0.00000000000E+00  0.00000000000E+00  0.19720877661E+03  0.19720877661E+03  0.00000000000E+00 0. -1.
         21   -1    0    0  502  503 -0.00000000000E+00 -0.00000000000E+00 -0.62024852801E+03  0.62024852801E+03  0.00000000000E+00 0.  1.
          6    2    1    2  501    0 -0.13488770309E+03 -0.21017028041E+03 -0.78230742062E+01  0.30356100221E+03  0.17240023887E+03 0.  0.
         24    2    3    3    0    0 -0.10188687169E+03 -0.47646153930E+02 -0.42606944379E+02  0.13404653621E+03  0.59177965091E+02 0.  0.
         -6    2    1    2    0  503  0.13488770309E+03  0.21017028041E+03 -0.41521667719E+03  0.51389630240E+03  0.17122581987E+03 0.  0.
        -24    2    5    5    0    0  0.86346352863E+02  0.12954976737E+03 -0.37041257759E+03  0.40956305197E+03  0.79357299729E+02 0.  0.
          5    1    3    3  501    0 -0.33000831394E+02 -0.16252412648E+03  0.34783870173E+02  0.16951446601E+03  0.47000000000E+01 0. -1.
        -13    1    4    4    0    0 -0.78606915756E+02 -0.58161044278E+02 -0.19728543196E+02  0.99754547229E+02  0.00000000000E+00 0.  1.
         14    1    4    4    0    0 -0.23279955936E+02  0.10514890348E+02 -0.22878401183E+02  0.34291988978E+02  0.00000000000E+00 0. -1.
         -5    1    5    5    0  503  0.48541350224E+02  0.80620513044E+02 -0.44804099600E+02  0.10433325043E+03  0.47000000000E+01 0.  1.
         13    1    6    6    0    0  0.35180850821E+02  0.17407497236E+02 -0.36400421044E+02  0.53532269489E+02  0.00000000000E+00 0. -1.
        -14    1    6    6    0    0  0.51165502042E+02  0.11214227013E+03 -0.33401215655E+03  0.35603078248E+03  0.00000000000E+00 0.  1.
</event>
<event>
12    1  0.9246030E-003  0.1802230E+03  0.7818608E-02  0.1167903E+00
         21   -1    0    0  501  502  0.00000000000E+00  0.00000000000E+00  0.17053614022E+03  0.17053614022E+03  0.00000000000E+00 0. -1.
         21   -1    0    0  502  503 -0.00000000000E+00 -0.00000000000E+00 -0.18941139186E+03  0.18941139186E+03  0.00000000000E+00 0. -1.
          6    2    1    2  501    0 -0.38017417555E+01 -0.52846542458E+02 -0.16940461810E+02  0.18101738461E+03  0.17225882849E+03 0.  0.
         24    2    3    3    0    0 -0.27989212061E+02 -0.84563010511E+02  0.14087770083E+02  0.13026495373E+03  0.94001032788E+02 0.  0.
         -6    2    1    2    0  503  0.38017417555E+01  0.52846542458E+02 -0.19347898273E+01  0.17893014748E+03  0.17089483308E+03 0.  0.
        -24    2    5    5    0    0 -0.17303489780E+02  0.90610004131E+02  0.28021374093E+02  0.12610050057E+03  0.81280718688E+02 0.  0.
          5    1    3    3  501    0  0.24187470305E+02  0.31716468054E+02 -0.31028231894E+02  0.50752430878E+02  0.47000000000E+01 0. -1.
        -13    1    4    4    0    0 -0.10112086045E+02 -0.64604334433E+02  0.52203916780E+02  0.83673312585E+02  0.00000000000E+00 0.  1.
         14    1    4    4    0    0 -0.17877126015E+02 -0.19958676078E+02 -0.38116146697E+02  0.46591641143E+02  0.00000000000E+00 0. -1.
         -5    1    5    5    0  503  0.21105231536E+02 -0.37763461674E+02 -0.29956163921E+02  0.52829646910E+02  0.47000000000E+01 0.  1.
         13    1    6    6    0    0 -0.34284647644E+02  0.56945772091E+02 -0.15768507727E+02  0.68314741155E+02  0.00000000000E+00 0. -1.
        -14    1    6    6    0    0  0.16981157864E+02  0.33664232041E+02  0.43789881820E+02  0.57785759415E+02  0.00000000000E+00 0.  1.
</event>
<event>
12    1  0.9246030E-003  0.2456875E+03  0.7818608E-02  0.1116085E+00
         21   -1    0    0  501  502  0.00000000000E+00  0.00000000000E+00  0.52382104613E+03  0.52382104613E+03  0.00000000000E+00 0. -1.
         21   -1    0    0  502  503 -0.00000000000E+00 -0.00000000000E+00 -0.14975233816E+03  0.14975233816E+03  0.00000000000E+00 0.  1.
          6    2    1    2  501    0 -0.17490536737E+03 -0.14655069471E+02  0.34893057199E+03  0.42674920413E+03  0.17191765634E+03 0.  0.
         24    2    3    3    0    0 -0.59250807147E+02 -0.31230088166E+02  0.25842036438E+03  0.27888137049E+03  0.80670673262E+02 0.  0.
         -6    2    1    2    0  503  0.17490536737E+03  0.14655069471E+02  0.25138135983E+02  0.24682418015E+03  0.17170786654E+03 0.  0.
        -24    2    5    5    0    0  0.13319948616E+03  0.53194330419E+02  0.65670762316E+02  0.17689822675E+03  0.80053692619E+02 0.  0.
          5    1    3    3  501    0 -0.11565456022E+03  0.16575018695E+02  0.90510207611E+02  0.14786783364E+03  0.47000000000E+01 0. -1.
        -11    1    4    4    0    0  0.13170673411E+02 -0.26353432470E+02  0.48290322740E+02  0.56567882331E+02  0.00000000000E+00 0.  1.
         12    1    4    4    0    0 -0.72421480558E+02 -0.48766556958E+01  0.21013004164E+03  0.22231348815E+03  0.00000000000E+00 0. -1.
         -5    1    5    5    0  503  0.41705881204E+02 -0.38539260948E+02 -0.40532626333E+02  0.69925953400E+02  0.47000000000E+01 0.  1.
         11    1    6    6    0    0  0.30088685954E+02  0.50539481665E+02  0.38281714538E+02  0.70178756739E+02  0.00000000000E+00 0. -1.
        -12    1    6    6    0    0  0.10311080021E+03  0.26548487539E+01  0.27389047779E+02  0.10671947001E+03  0.00000000000E+00 0.  1.
</event>
<event>
12    1  0.9246030E-003  0.1802158E+03  0.7818608E-02  0.1168007E+00
         21   -1    0    0  501  502  0.00000000000E+00  0.00000000000E+00  0.10917669916E+04  0.10917669916E+04  0.00000000000E+00 0. -1.
         21   -1    0    0  502  503 -0.00000000000E+00 -0.00000000000E+00 -0.42115010371E+02  0.42115010371E+02  0.00000000000E+00 0. -1.
          6    2    1    2  501    0 -0.41703138486E+02  0.23414876180E+02  0.83724948394E+03  0.85642538205E+03  0.17375364302E+03 0.  0.
         24    2    3    3    0    0 -0.22425875855E+01 -0.66719825262E+01  0.76103631776E+03  0.76536007117E+03  0.80933411209E+02 0.  0.
         -6    2    1    2    0  503  0.41703138486E+02 -0.23414876180E+02  0.21240249733E+03  0.27745661997E+03  0.17198821735E+03 0.  0.
        -24    2    5    5    0    0  0.77865779437E+02  0.57213402917E+01  0.20011620257E+03  0.22918966699E+03  0.79909921670E+02 0.  0.
          5    1    3    3  501    0 -0.39460550900E+02  0.30086858706E+02  0.76213166184E+02  0.91065310871E+02  0.47000000000E+01 0. -1.
        -11    1    4    4    0    0 -0.27511832369E+02  0.27440482572E+01  0.99376436185E+02  0.10315089331E+03  0.00000000000E+00 0.  1.
         12    1    4    4    0    0  0.25269244783E+02 -0.94160307834E+01  0.66165988157E+03  0.66220917787E+03  0.00000000000E+00 0. -1.
         -5    1    5    5    0  503 -0.36162640951E+02 -0.29136216472E+02  0.12286294755E+02  0.48266952977E+02  0.47000000000E+01 0.  1.
         13    1    6    6    0    0  0.19685229231E+02  0.23539848215E+01 -0.94977840090E+00  0.19848213356E+02  0.00000000000E+00 0. -1.
        -14    1    6    6    0    0  0.58180550205E+02  0.33673554702E+01  0.20106598097E+03  0.20934145363E+03  0.00000000000E+00 0.  1.
</event>
<event>
12    1  0.9246030E-003  0.1808650E+03  0.7818608E-02  0.1167701E+00
         21   -1    0    0  501  502  0.00000000000E+00  0.00000000000E+00  0.37578937178E+03  0.37578937178E+03  0.00000000000E+00 0. -1.
         21   -1    0    0  502  503 -0.00000000000E+00 -0.00000000000E+00 -0.12479060607E+03  0.12479060607E+03  0.00000000000E+00 0. -1.
          6    2    1    2  501    0 -0.39149655152E+02 -0.10458701723E+02  0.26503067015E+03  0.31917150666E+03  0.17316787984E+03 0.  0.
         24    2    3    3    0    0 -0.67957906596E+02 -0.42645424828E+02  0.24789948811E+03  0.27246531978E+03  0.79663573526E+02 0.  0.
         -6    2    1    2    0  503  0.39149655152E+02  0.10458701723E+02 -0.14031904428E+02  0.18140847118E+03  0.17626701091E+03 0.  0.
        -24    2    5    5    0    0  0.25628000700E+02 -0.14740300126E+02 -0.75341175841E+02  0.11359444908E+03  0.79707811514E+02 0.  0.
          5    1    3    3  501    0  0.28808251445E+02  0.32186723105E+02  0.17131182032E+02  0.46706186885E+02  0.47000000000E+01 0. -1.
        -13    1    4    4    0    0 -0.29770777378E+02 -0.54257459930E+02  0.87502169568E+02  0.10717649380E+03  0.00000000000E+00 0.  1.
         14    1    4    4    0    0 -0.38187129219E+02  0.11612035102E+02  0.16039731855E+03  0.16528882598E+03  0.00000000000E+00 0. -1.
         -5    1    5    5    0  503  0.13521654452E+02  0.25199001849E+02  0.61309271413E+02  0.67814022108E+02  0.47000000000E+01 0.  1.
         11    1    6    6    0    0  0.24475201303E+02  0.28137733398E+02 -0.54156132694E+02  0.65754499678E+02  0.00000000000E+00 0. -1.
        -12    1    6    6    0    0  0.11527993976E+01 -0.42878033524E+02 -0.21185043147E+02  0.47839949398E+02  0.00000000000E+00 0.  1.
</event>
<event>
12    1  0.9246030E-003  0.1809644E+03  0.7818608E-02  0.1167741E+00
         21   -1    0    0  503  502  0.00000000000E+00  0.00000000000E+00  0.16550180805E+03  0.16550180805E+03  0.00000000000E+00 0.  1.
         21   -1    0    0  501  503 -0.00000000000E+00 -0.00000000000E+00 -0.22120436232E+03  0.22120436232E+03  0.00000000000E+00 0.  1.
          6    2    1    2  501    0  0.10127938159E+02 -0.41858337471E+02 -0.95433789807E+02  0.20143158567E+03  0.17208248000E+03 0.  0.
         24    2    3    3    0    0  0.36906146257E+02  0.25229760094E+02 -0.10540148549E+02  0.89865884893E+02  0.77241039029E+02 0.  0.
         -6    2    1    2    0  502 -0.10127938159E+02  0.41858337471E+02  0.39731235535E+02  0.18527458470E+03  0.17576519881E+03 0.  0.
        -24    2    5    5    0    0  0.60348652910E+02  0.79829384811E+01  0.10456451899E+02  0.10164686500E+03  0.80728313270E+02 0.  0.
          5    1    3    3  501    0 -0.26778208098E+02 -0.67088097565E+02 -0.84893641257E+02  0.11156570078E+03  0.47000000000E+01 0. -1.
        -11    1    4    4    0    0  0.40207179416E+01 -0.50512288401E+01 -0.37240351211E+02  0.37795831038E+02  0.00000000000E+00 0.  1.
         12    1    4    4    0    0  0.32885428315E+02  0.30280988934E+02  0.26700202661E+02  0.52070053855E+02  0.00000000000E+00 0. -1.
         -5    1    5    5    0  502 -0.70476591070E+02  0.33875398990E+02  0.29274783636E+02  0.83627719701E+02  0.47000000000E+01 0.  1.
         11    1    6    6    0    0  0.15610786589E+02  0.42683391296E+01 -0.34504490447E+02  0.38111353136E+02  0.00000000000E+00 0. -1.
        -12    1    6    6    0    0  0.44737866321E+02  0.37145993515E+01  0.44960942347E+02  0.63535511865E+02  0.00000000000E+00 0.  1.
</event>
<event>
12    1  0.9246030E-003  0.1990565E+03  0.7818608E-02  0.1150638E+00
         21   -1    0    0  503  502  0.00000000000E+00  0.00000000000E+00  0.48355214257E+03  0.48355214257E+03  0.00000000000E+00 0. -1.
         21   -1    0    0  501  503 -0.00000000000E+00 -0.00000000000E+00 -0.14251218049E+03  0.14251218049E+03  0.00000000000E+00 0. -1.
          6    2    1    2  501    0 -0.10082279194E+03  0.43102618982E+01 -0.33765858748E+02  0.20190001307E+03  0.17157991819E+03 0.  0.
         24    2    3    3    0    0  0.12819466575E+02  0.87864924154E+01  0.23577400396E+02  0.74444377924E+02  0.68880551847E+02 0.  0.
         -6    2    1    2    0  502  0.10082279194E+03 -0.43102618982E+01  0.37480582082E+03  0.42416431000E+03  0.17103258409E+03 0.  0.
        -24    2    5    5    0    0  0.95359729653E+02  0.33787294906E+02  0.36029674964E+03  0.38276537244E+03  0.80377379926E+02 0.  0.
          5    1    3    3  501    0 -0.11364225851E+03 -0.44762305172E+01 -0.57343259144E+02  0.12745563514E+03  0.47000000000E+01 0. -1.
        -11    1    4    4    0    0 -0.24086956360E+02 -0.10980330361E+02  0.18445777437E+02  0.32264466938E+02  0.00000000000E+00 0.  1.
         12    1    4    4    0    0  0.36906422936E+02  0.19766822776E+02  0.51316229597E+01  0.42179910986E+02  0.00000000000E+00 0. -1.
         -5    1    5    5    0  502  0.54630622864E+01 -0.38097556804E+02  0.14509071184E+02  0.41398937554E+02  0.47000000000E+01 0.  1.
         13    1    6    6    0    0  0.38680840966E+01  0.32272918625E+02  0.14903357628E+03  0.15253691426E+03  0.00000000000E+00 0. -1.
        -14    1    6    6    0    0  0.91491645557E+02  0.15143762806E+01  0.21126317336E+03  0.23022845819E+03  0.00000000000E+00 0.  1.
</event>
<event>
12    1  0.9246030E-003  0.2009151E+03  0.7818608E-02  0.1148977E+00
         21   -1    0    0  503  502  0.00000000000E+00  0.00000000000E+00  0.46633270688E+03  0.46633270688E+03  0.00000000000E+00 0. -1.
         21   -1    0    0  501  503 -0.00000000000E+00 -0.00000000000E+00 -0.87988483244E+02  0.87988483244E+02  0.00000000000E+00 0. -1.
          6    2    1    2  501    0  0.89615451435E+02 -0.60737743165E+02  0.22466675196E+03  0.30140013289E+03  0.16925391601E+03 0.  0.
         24    2    3    3    0    0 -0.20432181560E+02 -0.25432414843E+02  0.84957691367E+02  0.12002301374E+03  0.78252365701E+02 0.  0.
         -6    2    1    2    0  502 -0.89615451435E+02  0.60737743165E+02  0.15367747167E+03  0.25292105724E+03  0.16921079550E+03 0.  0.
        -24    2    5    5    0    0 -0.10852671391E+03  0.90278161103E+02  0.10663196676E+03  0.19405135643E+03  0.79733045804E+02 0.  0.
          5    1    3    3  501    0  0.11004763300E+03 -0.35305328322E+02  0.13970906060E+03  0.18137711914E+03  0.47000000000E+01 0. -1.
        -13    1    4    4    0    0  0.12717863861E+02  0.21391849215E+02  0.13266038309E+02  0.28201827005E+02  0.00000000000E+00 0.  1.
         14    1    4    4    0    0 -0.33150045422E+02 -0.46824264058E+02  0.71691653058E+02  0.91821186739E+02  0.00000000000E+00 0. -1.
         -5    1    5    5    0  502  0.18911262476E+02 -0.29540417938E+02  0.47045504913E+02  0.58869700806E+02  0.47000000000E+01 0.  1.
         11    1    6    6    0    0 -0.57531343836E+02 -0.73765757267E-01  0.47690938744E+02  0.74728084434E+02  0.00000000000E+00 0. -1.
        -12    1    6    6    0    0 -0.50995370076E+02  0.90351926860E+02  0.58941028013E+02  0.11932327200E+03  0.00000000000E+00 0.  1.
</event>
<event>
12    1  0.9246030E-003  0.1766982E+03  0.7818608E-02  0.1171794E+00
         21   -1    0    0  503  502  0.00000000000E+00  0.00000000000E+00  0.18877197968E+03  0.18877197968E+03  0.00000000000E+00 0. -1.
         21   -1    0    0  501  503 -0.00000000000E+00 -0.00000000000E+00 -0.16593878358E+03  0.16593878358E+03  0.00000000000E+00 0. -1.
          6    2    1    2  501    0  0.39161311080E+02 -0.69104103878E+01  0.36755959019E+02  0.18048061993E+03  0.17216530309E+03 0.  0.
         24    2    3    3    0    0  0.48123764706E+02  0.48254324830E+02  0.58345058404E+02  0.12038359172E+03  0.80272577647E+02 0.  0.
         -6    2    1    2    0  502 -0.39161311080E+02  0.69104103878E+01 -0.13922762918E+02  0.17423014332E+03  0.16905897627E+03 0.  0.
        -24    2    5    5    0    0 -0.27590370190E+02  0.56412926586E+02  0.30864689468E+02  0.10631555230E+03  0.80041993924E+02 0.  0.
          5    1    3    3  501    0 -0.89624536260E+01 -0.55164735218E+02 -0.21589099385E+02  0.60097028204E+02  0.47000000000E+01 0. -1.
        -13    1    4    4    0    0 -0.94143407975E+01  0.33892471178E+02  0.49045367038E+02  0.60355425962E+02  0.00000000000E+00 0.  1.
         14    1    4    4    0    0  0.57538105503E+02  0.14361853652E+02  0.92996913658E+01  0.60028165762E+02  0.00000000000E+00 0. -1.
         -5    1    5    5    0  502 -0.11570940890E+02 -0.49502516198E+02 -0.44787452386E+02  0.67914591026E+02  0.47000000000E+01 0.  1.
         11    1    6    6    0    0 -0.41964965968E+02  0.52549331842E+02  0.48739770667E+02  0.83054535640E+02  0.00000000000E+00 0. -1.
        -12    1    6    6    0    0  0.14374595778E+02  0.38635947439E+01 -0.17875081198E+02  0.23261016658E+02  0.00000000000E+00 0.  1.
</event>
<event>
12    1  0.9246030E-003  0.2085122E+03  0.7818608E-02  0.1142900E+00
         21   -1    0    0  503  502  0.00000000000E+00  0.00000000000E+00  0.27535454760E+03  0.27535454760E+03  0.00000000000E+00 0.  1.
         21   -1    0    0  501  503 -0.00000000000E+00 -0.00000000000E+00 -0.16064994595E+03  0.16064994595E+03  0.00000000000E+00 0. -1.
          6    2    1    2  501    0  0.68740760282E+01  0.11805229037E+03  0.26104495697E+02  0.21013988350E+03  0.17173738602E+03 0.  0.
         24    2    3    3    0    0  0.15479575050E+02  0.71474606294E+02 -0.49793123872E+02  0.12055152531E+03  0.81884543597E+02 0.  0.
         -6    2    1    2    0  502 -0.68740760282E+01 -0.11805229037E+03  0.88600105954E+02  0.22586461005E+03  0.17082519461E+03 0.  0.
        -24    2    5    5    0    0  0.22845595859E+01 -0.15532577881E+03  0.74277469345E+02  0.18462844308E+03  0.66627342490E+02 0.  0.
          5    1    3    3  501    0 -0.86054990221E+01  0.46577684081E+02  0.75897619569E+02  0.89588358194E+02  0.47000000000E+01 0. -1.
        -13    1    4    4    0    0  0.67825210779E+01  0.75550579526E+02 -0.64177106848E+01  0.76125420651E+02  0.00000000000E+00 0.  1.
         14    1    4    4    0    0  0.86970539724E+01 -0.40759732324E+01 -0.43375413188E+02  0.44426104655E+02  0.00000000000E+00 0. -1.
         -5    1    5    5    0  502 -0.91586356141E+01  0.37273488436E+02  0.14322636609E+02  0.41236166965E+02  0.47000000000E+01 0.  1.
         11    1    6    6    0    0  0.28749974822E+02 -0.83109675957E+02  0.19158674067E+02  0.90004633669E+02  0.00000000000E+00 0. -1.
        -12    1    6    6    0    0 -0.26465415237E+02 -0.72216102854E+02  0.55118795278E+02  0.94623809414E+02  0.00000000000E+00 0.  1.
</event>
<event>
12    1  0.9246030E-003  0.1931830E+03  0.7818608E-02  0.1155984E+00
         21   -1    0    0  501  502  0.00000000000E+00  0.00000000000E+00  0.45900236209E+03  0.45900236209E+03  0.00000000000E+00 0.  1.
         21   -1    0    0  502  503 -0.00000000000E+00 -0.00000000000E+00 -0.94165428444E+02  0.94165428444E+02  0.00000000000E+00 0.  1.
          6    2    1    2  501    0 -0.57124924821E+02 -0.63336630367E+02  0.28798253850E+03  0.34677602431E+03  0.17333459775E+03 0.  0.
         24    2    3    3    0    0 -0.18362262987E+02 -0.80118353618E+02  0.10862079748E+03  0.16244779987E+03  0.88513765866E+02 0.  0.
         -6    2    1    2    0  503  0.57124924821E+02  0.63336630367E+02  0.76854395149E+02  0.20639176622E+03  0.17151144955E+03 0.  0.
        -24    2    5    5    0    0 -0.64796827279E+01 -0.23819255774E+02  0.39764280988E+02  0.92201306203E+02  0.79438904758E+02 0.  0.
          5    1    3    3  501    0 -0.38762661834E+02  0.16781723251E+02  0.17936174101E+03  0.18432822444E+03  0.47000000000E+01 0. -1.
        -11    1    4    4    0    0  0.30714223338E+02 -0.10621756819E+02  0.14539460971E+02  0.35603106023E+02  0.00000000000E+00 0.  1.
         12    1    4    4    0    0 -0.49076486325E+02 -0.69496596799E+02  0.94081336512E+02  0.12684469384E+03  0.00000000000E+00 0. -1.
         -5    1    5    5    0  503  0.63604607549E+02  0.87155886141E+02  0.37090114160E+02  0.11419046002E+03  0.47000000000E+01 0.  1.
         13    1    6    6    0    0 -0.12967246465E+02 -0.11349529547E+02  0.62851802892E+02  0.65171392717E+02  0.00000000000E+00 0. -1.
        -14    1    6    6    0    0  0.64875637371E+01 -0.12469726227E+02 -0.23087521904E+02  0.27029913486E+02  0.00000000000E+00 0.  1.
</event>
<event>
12    1  0.9246030E-003  0.1753359E+03  0.7818608E-02  0.1172396E+00
         21   -1    0    0  501  502  0.00000000000E+00  0.00000000000E+00  0.38898348567E+03  0.38898348567E+03  0.00000000000E+00 0. -1.
         21   -1    0    0  502  503 -0.00000000000E+00 -0.00000000000E+00 -0.80459497223E+02  0.80459497223E+02  0.00000000000E+00 0. -1.
          6    2    1    2  501    0 -0.32843118761E+02  0.21120559519E+02  0.18554034195E+03  0.25528003119E+03  0.17093252279E+03 0.  0.
         24    2    3    3    0    0 -0.82244210632E+02  0.38898865564E+02  0.12192377023E+03  0.17266227134E+03  0.81667755412E+02 0.  0.
         -6    2    1    2    0  503  0.32843118761E+02 -0.21120559519E+02  0.12298364649E+03  0.21416295170E+03  0.17092701394E+03 0.  0.
        -24    2    5    5    0    0  0.87862547545E+02 -0.13294380419E+02  0.86879417198E+02  0.14772507097E+03  0.79862980470E+02 0.  0.
          5    1    3    3  501    0  0.49401091871E+02 -0.17778306045E+02  0.63616571723E+02  0.82617759844E+02  0.47000000000E+01 0. -1.
        -11    1    4    4    0    0 -0.40250643107E+02  0.14594816139E+02  0.15109362747E+01  0.42841636956E+02  0.00000000000E+00 0.  1.
         12    1    4    4    0    0 -0.41993567525E+02  0.24304049425E+02  0.12041283395E+03  0.12982063439E+03  0.00000000000E+00 0. -1.
         -5    1    5    5    0  503 -0.55019428783E+02 -0.78261790996E+01  0.36104229296E+02  0.66437880731E+02  0.47000000000E+01 0.  1.
         13    1    6    6    0    0  0.28355200302E+02 -0.39663564978E+02  0.15582031528E+02  0.51186086756E+02  0.00000000000E+00 0. -1.
        -14    1    6    6    0    0  0.59507347243E+02  0.26369184559E+02  0.71297385670E+02  0.96538984217E+02  0.00000000000E+00 0.  1.
</event>
<event>
12    1  0.9246030E-003  0.2268362E+03  0.7818608E-02  0.1129228E+00
         21   -1    0    0  503  502  0.00000000000E+00  0.00000000000E+00  0.26226846245E+03  0.26226846245E+03  0.00000000000E+00 0.  1.
         21   -1    0    0  501  503 -0.00000000000E+00 -0.00000000000E+00 -0.21673565471E+03  0.21673565471E+03  0.00000000000E+00 0. -1.
          6    2    1    2  501    0  0.91344105692E+02 -0.11252187233E+03  0.99300174869E+02  0.24588273130E+03  0.17202579872E+03 0.  0.
         24    2    3    3    0    0  0.22562470489E+02 -0.10525153864E+03  0.11268003447E+02  0.13383129535E+03  0.78720367461E+02 0.  0.
         -6    2    1    2    0  502 -0.91344105692E+02  0.11252187233E+03 -0.53767367127E+02  0.23312138586E+03  0.17449851970E+03 0.  0.
        -24    2    5    5    0    0 -0.45530321815E+02  0.65349191202E+02 -0.10211704615E+03  0.15136598175E+03  0.78359698326E+02 0.  0.
          5    1    3    3  501    0  0.68781635203E+02 -0.72703336888E+01  0.88032171422E+02  0.11205143595E+03  0.47000000000E+01 0. -1.
        -13    1    4    4    0    0 -0.19539386898E+02 -0.31232788906E+02 -0.21422877488E+02  0.42617067274E+02  0.00000000000E+00 0.  1.
         14    1    4    4    0    0  0.42101857386E+02 -0.74018749736E+02  0.32690880935E+02  0.91214228079E+02  0.00000000000E+00 0. -1.
         -5    1    5    5    0  502 -0.45813783877E+02  0.47172681129E+02  0.48349679027E+02  0.81755404103E+02  0.47000000000E+01 0.  1.
         13    1    6    6    0    0  0.74728535499E+01 -0.63727945810E+01  0.57702064297E+01  0.11390844270E+02  0.00000000000E+00 0. -1.
        -14    1    6    6    0    0 -0.53003175365E+02  0.71721985783E+02 -0.10788725258E+03  0.13997513748E+03  0.00000000000E+00 0.  1.
</event>
<event>
12    1  0.9246030E-003  0.5322052E+03  0.7818608E-02  0.1005727E+00
         21   -1    0    0  501  502  0.00000000000E+00  0.00000000000E+00  0.66559331945E+03  0.66559331945E+03  0.00000000000E+00 0.  1.
         21   -1    0    0  502  503 -0.00000000000E+00 -0.00000000000E+00 -0.49376018722E+03  0.49376018722E+03  0.00000000000E+00 0. -1.
          6    2    1    2  501    0  0.43635836592E+03  0.25071955362E+03  0.30193453532E+03  0.61147689221E+03  0.17167005564E+03 0.  0.
         24    2    3    3    0    0  0.11573577362E+03  0.11037777150E+03  0.13420433115E+03  0.22334009429E+03  0.79321960911E+02 0.  0.
         -6    2    1    2    0  503 -0.43635836592E+03 -0.25071955362E+03 -0.13010140309E+03  0.54787661446E+03  0.17312854043E+03 0.  0.
        -24    2    5    5    0    0 -0.12975123484E+03 -0.54928709178E+02 -0.79280822160E+02  0.18052554390E+03  0.80321088162E+02 0.  0.
          5    1    3    3  501    0  0.32062259230E+03  0.14034178212E+03  0.16773020418E+03  0.38813679791E+03  0.47000000000E+01 0. -1.
        -11    1    4    4    0    0  0.52872444541E+02  0.98162043559E+02  0.10425124088E+03  0.15264207615E+03  0.00000000000E+00 0.  1.
         12    1    4    4    0    0  0.62863329083E+02  0.12215727941E+02  0.29953090271E+02  0.70698018142E+02  0.00000000000E+00 0. -1.
         -5    1    5    5    0  503 -0.30660713108E+03 -0.19579084444E+03 -0.50820580931E+02  0.36735107056E+03  0.47000000000E+01 0.  1.
         11    1    6    6    0    0 -0.56798134588E+02 -0.50233967344E+02 -0.75986681998E+02  0.10734735865E+03  0.00000000000E+00 0. -1.
        -12    1    6    6    0    0 -0.72953100253E+02 -0.46947418347E+01 -0.32941401625E+01  0.73178185253E+02  0.00000000000E+00 0.  1.
</event>
<event>
12    1  0.9246030E-003  0.2083534E+03  0.7818608E-02  0.1146292E+00
         21   -1    0    0  503  502  0.00000000000E+00  0.00000000000E+00  0.99550092021E+03  0.99550092021E+03  0.00000000000E+00 0. -1.
         21   -1    0    0  501  503 -0.00000000000E+00 -0.00000000000E+00 -0.40268067939E+02  0.40268067939E+02  0.00000000000E+00 0.  1.
          6    2    1    2  501    0  0.79204912852E+02 -0.48264868294E+02  0.48703616292E+03  0.52973140901E+03  0.18656962769E+03 0.  0.
         24    2    3    3    0    0  0.12104023457E+03 -0.66340091826E+02  0.34365945527E+03  0.37921271201E+03  0.81539644290E+02 0.  0.
         -6    2    1    2    0  502 -0.79204912852E+02  0.48264868294E+02  0.46819668936E+03  0.50603757914E+03  0.16811595952E+03 0.  0.
        -24    2    5    5    0    0 -0.47285887542E+02 -0.73586994359E+01  0.40044248505E+03  0.41262704620E+03  0.87274221848E+02 0.  0.
          5    1    3    3  501    0 -0.41835321720E+02  0.18075223532E+02  0.14337670765E+03  0.15051869700E+03  0.47000000000E+01 0. -1.
        -11    1    4    4    0    0  0.58574670199E+02 -0.13311194069E+02  0.63900254309E+02  0.87700754714E+02  0.00000000000E+00 0.  1.
         12    1    4    4    0    0  0.62465564373E+02 -0.53028897757E+02  0.27975920096E+03  0.29151195730E+03  0.00000000000E+00 0. -1.
         -5    1    5    5    0  502 -0.31919025310E+02  0.55623567730E+02  0.67754204303E+02  0.93410532942E+02  0.47000000000E+01 0.  1.
         13    1    6    6    0    0 -0.32234196406E+02  0.37949773128E+02  0.16313405079E+03  0.17056361636E+03  0.00000000000E+00 0. -1.
        -14    1    6    6    0    0 -0.15051691136E+02 -0.45308472564E+02  0.23730843427E+03  0.24206342984E+03  0.00000000000E+00 0.  1.
</event>
<event>
12    1  0.9246030E-003  0.3439419E+03  0.7818608E-02  0.1065441E+00
         21   -1    0    0  501  502  0.00000000000E+00  0.00000000000E+00  0.41261893811E+03  0.41261893811E+03  0.00000000000E+00 0.  1.
         21   -1    0    0  502  503 -0.00000000000E+00 -0.00000000000E+00 -0.37068035775E+03  0.37068035775E+03  0.00000000000E+00 0.  1.
          6    2    1    2  501    0  0.29672735514E+03  0.27364788101E+02  0.21002658937E+03  0.40048131729E+03  0.16576538341E+03 0.  0.
         24    2    3    3    0    0  0.18624316840E+03 -0.11009791216E+02  0.62631719330E+02  0.21226149482E+03  0.79526578181E+02 0.  0.
         -6    2    1    2    0  503 -0.29672735514E+03 -0.27364788101E+02 -0.16808800902E+03  0.38281797857E+03  0.17175584713E+03 0.  0.
        -24    2    5    5    0    0 -0.14612733399E+03 -0.13867281750E+02 -0.16026048561E+03  0.23133890684E+03  0.79301748594E+02 0.  0.
          5    1    3    3  501    0  0.11048418674E+03  0.38374579318E+02  0.14739487004E+03  0.18821982247E+03  0.47000000000E+01 0. -1.
        -13    1    4    4    0    0  0.93552448724E+02 -0.40670154042E+02  0.51597841250E+02  0.11431736226E+03  0.00000000000E+00 0.  1.
         14    1    4    4    0    0  0.92690719678E+02  0.29660362826E+02  0.11033878080E+02  0.97944132559E+02  0.00000000000E+00 0. -1.
         -5    1    5    5    0  503 -0.15060002115E+03 -0.13497506352E+02 -0.78275234112E+01  0.15147907173E+03  0.47000000000E+01 0.  1.
         13    1    6    6    0    0 -0.30260671799E+02 -0.33906163129E+02 -0.68414285054E+02  0.82133127028E+02  0.00000000000E+00 0. -1.
        -14    1    6    6    0    0 -0.11586666219E+03  0.20038881379E+02 -0.91846200551E+02  0.14920577981E+03  0.00000000000E+00 0.  1.
</event>
<event>
12    1  0.9246030E-003  0.1806767E+03  0.7818608E-02  0.1167790E+00
         21   -1    0    0  501  502  0.00000000000E+00  0.00000000000E+00  0.23567976677E+03  0.23567976677E+03  0.00000000000E+00 0. -1.
         21   -1    0    0  502  503 -0.00000000000E+00 -0.00000000000E+00 -0.14924824136E+03  0.14924824136E+03  0.00000000000E+00 0. -1.
          6    2    1    2  501    0  0.34334032508E+02  0.41763252200E+02  0.99183396182E+02  0.20380182631E+03  0.16963149267E+03 0.  0.
         24    2    3    3    0    0  0.35751633740E+02  0.61761348172E+02  0.54143441420E+01  0.10779839639E+03  0.80613495763E+02 0.  0.
         -6    2    1    2    0  503 -0.34334032508E+02 -0.41763252200E+02 -0.12751870771E+02  0.18112618183E+03  0.17239805252E+03 0.  0.
        -24    2    5    5    0    0 -0.45066072181E+02 -0.74606546981E+02 -0.51994800447E+02  0.12862897983E+03  0.79024473837E+02 0.  0.
          5    1    3    3  501    0 -0.14176012321E+01 -0.19998095972E+02  0.93769052040E+02  0.96003429919E+02  0.47000000000E+01 0. -1.
        -11    1    4    4    0    0 -0.10068915904E+02  0.44739513081E+02  0.28234813845E+02  0.53853614652E+02  0.00000000000E+00 0.  1.
         12    1    4    4    0    0  0.45820549644E+02  0.17021835091E+02 -0.22820469703E+02  0.53944781740E+02  0.00000000000E+00 0. -1.
         -5    1    5    5    0  503  0.10732039673E+02  0.32843294781E+02  0.39242929675E+02  0.52497201993E+02  0.47000000000E+01 0.  1.
         11    1    6    6    0    0 -0.53983635945E+02 -0.77623535848E+02 -0.21840678605E+02  0.97039484279E+02  0.00000000000E+00 0. -1.
        -12    1    6    6    0    0  0.89175637641E+01  0.30169888663E+01 -0.30154121842E+02  0.31589495554E+02  0.00000000000E+00 0.  1.
</event>
<event>
12    1  0.9246030E-003  0.1845260E+03  0.7818608E-02  0.1163580E+00
         21   -1    0    0  501  502  0.00000000000E+00  0.00000000000E+00  0.11131760547E+03  0.11131760547E+03  0.00000000000E+00 0.  1.
         21   -1    0    0  502  503 -0.00000000000E+00 -0.00000000000E+00 -0.37711519525E+03  0.37711519525E+03  0.00000000000E+00 0. -1.
          6    2    1    2  501    0  0.20426037138E+02 -0.62782565345E+02 -0.26409602326E+02  0.18640626010E+03  0.17231062998E+03 0.  0.
         24    2    3    3    0    0 -0.55233117679E+02 -0.30606827724E+02 -0.10262526060E+02  0.10248722846E+03  0.80067704878E+02 0.  0.
         -6    2    1    2    0  503 -0.20426037138E+02  0.62782565345E+02 -0.23938798746E+03  0.30202654062E+03  0.17191436588E+03 0.  0.
        -24    2    5    5    0    0 -0.62415474606E+02  0.65850294804E+02 -0.90040545401E+02  0.14678713753E+03  0.72161008391E+02 0.  0.
          5    1    3    3  501    0  0.75659154817E+02 -0.32175737620E+02 -0.16147076266E+02  0.83919031638E+02  0.47000000000E+01 0. -1.
        -11    1    4    4    0    0  0.57527129272E+01 -0.38780829258E+02  0.37391425185E+01  0.39383087877E+02  0.00000000000E+00 0.  1.
         12    1    4    4    0    0 -0.60985830606E+02  0.81740015336E+01 -0.14001668578E+02  0.63104140584E+02  0.00000000000E+00 0. -1.
         -5    1    5    5    0  503  0.41989437468E+02 -0.30677294592E+01 -0.14934744206E+03  0.15523940309E+03  0.47000000000E+01 0.  1.
         13    1    6    6    0    0 -0.48731412896E+02  0.56200470574E+02 -0.10197668916E+03  0.12622396218E+03  0.00000000000E+00 0. -1.
        -14    1    6    6    0    0 -0.13684061710E+02  0.96498242297E+01  0.11936143763E+02  0.20563175350E+02  0.00000000000E+00 0.  1.
</event>
<event>
12    1  0.9246030E-003  0.2517100E+03  0.7818608E-02  0.1112391E+00
         21   -1    0    0  503  502  0.00000000000E+00  0.00000000000E+00  0.22146293831E+03  0.22146293831E+03  0.00000000000E+00 0.  1.
         21   -1    0    0  501  503 -0.00000000000E+00 -0.00000000000E+00 -0.30346032684E+03  0.30346032684E+03  0.00000000000E+00 0.  1.
          6    2    1    2  501    0  0.18320272392E+03 -0.11497636363E+02  0.23804785317E+02  0.25283315302E+03  0.17222805163E+03 0.  0.
         24    2    3    3    0    0  0.99498420502E+02 -0.35026180502E+01  0.80597352528E+02  0.15125650010E+03  0.80438744222E+02 0.  0.
         -6    2    1    2    0  502 -0.18320272392E+03  0.11497636363E+02 -0.10580217385E+03  0.27209011212E+03  0.17071466085E+03 0.  0.
        -24    2    5    5    0    0 -0.24046356674E+02  0.31551414703E+02 -0.54504459586E+02  0.10360732740E+03  0.78676700085E+02 0.  0.
          5    1    3    3  501    0  0.83704303419E+02 -0.79950183129E+01 -0.56792567211E+02  0.10157665292E+03  0.47000000000E+01 0. -1.
        -13    1    4    4    0    0  0.96455608144E+02  0.24651117808E+02  0.59975140953E+02  0.11622555435E+03  0.00000000000E+00 0.  1.
         14    1    4    4    0    0  0.30428123583E+01 -0.28153735858E+02  0.20622211575E+02  0.35030945749E+02  0.00000000000E+00 0. -1.
         -5    1    5    5    0  502 -0.15915636725E+03 -0.20053778340E+02 -0.51297714262E+02  0.16848278473E+03  0.47000000000E+01 0.  1.
         13    1    6    6    0    0 -0.36929916371E+02  0.47071152997E+02 -0.19000291431E+02  0.62773587137E+02  0.00000000000E+00 0. -1.
        -14    1    6    6    0    0  0.12883559697E+02 -0.15519738294E+02 -0.35504168155E+02  0.40833740259E+02  0.00000000000E+00 0.  1.
</event>
<event>
12    1  0.9246030E-003  0.1939150E+03  0.7818608E-02  0.1154997E+00
         21   -1    0    0  503  502  0.00000000000E+00  0.00000000000E+00  0.66568886650E+03  0.66568886650E+03  0.00000000000E+00 0. -1.
         21   -1    0    0  501  503 -0.00000000000E+00 -0.00000000000E+00 -0.59825430900E+02  0.59825430900E+02  0.00000000000E+00 0.  1.
          6    2    1    2  501    0  0.73597434853E+02 -0.53779691242E+02  0.21684438586E+03  0.29084330973E+03  0.17105410117E+03 0.  0.
         24    2    3    3    0    0  0.36609665031E+02  0.36040435978E+02  0.12866291384E+03  0.15956569405E+03  0.79169973608E+02 0.  0.
         -6    2    1    2    0  502 -0.73597434853E+02  0.53779691242E+02  0.38901904974E+03  0.43467098767E+03  0.17115551074E+03 0.  0.
        -24    2    5    5    0    0 -0.67881747380E+02  0.11124888237E-01  0.35602359311E+03  0.37115313216E+03  0.79961971641E+02 0.  0.
          5    1    3    3  501    0  0.36987769821E+02 -0.89820127220E+02  0.88181472012E+02  0.13127761567E+03  0.47000000000E+01 0. -1.
        -11    1    4    4    0    0  0.24560223387E+02  0.58986398556E+02  0.66526719625E+02  0.92241011549E+02  0.00000000000E+00 0.  1.
         12    1    4    4    0    0  0.12049441644E+02 -0.22945962578E+02  0.62136194219E+02  0.67324682506E+02  0.00000000000E+00 0. -1.
         -5    1    5    5    0  502 -0.57156874732E+01  0.53768566354E+02  0.32995456635E+02  0.63517855518E+02  0.47000000000E+01 0.  1.
         13    1    6    6    0    0 -0.61414895731E+02  0.24928401091E+02  0.32050440269E+03  0.32728624588E+03  0.00000000000E+00 0. -1.
        -14    1    6    6    0    0 -0.64668516488E+01 -0.24917276202E+02  0.35519190417E+02  0.43866886275E+02  0.00000000000E+00 0.  1.
</event>
<event>
12    1  0.9246030E-003  0.1943073E+03  0.7818608E-02  0.1154994E+00
         21   -1    0    0  501  502  0.00000000000E+00  0.00000000000E+00  0.28725129744E+03  0.28725129744E+03  0.00000000000E+00 0. -1.
         21   -1    0    0  502  503 -0.00000000000E+00 -0.00000000000E+00 -0.13724921057E+03  0.13724921057E+03  0.00000000000E+00 0. -1.
          6    2    1    2  501    0 -0.10959299085E+02 -0.87050215326E+02  0.12296558618E+03  0.22994750680E+03  0.17337091530E+03 0.  0.
         24    2    3    3    0    0 -0.16385671099E+01 -0.12223368033E+01 -0.18150481383E+00  0.79479580656E+02  0.79453079159E+02 0.  0.
         -6    2    1    2    0  503  0.10959299085E+02  0.87050215326E+02  0.27036500689E+02  0.19455300121E+03  0.17152857396E+03 0.  0.
        -24    2    5    5    0    0  0.58233759671E+02  0.18267852669E+02  0.45969570826E+02  0.10884162985E+03  0.77513958350E+02 0.  0.
          5    1    3    3  501    0 -0.93207319747E+01 -0.85827878523E+02  0.12314709100E+03  0.15046792614E+03  0.47000000000E+01 0. -1.
        -13    1    4    4    0    0 -0.33141349486E+02  0.28085503969E+01 -0.22943126840E+02  0.40405743036E+02  0.00000000000E+00 0.  1.
         14    1    4    4    0    0  0.31502782377E+02 -0.40308872001E+01  0.22761622026E+02  0.39073837620E+02  0.00000000000E+00 0. -1.
         -5    1    5    5    0  503 -0.47274460586E+02  0.68782362657E+02 -0.18933070137E+02  0.85711371365E+02  0.47000000000E+01 0.  1.
         13    1    6    6    0    0  0.28123905785E+02  0.26655466186E+02 -0.14012290228E+02  0.41204517127E+02  0.00000000000E+00 0. -1.
        -14    1    6    6    0    0  0.30109853886E+02 -0.83876135171E+01  0.59981861054E+02  0.67637112719E+02  0.00000000000E+00 0.  1.
</event>
<event>
12    1  0.9246030E-003  0.1748430E+03  0.7818608E-02  0.1173204E+00
         21   -1    0    0  501  502  0.00000000000E+00  0.00000000000E+00  0.15357098794E+03  0.15357098794E+03  0.00000000000E+00 0. -1.
         21   -1    0    0  502  503 -0.00000000000E+00 -0.00000000000E+00 -0.20464152472E+03  0.20464152472E+03  0.00000000000E+00 0. -1.
          6    2    1    2  501    0  0.42406324491E+01  0.22732096739E+02 -0.58561837025E+02  0.18320907936E+03  0.17205041940E+03 0.  0.
         24    2    3    3    0    0  0.38232238784E+02  0.32355004340E+02  0.21444984990E+02  0.95623628391E+02  0.78583971248E+02 0.  0.
         -6    2    1    2    0  503 -0.42406324491E+01 -0.22732096739E+02  0.74913002406E+01  0.17500343330E+03  0.17330709998E+03 0.  0.
        -24    2    5    5    0    0 -0.56968323839E+02 -0.19685096932E+02  0.47931124297E+02  0.10831788002E+03  0.76173994864E+02 0.  0.
          5    1    3    3  501    0 -0.33991606335E+02 -0.96229076013E+01 -0.80006822015E+02  0.87585450966E+02  0.47000000000E+01 0. -1.
        -13    1    4    4    0    0  0.38177873481E+02 -0.10164422698E+02  0.33094162064E+02  0.51537259095E+02  0.00000000000E+00 0.  1.
         14    1    4    4    0    0  0.54365303427E-01  0.42519427038E+02 -0.11649177074E+02  0.44086369296E+02  0.00000000000E+00 0. -1.
         -5    1    5    5    0  503  0.52727691389E+02 -0.30469998068E+01 -0.40439824057E+02  0.66685553284E+02  0.47000000000E+01 0.  1.
         13    1    6    6    0    0  0.12328176310E+02 -0.20407040180E+02 -0.37200599652E+00  0.23844697702E+02  0.00000000000E+00 0. -1.
        -14    1    6    6    0    0 -0.69296500148E+02  0.72194324843E+00  0.48303130294E+02  0.84473182318E+02  0.00000000000E+00 0.  1.
</event>
<event>
12    1  0.9246030E-003  0.2568043E+03  0.7818608E-02  0.1109089E+00
         21   -1    0    0  503  502  0.00000000000E+00  0.00000000000E+00  0.70921055898E+03  0.70921055898E+03  0.00000000000E+00 0.  1.
         21   -1    0    0  501  503 -0.00000000000E+00 -0.00000000000E+00 -0.92965950027E+02  0.92965950027E+02  0.00000000000E+00 0.  1.
          6    2    1    2  501    0 -0.61277205106E+02 -0.18156677109E+03  0.30633811505E+03  0.39973928250E+03  0.17095924956E+03 0.  0.
         24    2    3    3    0    0 -0.25299174545E+00 -0.58228710600E+02  0.21534466963E+03  0.23469950278E+03  0.72937528895E+02 0.  0.
         -6    2    1    2    0  502  0.61277205106E+02  0.18156677109E+03  0.30990649390E+03  0.40243722651E+03  0.17085753741E+03 0.  0.
        -24    2    5    5    0    0  0.58329577568E+02  0.14508076128E+03  0.31929549335E+03  0.36435625055E+03  0.79718870583E+02 0.  0.
          5    1    3    3  501    0 -0.61024213361E+02 -0.12333806049E+03  0.90993445423E+02  0.16503977972E+03  0.47000000000E+01 0. -1.
        -11    1    4    4    0    0  0.17358963169E+02 -0.57605632905E+02  0.20629411092E+03  0.21488834948E+03  0.00000000000E+00 0.  1.
         12    1    4    4    0    0 -0.17611954915E+02 -0.62307769525E+00  0.90505587157E+01  0.19811153293E+02  0.00000000000E+00 0. -1.
         -5    1    5    5    0  502  0.29476275380E+01  0.36486009806E+02 -0.93889994467E+01  0.38080975963E+02  0.47000000000E+01 0.  1.
         13    1    6    6    0    0 -0.12655954740E+01 -0.86929133964E+00  0.65935365581E+02  0.65953239751E+02  0.00000000000E+00 0. -1.
        -14    1    6    6    0    0  0.59595173042E+02  0.14595005262E+03  0.25336012777E+03  0.29840301080E+03  0.00000000000E+00 0.  1.
</event>
<event>
12    1  0.9246030E-003  0.1798354E+03  0.7818608E-02  0.1169238E+00
         21   -1    0    0  503  502  0.00000000000E+00  0.00000000000E+00  0.13799680754E+03  0.13799680754E+03  0.00000000000E+00 0. -1.
         21   -1    0    0  501  503 -0.00000000000E+00 -0.00000000000E+00 -0.35618247608E+03  0.35618247608E+03  0.00000000000E+00 0. -1.
          6    2    1    2  501    0  0.19629972430E+02 -0.39074563119E+02 -0.25853250273E+03  0.31492826843E+03  0.17443796028E+03 0.  0.
         24    2    3    3    0    0  0.45028993987E+02 -0.24306803566E+02 -0.26823967820E+03  0.28363104373E+03  0.76652547307E+02 0.  0.
         -6    2    1    2    0  502 -0.19629972430E+02  0.39074563119E+02  0.40346834194E+02  0.17925101519E+03  0.16908844466E+03 0.  0.
        -24    2    5    5    0    0 -0.29081247001E+01  0.91028471843E+02  0.29919156218E+02  0.12348673190E+03  0.77840716663E+02 0.  0.
          5    1    3    3  501    0 -0.25399021558E+02 -0.14767759553E+02  0.97071754679E+01  0.31297224699E+02  0.47000000000E+01 0. -1.
        -13    1    4    4    0    0  0.68659368979E+01 -0.41908065193E+02 -0.78067555206E+02  0.88870524886E+02  0.00000000000E+00 0.  1.
         14    1    4    4    0    0  0.38163057090E+02  0.17601261626E+02 -0.19017212299E+03  0.19476051884E+03  0.00000000000E+00 0. -1.
         -5    1    5    5    0  502 -0.16721847730E+02 -0.51953908724E+02  0.10427677977E+02  0.55764283293E+02  0.47000000000E+01 0.  1.
         13    1    6    6    0    0 -0.24024372308E+02  0.94193701032E+02  0.17458062862E+02  0.98764405217E+02  0.00000000000E+00 0. -1.
        -14    1    6    6    0    0  0.21116247608E+02 -0.31652291896E+01  0.12461093356E+02  0.24722326680E+02  0.00000000000E+00 0.  1.
</event>
<event>
12    1  0.9246030E-003  0.2960052E+03  0.7818608E-02  0.1087297E+00
         21   -1    0    0  501  502  0.00000000000E+00  0.00000000000E+00  0.30689961478E+03  0.30689961478E+03  0.00000000000E+00 0. -1.
         21   -1    0    0  502  503 -0.00000000000E+00 -0.00000000000E+00 -0.34711504980E+03  0.34711504980E+03  0.00000000000E+00 0.  1.
          6    2    1    2  501    0 -0.22076188541E+03  0.95931349819E+02 -0.15825394775E+03  0.33565363872E+03  0.17228006059E+03 0.  0.
         24    2    3    3    0    0 -0.12965252394E+03  0.68770743002E+01 -0.72823889148E+02  0.18218714515E+03  0.10503221369E+03 0.  0.
         -6    2    1    2    0  503  0.22076188541E+03 -0.95931349819E+02  0.11803851273E+03  0.31836102586E+03  0.17170328584E+03 0.  0.
        -24    2    5    5    0    0  0.19513570039E+03 -0.10664104722E+03  0.14674875194E+03  0.27813955383E+03  0.79850865290E+02 0.  0.
          5    1    3    3  501    0 -0.91109361472E+02  0.89054275519E+02 -0.85430058604E+02  0.15346649357E+03  0.47000000000E+01 0. -1.
        -11    1    4    4    0    0 -0.14274056760E+02  0.39115493143E+02  0.66688986860E+00  0.41643910026E+02  0.00000000000E+00 0.  1.
         12    1    4    4    0    0 -0.11537846718E+03 -0.32238418842E+02 -0.73490779017E+02  0.14054323512E+03  0.00000000000E+00 0. -1.
         -5    1    5    5    0  503  0.25626185021E+02  0.10709697399E+02 -0.28710239206E+02  0.40221472031E+02  0.47000000000E+01 0.  1.
         11    1    6    6    0    0  0.16112332277E+03 -0.71873109086E+02  0.75570735848E+02  0.19193072987E+03  0.00000000000E+00 0. -1.
        -12    1    6    6    0    0  0.34012377616E+02 -0.34767938132E+02  0.71178016093E+02  0.86208823957E+02  0.00000000000E+00 0.  1.
</event>
<event>
12    1  0.9246030E-003  0.2045218E+03  0.7818608E-02  0.1146927E+00
         21   -1    0    0  503  502  0.00000000000E+00  0.00000000000E+00  0.66026545514E+03  0.66026545514E+03  0.00000000000E+00 0.  1.
         21   -1    0    0  501  503 -0.00000000000E+00 -0.00000000000E+00 -0.63160804443E+02  0.63160804443E+02  0.00000000000E+00 0.  1.
          6    2    1    2  501    0 -0.60198895145E+02  0.82794595859E+02  0.25167213932E+03  0.32429618261E+03  0.17706014873E+03 0.  0.
         24    2    3    3    0    0 -0.22693298309E+02 -0.21380202868E+02  0.15793304022E+03  0.17914740658E+03  0.78605656472E+02 0.  0.
         -6    2    1    2    0  502  0.60198895145E+02 -0.82794595859E+02  0.34543251138E+03  0.39913007697E+03  0.17176247071E+03 0.  0.
        -24    2    5    5    0    0 -0.18704257259E+02 -0.30550349209E+02  0.87742700675E+02  0.12457353032E+03  0.80849303387E+02 0.  0.
          5    1    3    3  501    0 -0.37505596836E+02  0.10417479873E+03  0.93739099099E+02  0.14514877603E+03  0.47000000000E+01 0. -1.
        -11    1    4    4    0    0  0.13422933474E+02  0.87940953048E+01  0.18855414464E+01  0.16157553089E+02  0.00000000000E+00 0.  1.
         12    1    4    4    0    0 -0.36116231783E+02 -0.30174298173E+02  0.15604749877E+03  0.16298985349E+03  0.00000000000E+00 0. -1.
         -5    1    5    5    0  502  0.78903152404E+02 -0.52244246650E+02  0.25768981071E+03  0.27455654665E+03  0.47000000000E+01 0.  1.
         13    1    6    6    0    0  0.46573435602E+01  0.18191310108E+02 -0.29375229945E+01  0.19006410862E+02  0.00000000000E+00 0. -1.
        -14    1    6    6    0    0 -0.23361600820E+02 -0.48741659317E+02  0.90680223669E+02  0.10556711946E+03  0.00000000000E+00 0.  1.
</event>
<event>
12    1  0.9246030E-003  0.3077446E+03  0.7818608E-02  0.1081550E+00
         21   -1    0    0  503  502  0.00000000000E+00  0.00000000000E+00  0.48365057701E+03  0.48365057701E+03  0.00000000000E+00 0. -1.
         21   -1    0    0  501  503 -0.00000000000E+00 -0.00000000000E+00 -0.24225758205E+03  0.24225758205E+03  0.00000000000E+00 0.  1.
          6    2    1    2  501    0  0.58580929916E+02 -0.24833717823E+03 -0.39425508752E+02  0.30929592186E+03  0.17031299744E+03 0.  0.
         24    2    3    3    0    0 -0.20935582276E+02 -0.55726608539E+02 -0.14508262342E+02  0.99380066247E+02  0.78244197143E+02 0.  0.
         -6    2    1    2    0  502 -0.58580929916E+02  0.24833717823E+03  0.28081850371E+03  0.41661223721E+03  0.17205709729E+03 0.  0.
        -24    2    5    5    0    0 -0.33322607466E+02  0.39411837005E+02  0.11423094997E+03  0.14816990799E+03  0.79005839257E+02 0.  0.
          5    1    3    3  501    0  0.79516512191E+02 -0.19261056969E+03 -0.24917246410E+02  0.20991585561E+03  0.47000000000E+01 0. -1.
        -11    1    4    4    0    0  0.23773355220E+02 -0.15219541430E+02 -0.25519657169E+02  0.38053380425E+02  0.00000000000E+00 0.  1.
         12    1    4    4    0    0 -0.44708937496E+02 -0.40507067109E+02  0.11011394827E+02  0.61326685822E+02  0.00000000000E+00 0. -1.
         -5    1    5    5    0  502 -0.25258322449E+02  0.20892534122E+03  0.16658755373E+03  0.26844232922E+03  0.47000000000E+01 0.  1.
         11    1    6    6    0    0  0.90648790188E+01 -0.26989859809E+01 -0.78240960431E+01  0.12274894535E+02  0.00000000000E+00 0. -1.
        -12    1    6    6    0    0 -0.42387486485E+02  0.42110822986E+02  0.12205504602E+03  0.13589501345E+03  0.00000000000E+00 0.  1.
</event>
<event>
12    1  0.9246030E-003  0.1761926E+03  0.7818608E-02  0.1172004E+00
         21   -1    0    0  503  502  0.00000000000E+00  0.00000000000E+00  0.16179619785E+03  0.16179619785E+03  0.00000000000E+00 0.  1.
         21   -1    0    0  501  503 -0.00000000000E+00 -0.00000000000E+00 -0.19723716169E+03  0.19723716169E+03  0.00000000000E+00 0.  1.
          6    2    1    2  501    0  0.36615502933E+02 -0.12292275883E+02 -0.52361716787E+02  0.18203010347E+03  0.17000415902E+03 0.  0.
         24    2    3    3    0    0  0.85658270237E+02 -0.31585744579E+02 -0.40479531782E+02  0.12780181492E+03  0.79747808014E+02 0.  0.
         -6    2    1    2    0  502 -0.36615502933E+02  0.12292275883E+02  0.16920752944E+02  0.17700325606E+03  0.17190708442E+03 0.  0.
        -24    2    5    5    0    0 -0.17116949399E+02  0.54069157175E+02 -0.35368031972E+02  0.10713403230E+03  0.83727770048E+02 0.  0.
          5    1    3    3  501    0 -0.49042767303E+02  0.19293468696E+02 -0.11882185005E+02  0.54228288555E+02  0.47000000000E+01 0. -1.
        -11    1    4    4    0    0  0.43847711637E+02  0.13069222804E+02 -0.47827875113E+02  0.66188609581E+02  0.00000000000E+00 0.  1.
         12    1    4    4    0    0  0.41810558600E+02 -0.44654967383E+02  0.73483433313E+01  0.61613205339E+02  0.00000000000E+00 0. -1.
         -5    1    5    5    0  502 -0.19498553535E+02 -0.41776881292E+02  0.52288784916E+02  0.69869223757E+02  0.47000000000E+01 0.  1.
         11    1    6    6    0    0 -0.33867057446E+02  0.66403739683E+01 -0.44186615205E+02  0.56067183893E+02  0.00000000000E+00 0. -1.
        -12    1    6    6    0    0  0.16750108047E+02  0.47428783207E+02  0.88185832327E+01  0.51066848408E+02  0.00000000000E+00 0.  1.
</event>
<event>
12    1  0.9246030E-003  0.2065217E+03  0.7818608E-02  0.1144822E+00
         21   -1    0    0  501  502  0.00000000000E+00  0.00000000000E+00  0.12875627666E+04  0.12875627666E+04  0.00000000000E+00 0.  1.
         21   -1    0    0  502  503 -0.00000000000E+00 -0.00000000000E+00 -0.48543463305E+02  0.48543463305E+02  0.00000000000E+00 0.  1.
          6    2    1    2  501    0  0.10512851088E+03  0.37351878155E+02  0.10028573086E+04  0.10239013694E+04  0.17379317130E+03 0.  0.
         24    2    3    3    0    0  0.11901692736E+03 -0.32038558555E+01  0.54954712165E+03  0.56854450802E+03  0.84056677316E+02 0.  0.
         -6    2    1    2    0  503 -0.10512851088E+03 -0.37351878155E+02  0.23616199470E+03  0.31220486044E+03  0.17103280545E+03 0.  0.
        -24    2    5    5    0    0 -0.10339045362E+03 -0.78202425867E+02  0.14866120293E+03  0.21550808359E+03  0.86823818892E+02 0.  0.
          5    1    3    3  501    0 -0.13888416474E+02  0.40555734011E+02  0.45331018693E+03  0.45535686143E+03  0.47000000000E+01 0. -1.
        -11    1    4    4    0    0  0.11918595540E+03  0.21250524399E+02  0.44490355967E+03  0.46108139646E+03  0.00000000000E+00 0.  1.
         12    1    4    4    0    0 -0.16902803884E+00 -0.24454380255E+02  0.10464356198E+03  0.10746311157E+03  0.00000000000E+00 0. -1.
         -5    1    5    5    0  503 -0.17380572630E+01  0.40850547711E+02  0.87500791773E+02  0.96696776845E+02  0.47000000000E+01 0.  1.
         13    1    6    6    0    0 -0.18130025620E+02 -0.61959178140E+02  0.38146839106E+02  0.74985458047E+02  0.00000000000E+00 0. -1.
        -14    1    6    6    0    0 -0.85260428001E+02 -0.16243247726E+02  0.11051436382E+03  0.14052262555E+03  0.00000000000E+00 0.  1.
</event>
<event>
12    1  0.9246030E-003  0.1811404E+03  0.7818608E-02  0.1167117E+00
         21   -1    0    0  501  502  0.00000000000E+00  0.00000000000E+00  0.14702925464E+03  0.14702925464E+03  0.00000000000E+00 0.  1.
         21   -1    0    0  502  503 -0.00000000000E+00 -0.00000000000E+00 -0.48560065123E+03  0.48560065123E+03  0.00000000000E+00 0.  1.
          6    2    1    2  501    0  0.10602137384E+02 -0.54224116017E+02  0.64546575925E+02  0.19068427742E+03  0.17070903056E+03 0.  0.
         24    2    3    3    0    0  0.27112756819E+02 -0.93919257900E+02  0.74087761465E+02  0.14639625347E+03  0.79918321085E+02 0.  0.
         -6    2    1    2    0  503 -0.10602137384E+02  0.54224116017E+02 -0.40311797251E+03  0.44194562845E+03  0.17250848867E+03 0.  0.
        -24    2    5    5    0    0 -0.57726729409E+02  0.67530211369E+02 -0.34854934836E+03  0.36847724008E+03  0.79975768078E+02 0.  0.
          5    1    3    3  501    0 -0.16510619435E+02  0.39695141883E+02 -0.95411855400E+01  0.44288023943E+02  0.47000000000E+01 0. -1.
        -13    1    4    4    0    0  0.24916649802E+02 -0.52453952324E+02 -0.37324150772E+01  0.58190956979E+02  0.00000000000E+00 0.  1.
         14    1    4    4    0    0  0.21961070173E+01 -0.41465305576E+02  0.77820176542E+02  0.88205296494E+02  0.00000000000E+00 0. -1.
         -5    1    5    5    0  503  0.47124592025E+02 -0.13306095352E+02 -0.54568624154E+02  0.73468388366E+02  0.47000000000E+01 0.  1.
         11    1    6    6    0    0 -0.43339270369E+02 -0.61748244526E+01 -0.11016891629E+03  0.11854792672E+03  0.00000000000E+00 0. -1.
        -12    1    6    6    0    0 -0.14387459040E+02  0.73705035822E+02 -0.23838043207E+03  0.24992931337E+03  0.00000000000E+00 0.  1.
</event>
<event>
12    1  0.9246030E-003  0.2158906E+03  0.7818608E-02  0.1136992E+00
         21   -1    0    0  503  502  0.00000000000E+00  0.00000000000E+00  0.55292491136E+03  0.55292491136E+03  0.00000000000E+00 0.  1.
         21   -1    0    0  501  503 -0.00000000000E+00 -0.00000000000E+00 -0.10793308303E+03  0.10793308303E+03  0.00000000000E+00 0.  1.
          6    2    1    2  501    0  0.98837547064E+02  0.87086438805E+02  0.67797551848E+02  0.22624981050E+03  0.17099578995E+03 0.  0.
         24    2    3    3    0    0  0.42000759002E+02  0.11454005393E+03  0.18077356905E+02  0.14576186577E+03  0.77693262061E+02 0.  0.
         -6    2    1    2    0  502 -0.98837547064E+02 -0.87086438805E+02  0.37719427648E+03  0.43460818388E+03  0.17104339436E+03 0.  0.
        -24    2    5    5    0    0 -0.98881468700E+01  0.73003869661E+01  0.15298304159E+03  0.17554518666E+03  0.85212853780E+02 0.  0.
          5    1    3    3  501    0  0.56836788062E+02 -0.27453615128E+02  0.49720194944E+02  0.80487944725E+02  0.47000000000E+01 0. -1.
        -11    1    4    4    0    0  0.42954888293E+01  0.15288565762E+02 -0.26272434442E+02  0.30699059901E+02  0.00000000000E+00 0.  1.
         12    1    4    4    0    0  0.37705270172E+02  0.99251488171E+02  0.44349791346E+02  0.11506280587E+03  0.00000000000E+00 0. -1.
         -5    1    5    5    0  502 -0.88949400194E+02 -0.94386825772E+02  0.22421123490E+03  0.25906299722E+03  0.47000000000E+01 0.  1.
         11    1    6    6    0    0  0.30464069000E+02 -0.16982819698E+02  0.92716390018E+02  0.99059601467E+02  0.00000000000E+00 0. -1.
        -12    1    6    6    0    0 -0.40352215870E+02  0.24283206664E+02  0.60266651568E+02  0.76485585196E+02  0.00000000000E+00 0.  1.
</event>
<event>
12    1  0.9246030E-003  0.2112438E+03  0.7818608E-02  0.1140698E+00
         21   -1    0    0  501  502  0.00000000000E+00  0.00000000000E+00  0.52049656290E+03  0.52049656290E+03  0.00000000000E+00 0.  1.
         21   -1    0    0  502  503 -0.00000000000E+00 -0.00000000000E+00 -0.88200541292E+02  0.88200541292E+02  0.00000000000E+00 0.  1.
          6    2    1    2  501    0  0.86539710104E+02 -0.84285819791E+02  0.26969654626E+03  0.34257868859E+03  0.17329371012E+03 0.  0.
         24    2    3    3    0    0  0.11271137804E+03 -0.58439785275E+02  0.13324081721E+03  0.20117419894E+03  0.81233488817E+02 0.  0.
         -6    2    1    2    0  503 -0.86539710104E+02  0.84285819791E+02  0.16259947535E+03  0.26611841561E+03  0.17258968943E+03 0.  0.
        -24    2    5    5    0    0 -0.67310704849E+02  0.64195827471E+02  0.18810225065E+03  0.22809416042E+03  0.89401644655E+02 0.  0.
          5    1    3    3  501    0 -0.26171667933E+02 -0.25846034516E+02  0.13645572905E+03  0.14140448965E+03  0.47000000000E+01 0. -1.
        -11    1    4    4    0    0  0.24374228733E+02 -0.46122548119E+02  0.17436763097E+02  0.55003937847E+02  0.00000000000E+00 0.  1.
         12    1    4    4    0    0  0.88337149304E+02 -0.12317237156E+02  0.11580405411E+03  0.14617026109E+03  0.00000000000E+00 0. -1.
         -5    1    5    5    0  503 -0.19229005255E+02  0.20089992320E+02 -0.25502775299E+02  0.38024255186E+02  0.47000000000E+01 0.  1.
         13    1    6    6    0    0  0.11095973559E+02 -0.11539401469E+02  0.47865291396E+02  0.50471422963E+02  0.00000000000E+00 0. -1.
        -14    1    6    6    0    0 -0.78406678408E+02  0.75735228940E+02  0.14023695926E+03  0.17762273746E+03  0.00000000000E+00 0.  1.
</event>
<event>
12    1  0.9246030E-003  0.1731486E+03  0.7818608E-02  0.1174817E+00
         21   -1    0    0  503  502  0.00000000000E+00  0.00000000000E+00  0.48517957295E+02  0.48517957295E+02  0.00000000000E+00 0.  1.
         21   -1    0    0  501  503 -0.00000000000E+00 -0.00000000000E+00 -0.64470092637E+03  0.64470092637E+03  0.00000000000E+00 0.  1.
          6    2    1    2  501    0 -0.22321021946E+02 -0.21715675520E+01 -0.37323810031E+03  0.41144517593E+03  0.17169015566E+03 0.  0.
         24    2    3    3    0    0 -0.17088579393E+02  0.59996494017E+02 -0.15845907532E+03  0.18773919499E+03  0.79026121913E+02 0.  0.
         -6    2    1    2    0  502  0.22321021946E+02  0.21715675520E+01 -0.22294486876E+03  0.28177370773E+03  0.17084807325E+03 0.  0.
        -24    2    5    5    0    0  0.52185364328E+02  0.54694296272E+02 -0.15652756242E+03  0.19186339375E+03  0.81215181887E+02 0.  0.
          5    1    3    3  501    0 -0.52324425535E+01 -0.62168061569E+02 -0.21477902499E+03  0.22370598094E+03  0.47000000000E+01 0. -1.
        -11    1    4    4    0    0  0.27289184911E+02  0.47146335608E+02 -0.86759522271E+02  0.10244360048E+03  0.00000000000E+00 0.  1.
         12    1    4    4    0    0 -0.44377764304E+02  0.12850158409E+02 -0.71699553050E+02  0.85295594513E+02  0.00000000000E+00 0. -1.
         -5    1    5    5    0  502 -0.29864342382E+02 -0.52522728720E+02 -0.66417306341E+02  0.89910313979E+02  0.47000000000E+01 0.  1.
         11    1    6    6    0    0 -0.16109899363E+02  0.15617428438E+02 -0.76135444841E+02  0.79372784313E+02  0.00000000000E+00 0. -1.
        -12    1    6    6    0    0  0.68295263692E+02  0.39076867834E+02 -0.80392117583E+02  0.11249060944E+03  0.00000000000E+00 0.  1.
</event>
<event>
12    1  0.9246030E-003  0.1829154E+03  0.7818608E-02  0.1165218E+00
         21   -1    0    0  503  502  0.00000000000E+00  0.00000000000E+00  0.48836808679E+03  0.48836808679E+03  0.00000000000E+00 0. -1.
         21   -1    0    0  501  503 -0.00000000000E+00 -0.00000000000E+00 -0.92442249089E+02  0.92442249089E+02  0.00000000000E+00 0. -1.
          6    2    1    2  501    0  0.57876717467E+02  0.20752384135E+02  0.49547548841E+02  0.18950729399E+03  0.17227210745E+03 0.  0.
         24    2    3    3    0    0  0.42543961100E+02 -0.49690944444E+02  0.53536484711E+01  0.10481640434E+03  0.81722937303E+02 0.  0.
         -6    2    1    2    0  502 -0.57876717467E+02 -0.20752384135E+02  0.34637828886E+03  0.39130304189E+03  0.17134694549E+03 0.  0.
        -24    2    5    5    0    0 -0.19285225809E+02 -0.71058020071E+02  0.15990790463E+03  0.19429224414E+03  0.82205693353E+02 0.  0.
          5    1    3    3  501    0  0.15332756367E+02  0.70443328578E+02  0.44193900370E+02  0.84690889645E+02  0.47000000000E+01 0. -1.
        -11    1    4    4    0    0  0.34271318118E+02  0.41514806800E+01  0.29330021755E+02  0.45299097271E+02  0.00000000000E+00 0.  1.
         12    1    4    4    0    0  0.82726429823E+01 -0.53842425124E+02 -0.23976373284E+02  0.59517307071E+02  0.00000000000E+00 0. -1.
         -5    1    5    5    0  502 -0.38591491658E+02  0.50305635937E+02  0.18647038423E+03  0.19701079775E+03  0.47000000000E+01 0.  1.
         11    1    6    6    0    0  0.27156217780E+02 -0.31825892791E+02  0.10236063989E+03  0.11058050558E+03  0.00000000000E+00 0. -1.
        -12    1    6    6    0    0 -0.46441443590E+02 -0.39232127281E+02  0.57547264738E+02  0.83711738558E+02  0.00000000000E+00 0.  1.
</event>
<event>
12    1  0.9246030E-003  0.2645104E+03  0.7818608E-02  0.1104636E+00
         21   -1    0    0  503  502  0.00000000000E+00  0.00000000000E+00  0.53673237197E+02  0.53673237197E+02  0.00000000000E+00 0.  1.
         21   -1    0    0  501  503 -0.00000000000E+00 -0.00000000000E+00 -0.14394483700E+04  0.14394483700E+04  0.00000000000E+00 0. -1.
          6    2    1    2  501    0 -0.89973486914E+02  0.17988573388E+03 -0.92848473927E+03  0.96542720434E+03  0.17178961037E+03 0.  0.
         24    2    3    3    0    0 -0.58972371907E+02  0.20206388027E+03 -0.79115310763E+03  0.82282634054E+03  0.82537231667E+02 0.  0.
         -6    2    1    2    0  502  0.89973486914E+02 -0.17988573388E+03 -0.45729039352E+03  0.52769440284E+03  0.16997874333E+03 0.  0.
        -24    2    5    5    0    0  0.15012784621E+02 -0.15474811096E+03 -0.21196125183E+03  0.26989703137E+03  0.61192105026E+02 0.  0.
          5    1    3    3  501    0 -0.31001115007E+02 -0.22178146398E+02 -0.13733163164E+03  0.14260086381E+03  0.47000000000E+01 0. -1.
        -11    1    4    4    0    0 -0.62225322996E+02  0.11196783580E+03 -0.56557081293E+03  0.57989579367E+03  0.00000000000E+00 0.  1.
         12    1    4    4    0    0  0.32529510888E+01  0.90096044472E+02 -0.22558229470E+03  0.24293054687E+03  0.00000000000E+00 0. -1.
         -5    1    5    5    0  502  0.74960702292E+02 -0.25137622914E+02 -0.24532914169E+03  0.25779737147E+03  0.47000000000E+01 0.  1.
         11    1    6    6    0    0  0.12265700207E+02 -0.95925431957E+01 -0.50103938464E+02  0.52467789510E+02  0.00000000000E+00 0. -1.
        -12    1    6    6    0    0  0.27470844138E+01 -0.14515556777E+03 -0.16185731337E+03  0.21742924186E+03  0.00000000000E+00 0.  1.
</event>
<event>
12    1  0.9246030E-003  0.2219189E+03  0.7818608E-02  0.1133185E+00
         21   -1    0    0  501  502  0.00000000000E+00  0.00000000000E+00  0.89601415073E+02  0.89601415073E+02  0.00000000000E+00 0. -1.
         21   -1    0    0  502  503 -0.00000000000E+00 -0.00000000000E+00 -0.63598415523E+03  0.63598415523E+03  0.00000000000E+00 0.  1.
          6    2    1    2  501    0 -0.13575601620E+03  0.34345974023E+00 -0.13022576538E+03  0.25395579573E+03  0.17060182390E+03 0.  0.
         24    2    3    3    0    0 -0.93138145103E+02  0.84880373780E+01 -0.15984652751E+03  0.20121021173E+03  0.78663054197E+02 0.  0.
         -6    2    1    2    0  503  0.13575601620E+03 -0.34345974023E+00 -0.41615697478E+03  0.47162977457E+03  0.17555113985E+03 0.  0.
        -24    2    5    5    0    0  0.12754123523E+03  0.55268080228E+02 -0.26070788407E+03  0.30626159200E+03  0.80661233204E+02 0.  0.
          5    1    3    3  501    0 -0.42617871102E+02 -0.81445776378E+01  0.29620762135E+02  0.52745584001E+02  0.47000000000E+01 0. -1.
        -13    1    4    4    0    0 -0.58727812431E+02 -0.33463189873E+02 -0.96250950514E+02  0.11761371733E+03  0.00000000000E+00 0.  1.
         14    1    4    4    0    0 -0.34410332671E+02  0.41951227251E+02 -0.63595576998E+02  0.83596494401E+02  0.00000000000E+00 0. -1.
         -5    1    5    5    0  503  0.82147809741E+01 -0.55611539968E+02 -0.15544909071E+03  0.16536818257E+03  0.47000000000E+01 0.  1.
         11    1    6    6    0    0 -0.11487414284E+02  0.56569979574E+01 -0.26206941878E+02  0.29167895286E+02  0.00000000000E+00 0. -1.
        -12    1    6    6    0    0  0.13902864951E+03  0.49611082270E+02 -0.23450094219E+03  0.27709369671E+03  0.00000000000E+00 0.  1.
</event>
<event>
12    1  0.9246030E-003  0.1824902E+03  0.7818608E-02  0.1165491E+00
         21   -1    0    0  501  502  0.00000000000E+00  0.00000000000E+00  0.54268597562E+02  0.54268597562E+02  0.00000000000E+00 0. -1.
         21   -1    0    0  502  503 -0.00000000000E+00 -0.00000000000E+00 -0.67251816831E+03  0.67251816831E+03  0.00000000000E+00 0. -1.
          6    2    1    2  501    0 -0.60135977279E+02  0.42556448429E+01 -0.20039926457E+03  0.27082453095E+03  0.17190583192E+03 0.  0.
         24    2    3    3    0    0 -0.41126488847E+02  0.16866878099E+02 -0.22193234807E+03  0.23910438687E+03  0.77078278643E+02 0.  0.
         -6    2    1    2    0  503  0.60135977279E+02 -0.42556448429E+01 -0.41785030618E+03  0.45596223493E+03  0.17224469520E+03 0.  0.
        -24    2    5    5    0    0 -0.80877043986E+01  0.47361945721E+02 -0.25823495545E+03  0.27480485421E+03  0.80770358537E+02 0.  0.
          5    1    3    3  501    0 -0.19009488432E+02 -0.12611233256E+02  0.21533083508E+02  0.31720144074E+02  0.47000000000E+01 0. -1.
        -11    1    4    4    0    0 -0.39252775494E+02  0.38454120436E+02 -0.90335451736E+02  0.10573548885E+03  0.00000000000E+00 0.  1.
         12    1    4    4    0    0 -0.18737133526E+01 -0.21587242336E+02 -0.13159689634E+03  0.13336889802E+03  0.00000000000E+00 0. -1.
         -5    1    5    5    0  503  0.68223681677E+02 -0.51617590564E+02 -0.15961535074E+03  0.18115738072E+03  0.47000000000E+01 0.  1.
         11    1    6    6    0    0 -0.18094478527E+02 -0.16085839270E+02 -0.11941961304E+03  0.12184912128E+03  0.00000000000E+00 0. -1.
        -12    1    6    6    0    0  0.10006774128E+02  0.63447784991E+02 -0.13881534241E+03  0.15295573293E+03  0.00000000000E+00 0.  1.
</event>
<event>
12    1  0.9246030E-003  0.2518053E+03  0.7818608E-02  0.1112243E+00
         21   -1    0    0  503  502  0.00000000000E+00  0.00000000000E+00  0.89810079639E+03  0.89810079639E+03  0.00000000000E+00 0. -1.
         21   -1    0    0  501  503 -0.00000000000E+00 -0.00000000000E+00 -0.85012423446E+02  0.85012423446E+02  0.00000000000E+00 0.  1.
          6    2    1    2  501    0  0.15694680337E+03  0.93682666431E+02  0.20290635121E+03  0.32301624580E+03  0.17251019277E+03 0.  0.
         24    2    3    3    0    0  0.31398779233E+02  0.18541782055E+02  0.13638288003E+03  0.16221848124E+03  0.79905348207E+02 0.  0.
         -6    2    1    2    0  502 -0.15694680337E+03 -0.93682666431E+02  0.61018202174E+03  0.66009697404E+03  0.17319692379E+03 0.  0.
        -24    2    5    5    0    0 -0.18232157062E+03 -0.91177366243E+02  0.48187388956E+03  0.52919539985E+03  0.79314932742E+02 0.  0.
          5    1    3    3  501    0  0.12554802414E+03  0.75140884376E+02  0.66523471186E+02  0.16079776456E+03  0.47000000000E+01 0. -1.
        -11    1    4    4    0    0  0.55112198735E+02  0.79330403360E+01  0.61517947999E+02  0.82974366550E+02  0.00000000000E+00 0.  1.
         12    1    4    4    0    0 -0.23713419502E+02  0.10608741719E+02  0.74864932029E+02  0.79244114691E+02  0.00000000000E+00 0. -1.
         -5    1    5    5    0  502  0.25374767256E+02 -0.25053001881E+01  0.12830813217E+03  0.13090157419E+03  0.47000000000E+01 0.  1.
         13    1    6    6    0    0 -0.19809511673E+02  0.27135874672E+01  0.11889310582E+03  0.12056264314E+03  0.00000000000E+00 0. -1.
        -14    1    6    6    0    0 -0.16251205895E+03 -0.93890953710E+02  0.36298078374E+03  0.40863275671E+03  0.00000000000E+00 0.  1.
</event>
<event>
12    1  0.9246030E-003  0.2321002E+03  0.7818608E-02  0.1125216E+00
         21   -1    0    0  503  502  0.00000000000E+00  0.00000000000E+00  0.79802036411E+03  0.79802036411E+03  0.00000000000E+00 0. -1.
         21   -1    0    0  501  503 -0.00000000000E+00 -0.00000000000E+00 -0.67519893455E+02  0.67519893455E+02  0.00000000000E+00 0.  1.
          6    2    1    2  501    0  0.14214062332E+03 -0.63520363852E+02  0.34910016797E+03  0.41906885912E+03  0.17178180341E+03 0.  0.
         24    2    3    3    0    0  0.13870798521E+03 -0.94660649399E+01  0.31811496040E+03  0.35649231940E+03  0.80994655462E+02 0.  0.
         -6    2    1    2    0  502 -0.14214062332E+03  0.63520363852E+02  0.38140030268E+03  0.44647139844E+03  0.17213868049E+03 0.  0.
        -24    2    5    5    0    0 -0.26536821023E+02  0.63857610664E+02  0.10990668254E+03  0.15135239089E+03  0.77756479167E+02 0.  0.
          5    1    3    3  501    0  0.34326381113E+01 -0.54054298912E+02  0.30985207572E+02  0.62576539722E+02  0.47000000000E+01 0. -1.
        -11    1    4    4    0    0  0.81829355443E+01 -0.13007375236E+02  0.33625833086E+01  0.15730836315E+02  0.00000000000E+00 0.  1.
         12    1    4    4    0    0  0.13052504966E+03  0.35413102960E+01  0.31475237709E+03  0.34076148308E+03  0.00000000000E+00 0. -1.
         -5    1    5    5    0  502 -0.11560380229E+03 -0.33724681255E+00  0.27149362014E+03  0.29511900755E+03  0.47000000000E+01 0.  1.
         11    1    6    6    0    0 -0.16536448364E+02  0.55712635995E+02  0.12106939402E+03  0.13429501146E+03  0.00000000000E+00 0. -1.
        -12    1    6    6    0    0 -0.10000372660E+02  0.81449746692E+01 -0.11162711479E+02  0.17057379437E+02  0.00000000000E+00 0.  1.
</event>
<event>
12    1  0.9246030E-003  0.2002664E+03  0.7818608E-02  0.1149634E+00
         21   -1    0    0  503  502  0.00000000000E+00  0.00000000000E+00  0.16523753509E+03  0.16523753509E+03  0.00000000000E+00 0.  1.
         21   -1    0    0  501  503 -0.00000000000E+00 -0.00000000000E+00 -0.24381067505E+03  0.24381067505E+03  0.00000000000E+00 0. -1.
          6    2    1    2  501    0 -0.59837616652E+02 -0.83283310205E+02 -0.56697048191E+02  0.20759049428E+03  0.17135520977E+03 0.  0.
         24    2    3    3    0    0  0.35096268854E+02 -0.36272810680E+02 -0.18402896356E+02  0.94847593179E+02  0.78166069721E+02 0.  0.
         -6    2    1    2    0  502  0.59837616652E+02  0.83283310205E+02 -0.21876091768E+02  0.20145771586E+03  0.17201743447E+03 0.  0.
        -24    2    5    5    0    0  0.18788381108E+02 -0.34831693594E+01 -0.56108469443E+02  0.99441014301E+02  0.79844970089E+02 0.  0.
          5    1    3    3  501    0 -0.94933885506E+02 -0.47010499525E+02 -0.38294151835E+02  0.11274290110E+03  0.47000000000E+01 0. -1.
        -13    1    4    4    0    0  0.54197611137E+01 -0.45214590761E+02  0.16254794505E+02  0.48352366774E+02  0.00000000000E+00 0.  1.
         14    1    4    4    0    0  0.29676507741E+02  0.89417800814E+01 -0.34657690861E+02  0.46495226405E+02  0.00000000000E+00 0. -1.
         -5    1    5    5    0  502  0.41049235544E+02  0.86766479565E+02  0.34232377674E+02  0.10201670155E+03  0.47000000000E+01 0.  1.
         13    1    6    6    0    0 -0.29257609129E+02  0.11537411832E+02 -0.25826288855E+02  0.40695414480E+02  0.00000000000E+00 0. -1.
        -14    1    6    6    0    0  0.48045990236E+02 -0.15020581191E+02 -0.30282180587E+02  0.58745599820E+02  0.00000000000E+00 0.  1.
</event>
<event>
12    1  0.9246030E-003  0.1797061E+03  0.7818608E-02  0.1168312E+00
         21   -1    0    0  501  502  0.00000000000E+00  0.00000000000E+00  0.88949326622E+03  0.88949326622E+03  0.00000000000E+00 0. -1.
         21   -1    0    0  502  503 -0.00000000000E+00 -0.00000000000E+00 -0.38405609562E+02  0.38405609562E+02  0.00000000000E+00 0. -1.
          6    2    1    2  501    0  0.45168796762E+02  0.27038522802E+02  0.53768670877E+03  0.56663104266E+03  0.17085795211E+03 0.  0.
         24    2    3    3    0    0 -0.37929026110E+02  0.43330198277E+02  0.27634071090E+03  0.29186844065E+03  0.74208362373E+02 0.  0.
         -6    2    1    2    0  503 -0.45168796762E+02 -0.27038522802E+02  0.31340094789E+03  0.36126783313E+03  0.17182255730E+03 0.  0.
        -24    2    5    5    0    0 -0.75130595414E+02 -0.15990989235E+02  0.30848942828E+03  0.32861863098E+03  0.83211532628E+02 0.  0.
          5    1    3    3  501    0  0.83097822873E+02 -0.16291675475E+02  0.26134599787E+03  0.27476260200E+03  0.47000000000E+01 0. -1.
        -11    1    4    4    0    0  0.21291980976E+02  0.21470336997E+02  0.75095122977E+02  0.80954316250E+02  0.00000000000E+00 0.  1.
         12    1    4    4    0    0 -0.59221007086E+02  0.21859861280E+02  0.20124558792E+03  0.21091412440E+03  0.00000000000E+00 0. -1.
         -5    1    5    5    0  503  0.29961798652E+02 -0.11047533566E+02  0.49115196169E+01  0.32649202154E+02  0.47000000000E+01 0.  1.
         11    1    6    6    0    0 -0.50158537396E+02  0.54074091395E+01  0.61939184091E+02  0.79884801265E+02  0.00000000000E+00 0. -1.
        -12    1    6    6    0    0 -0.24972058018E+02 -0.21398398375E+02  0.24655024419E+03  0.24873382971E+03  0.00000000000E+00 0.  1.
</event>
<event>
12    1  0.9246030E-003  0.1751308E+03  0.7818608E-02  0.1173068E+00
         21   -1    0    0  501  502  0.00000000000E+00  0.00000000000E+00  0.46008765792E+03  0.46008765792E+03  0.00000000000E+00 0. -1.
         21   -1    0    0  502  503 -0.00000000000E+00 -0.00000000000E+00 -0.12848302788E+03  0.12848302788E+03  0.00000000000E+00 0. -1.
          6    2    1    2  501    0 -0.22897753428E+02 -0.80778092891E+01  0.37063903247E+03  0.40914248598E+03  0.17156550739E+03 0.  0.
         24    2    3    3    0    0  0.35925735086E+02  0.39918594426E+02  0.23066930476E+03  0.24983940300E+03  0.79543991035E+02 0.  0.
         -6    2    1    2    0  503  0.22897753428E+02  0.80778092891E+01 -0.39034402433E+02  0.17942819983E+03  0.17343943094E+03 0.  0.
        -24    2    5    5    0    0  0.33561194691E+02  0.47226483764E+02  0.28091703523E+02  0.10085128341E+03  0.77621794625E+02 0.  0.
          5    1    3    3  501    0 -0.58823488514E+02 -0.47996403715E+02  0.13996972771E+03  0.15930308298E+03  0.47000000000E+01 0. -1.
        -13    1    4    4    0    0  0.60639426313E+01  0.14444031021E+02 -0.19058863852E+00  0.15666453217E+02  0.00000000000E+00 0.  1.
         14    1    4    4    0    0  0.29861792455E+02  0.25474563405E+02  0.23085989340E+03  0.23417294978E+03  0.00000000000E+00 0. -1.
         -5    1    5    5    0  503 -0.10663441263E+02 -0.39148674474E+02 -0.67126105956E+02  0.78576916417E+02  0.47000000000E+01 0.  1.
         13    1    6    6    0    0  0.27320419571E+02 -0.16792897242E+02  0.14060955183E+02  0.35015956134E+02  0.00000000000E+00 0. -1.
        -14    1    6    6    0    0  0.62407751194E+01  0.64019381006E+02  0.14030748341E+02  0.65835327275E+02  0.00000000000E+00 0.  1.
</event>
<event>
12    1  0.9246030E-003  0.2150779E+03  0.7818608E-02  0.1137788E+00
         21   -1    0    0  501  502  0.00000000000E+00  0.00000000000E+00  0.22793357898E+04  0.22793357898E+04  0.00000000000E+00 0.  1.
         21   -1    0    0  502  503 -0.00000000000E+00 -0.00000000000E+00 -0.28464093694E+02  0.28464093694E+02  0.00000000000E+00 0. -1.
          6    2    1    2  501    0 -0.77885715832E+02 -0.10443673603E+03  0.17487272474E+04  0.17619039430E+04  0.17112948913E+03 0.  0.
         24    2    3    3    0    0 -0.20778760407E+02 -0.11371103306E+03  0.85266681993E+03  0.86396541693E+03  0.77676121960E+02 0.  0.
         -6    2    1    2    0  503  0.77885715832E+02  0.10443673603E+03  0.50214444877E+03  0.54589594054E+03  0.16994150143E+03 0.  0.
        -24    2    5    5    0    0  0.96550380558E+02  0.86684470029E+02  0.25332208025E+03  0.29569967012E+03  0.80187562857E+02 0.  0.
          5    1    3    3  501    0 -0.57106955425E+02  0.92742970367E+01  0.89606042744E+03  0.89793852605E+03  0.47000000000E+01 0. -1.
        -11    1    4    4    0    0 -0.39114508945E+02 -0.98863123709E+02  0.78778228852E+03  0.79492439650E+03  0.00000000000E+00 0.  1.
         12    1    4    4    0    0  0.18335748538E+02 -0.14847909355E+02  0.64884531408E+02  0.69041020435E+02  0.00000000000E+00 0. -1.
         -5    1    5    5    0  503 -0.18664664727E+02  0.17752265999E+02  0.24882236852E+03  0.25019627042E+03  0.47000000000E+01 0.  1.
         13    1    6    6    0    0  0.23830272929E+02  0.72312006120E+02  0.10290421199E+03  0.12800853480E+03  0.00000000000E+00 0. -1.
        -14    1    6    6    0    0  0.72720107629E+02  0.14372463909E+02  0.15041786826E+03  0.16769113532E+03  0.00000000000E+00 0.  1.
</event>
<event>
12    1  0.9246030E-003  0.1978770E+03  0.7818608E-02  0.1151562E+00
         21   -1    0    0  503  502  0.00000000000E+00  0.00000000000E+00  0.10436337664E+03  0.10436337664E+03  0.00000000000E+00 0. -1.
         21   -1    0    0  501  503 -0.00000000000E+00 -0.00000000000E+00 -0.47896428795E+03  0.47896428795E+03  0.00000000000E+00 0.  1.
          6    2    1    2  501    0  0.15005263745E+02  0.94961977576E+02 -0.32314625749E+03  0.37887015666E+03  0.17284720638E+03 0.  0.
         24    2    3    3    0    0  0.36736381801E+02  0.10635286809E+03 -0.31874180110E+03  0.35350318769E+03  0.10347788961E+03 0.  0.
         -6    2    1    2    0  502 -0.15005263745E+02 -0.94961977576E+02 -0.51454653825E+02  0.20445750793E+03  0.17295188933E+03 0.  0.
        -24    2    5    5    0    0 -0.66666802978E+01 -0.12067927410E+03 -0.44021113034E+00  0.14653104871E+03  0.82844569073E+02 0.  0.
          5    1    3    3  501    0 -0.21731118056E+02 -0.11390890511E+02 -0.44044563836E+01  0.25366968968E+02  0.47000000000E+01 0. -1.
        -13    1    4    4    0    0  0.56622599241E+02  0.52763294625E+02 -0.94797736528E+02  0.12237930730E+03  0.00000000000E+00 0.  1.
         14    1    4    4    0    0 -0.19886217440E+02  0.53589573462E+02 -0.22394406458E+03  0.23112388039E+03  0.00000000000E+00 0. -1.
         -5    1    5    5    0  502 -0.83385834473E+01  0.25717296528E+02 -0.51014442695E+02  0.57926459223E+02  0.47000000000E+01 0.  1.
         13    1    6    6    0    0 -0.17203529181E+02  0.59427203703E+01 -0.65003180805E+01  0.19326962431E+02  0.00000000000E+00 0. -1.
        -14    1    6    6    0    0  0.10536848883E+02 -0.12662199447E+03  0.60601069501E+01  0.12720408628E+03  0.00000000000E+00 0.  1.
</event>
<event>
12    1  0.9246030E-003  0.2074986E+03  0.7818608E-02  0.1143667E+00
         21   -1    0    0  501  502  0.00000000000E+00  0.00000000000E+00  0.20620639874E+02  0.20620639874E+02  0.00000000000E+00 0. -1.
         21   -1    0    0  502  503 -0.00000000000E+00 -0.00000000000E+00 -0.21290273626E+04  0.21290273626E+04  0.00000000000E+00 0. -1.
          6    2    1    2  501    0 -0.10681688870E+03 -0.46166949647E+02 -0.12113543582E+04  0.12289099191E+04  0.17116942840E+03 0.  0.
         24    2    3    3    0    0 -0.97337173737E+02  0.22446927156E+02 -0.94858737816E+03  0.95712635654E+03  0.79337623185E+02 0.  0.
         -6    2    1    2    0  503  0.10681688870E+03  0.46166949647E+02 -0.89705236454E+03  0.92073808337E+03  0.17179766730E+03 0.  0.
        -24    2    5    5    0    0 -0.63794316066E+01 -0.27590930132E+02 -0.37191603916E+03  0.37847995112E+03  0.64215081097E+02 0.  0.
          5    1    3    3  501    0 -0.94797149644E+01 -0.68613876803E+02 -0.26276698000E+03  0.27178356253E+03  0.47000000000E+01 0. -1.
        -11    1    4    4    0    0 -0.35471580451E+02  0.39334753731E+02 -0.24705797061E+03  0.25267191516E+03  0.00000000000E+00 0.  1.
         12    1    4    4    0    0 -0.61865593286E+02 -0.16887826575E+02 -0.70152940756E+03  0.70445444138E+03  0.00000000000E+00 0. -1.
         -5    1    5    5    0  503  0.11319632031E+03  0.73757879779E+02 -0.52513632538E+03  0.54225813225E+03  0.47000000000E+01 0.  1.
         13    1    6    6    0    0  0.25904389886E+01  0.18901464729E+02 -0.59164701280E+02  0.62164601025E+02  0.00000000000E+00 0. -1.
        -14    1    6    6    0    0 -0.89698705952E+01 -0.46492394861E+02 -0.31275133788E+03  0.31631535009E+03  0.00000000000E+00 0.  1.
</event>
<event>
12    1  0.9246030E-003  0.2352235E+03  0.7818608E-02  0.1123739E+00
         21   -1    0    0  503  502  0.00000000000E+00  0.00000000000E+00  0.15383749244E+04  0.15383749244E+04  0.00000000000E+00 0.  1.
         21   -1    0    0  501  503 -0.00000000000E+00 -0.00000000000E+00 -0.69724232502E+02  0.69724232502E+02  0.00000000000E+00 0. -1.
          6    2    1    2  501    0  0.11404213606E+03  0.11196651169E+03  0.17294977236E+03  0.29196182951E+03  0.17259193954E+03 0.  0.
         24    2    3    3    0    0  0.11421222093E+03  0.90623251852E+02  0.59129098683E+02  0.17606187513E+03  0.79022328351E+02 0.  0.
         -6    2    1    2    0  502 -0.11404213606E+03 -0.11196651169E+03  0.12957009195E+04  0.13161373273E+04  0.16683669592E+03 0.  0.
        -24    2    5    5    0    0 -0.64069311118E+02 -0.62697455314E+02  0.11269763466E+04  0.11333401867E+04  0.79677131808E+02 0.  0.
          5    1    3    3  501    0 -0.17008487148E+00  0.21343259843E+02  0.11382067367E+03  0.11589995438E+03  0.47000000000E+01 0. -1.
        -13    1    4    4    0    0 -0.64130095515E+01  0.22492523136E+02  0.23197689206E+02  0.32941965228E+02  0.00000000000E+00 0.  1.
         14    1    4    4    0    0  0.12062523048E+03  0.68130728716E+02  0.35931409477E+02  0.14311990991E+03  0.00000000000E+00 0. -1.
         -5    1    5    5    0  502 -0.49972824943E+02 -0.49269056380E+02  0.16872457289E+03  0.18279714069E+03  0.47000000000E+01 0.  1.
         11    1    6    6    0    0 -0.33734336547E+02 -0.68519592920E+02  0.52002949390E+03  0.52560785249E+03  0.00000000000E+00 0. -1.
        -12    1    6    6    0    0 -0.30334974571E+02  0.58221376060E+01  0.60694685272E+03  0.60773233417E+03  0.00000000000E+00 0.  1.
</event>
<event>
12    1  0.9246030E-003  0.2903207E+03  0.7818608E-02  0.1090192E+00
         21   -1    0    0  503  502  0.00000000000E+00  0.00000000000E+00  0.14826639143E+03  0.14826639143E+03  0.00000000000E+00 0.  1.
         21   -1    0    0  501  503 -0.00000000000E+00 -0.00000000000E+00 -0.76967537757E+03  0.76967537757E+03  0.00000000000E+00 0. -1.
          6    2    1    2  501    0  0.22665286013E+03 -0.58427661611E+02 -0.54548330524E+03  0.61793052733E+03  0.17175793915E+03 0.  0.
         24    2    3    3    0    0  0.42207999548E+02 -0.46205686490E+02 -0.14629365735E+03  0.17799445441E+03  0.79772870891E+02 0.  0.
         -6    2    1    2    0  502 -0.22665286013E+03  0.58427661611E+02 -0.75925680896E+02  0.30001124167E+03  0.17162961708E+03 0.  0.
        -24    2    5    5    0    0 -0.96914257105E+02  0.16295870151E+02 -0.10016699019E+03  0.16138612113E+03  0.79712769089E+02 0.  0.
          5    1    3    3  501    0  0.18444486059E+03 -0.12221975121E+02 -0.39918964789E+03  0.43993607292E+03  0.47000000000E+01 0. -1.
        -13    1    4    4    0    0  0.23709040178E+02 -0.57775301001E+02 -0.14285112932E+03  0.15590557764E+03  0.00000000000E+00 0.  1.
         14    1    4    4    0    0  0.18498959370E+02  0.11569614511E+02 -0.34425280315E+01  0.22088876770E+02  0.00000000000E+00 0. -1.
         -5    1    5    5    0  502 -0.12973860303E+03  0.42131791460E+02  0.24241309292E+02  0.13862512054E+03  0.47000000000E+01 0.  1.
         13    1    6    6    0    0  0.13173296911E+02 -0.28670122851E+01 -0.18904405407E+02  0.23219217359E+02  0.00000000000E+00 0. -1.
        -14    1    6    6    0    0 -0.11008755402E+03  0.19162882437E+02 -0.81262584781E+02  0.13816690377E+03  0.00000000000E+00 0.  1.
</event>
<event>
12    1  0.9246030E-003  0.1744971E+03  0.7818608E-02  0.1173832E+00
         21   -1    0    0  503  502  0.00000000000E+00  0.00000000000E+00  0.13930600195E+03  0.13930600195E+03  0.00000000000E+00 0.  1.
         21   -1    0    0  501  503 -0.00000000000E+00 -0.00000000000E+00 -0.25665712323E+03  0.25665712323E+03  0.00000000000E+00 0.  1.
          6    2    1    2  501    0  0.12764346765E+02  0.70311409889E+01  0.20123748538E+02  0.17565360700E+03  0.17388748921E+03 0.  0.
         24    2    3    3    0    0  0.61224743591E+02 -0.20019164761E+02  0.46563871160E+02  0.11399893008E+03  0.81721024079E+02 0.  0.
         -6    2    1    2    0  502 -0.12764346765E+02 -0.70311409889E+01 -0.13747486981E+03  0.22030951818E+03  0.17153593932E+03 0.  0.
        -24    2    5    5    0    0 -0.59390497213E+02  0.31707417351E+02 -0.11608918134E+03  0.15585712118E+03  0.79260032312E+02 0.  0.
          5    1    3    3  501    0 -0.48460396826E+02  0.27050305750E+02 -0.26440122622E+02  0.61654676919E+02  0.47000000000E+01 0. -1.
        -13    1    4    4    0    0  0.29240320066E+00 -0.34247087062E+02  0.37480864942E+02  0.50771682154E+02  0.00000000000E+00 0.  1.
         14    1    4    4    0    0  0.60932340390E+02  0.14227922301E+02  0.90830062180E+01  0.63227247927E+02  0.00000000000E+00 0. -1.
         -5    1    5    5    0  502  0.46626150448E+02 -0.38738558339E+02 -0.21385688469E+02  0.64452397001E+02  0.47000000000E+01 0.  1.
         13    1    6    6    0    0 -0.56495183420E+02 -0.13992632139E+02 -0.64888886110E+02  0.87166891905E+02  0.00000000000E+00 0. -1.
        -14    1    6    6    0    0 -0.28953137938E+01  0.45700049490E+02 -0.51200295234E+02  0.68690229272E+02  0.00000000000E+00 0.  1.
</event>
<event>
12    1  0.9246030E-003  0.1980803E+03  0.7818608E-02  0.1151407E+00
         21   -1    0    0  501  502  0.00000000000E+00  0.00000000000E+00  0.31263907985E+03  0.31263907985E+03  0.00000000000E+00 0. -1.
         21   -1    0    0  502  503 -0.00000000000E+00 -0.00000000000E+00 -0.15118650246E+03  0.15118650246E+03  0.00000000000E+00 0.  1.
          6    2    1    2  501    0 -0.19821535038E+02  0.94266621377E+02  0.17656319726E+03  0.26534953179E+03  0.17308010352E+03 0.  0.
         24    2    3    3    0    0  0.17172080174E+02  0.10794080974E+02  0.21361067074E+02  0.85221844345E+02  0.79969213110E+02 0.  0.
         -6    2    1    2    0  503  0.19821535038E+02 -0.94266621377E+02 -0.15110619873E+02  0.19847605053E+03  0.17287371878E+03 0.  0.
        -24    2    5    5    0    0  0.20805671840E+02  0.13928928629E+02 -0.28749420711E+02  0.89318584204E+02  0.80773691630E+02 0.  0.
          5    1    3    3  501    0 -0.36993615212E+02  0.83472540403E+02  0.15520213019E+03  0.18012768744E+03  0.47000000000E+01 0. -1.
        -11    1    4    4    0    0  0.41915543695E+02  0.46574871872E+01 -0.11422335438E+02  0.43692959811E+02  0.00000000000E+00 0.  1.
         12    1    4    4    0    0 -0.24743463521E+02  0.61365937869E+01  0.32783402513E+02  0.41528884534E+02  0.00000000000E+00 0. -1.
         -5    1    5    5    0  503 -0.98413680203E+00 -0.10819555001E+03  0.13638800838E+02  0.10915746633E+03  0.47000000000E+01 0.  1.
         13    1    6    6    0    0 -0.19953344184E+02  0.17309629756E+02 -0.39047492592E+02  0.47143036646E+02  0.00000000000E+00 0. -1.
        -14    1    6    6    0    0  0.40759016024E+02 -0.33807011275E+01  0.10298071881E+02  0.42175547558E+02  0.00000000000E+00 0.  1.
</event>
<event>
12    1  0.9246030E-003  0.1792970E+03  0.7818608E-02  0.1168588E+00
         21   -1    0    0  503  502  0.00000000000E+00  0.00000000000E+00  0.47363867021E+03  0.47363867021E+03  0.00000000000E+00 0.  1.
         21   -1    0    0  501  503 -0.00000000000E+00 -0.00000000000E+00 -0.70587116819E+02  0.70587116819E+02  0.00000000000E+00 0.  1.
          6    2    1    2  501    0 -0.42118033520E+02  0.27868629375E+02  0.14685373513E+03  0.23176155252E+03  0.17203722985E+03 0.  0.
         24    2    3    3    0    0  0.41438667132E+02 -0.73963150573E+01  0.53526548481E+02  0.10154100000E+03  0.75323400607E+02 0.  0.
         -6    2    1    2    0  502  0.42118033520E+02 -0.27868629375E+02  0.25619781826E+03  0.31246423452E+03  0.17159832901E+03 0.  0.
        -24    2    5    5    0    0  0.40572325074E+02 -0.82926973396E+02  0.15863111524E+03  0.20032520473E+03  0.80270545354E+02 0.  0.
          5    1    3    3  501    0 -0.83556700652E+02  0.35264944432E+02  0.93327186649E+02  0.13022055252E+03  0.47000000000E+01 0. -1.
        -11    1    4    4    0    0 -0.18429599191E+02 -0.77695132228E+00  0.33182748173E+02  0.37965096550E+02  0.00000000000E+00 0.  1.
         12    1    4    4    0    0  0.59868266323E+02 -0.66193637350E+01  0.20343800308E+02  0.63575903452E+02  0.00000000000E+00 0. -1.
         -5    1    5    5    0  502  0.15457084466E+01  0.55058344022E+02  0.97566703027E+02  0.11213902978E+03  0.47000000000E+01 0.  1.
         11    1    6    6    0    0  0.17549105675E+02 -0.41516426442E+02  0.14376848498E+03  0.15066838437E+03  0.00000000000E+00 0. -1.
        -12    1    6    6    0    0  0.23023219398E+02 -0.41410546954E+02  0.14862630255E+02  0.49656820363E+02  0.00000000000E+00 0.  1.
</event>
<event>
12    1  0.9246030E-003  0.1972293E+03  0.7818608E-02  0.1152279E+00
         21   -1    0    0  503  502  0.00000000000E+00  0.00000000000E+00  0.18544897175E+03  0.18544897175E+03  0.00000000000E+00 0. -1.
         21   -1    0    0  501  503 -0.00000000000E+00 -0.00000000000E+00 -0.21101792930E+03  0.21101792930E+03  0.00000000000E+00 0. -1.
          6    2    1    2  501    0  0.44008845471E+02  0.85581073837E+02 -0.32845222483E+02  0.19994552008E+03  0.17215836803E+03 0.  0.
         24    2    3    3    0    0  0.81663615409E+02  0.10403321343E+03 -0.38994809088E+02  0.15730433612E+03  0.75711316508E+02 0.  0.
         -6    2    1    2    0  502 -0.44008845471E+02 -0.85581073837E+02  0.72762649329E+01  0.19652138098E+03  0.17119232013E+03 0.  0.
        -24    2    5    5    0    0 -0.25720944656E+02 -0.93610012208E+02  0.60374680134E+02  0.13959649306E+03  0.80110408146E+02 0.  0.
          5    1    3    3  501    0 -0.37654769938E+02 -0.18452139592E+02  0.61495866048E+01  0.42641183966E+02  0.47000000000E+01 0. -1.
        -13    1    4    4    0    0  0.39337748561E+02  0.46068795398E+01  0.63556665826E+01  0.40113293291E+02  0.00000000000E+00 0.  1.
         14    1    4    4    0    0  0.42325866847E+02  0.99426333889E+02 -0.45350475671E+02  0.11719104283E+03  0.00000000000E+00 0. -1.
         -5    1    5    5    0  502 -0.18287900815E+02  0.80289383709E+01 -0.53098415201E+02  0.56924887918E+02  0.47000000000E+01 0.  1.
         11    1    6    6    0    0 -0.40357971659E+02 -0.16388007568E+02  0.38188149047E+02  0.57928122670E+02  0.00000000000E+00 0. -1.
        -12    1    6    6    0    0  0.14637027003E+02 -0.77222004640E+02  0.22186531087E+02  0.81668370388E+02  0.00000000000E+00 0.  1.
</event>
<event>
12    1  0.9246030E-003  0.1976319E+03  0.7818608E-02  0.1151942E+00
         21   -1    0    0  503  502  0.00000000000E+00  0.00000000000E+00  0.67745444267E+02  0.67745444267E+02  0.00000000000E+00 0.  1.
         21   -1    0    0  501  503 -0.00000000000E+00 -0.00000000000E+00 -0.58647767559E+03  0.58647767559E+03  0.00000000000E+00 0. -1.
          6    2    1    2  501    0 -0.78356183243E+02  0.55090659398E+02 -0.30770980760E+03  0.36570986940E+03  0.17286905644E+03 0.  0.
         24    2    3    3    0    0 -0.32253739332E+02 -0.25743903254E+02 -0.82185949178E+02  0.12169601206E+03  0.79701548626E+02 0.  0.
         -6    2    1    2    0  502  0.78356183243E+02 -0.55090659398E+02 -0.21102242372E+03  0.28851325046E+03  0.17185680136E+03 0.  0.
        -24    2    5    5    0    0  0.15234100128E+02  0.26245465496E+01 -0.17969432141E+03  0.19730479488E+03  0.80001043035E+02 0.  0.
          5    1    3    3  501    0 -0.46102443911E+02  0.80834562652E+02 -0.22552385843E+03  0.24401385734E+03  0.47000000000E+01 0. -1.
        -13    1    4    4    0    0  0.10920171732E+02  0.20058632780E+02 -0.75323707717E+01  0.24048607217E+02  0.00000000000E+00 0.  1.
         14    1    4    4    0    0 -0.43173911065E+02 -0.45802536034E+02 -0.74653578406E+02  0.97647404843E+02  0.00000000000E+00 0. -1.
         -5    1    5    5    0  502  0.63122083115E+02 -0.57715205948E+02 -0.31328102317E+02  0.91208455579E+02  0.47000000000E+01 0.  1.
         11    1    6    6    0    0 -0.18461244266E+02  0.15068551728E+02 -0.13739806595E+02  0.27507473099E+02  0.00000000000E+00 0. -1.
        -12    1    6    6    0    0  0.33695344394E+02 -0.12444005178E+02 -0.16595451481E+03  0.16979732178E+03  0.00000000000E+00 0.  1.
</event>
<event>
12    1  0.9246030E-003  0.1863943E+03  0.7818608E-02  0.1162516E+00
         21   -1    0    0  501  502  0.00000000000E+00  0.00000000000E+00  0.33728866703E+02  0.33728866703E+02  0.00000000000E+00 0. -1.
         21   -1    0    0  502  503 -0.00000000000E+00 -0.00000000000E+00 -0.10138907383E+04  0.10138907383E+04  0.00000000000E+00 0. -1.
          6    2    1    2  501    0 -0.32048717079E+02 -0.56494548370E+02 -0.46384273090E+03  0.49868583561E+03  0.17122712800E+03 0.  0.
         24    2    3    3    0    0 -0.26496234059E+02  0.28602163608E+02 -0.31888684015E+03  0.33044023917E+03  0.77342101466E+02 0.  0.
         -6    2    1    2    0  503  0.32048717079E+02  0.56494548370E+02 -0.51631914070E+03  0.54893376940E+03  0.17471140167E+03 0.  0.
        -24    2    5    5    0    0 -0.42310476011E+02  0.44422224773E+02 -0.37908969042E+03  0.39231626521E+03  0.80246795161E+02 0.  0.
          5    1    3    3  501    0 -0.55524830192E+01 -0.85096711978E+02 -0.14495589076E+03  0.16824559644E+03  0.47000000000E+01 0. -1.
        -11    1    4    4    0    0 -0.90650171036E+01  0.32538799950E+02 -0.46529800014E+02  0.57497568006E+02  0.00000000000E+00 0.  1.
         12    1    4    4    0    0 -0.17431216956E+02 -0.39366363415E+01 -0.27235704013E+03  0.27294267116E+03  0.00000000000E+00 0. -1.
         -5    1    5    5    0  503  0.74359193089E+02  0.12072323596E+02 -0.13722945028E+03  0.15661750419E+03  0.47000000000E+01 0.  1.
         13    1    6    6    0    0 -0.29726280231E+02 -0.11503567049E+02 -0.23645076796E+03  0.23858949990E+03  0.00000000000E+00 0. -1.
        -14    1    6    6    0    0 -0.12584195780E+02  0.55925791823E+02 -0.14263892245E+03  0.15372676531E+03  0.00000000000E+00 0.  1.
</event>
<event>
12    1  0.9246030E-003  0.3371798E+03  0.7818608E-02  0.1068084E+00
         21   -1    0    0  503  502  0.00000000000E+00  0.00000000000E+00  0.40283215450E+03  0.40283215450E+03  0.00000000000E+00 0.  1.
         21   -1    0    0  501  503 -0.00000000000E+00 -0.00000000000E+00 -0.37927217149E+03  0.37927217149E+03  0.00000000000E+00 0.  1.
          6    2    1    2  501    0 -0.18283874115E+03  0.22490367326E+03 -0.18667622446E+03  0.38475127457E+03  0.17080358015E+03 0.  0.
         24    2    3    3    0    0 -0.10435873391E+03  0.21171039338E+03 -0.17391662285E+03  0.30401669955E+03  0.80418442497E+02 0.  0.
         -6    2    1    2    0  502  0.18283874115E+03 -0.22490367326E+03  0.21023620748E+03  0.39735305142E+03  0.17227453970E+03 0.  0.
        -24    2    5    5    0    0  0.84445635012E+02 -0.99307053187E+02  0.28674496310E+02  0.15560429905E+03  0.79984467616E+02 0.  0.
          5    1    3    3  501    0 -0.78480007233E+02  0.13193279881E+02 -0.12759601611E+02  0.80734575014E+02  0.47000000000E+01 0. -1.
        -11    1    4    4    0    0 -0.82674892167E+02  0.99543747546E+02 -0.12442063436E+03  0.17951208796E+03  0.00000000000E+00 0.  1.
         12    1    4    4    0    0 -0.21683841747E+02  0.11216664583E+03 -0.49495988494E+02  0.12450461159E+03  0.00000000000E+00 0. -1.
         -5    1    5    5    0  502  0.98393106135E+02 -0.12559662007E+03  0.18156171117E+03  0.24174875237E+03  0.47000000000E+01 0.  1.
         11    1    6    6    0    0  0.13725878397E+02 -0.44775432793E+02 -0.23268305278E+02  0.52293911214E+02  0.00000000000E+00 0. -1.
        -12    1    6    6    0    0  0.70719756615E+02 -0.54531620393E+02  0.51942801588E+02  0.10331038784E+03  0.00000000000E+00 0.  1.
</event>
<event>
12    1  0.9246030E-003  0.1738203E+03  0.7818608E-02  0.1174007E+00
         21   -1    0    0  503  502  0.00000000000E+00  0.00000000000E+00  0.14028204004E+03  0.14028204004E+03  0.00000000000E+00 0.  1.
         21   -1    0    0  501  503 -0.00000000000E+00 -0.00000000000E+00 -0.22516050866E+03  0.22516050866E+03  0.00000000000E+00 0.  1.
          6    2    1    2  501    0 -0.96519672177E+01 -0.19181072733E+02 -0.81289518916E+02  0.19158520355E+03  0.17215060358E+03 0.  0.
         24    2    3    3    0    0  0.34119769417E+02  0.21664503269E+02 -0.94920925688E+02  0.13000410858E+03  0.79104846555E+02 0.  0.
         -6    2    1    2    0  502  0.96519672177E+01  0.19181072733E+02 -0.35889496996E+01  0.17385734514E+03  0.17248890364E+03 0.  0.
        -24    2    5    5    0    0  0.28407991469E+02  0.49316542369E+01  0.61214853267E+02  0.10474542683E+03  0.79956306752E+02 0.  0.
          5    1    3    3  501    0 -0.43771736635E+02 -0.40845576002E+02  0.13631406772E+02  0.61581094969E+02  0.47000000000E+01 0. -1.
        -13    1    4    4    0    0  0.10731516129E+02 -0.29311939183E+02 -0.22864497365E+02  0.38692899307E+02  0.00000000000E+00 0.  1.
         14    1    4    4    0    0  0.23388253288E+02  0.50976442452E+02 -0.72056428324E+02  0.91311209277E+02  0.00000000000E+00 0. -1.
         -5    1    5    5    0  502 -0.18756024251E+02  0.14249418496E+02 -0.64803802966E+02  0.69111918307E+02  0.47000000000E+01 0.  1.
         11    1    6    6    0    0  0.20813542591E+02  0.36724341670E+02  0.90281211801E+01  0.43166975784E+02  0.00000000000E+00 0. -1.
        -12    1    6    6    0    0  0.75944488778E+01 -0.31792687433E+02  0.52186732087E+02  0.61578451051E+02  0.00000000000E+00 0.  1.
</event>
<event>
12    1  0.9246030E-003  0.2893332E+03  0.7818608E-02  0.1091044E+00
         21   -1    0    0  503  502  0.00000000000E+00  0.00000000000E+00  0.51069718738E+03  0.51069718738E+03  0.00000000000E+00 0. -1.
         21   -1    0    0  501  503 -0.00000000000E+00 -0.00000000000E+00 -0.20234664262E+03  0.20234664262E+03  0.00000000000E+00 0.  1.
          6    2    1    2  501    0  0.21058494452E+03  0.10237526628E+03 -0.35989120886E+01  0.28935556312E+03  0.16996168902E+03 0.  0.
         24    2    3    3    0    0  0.44648070821E+02  0.18440476347E+02  0.28256189179E+02  0.10063107480E+03  0.83634320663E+02 0.  0.
         -6    2    1    2    0  502 -0.21058494452E+03 -0.10237526628E+03  0.31194945685E+03  0.42368826687E+03  0.16544657704E+03 0.  0.
        -24    2    5    5    0    0 -0.12826142450E+03 -0.67023341636E+02  0.28614896970E+03  0.33033583969E+03  0.79356239720E+02 0.  0.
          5    1    3    3  501    0  0.16593687370E+03  0.83934789937E+02 -0.31855101268E+02  0.18872448832E+03  0.47000000000E+01 0. -1.
        -11    1    4    4    0    0 -0.14161975725E+01  0.39271649564E+02 -0.57315077921E+01  0.39712948224E+02  0.00000000000E+00 0.  1.
         12    1    4    4    0    0  0.46064268393E+02 -0.20831173217E+02  0.33987696972E+02  0.60918126577E+02  0.00000000000E+00 0. -1.
         -5    1    5    5    0  502 -0.82323520019E+02 -0.35351924649E+02  0.25800487150E+02  0.93352427188E+02  0.47000000000E+01 0.  1.
         11    1    6    6    0    0 -0.67632423845E+02 -0.77473889426E+02  0.16421551622E+03  0.19376037795E+03  0.00000000000E+00 0. -1.
        -12    1    6    6    0    0 -0.60629000655E+02  0.10450547791E+02  0.12193345348E+03  0.13657546173E+03  0.00000000000E+00 0.  1.
</event>
<event>
12    1  0.9246030E-003  0.1745976E+03  0.7818608E-02  0.1173749E+00
         21   -1    0    0  503  502  0.00000000000E+00  0.00000000000E+00  0.44274031456E+03  0.44274031456E+03  0.00000000000E+00 0. -1.
         21   -1    0    0  501  503 -0.00000000000E+00 -0.00000000000E+00 -0.10230456128E+03  0.10230456128E+03  0.00000000000E+00 0. -1.
          6    2    1    2  501    0  0.19510280616E+02 -0.29180818940E+02  0.12978711786E+02  0.17507935785E+03  0.17103263824E+03 0.  0.
         24    2    3    3    0    0  0.31606238312E+02  0.44774419266E+02 -0.68312747908E+01  0.97424898747E+02  0.80257346453E+02 0.  0.
         -6    2    1    2    0  502 -0.19510280616E+02  0.29180818940E+02  0.32745704149E+03  0.36996551800E+03  0.16856511869E+03 0.  0.
        -24    2    5    5    0    0  0.53657374861E+01  0.81484299486E+02  0.20323275247E+03  0.23282240174E+03  0.78957183792E+02 0.  0.
          5    1    3    3  501    0 -0.12095957696E+02 -0.73955238207E+02  0.19809986577E+02  0.77654459105E+02  0.47000000000E+01 0. -1.
        -13    1    4    4    0    0 -0.15642132458E+02  0.17805533686E+02  0.24955108693E+02  0.34416141381E+02  0.00000000000E+00 0.  1.
         14    1    4    4    0    0  0.47248370770E+02  0.26968885580E+02 -0.31786383484E+02  0.63008757366E+02  0.00000000000E+00 0. -1.
         -5    1    5    5    0  502 -0.24876018102E+02 -0.52303480545E+02  0.12422428902E+03  0.13714311626E+03  0.47000000000E+01 0.  1.
         13    1    6    6    0    0  0.21388321702E+02  0.13243059596E+02  0.12614837339E+03  0.12863223173E+03  0.00000000000E+00 0. -1.
        -14    1    6    6    0    0 -0.16022584215E+02  0.68241239890E+02  0.77084379086E+02  0.10419017000E+03  0.00000000000E+00 0.  1.
</event>
<event>
12    1  0.9246030E-003  0.2575644E+03  0.7818608E-02  0.1108619E+00
         21   -1    0    0  501  502  0.00000000000E+00  0.00000000000E+00  0.93356029326E+02  0.93356029326E+02  0.00000000000E+00 0. -1.
         21   -1    0    0  502  503 -0.00000000000E+00 -0.00000000000E+00 -0.71703062843E+03  0.71703062843E+03  0.00000000000E+00 0. -1.
          6    2    1    2  501    0  0.15220560843E+03 -0.11626392204E+03 -0.35035160318E+03  0.43482726731E+03  0.17217624615E+03 0.  0.
         24    2    3    3    0    0  0.14039385476E+03 -0.74281018118E+02 -0.34890306982E+03  0.39093797482E+03  0.76622737619E+02 0.  0.
         -6    2    1    2    0  503 -0.15220560843E+03  0.11626392204E+03 -0.27332299592E+03  0.37555939044E+03  0.17220786522E+03 0.  0.
        -24    2    5    5    0    0 -0.11897565126E+03  0.75961175275E+02 -0.92862922862E+02  0.18763262434E+03  0.81591504038E+02 0.  0.
          5    1    3    3  501    0  0.11811753670E+02 -0.41982903920E+02 -0.14485333645E+01  0.43889292490E+02  0.47000000000E+01 0. -1.
        -13    1    4    4    0    0  0.26928417636E+02 -0.10831509699E+02 -0.15109575659E+02  0.32722477830E+02  0.00000000000E+00 0.  1.
         14    1    4    4    0    0  0.11346543713E+03 -0.63449508419E+02 -0.33379349416E+03  0.35821549699E+03  0.00000000000E+00 0. -1.
         -5    1    5    5    0  503 -0.33229957169E+02  0.40302746763E+02 -0.18046007306E+03  0.18792676610E+03  0.47000000000E+01 0.  1.
         13    1    6    6    0    0 -0.51220071315E+02  0.64366509074E+02 -0.85260215792E+02  0.11847298254E+03  0.00000000000E+00 0. -1.
        -14    1    6    6    0    0 -0.67755579949E+02  0.11594666201E+02 -0.76027070697E+01  0.69159641796E+02  0.00000000000E+00 0.  1.
</event>
<event>
12    1  0.9246030E-003  0.2138836E+03  0.7818608E-02  0.1138768E+00
         21   -1    0    0  501  502  0.00000000000E+00  0.00000000000E+00  0.31108914566E+03  0.31108914566E+03  0.00000000000E+00 0. -1.
         21   -1    0    0  502  503 -0.00000000000E+00 -0.00000000000E+00 -0.16913861856E+03  0.16913861856E+03  0.00000000000E+00 0.  1.
          6    2    1    2  501    0  0.12501512368E+03  0.30952483775E+01 -0.17633919943E+02  0.21336938974E+03  0.17198017221E+03 0.  0.
         24    2    3    3    0    0  0.62272155797E+02 -0.53285014070E+02 -0.49974486780E+02  0.12290715300E+03  0.76756790046E+02 0.  0.
         -6    2    1    2    0  503 -0.12501512368E+03 -0.30952483775E+01  0.15958444704E+03  0.26685837447E+03  0.17351609313E+03 0.  0.
        -24    2    5    5    0    0 -0.60397231711E+02  0.49876948224E+02  0.14268023642E+03  0.18148057928E+03  0.80262165606E+02 0.  0.
          5    1    3    3  501    0  0.62742967888E+02  0.56380262448E+02  0.32340566837E+02  0.90462236742E+02  0.47000000000E+01 0. -1.
        -13    1    4    4    0    0  0.66906636157E+02 -0.20478901894E+02 -0.55510823505E+02  0.89315927532E+02  0.00000000000E+00 0.  1.
         14    1    4    4    0    0 -0.46344803604E+01 -0.32806112176E+02  0.55363367250E+01  0.33591225471E+02  0.00000000000E+00 0. -1.
         -5    1    5    5    0  503 -0.64617891974E+02 -0.52972196601E+02  0.16904210626E+02  0.85377795198E+02  0.47000000000E+01 0.  1.
         11    1    6    6    0    0 -0.39220863561E+02 -0.12863269350E+02  0.81358659749E+02  0.91230320360E+02  0.00000000000E+00 0. -1.
        -12    1    6    6    0    0 -0.21176368150E+02  0.62740217574E+02  0.61321576668E+02  0.90250258916E+02  0.00000000000E+00 0.  1.
</event>
<event>
12    1  0.9246030E-003  0.1750402E+03  0.7818608E-02  0.1173110E+00
         21   -1    0    0  501  502  0.00000000000E+00  0.00000000000E+00  0.21291466228E+03  0.21291466228E+03  0.00000000000E+00 0. -1.
         21   -1    0    0  502  503 -0.00000000000E+00 -0.00000000000E+00 -0.16471044222E+03  0.16471044222E+03  0.00000000000E+00 0. -1.
          6    2    1    2  501    0  0.19774632788E+02 -0.21847533902E+02 -0.45263543527E+02  0.17919299192E+03  0.17085955970E+03 0.  0.
         24    2    3    3    0    0  0.39190042543E+02  0.40843274544E+02 -0.55631279579E+02  0.11258461744E+03  0.79852515974E+02 0.  0.
         -6    2    1    2    0  503 -0.19774632788E+02  0.21847533902E+02  0.93467763587E+02  0.19843211258E+03  0.17254196484E+03 0.  0.
        -24    2    5    5    0    0 -0.26460739175E+02 -0.40338006462E+02  0.97719734370E+02  0.13556785640E+03  0.80636044800E+02 0.  0.
          5    1    3    3  501    0 -0.19415409754E+02 -0.62690808446E+02  0.10367736052E+02  0.66608374476E+02  0.47000000000E+01 0. -1.
        -11    1    4    4    0    0  0.31706936471E+02  0.27533717354E+00  0.11552189580E+02  0.33746980828E+02  0.00000000000E+00 0.  1.
         12    1    4    4    0    0  0.74831060722E+01  0.40567937370E+02 -0.67183469159E+02  0.78837636616E+02  0.00000000000E+00 0. -1.
         -5    1    5    5    0  503  0.66861063869E+01  0.62185540364E+02 -0.42519707830E+01  0.62864256175E+02  0.47000000000E+01 0.  1.
         11    1    6    6    0    0  0.20155922403E+02  0.66080898722E+01  0.49034973492E+02  0.53426179772E+02  0.00000000000E+00 0. -1.
        -12    1    6    6    0    0 -0.46616661579E+02 -0.46946096334E+02  0.48684760879E+02  0.82141676630E+02  0.00000000000E+00 0.  1.
</event>
<event>
12    1  0.9246030E-003  0.2074112E+03  0.7818608E-02  0.1143645E+00
         21   -1    0    0  503  502  0.00000000000E+00  0.00000000000E+00  0.35555341117E+03  0.35555341117E+03  0.00000000000E+00 0.  1.
         21   -1    0    0  501  503 -0.00000000000E+00 -0.00000000000E+00 -0.15771976383E+03  0.15771976383E+03  0.00000000000E+00 0.  1.
          6    2    1    2  501    0 -0.11393089445E+03 -0.16652074770E+02 -0.24994569604E+02  0.20885268840E+03  0.17244470603E+03 0.  0.
         24    2    3    3    0    0 -0.79609010033E+02  0.56220210337E+02 -0.13477054510E+02  0.12734744415E+03  0.80854400024E+02 0.  0.
         -6    2    1    2    0  502  0.11393089445E+03  0.16652074770E+02  0.22282821695E+03  0.30442048660E+03  0.17251631254E+03 0.  0.
        -24    2    5    5    0    0  0.92899521117E+02 -0.27425661072E+02  0.69494019133E+02  0.14342784180E+03  0.79747346033E+02 0.  0.
          5    1    3    3  501    0 -0.34321884419E+02 -0.72872285106E+02 -0.11517515095E+02  0.81505244253E+02  0.47000000000E+01 0. -1.
        -11    1    4    4    0    0 -0.82880039206E+02  0.27137106878E+02 -0.31790662775E+02  0.92823325237E+02  0.00000000000E+00 0.  1.
         12    1    4    4    0    0  0.32710291724E+01  0.29083103459E+02  0.18313608266E+02  0.34524118908E+02  0.00000000000E+00 0. -1.
         -5    1    5    5    0  502  0.21031373335E+02  0.44077735841E+02  0.15333419781E+03  0.16099264480E+03  0.47000000000E+01 0.  1.
         11    1    6    6    0    0 -0.12764906554E+02 -0.13024535338E+02  0.54519609022E+01  0.19034317371E+02  0.00000000000E+00 0. -1.
        -12    1    6    6    0    0  0.10566442767E+03 -0.14401125734E+02  0.64042058231E+02  0.12439352443E+03  0.00000000000E+00 0.  1.
</event>
<event>
12    1  0.9246030E-003  0.1734104E+03  0.7818608E-02  0.1174430E+00
         21   -1    0    0  503  502  0.00000000000E+00  0.00000000000E+00  0.17346725654E+03  0.17346725654E+03  0.00000000000E+00 0.  1.
         21   -1    0    0  501  503 -0.00000000000E+00 -0.00000000000E+00 -0.19204081896E+03  0.19204081896E+03  0.00000000000E+00 0.  1.
          6    2    1    2  501    0  0.13583960742E+02 -0.11755938133E+02  0.48265746837E+02  0.18000207136E+03  0.17247735302E+03 0.  0.
         24    2    3    3    0    0 -0.54222629609E+02 -0.26179394894E+02  0.42366078505E+02  0.11026925350E+03  0.82091225965E+02 0.  0.
         -6    2    1    2    0  502 -0.13583960742E+02  0.11755938133E+02 -0.66839309261E+02  0.18550600414E+03  0.17211117988E+03 0.  0.
        -24    2    5    5    0    0 -0.16500138932E+02  0.62152563215E+02 -0.11533587938E+01  0.10252975451E+03  0.79848760943E+02 0.  0.
          5    1    3    3  501    0  0.67806590351E+02  0.14423456760E+02  0.58996683322E+01  0.69732817857E+02  0.47000000000E+01 0. -1.
        -11    1    4    4    0    0 -0.68279581865E+01 -0.34579846692E+02  0.50367057825E+02  0.61475420489E+02  0.00000000000E+00 0.  1.
         12    1    4    4    0    0 -0.47394671422E+02  0.84004517986E+01 -0.80009793205E+01  0.48793833009E+02  0.00000000000E+00 0. -1.
         -5    1    5    5    0  502  0.29161781904E+01 -0.50396625081E+02 -0.65685950467E+02  0.82976249635E+02  0.47000000000E+01 0.  1.
         13    1    6    6    0    0 -0.18177510319E+02 -0.77442028044E+01 -0.22000985127E+02  0.29570896250E+02  0.00000000000E+00 0. -1.
        -14    1    6    6    0    0  0.16773713871E+01  0.69896766019E+02  0.20847626333E+02  0.72958858259E+02  0.00000000000E+00 0.  1.
</event>
<event>
12    1  0.9246030E-003  0.3297613E+03  0.7818608E-02  0.1071295E+00
         21   -1    0    0  503  502  0.00000000000E+00  0.00000000000E+00  0.15269609681E+04  0.15269609681E+04  0.00000000000E+00 0.  1.
         21   -1    0    0  501  503 -0.00000000000E+00 -0.00000000000E+00 -0.83120084431E+02  0.83120084431E+02  0.00000000000E+00 0.  1.
          6    2    1    2  501    0  0.26640594854E+03  0.91064370852E+02  0.10283324034E+04  0.10799120486E+04  0.17169057010E+03 0.  0.
         24    2    3    3    0    0  0.79234694725E+02  0.21919575372E+02  0.22104992580E+03  0.24832250468E+03  0.77732824462E+02 0.  0.
         -6    2    1    2    0  502 -0.26640594854E+03 -0.91064370852E+02  0.41550848029E+03  0.53016900390E+03  0.17078356612E+03 0.  0.
        -24    2    5    5    0    0 -0.58327757773E+02  0.31345670951E+01  0.16110827632E+03  0.18824572719E+03  0.77901375260E+02 0.  0.
          5    1    3    3  501    0  0.18717125382E+03  0.69144795480E+02  0.80728247755E+03  0.83158954392E+03  0.47000000000E+01 0. -1.
        -13    1    4    4    0    0  0.80646946370E+02  0.72650784230E+01  0.11156985597E+03  0.13785696966E+03  0.00000000000E+00 0.  1.
         14    1    4    4    0    0 -0.14122516452E+01  0.14654496949E+02  0.10948006983E+03  0.11046553501E+03  0.00000000000E+00 0. -1.
         -5    1    5    5    0  502 -0.20807819077E+03 -0.94198937947E+02  0.25440020396E+03  0.34192327672E+03  0.47000000000E+01 0.  1.
         13    1    6    6    0    0  0.53915137819E+00 -0.26084262359E+02  0.21005874556E+02  0.33495166710E+02  0.00000000000E+00 0. -1.
        -14    1    6    6    0    0 -0.58866909151E+02  0.29218829454E+02  0.14010240177E+03  0.15475056048E+03  0.00000000000E+00 0.  1.
</event>
<event>
12    1  0.9246030E-003  0.1735980E+03  0.7818608E-02  0.1174535E+00
         21   -1    0    0  501  502  0.00000000000E+00  0.00000000000E+00  0.13980452616E+03  0.13980452616E+03  0.00000000000E+00 0. -1.
         21   -1    0    0  502  503 -0.00000000000E+00 -0.00000000000E+00 -0.21910783227E+03  0.21910783227E+03  0.00000000000E+00 0. -1.
          6    2    1    2  501    0 -0.28163729116E+02 -0.13697951514E+02 -0.68089663127E+02  0.18647374570E+03  0.17074960058E+03 0.  0.
         24    2    3    3    0    0 -0.62148955275E+02  0.17465238351E+02  0.15899744354E+01  0.10278693736E+03  0.79969364638E+02 0.  0.
         -6    2    1    2    0  503  0.28163729116E+02  0.13697951514E+02 -0.11213642987E+02  0.17243861273E+03  0.16919958587E+03 0.  0.
        -24    2    5    5    0    0  0.74376632163E+02 -0.12609255421E+02  0.19053578408E+02  0.11107171419E+03  0.79265440829E+02 0.  0.
          5    1    3    3  501    0  0.33985226159E+02 -0.31163189865E+02 -0.69679637563E+02  0.83686808342E+02  0.47000000000E+01 0. -1.
        -11    1    4    4    0    0 -0.20756220117E+02  0.47309735889E+02 -0.12532640371E+01  0.51677871997E+02  0.00000000000E+00 0.  1.
         12    1    4    4    0    0 -0.41392735158E+02 -0.29844497538E+02  0.28432384725E+01  0.51109065362E+02  0.00000000000E+00 0. -1.
         -5    1    5    5    0  503 -0.46212903048E+02  0.26307206934E+02 -0.30267221395E+02  0.61366898535E+02  0.47000000000E+01 0.  1.
         13    1    6    6    0    0  0.75616413889E+02  0.11445630013E+02 -0.55011791488E+01  0.76675338068E+02  0.00000000000E+00 0. -1.
        -14    1    6    6    0    0 -0.12397817254E+01 -0.24054885434E+02  0.24554757557E+02  0.34396376127E+02  0.00000000000E+00 0.  1.
</event>
<event>
12    1  0.9246030E-003  0.1911886E+03  0.7818608E-02  0.1157552E+00
         21   -1    0    0  501  502  0.00000000000E+00  0.00000000000E+00  0.14151410304E+03  0.14151410304E+03  0.00000000000E+00 0.  1.
         21   -1    0    0  502  503 -0.00000000000E+00 -0.00000000000E+00 -0.25878848704E+03  0.25878848704E+03  0.00000000000E+00 0. -1.
          6    2    1    2  501    0 -0.56219349919E+02 -0.59632349034E+02 -0.73702398378E+02  0.20490275458E+03  0.17273234484E+03 0.  0.
         24    2    3    3    0    0  0.67486830228E+01 -0.58981793362E+02  0.64283947998E+01  0.10288103920E+03  0.83778202989E+02 0.  0.
         -6    2    1    2    0  503  0.56219349919E+02  0.59632349034E+02 -0.43571985620E+02  0.19539983550E+03  0.17194750776E+03 0.  0.
        -24    2    5    5    0    0  0.77951902014E+02  0.87172042517E+02 -0.62311768391E+02  0.15534976688E+03  0.81088405867E+02 0.  0.
          5    1    3    3  501    0 -0.62968032942E+02 -0.65055567214E+00 -0.80130793178E+02  0.10202171539E+03  0.47000000000E+01 0. -1.
        -13    1    4    4    0    0  0.25006762689E+02 -0.61320894388E+02 -0.21329908368E+02  0.69574099058E+02  0.00000000000E+00 0.  1.
         14    1    4    4    0    0 -0.18258079666E+02  0.23391010267E+01  0.27758303168E+02  0.33306940140E+02  0.00000000000E+00 0. -1.
         -5    1    5    5    0  503 -0.21732552095E+02 -0.27539693483E+02  0.18739782771E+02  0.40050068614E+02  0.47000000000E+01 0.  1.
         11    1    6    6    0    0  0.13233583467E+02  0.13916525585E+02 -0.53924212981E+02  0.57241751907E+02  0.00000000000E+00 0. -1.
        -12    1    6    6    0    0  0.64718318547E+02  0.73255516932E+02 -0.83875554098E+01  0.98108014975E+02  0.00000000000E+00 0.  1.
</event>
<event>
12    1  0.9246030E-003  0.2766903E+03  0.7818608E-02  0.1097532E+00
         21   -1    0    0  503  502  0.00000000000E+00  0.00000000000E+00  0.25143665487E+03  0.25143665487E+03  0.00000000000E+00 0. -1.
         21   -1    0    0  501  503 -0.00000000000E+00 -0.00000000000E+00 -0.44225452488E+03  0.44225452488E+03  0.00000000000E+00 0.  1.
          6    2    1    2  501    0  0.18146258331E+03 -0.11797518698E+03 -0.28910178817E+03  0.40006342716E+03  0.17211649526E+03 0.  0.
         24    2    3    3    0    0  0.20247924867E+03 -0.10237822153E+03 -0.28534632788E+03  0.37320902275E+03  0.79895565829E+02 0.  0.
         -6    2    1    2    0  502 -0.18146258331E+03  0.11797518698E+03  0.98283918167E+02  0.29362775259E+03  0.17236796291E+03 0.  0.
        -24    2    5    5    0    0 -0.15270138923E+03  0.26510438475E+02  0.93008629988E+02  0.19748761961E+03  0.79562786693E+02 0.  0.
          5    1    3    3  501    0 -0.21016665361E+02 -0.15596965451E+02 -0.37554602876E+01  0.26854404408E+02  0.47000000000E+01 0. -1.
        -11    1    4    4    0    0  0.26937722187E+02 -0.47527967424E+02 -0.86902270579E+02  0.10264771403E+03  0.00000000000E+00 0.  1.
         12    1    4    4    0    0  0.17554152649E+03 -0.54850254103E+02 -0.19844405731E+03  0.27056130872E+03  0.00000000000E+00 0. -1.
         -5    1    5    5    0  502 -0.28761194079E+02  0.91464748504E+02  0.52752881795E+01  0.96140132978E+02  0.47000000000E+01 0.  1.
         11    1    6    6    0    0 -0.64164176279E+02  0.49445340455E+02  0.57676089295E+02  0.99440507272E+02  0.00000000000E+00 0. -1.
        -12    1    6    6    0    0 -0.88537212955E+02 -0.22934901980E+02  0.35332540693E+02  0.98047112341E+02  0.00000000000E+00 0.  1.
</event>
<event>
12    1  0.9246030E-003  0.1759252E+03  0.7818608E-02  0.1172079E+00
         21   -1    0    0  503  502  0.00000000000E+00  0.00000000000E+00  0.15060455046E+04  0.15060455046E+04  0.00000000000E+00 0. -1.
         21   -1    0    0  501  503 -0.00000000000E+00 -0.00000000000E+00 -0.20471581691E+02  0.20471581691E+02  0.00000000000E+00 0. -1.
          6    2    1    2  501    0 -0.38573761109E+02  0.15387695390E+01  0.78232926191E+03  0.80186578386E+03  0.17163728741E+03 0.  0.
         24    2    3    3    0    0 -0.10986102986E+02 -0.57946246374E+02  0.34428938422E+03  0.35892044813E+03  0.82524215068E+02 0.  0.
         -6    2    1    2    0  502  0.38573761109E+02 -0.15387695390E+01  0.70324466102E+03  0.72465130244E+03  0.17051731299E+03 0.  0.
        -24    2    5    5    0    0  0.65623502287E+02  0.42894441147E+02  0.58776411744E+03  0.59790807914E+03  0.76687914400E+02 0.  0.
          5    1    3    3  501    0 -0.27587658122E+02  0.59485015913E+02  0.43803987769E+03  0.44294533573E+03  0.47000000000E+01 0. -1.
        -13    1    4    4    0    0  0.90548198471E+01  0.19038736555E+02  0.92083099391E+02  0.94465657493E+02  0.00000000000E+00 0.  1.
         14    1    4    4    0    0 -0.20040922833E+02 -0.76984982929E+02  0.25220628483E+03  0.26445479064E+03  0.00000000000E+00 0. -1.
         -5    1    5    5    0  502 -0.27049741178E+02 -0.44433210686E+02  0.11548054358E+03  0.12674322331E+03  0.47000000000E+01 0.  1.
         11    1    6    6    0    0  0.90941764884E+01  0.30226047654E+02  0.40394473300E+03  0.40517609174E+03  0.00000000000E+00 0. -1.
        -12    1    6    6    0    0  0.56529325799E+02  0.12668393493E+02  0.18381938444E+03  0.19273198740E+03  0.00000000000E+00 0.  1.
</event>
<event>
12    1  0.9246030E-003  0.1786159E+03  0.7818608E-02  0.1169439E+00
         21   -1    0    0  501  502  0.00000000000E+00  0.00000000000E+00  0.30738043476E+03  0.30738043476E+03  0.00000000000E+00 0.  1.
         21   -1    0    0  502  503 -0.00000000000E+00 -0.00000000000E+00 -0.30150647508E+03  0.30150647508E+03  0.00000000000E+00 0.  1.
          6    2    1    2  501    0 -0.34887875031E+02 -0.34443482358E+02  0.24989400220E+03  0.30648084371E+03  0.17052852525E+03 0.  0.
         24    2    3    3    0    0 -0.55973138431E+02 -0.40163585347E+02  0.72498821745E+02  0.12768361789E+03  0.79378342827E+02 0.  0.
         -6    2    1    2    0  503  0.34887875031E+02  0.34443482358E+02 -0.24402004253E+03  0.30240606613E+03  0.17175601991E+03 0.  0.
        -24    2    5    5    0    0  0.72167635208E+02 -0.43831703641E+01 -0.21583197955E+03  0.24146391015E+03  0.80585338351E+02 0.  0.
          5    1    3    3  501    0  0.21085263399E+02  0.57201029885E+01  0.17739518046E+03  0.17879722582E+03  0.47000000000E+01 0. -1.
        -11    1    4    4    0    0 -0.96911698192E-01 -0.48524491127E+02  0.30988139757E+02  0.57575172050E+02  0.00000000000E+00 0.  1.
         12    1    4    4    0    0 -0.55876226732E+02  0.83609057801E+01  0.41510681988E+02  0.70108445842E+02  0.00000000000E+00 0. -1.
         -5    1    5    5    0  503 -0.37279760176E+02  0.38826652722E+02 -0.28188062981E+02  0.60942155976E+02  0.47000000000E+01 0.  1.
         11    1    6    6    0    0  0.16617527258E+02 -0.34269246816E+02 -0.12647768490E+03  0.13208757802E+03  0.00000000000E+00 0. -1.
        -12    1    6    6    0    0  0.55550107949E+02  0.29886076452E+02 -0.89354294644E+02  0.10937633213E+03  0.00000000000E+00 0.  1.
</event>
<event>
12    1  0.9246030E-003  0.1931825E+03  0.7818608E-02  0.1155948E+00
         21   -1    0    0  501  502  0.00000000000E+00  0.00000000000E+00  0.41715514320E+02  0.41715514320E+02  0.00000000000E+00 0.  1.
         21   -1    0    0  502  503 -0.00000000000E+00 -0.00000000000E+00 -0.11651309938E+04  0.11651309938E+04  0.00000000000E+00 0.  1.
          6    2    1    2  501    0 -0.50495745411E+02  0.70299854061E+02 -0.26568662922E+03  0.32763194345E+03  0.17105968443E+03 0.  0.
         24    2    3    3    0    0 -0.17921600410E+02  0.96294835914E+00 -0.46405296439E+02  0.95306580393E+02  0.81288262977E+02 0.  0.
         -6    2    1    2    0  503  0.50495745411E+02 -0.70299854061E+02 -0.85772885022E+03  0.87921456463E+03  0.17270663093E+03 0.  0.
        -24    2    5    5    0    0  0.84903392953E+02 -0.10021064024E+02 -0.39805760120E+03  0.41430901947E+03  0.76766541452E+02 0.  0.
          5    1    3    3  501    0 -0.32574145001E+02  0.69336905702E+02 -0.21928133278E+03  0.23232536306E+03  0.47000000000E+01 0. -1.
        -11    1    4    4    0    0 -0.25318181089E+02 -0.29596708489E+02 -0.50308414704E+02  0.63623203606E+02  0.00000000000E+00 0.  1.
         12    1    4    4    0    0  0.73965806790E+01  0.30559656848E+02  0.39031182654E+01  0.31683376787E+02  0.00000000000E+00 0. -1.
         -5    1    5    5    0  503 -0.34407647542E+02 -0.60278790037E+02 -0.45967124902E+03  0.46490554515E+03  0.47000000000E+01 0.  1.
         11    1    6    6    0    0  0.94272627906E+02 -0.23164859695E+02 -0.31210360283E+03  0.32685256309E+03  0.00000000000E+00 0. -1.
        -12    1    6    6    0    0 -0.93692349530E+01  0.13143795671E+02 -0.85953998369E+02  0.87456456387E+02  0.00000000000E+00 0.  1.
</event>
<event>
12    1  0.9246030E-003  0.2177805E+03  0.7818608E-02  0.1135825E+00
         21   -1    0    0  501  502  0.00000000000E+00  0.00000000000E+00  0.33411429786E+03  0.33411429786E+03  0.00000000000E+00 0. -1.
         21   -1    0    0  502  503 -0.00000000000E+00 -0.00000000000E+00 -0.22894494426E+03  0.22894494426E+03  0.00000000000E+00 0. -1.
          6    2    1    2  501    0  0.96374284489E+02 -0.86308814861E+02  0.22717751940E+03  0.31470296391E+03  0.17518880083E+03 0.  0.
         24    2    3    3    0    0  0.20148362355E+02 -0.51028071566E+02  0.20410935881E+03  0.22747136364E+03  0.84099764124E+02 0.  0.
         -6    2    1    2    0  503 -0.96374284489E+02  0.86308814861E+02 -0.12200816581E+03  0.24835627822E+03  0.17337137645E+03 0.  0.
        -24    2    5    5    0    0 -0.11852093009E+03  0.49645705553E+02 -0.35104553045E+02  0.15135635344E+03  0.71864519293E+02 0.  0.
          5    1    3    3  501    0  0.76225922134E+02 -0.35280743295E+02  0.23068160592E+02  0.87231600271E+02  0.47000000000E+01 0. -1.
        -11    1    4    4    0    0  0.76479485296E+01 -0.16728351389E+02 -0.16788021284E+01  0.18470171453E+02  0.00000000000E+00 0.  1.
         12    1    4    4    0    0  0.12500413825E+02 -0.34299720177E+02  0.20578816094E+03  0.20900119218E+03  0.00000000000E+00 0. -1.
         -5    1    5    5    0  503  0.22146645603E+02  0.36663109309E+02 -0.86903612762E+02  0.96999924776E+02  0.47000000000E+01 0.  1.
         13    1    6    6    0    0 -0.45645873278E+02  0.14209728151E+02 -0.49764619780E+02  0.69007097485E+02  0.00000000000E+00 0. -1.
        -14    1    6    6    0    0 -0.72875056814E+02  0.35435977401E+02  0.14660066735E+02  0.82349255957E+02  0.00000000000E+00 0.  1.
</event>
<event>
12    1  0.9246030E-003  0.1914724E+03  0.7818608E-02  0.1157531E+00
         21   -1    0    0  503  502  0.00000000000E+00  0.00000000000E+00  0.14421285414E+04  0.14421285414E+04  0.00000000000E+00 0.  1.
         21   -1    0    0  501  503 -0.00000000000E+00 -0.00000000000E+00 -0.29223713254E+02  0.29223713254E+02  0.00000000000E+00 0. -1.
          6    2    1    2  501    0 -0.31857980474E+02  0.77574457691E+02  0.43038360802E+03  0.47034793621E+03  0.17018931706E+03 0.  0.
         24    2    3    3    0    0 -0.96633359471E+01  0.62393952340E+02  0.43108022348E+03  0.44304179658E+03  0.80433134328E+02 0.  0.
         -6    2    1    2    0  502  0.31857980474E+02 -0.77574457691E+02  0.98252122017E+03  0.10010043185E+04  0.17213067751E+03 0.  0.
        -24    2    5    5    0    0  0.21504527365E+02  0.84183035131E+01  0.71595010321E+03  0.72067558402E+03  0.79091305367E+02 0.  0.
          5    1    3    3  501    0 -0.22194644527E+02  0.15180505351E+02 -0.69661545413E+00  0.27306139630E+02  0.47000000000E+01 0. -1.
        -13    1    4    4    0    0  0.77269616645E+01  0.16040304630E+02  0.33008281428E+03  0.33056264398E+03  0.00000000000E+00 0.  1.
         14    1    4    4    0    0 -0.17390297612E+02  0.46353647710E+02  0.10099740919E+03  0.11247915260E+03  0.00000000000E+00 0. -1.
         -5    1    5    5    0  502  0.10353453109E+02 -0.85992761204E+02  0.26657111696E+03  0.28032873447E+03  0.47000000000E+01 0.  1.
         11    1    6    6    0    0 -0.14488095353E+02  0.16651252447E+02  0.64346925015E+02  0.68027170116E+02  0.00000000000E+00 0. -1.
        -12    1    6    6    0    0  0.35992622717E+02 -0.82329489343E+01  0.65160317819E+03  0.65264841390E+03  0.00000000000E+00 0.  1.
</event>
<event>
12    1  0.9246030E-003  0.2017399E+03  0.7818608E-02  0.1148290E+00
         21   -1    0    0  501  502  0.00000000000E+00  0.00000000000E+00  0.56200413081E+02  0.56200413081E+02  0.00000000000E+00 0.  1.
         21   -1    0    0  502  503 -0.00000000000E+00 -0.00000000000E+00 -0.90448623427E+03  0.90448623427E+03  0.00000000000E+00 0.  1.
          6    2    1    2  501    0 -0.91068217880E+02  0.52675578460E+02 -0.20951735172E+03  0.29081789320E+03  0.17207379074E+03 0.  0.
         24    2    3    3    0    0 -0.91734173017E+02  0.86502847059E+02 -0.20697441047E+03  0.25656465763E+03  0.84196887740E+02 0.  0.
         -6    2    1    2    0  503  0.91068217880E+02 -0.52675578460E+02 -0.63876846946E+03  0.66986875415E+03  0.17213614765E+03 0.  0.
        -24    2    5    5    0    0  0.10900506304E+03 -0.46051838614E-01 -0.31186353307E+03  0.33823563619E+03  0.72542239005E+02 0.  0.
          5    1    3    3  501    0  0.66595513723E+00 -0.33827268598E+02 -0.25429412503E+01  0.34253235574E+02  0.47000000000E+01 0. -1.
        -13    1    4    4    0    0 -0.43310677290E+02  0.86448485894E+02 -0.17024644828E+03  0.19578817286E+03  0.00000000000E+00 0.  1.
         14    1    4    4    0    0 -0.48423495727E+02  0.54361164540E-01 -0.36727962186E+02  0.60776484761E+02  0.00000000000E+00 0. -1.
         -5    1    5    5    0  503 -0.17936845165E+02 -0.52629526622E+02 -0.32690493640E+03  0.33163311796E+03  0.47000000000E+01 0.  1.
         13    1    6    6    0    0 -0.59774294499E+01 -0.10869566744E+02 -0.58363036132E+02  0.59666750628E+02  0.00000000000E+00 0. -1.
        -14    1    6    6    0    0  0.11498249249E+03  0.10823514905E+02 -0.25350049694E+03  0.27856888556E+03  0.00000000000E+00 0.  1.
</event>
<event>
12    1  0.9246030E-003  0.2089019E+03  0.7818608E-02  0.1143289E+00
         21   -1    0    0  501  502  0.00000000000E+00  0.00000000000E+00  0.66930821013E+03  0.66930821013E+03  0.00000000000E+00 0.  1.
         21   -1    0    0  502  503 -0.00000000000E+00 -0.00000000000E+00 -0.10101585612E+03  0.10101585612E+03  0.00000000000E+00 0. -1.
          6    2    1    2  501    0  0.69724593679E+02 -0.93971702654E+02  0.51946910941E+03  0.55990014453E+03  0.17305437398E+03 0.  0.
         24    2    3    3    0    0  0.73795489316E+02 -0.13188645654E+03  0.42264418790E+03  0.45573078157E+03  0.78883610746E+02 0.  0.
         -6    2    1    2    0  503 -0.69724593679E+02  0.93971702654E+02  0.48823244599E+02  0.21042392172E+03  0.16793545711E+03 0.  0.
        -24    2    5    5    0    0 -0.89970879732E+02  0.12187765099E+03  0.33063529217E+02  0.17222558824E+03  0.74963559606E+02 0.  0.
          5    1    3    3  501    0 -0.40708956371E+01  0.37914753890E+02  0.96824921512E+02  0.10416936296E+03  0.47000000000E+01 0. -1.
        -13    1    4    4    0    0  0.46233011490E+02 -0.12192361219E+03  0.39290430297E+03  0.41397662959E+03  0.00000000000E+00 0.  1.
         14    1    4    4    0    0  0.27562477826E+02 -0.99628443570E+01  0.29739884929E+02  0.41754151975E+02  0.00000000000E+00 0. -1.
         -5    1    5    5    0  503  0.20246286053E+02 -0.27905948338E+02  0.15759715381E+02  0.38198333478E+02  0.47000000000E+01 0.  1.
         13    1    6    6    0    0 -0.52422111730E+02  0.56396882860E+02 -0.20486776231E+02  0.79676810898E+02  0.00000000000E+00 0. -1.
        -14    1    6    6    0    0 -0.37548768002E+02  0.65480768132E+02  0.53550305448E+02  0.92548777341E+02  0.00000000000E+00 0.  1.
</event>
<event>
12    1  0.9246030E-003  0.1742477E+03  0.7818608E-02  0.1173778E+00
         21   -1    0    0  501  502  0.00000000000E+00  0.00000000000E+00  0.54985984890E+03  0.54985984890E+03  0.00000000000E+00 0. -1.
         21   -1    0    0  502  503 -0.00000000000E+00 -0.00000000000E+00 -0.57091517926E+02  0.57091517926E+02  0.00000000000E+00 0. -1.
          6    2    1    2  501    0 -0.74959030888E+01 -0.25107602578E+02  0.30563692439E+03  0.35125538970E+03  0.17111352656E+03 0.  0.
         24    2    3    3    0    0  0.23591983495E+02  0.23264034771E+02  0.76572361259E+02  0.11503740547E+03  0.79198997147E+02 0.  0.
         -6    2    1    2    0  503  0.74959030888E+01  0.25107602578E+02  0.18713140658E+03  0.25569597712E+03  0.17226633193E+03 0.  0.
        -24    2    5    5    0    0  0.57471101774E+02  0.35279811742E+02  0.73407977326E+02  0.13097187086E+03  0.84954735975E+02 0.  0.
          5    1    3    3  501    0 -0.31087886584E+02 -0.48371637349E+02  0.22906456313E+03  0.23621798423E+03  0.47000000000E+01 0. -1.
        -11    1    4    4    0    0  0.17931589096E+02  0.98020248754E+01  0.91736232546E+02  0.93984881448E+02  0.00000000000E+00 0.  1.
         12    1    4    4    0    0  0.56603943996E+01  0.13462009896E+02 -0.15163871287E+02  0.21052524020E+02  0.00000000000E+00 0. -1.
         -5    1    5    5    0  503 -0.49975198685E+02 -0.10172209164E+02  0.11372342926E+03  0.12472410627E+03  0.47000000000E+01 0.  1.
         13    1    6    6    0    0 -0.22334762346E+02  0.11837855151E+02  0.16338639149E+02  0.30098630416E+02  0.00000000000E+00 0. -1.
        -14    1    6    6    0    0  0.79805864121E+02  0.23441956591E+02  0.57069338176E+02  0.10087324044E+03  0.00000000000E+00 0.  1.
</event>
<event>
12    1  0.9246030E-003  0.1824384E+03  0.7818608E-02  0.1165781E+00
         21   -1    0    0  503  502  0.00000000000E+00  0.00000000000E+00  0.27773606373E+03  0.27773606373E+03  0.00000000000E+00 0. -1.
         21   -1    0    0  501  503 -0.00000000000E+00 -0.00000000000E+00 -0.12940114452E+03  0.12940114452E+03  0.00000000000E+00 0. -1.
          6    2    1    2  501    0 -0.50921533439E+02  0.24101244213E+02  0.16615103310E+02  0.18319339334E+03  0.17352200197E+03 0.  0.
         24    2    3    3    0    0 -0.25105408388E+02 -0.53036738044E+02 -0.12474617265E+02  0.96677253448E+02  0.75813574943E+02 0.  0.
         -6    2    1    2    0  502  0.50921533439E+02 -0.24101244213E+02  0.13171981590E+03  0.22394381490E+03  0.17212451827E+03 0.  0.
        -24    2    5    5    0    0  0.24626922852E+02 -0.39865878035E+02  0.40287137022E+01  0.92539713722E+02  0.79696891539E+02 0.  0.
          5    1    3    3  501    0 -0.25816125051E+02  0.77137982258E+02  0.29089720575E+02  0.86516139896E+02  0.47000000000E+01 0. -1.
        -11    1    4    4    0    0  0.12651805526E+02 -0.56533423624E+02 -0.84664663393E+01  0.58547222154E+02  0.00000000000E+00 0.  1.
         12    1    4    4    0    0 -0.37757213914E+02  0.34966855795E+01 -0.40081509260E+01  0.38130031293E+02  0.00000000000E+00 0. -1.
         -5    1    5    5    0  502  0.26294610587E+02  0.15764633822E+02  0.12769110220E+03  0.13140410118E+03  0.47000000000E+01 0.  1.
         11    1    6    6    0    0  0.46682022701E+02 -0.44171624060E+02  0.17151620374E+02  0.66517078235E+02  0.00000000000E+00 0. -1.
        -12    1    6    6    0    0 -0.22055099849E+02  0.43057460243E+01 -0.13122906672E+02  0.26022635487E+02  0.00000000000E+00 0.  1.
</event>
<event>
12    1  0.9246030E-003  0.2311269E+03  0.7818608E-02  0.1126534E+00
         21   -1    0    0  503  502  0.00000000000E+00  0.00000000000E+00  0.43435490306E+03  0.43435490306E+03  0.00000000000E+00 0. -1.
         21   -1    0    0  501  503 -0.00000000000E+00 -0.00000000000E+00 -0.12229382115E+03  0.12229382115E+03  0.00000000000E+00 0.  1.
          6    2    1    2  501    0 -0.63705456382E+02 -0.13534514157E+03  0.18673998042E+03  0.29713882544E+03  0.17619014949E+03 0.  0.
         24    2    3    3    0    0  0.76447732844E+01 -0.11591897117E+03  0.65819971117E+02  0.15532214793E+03  0.79353957703E+02 0.  0.
         -6    2    1    2    0  502  0.63705456382E+02  0.13534514157E+03  0.12532110148E+03  0.25950989877E+03  0.17106524067E+03 0.  0.
        -24    2    5    5    0    0  0.40732942199E+02  0.15492578616E+03  0.65096265534E+02  0.19198020963E+03  0.83412860550E+02 0.  0.
          5    1    3    3  501    0 -0.71350229667E+02 -0.19426170396E+02  0.12092000931E+03  0.14181667751E+03  0.47000000000E+01 0. -1.
        -11    1    4    4    0    0  0.24404408095E+02 -0.69015792155E+02  0.53324013126E+00  0.73205457763E+02  0.00000000000E+00 0.  1.
         12    1    4    4    0    0 -0.16759634810E+02 -0.46903179015E+02  0.65286730986E+02  0.82116690164E+02  0.00000000000E+00 0. -1.
         -5    1    5    5    0  502  0.22972514183E+02 -0.19580644598E+02  0.60224835943E+02  0.67529689139E+02  0.47000000000E+01 0.  1.
         13    1    6    6    0    0 -0.98381484869E+01  0.11695378472E+03  0.42361909157E+02  0.12477783567E+03  0.00000000000E+00 0. -1.
        -14    1    6    6    0    0  0.50571090686E+02  0.37972001445E+02  0.22734356376E+02  0.67202373967E+02  0.00000000000E+00 0.  1.
</event>
<event>
12    1  0.9246030E-003  0.1789584E+03  0.7818608E-02  0.1173622E+00
         21   -1    0    0  501  502  0.00000000000E+00  0.00000000000E+00  0.13002027593E+03  0.13002027593E+03  0.00000000000E+00 0.  1.
         21   -1    0    0  502  503 -0.00000000000E+00 -0.00000000000E+00 -0.24318607695E+03  0.24318607695E+03  0.00000000000E+00 0.  1.
          6    2    1    2  501    0  0.47196581732E+02 -0.18738144146E+02 -0.36113036490E+01  0.17899488091E+03  0.17160271124E+03 0.  0.
         24    2    3    3    0    0  0.33388235058E+02 -0.19977553125E+02  0.64129065235E+02  0.10969081069E+03  0.80035367633E+02 0.  0.
         -6    2    1    2    0  503 -0.47196581732E+02  0.18738144146E+02 -0.10955449737E+03  0.19421147198E+03  0.15210940990E+03 0.  0.
        -24    2    5    5    0    0 -0.18006359590E+02  0.89021042789E+01  0.29605662223E+01  0.77461541427E+02  0.74753254121E+02 0.  0.
          5    1    3    3  501    0  0.13808346674E+02  0.12394089795E+01 -0.67740368884E+02  0.69304070220E+02  0.47000000000E+01 0. -1.
        -11    1    4    4    0    0  0.24563791205E+01 -0.43027628606E+02  0.55312336473E+02  0.70120362150E+02  0.00000000000E+00 0.  1.
         12    1    4    4    0    0  0.30931855938E+02  0.23050075481E+02  0.88167287620E+01  0.39570448538E+02  0.00000000000E+00 0. -1.
         -5    1    5    5    0  503 -0.29190222142E+02  0.98360398669E+01 -0.11251506359E+03  0.11674993055E+03  0.47000000000E+01 0.  1.
         11    1    6    6    0    0  0.16651450644E+02 -0.23516556422E+02 -0.52802154385E+01  0.29294707877E+02  0.00000000000E+00 0. -1.
        -12    1    6    6    0    0 -0.34657810234E+02  0.32418660701E+02  0.82407816609E+01  0.48166833550E+02  0.00000000000E+00 0.  1.
</event>
<event>
12    1  0.9246030E-003  0.2205599E+03  0.7818608E-02  0.1133700E+00
         21   -1    0    0  501  502  0.00000000000E+00  0.00000000000E+00  0.10530694118E+03  0.10530694118E+03  0.00000000000E+00 0. -1.
         21   -1    0    0  502  503 -0.00000000000E+00 -0.00000000000E+00 -0.59810719407E+03  0.59810719407E+03  0.00000000000E+00 0.  1.
          6    2    1    2  501    0 -0.61919587195E+02 -0.12097102251E+03 -0.76446640400E+02  0.23224856288E+03  0.17212577542E+03 0.  0.
         24    2    3    3    0    0 -0.10862010839E+03 -0.77262531252E+02 -0.47421760441E+02  0.16185037721E+03  0.78605944804E+02 0.  0.
         -6    2    1    2    0  503  0.61919587195E+02  0.12097102251E+03 -0.41635361249E+03  0.47116557237E+03  0.17372001147E+03 0.  0.
        -24    2    5    5    0    0  0.58934394576E+02  0.20003198078E+01 -0.16168252871E+03  0.19002078691E+03  0.80556782611E+02 0.  0.
          5    1    3    3  501    0  0.46700521196E+02 -0.43708491256E+02 -0.29024879958E+02  0.70398185662E+02  0.47000000000E+01 0. -1.
        -13    1    4    4    0    0 -0.10480483670E+03 -0.37423456772E+02 -0.49449364876E+02  0.12177770157E+03  0.00000000000E+00 0.  1.
         14    1    4    4    0    0 -0.38152716881E+01 -0.39839074480E+02  0.20276044347E+01  0.40072675643E+02  0.00000000000E+00 0. -1.
         -5    1    5    5    0  503  0.29851926190E+01  0.11897070270E+03 -0.25467108378E+03  0.28114478546E+03  0.47000000000E+01 0.  1.
         11    1    6    6    0    0  0.51110908015E+02  0.48256877610E+01 -0.32912391233E+02  0.60982273467E+02  0.00000000000E+00 0. -1.
        -12    1    6    6    0    0  0.78234865607E+01 -0.28253679532E+01 -0.12877013747E+03  0.12903851344E+03  0.00000000000E+00 0.  1.
</event>
<event>
12    1  0.9246030E-003  0.1922519E+03  0.7818608E-02  0.1156720E+00
         21   -1    0    0  501  502  0.00000000000E+00  0.00000000000E+00  0.10491346659E+04  0.10491346659E+04  0.00000000000E+00 0.  1.
         21   -1    0    0  502  503 -0.00000000000E+00 -0.00000000000E+00 -0.39307315846E+02  0.39307315846E+02  0.00000000000E+00 0.  1.
          6    2    1    2  501    0 -0.81320296307E+02  0.22552589401E+02  0.68640254015E+03  0.71281780565E+03  0.17274017207E+03 0.  0.
         24    2    3    3    0    0 -0.66113971550E+02  0.79878804817E+02  0.52045517008E+03  0.53652785438E+03  0.78973880279E+02 0.  0.
         -6    2    1    2    0  503  0.81320296307E+02 -0.22552589401E+02  0.32342480994E+03  0.37562417614E+03  0.17137183004E+03 0.  0.
        -24    2    5    5    0    0  0.51047651335E+02 -0.53361273744E+01  0.65925862267E+02  0.11573835957E+03  0.80092518988E+02 0.  0.
          5    1    3    3  501    0 -0.15206324758E+02 -0.57326215417E+02  0.16594737007E+03  0.17628995127E+03  0.47000000000E+01 0. -1.
        -13    1    4    4    0    0  0.72798377908E+01  0.46405702607E+02  0.14187493216E+03  0.14944892655E+03  0.00000000000E+00 0.  1.
         14    1    4    4    0    0 -0.73393809340E+02  0.33473102211E+02  0.37858023792E+03  0.38707892783E+03  0.00000000000E+00 0. -1.
         -5    1    5    5    0  503  0.30272644972E+02 -0.17216462026E+02  0.25749894768E+03  0.25988581657E+03  0.47000000000E+01 0.  1.
         11    1    6    6    0    0  0.60041062238E+02  0.22972534195E+02  0.36488178672E+02  0.73919237448E+02  0.00000000000E+00 0. -1.
        -12    1    6    6    0    0 -0.89934109035E+01 -0.28308661569E+02  0.29437683595E+02  0.41819122121E+02  0.00000000000E+00 0.  1.
</event>
<event>
12    1  0.9246030E-003  0.3085634E+03  0.7818608E-02  0.1081517E+00
         21   -1    0    0  501  502  0.00000000000E+00  0.00000000000E+00  0.66938905525E+03  0.66938905525E+03  0.00000000000E+00 0.  1.
         21   -1    0    0  502  503 -0.00000000000E+00 -0.00000000000E+00 -0.14591711469E+03  0.14591711469E+03  0.00000000000E+00 0. -1.
          6    2    1    2  501    0  0.22014362123E+03 -0.12194351509E+03  0.18423117873E+03  0.35937791993E+03  0.17854390854E+03 0.  0.
         24    2    3    3    0    0  0.16448187006E+03 -0.28435321839E+02  0.16669047227E+03  0.24905213359E+03  0.79864877098E+02 0.  0.
         -6    2    1    2    0  503 -0.22014362123E+03  0.12194351509E+03  0.33924076183E+03  0.45592825001E+03  0.17161829687E+03 0.  0.
        -24    2    5    5    0    0 -0.11453865042E+03  0.10513786544E+02  0.99572883983E+02  0.17126744143E+03  0.78664700610E+02 0.  0.
          5    1    3    3  501    0  0.55661751170E+02 -0.93508193252E+02  0.17540706457E+02  0.11032578634E+03  0.47000000000E+01 0. -1.
        -13    1    4    4    0    0  0.16689400632E+03 -0.30590461515E+02  0.13401276949E+03  0.21621472676E+03  0.00000000000E+00 0.  1.
         14    1    4    4    0    0 -0.24121362574E+01  0.21551396767E+01  0.32677702787E+02  0.32837406837E+02  0.00000000000E+00 0. -1.
         -5    1    5    5    0  503 -0.10560497081E+03  0.11142972855E+03  0.23966787785E+03  0.28466080857E+03  0.47000000000E+01 0.  1.
         13    1    6    6    0    0 -0.64907868307E+02  0.42869041393E+02  0.40894584009E+02  0.87881471763E+02  0.00000000000E+00 0. -1.
        -14    1    6    6    0    0 -0.49630782116E+02 -0.32355254849E+02  0.58678299975E+02  0.83385969670E+02  0.00000000000E+00 0.  1.
</event>
<event>
12    1  0.9246030E-003  0.2040503E+03  0.7818608E-02  0.1146918E+00
         21   -1    0    0  503  502  0.00000000000E+00  0.00000000000E+00  0.36319629478E+03  0.36319629478E+03  0.00000000000E+00 0.  1.
         21   -1    0    0  501  503 -0.00000000000E+00 -0.00000000000E+00 -0.11459104113E+03  0.11459104113E+03  0.00000000000E+00 0.  1.
          6    2    1    2  501    0 -0.25369499951E+02  0.10385613027E+03  0.96671963053E+02  0.22338562371E+03  0.17066329751E+03 0.  0.
         24    2    3    3    0    0 -0.10513017130E+02  0.12550788708E+03  0.11704757726E+03  0.18981823910E+03  0.80424345226E+02 0.  0.
         -6    2    1    2    0  502  0.25369499951E+02 -0.10385613027E+03  0.15193329060E+03  0.25440171221E+03  0.17380103296E+03 0.  0.
        -24    2    5    5    0    0  0.16849885678E+02 -0.12845596957E+02  0.73017154316E+01  0.83241309257E+02  0.80167777255E+02 0.  0.
          5    1    3    3  501    0 -0.14856482821E+02 -0.21651756813E+02 -0.20375614206E+02  0.33567384604E+02  0.47000000000E+01 0. -1.
        -11    1    4    4    0    0 -0.45502225872E+02  0.79839921625E+02  0.72946328702E+02  0.11732873696E+03  0.00000000000E+00 0.  1.
         12    1    4    4    0    0  0.34989208742E+02  0.45667965453E+02  0.44101248558E+02  0.72489502146E+02  0.00000000000E+00 0. -1.
         -5    1    5    5    0  502  0.85196142729E+01 -0.91010533309E+02  0.14463157517E+03  0.17116040295E+03  0.47000000000E+01 0.  1.
         11    1    6    6    0    0 -0.13235433611E+02 -0.13401013573E+02  0.36651180166E+02  0.41207679809E+02  0.00000000000E+00 0. -1.
        -12    1    6    6    0    0  0.30085319289E+02  0.55541661581E+00 -0.29349464735E+02  0.42033629448E+02  0.00000000000E+00 0.  1.
</event>
<event>
12    1  0.9246030E-003  0.2555349E+03  0.7818608E-02  0.1109923E+00
         21   -1    0    0  501  502  0.00000000000E+00  0.00000000000E+00  0.59698912734E+03  0.59698912734E+03  0.00000000000E+00 0. -1.
         21   -1    0    0  502  503 -0.00000000000E+00 -0.00000000000E+00 -0.13028831189E+03  0.13028831189E+03  0.00000000000E+00 0. -1.
          6    2    1    2  501    0  0.47586825571E+02  0.18201373199E+03  0.37950400902E+03  0.45727492768E+03  0.17228918138E+03 0.  0.
         24    2    3    3    0    0 -0.42824293673E+01  0.18599665659E+03  0.32503724617E+03  0.38180969362E+03  0.74272035669E+02 0.  0.
         -6    2    1    2    0  503 -0.47586825571E+02 -0.18201373199E+03  0.87196806431E+02  0.27000251154E+03  0.17292937457E+03 0.  0.
        -24    2    5    5    0    0 -0.43717622911E+01 -0.10825765029E+03  0.11797510749E+03  0.17902506874E+03  0.79956351218E+02 0.  0.
          5    1    3    3  501    0  0.51869254938E+02 -0.39829245970E+01  0.54466762844E+02  0.75465234055E+02  0.47000000000E+01 0. -1.
        -13    1    4    4    0    0 -0.20207811340E+02  0.23216083285E+02  0.23331880187E+02  0.38622775604E+02  0.00000000000E+00 0.  1.
         14    1    4    4    0    0  0.15925381973E+02  0.16278057330E+03  0.30170536599E+03  0.34318691802E+03  0.00000000000E+00 0. -1.
         -5    1    5    5    0  503 -0.43215063280E+02 -0.73756081702E+02 -0.30778301060E+02  0.90977442800E+02  0.47000000000E+01 0.  1.
         11    1    6    6    0    0 -0.39180757003E+01 -0.52542134327E+02  0.48347349126E+01  0.52909374014E+02  0.00000000000E+00 0. -1.
        -12    1    6    6    0    0 -0.45368659082E+00 -0.55715515960E+02  0.11314037258E+03  0.12611569473E+03  0.00000000000E+00 0.  1.
</event>
<event>
12    1  0.9246030E-003  0.2215725E+03  0.7818608E-02  0.1132959E+00
         21   -1    0    0  501  502  0.00000000000E+00  0.00000000000E+00  0.31075706904E+03  0.31075706904E+03  0.00000000000E+00 0. -1.
         21   -1    0    0  502  503 -0.00000000000E+00 -0.00000000000E+00 -0.17809829693E+03  0.17809829693E+03  0.00000000000E+00 0. -1.
          6    2    1    2  501    0 -0.20161982181E+02 -0.13505320045E+03  0.15053269736E+03  0.26787020562E+03  0.17449493290E+03 0.  0.
         24    2    3    3    0    0  0.58483315537E+02 -0.64623508128E+02  0.69694510545E+02  0.13482011407E+03  0.75648148420E+02 0.  0.
         -6    2    1    2    0  503  0.20161982181E+02  0.13505320045E+03 -0.17873925241E+02  0.22098516035E+03  0.17282676707E+03 0.  0.
        -24    2    5    5    0    0 -0.21184154849E+01  0.13699744478E+03  0.36847924649E+02  0.16168282430E+03  0.77529211027E+02 0.  0.
          5    1    3    3  501    0 -0.78645297718E+02 -0.70429692323E+02  0.80838186810E+02  0.13305009155E+03  0.47000000000E+01 0. -1.
        -11    1    4    4    0    0  0.48137975355E+02 -0.40294847056E+02  0.27415665086E+01  0.62836737324E+02  0.00000000000E+00 0.  1.
         12    1    4    4    0    0  0.10345340182E+02 -0.24328661073E+02  0.66952944036E+02  0.71983376749E+02  0.00000000000E+00 0. -1.
         -5    1    5    5    0  503  0.22280397666E+02 -0.19442443245E+01 -0.54721849890E+02  0.59302336055E+02  0.47000000000E+01 0.  1.
         13    1    6    6    0    0  0.16624483988E+02 -0.10607989398E+01  0.11049432309E+02  0.19989715271E+02  0.00000000000E+00 0. -1.
        -14    1    6    6    0    0 -0.18742899473E+02  0.13805824372E+03  0.25798492340E+02  0.14169310903E+03  0.00000000000E+00 0.  1.
</event>
<event>
12    1  0.9246030E-003  0.2855551E+03  0.7818608E-02  0.1092695E+00
         21   -1    0    0  503  502  0.00000000000E+00  0.00000000000E+00  0.37709003385E+03  0.37709003385E+03  0.00000000000E+00 0.  1.
         21   -1    0    0  501  503 -0.00000000000E+00 -0.00000000000E+00 -0.31966686576E+03  0.31966686576E+03  0.00000000000E+00 0. -1.
          6    2    1    2  501    0  0.22187904366E+03 -0.52969185899E+02 -0.16946372423E+03  0.33203865985E+03  0.17174304392E+03 0.  0.
         24    2    3    3    0    0  0.78550506015E+02 -0.80673484073E+02 -0.65019566933E+02  0.15248011833E+03  0.79650796438E+02 0.  0.
         -6    2    1    2    0  502 -0.22187904366E+03  0.52969185899E+02  0.22688689233E+03  0.36471823976E+03  0.17177219749E+03 0.  0.
        -24    2    5    5    0    0 -0.16613645406E+03 -0.26080109760E+02  0.16967971334E+03  0.25224255897E+03  0.80954369533E+02 0.  0.
          5    1    3    3  501    0  0.14332853765E+03  0.27704298175E+02 -0.10444415730E+03  0.17955854153E+03  0.47000000000E+01 0. -1.
        -13    1    4    4    0    0  0.42169806366E+01 -0.15811668733E+02  0.17430873207E+02  0.23908725072E+02  0.00000000000E+00 0.  1.
         14    1    4    4    0    0  0.74333525378E+02 -0.64861815340E+02 -0.82450440139E+02  0.12857139325E+03  0.00000000000E+00 0. -1.
         -5    1    5    5    0  502 -0.55742589604E+02  0.79049295659E+02  0.57207178986E+02  0.11247568078E+03  0.47000000000E+01 0.  1.
         11    1    6    6    0    0 -0.59093290506E+02 -0.46547679491E+02  0.89665834875E+02  0.11704129781E+03  0.00000000000E+00 0. -1.
        -12    1    6    6    0    0 -0.10704316355E+03  0.20467569731E+02  0.80013878467E+02  0.13520126117E+03  0.00000000000E+00 0.  1.
</event>
<event>
12    1  0.9246030E-003  0.3360078E+03  0.7818608E-02  0.1068530E+00
         21   -1    0    0  501  502  0.00000000000E+00  0.00000000000E+00  0.19661335730E+03  0.19661335730E+03  0.00000000000E+00 0.  1.
         21   -1    0    0  502  503 -0.00000000000E+00 -0.00000000000E+00 -0.70403798698E+03  0.70403798698E+03  0.00000000000E+00 0. -1.
          6    2    1    2  501    0  0.28285506838E+03 -0.57383537490E+02 -0.44738217867E+03  0.55951054583E+03  0.17205050718E+03 0.  0.
         24    2    3    3    0    0  0.24167809754E+03 -0.26071737969E+02 -0.25853366569E+03  0.36364880232E+03  0.79452858868E+02 0.  0.
         -6    2    1    2    0  503 -0.28285506838E+03  0.57383537490E+02 -0.60042451005E+02  0.34114079844E+03  0.17167436721E+03 0.  0.
        -24    2    5    5    0    0 -0.22141895443E+03  0.10327423221E+03 -0.29980425296E+02  0.25864129936E+03  0.79401356517E+02 0.  0.
          5    1    3    3  501    0  0.41176970843E+02 -0.31311799521E+02 -0.18884851298E+03  0.19586174351E+03  0.47000000000E+01 0. -1.
        -11    1    4    4    0    0  0.52490095082E+02 -0.12202042405E+02 -0.16957166714E+02  0.56494649512E+02  0.00000000000E+00 0.  1.
         12    1    4    4    0    0  0.18918800246E+03 -0.13869695564E+02 -0.24157649898E+03  0.30715415281E+03  0.00000000000E+00 0. -1.
         -5    1    5    5    0  503 -0.61436113950E+02 -0.45890694715E+02 -0.30062025709E+02  0.82499499080E+02  0.47000000000E+01 0.  1.
         13    1    6    6    0    0 -0.61338509071E+02  0.67633679555E+02 -0.24562640689E+02  0.94551840928E+02  0.00000000000E+00 0. -1.
        -14    1    6    6    0    0 -0.16008044536E+03  0.35640552651E+02 -0.54177846068E+01  0.16408945844E+03  0.00000000000E+00 0.  1.
</event>
<event>
12    1  0.9246030E-003  0.1735382E+03  0.7818608E-02  0.1174452E+00
         21   -1    0    0  503  502  0.00000000000E+00  0.00000000000E+00  0.12397785896E+03  0.12397785896E+03  0.00000000000E+00 0.  1.
         21   -1    0    0  501  503 -0.00000000000E+00 -0.00000000000E+00 -0.30629253366E+03  0.30629253366E+03  0.00000000000E+00 0.  1.
          6    2    1    2  501    0  0.13158140543E+02 -0.43236545706E+01  0.75373421606E+01  0.17370181377E+03  0.17298461761E+03 0.  0.
         24    2    3    3    0    0 -0.12066948027E+02 -0.23332252932E+01 -0.61112979738E+02  0.10038589736E+03  0.78685938524E+02 0.  0.
         -6    2    1    2    0  502 -0.13158140543E+02  0.43236545706E+01 -0.18985201685E+03  0.25656857885E+03  0.17202272146E+03 0.  0.
        -24    2    5    5    0    0 -0.45589606226E+02 -0.49900543055E+02 -0.14357762264E+03  0.17811175548E+03  0.80875134138E+02 0.  0.
          5    1    3    3  501    0  0.25225088570E+02 -0.19904292774E+01  0.68650321899E+02  0.73315916409E+02  0.47000000000E+01 0. -1.
        -13    1    4    4    0    0  0.10241622801E+02 -0.21819313176E+02  0.78347703821E+01  0.25344760642E+02  0.00000000000E+00 0.  1.
         14    1    4    4    0    0 -0.22308570828E+02  0.19486087882E+02 -0.68947750120E+02  0.75041136719E+02  0.00000000000E+00 0. -1.
         -5    1    5    5    0  502  0.32431465684E+02  0.54224197626E+02 -0.46274394208E+02  0.78456823373E+02  0.47000000000E+01 0.  1.
         13    1    6    6    0    0  0.10638574828E+02 -0.31793972471E+02 -0.15231924843E+02  0.36824550157E+02  0.00000000000E+00 0. -1.
        -14    1    6    6    0    0 -0.56228181055E+02 -0.18106570585E+02 -0.12834569780E+03  0.14128720532E+03  0.00000000000E+00 0.  1.
</event>
<event>
12    1  0.9246030E-003  0.2118492E+03  0.7818608E-02  0.1140398E+00
         21   -1    0    0  501  502  0.00000000000E+00  0.00000000000E+00  0.89905505394E+03  0.89905505394E+03  0.00000000000E+00 0. -1.
         21   -1    0    0  502  503 -0.00000000000E+00 -0.00000000000E+00 -0.53190674595E+02  0.53190674595E+02  0.00000000000E+00 0. -1.
          6    2    1    2  501    0 -0.70364119334E+02  0.10087681099E+03  0.54570388402E+03  0.58485436857E+03  0.17068879027E+03 0.  0.
         24    2    3    3    0    0  0.25145812772E+02  0.74784652726E+02  0.24787582492E+03  0.27096491249E+03  0.75858440790E+02 0.  0.
         -6    2    1    2    0  503  0.70364119334E+02 -0.10087681099E+03  0.30016049533E+03  0.36739135996E+03  0.17249013923E+03 0.  0.
        -24    2    5    5    0    0  0.60318732202E+02 -0.13107873482E+03  0.18297554730E+03  0.24586988840E+03  0.78434475431E+02 0.  0.
          5    1    3    3  501    0 -0.95509932107E+02  0.26092158267E+02  0.29782805909E+03  0.31388945608E+03  0.47000000000E+01 0. -1.
        -11    1    4    4    0    0  0.14392995858E+02  0.88441793836E+02  0.18240192691E+03  0.20322296171E+03  0.00000000000E+00 0.  1.
         12    1    4    4    0    0  0.10752816914E+02 -0.13657141110E+02  0.65473898012E+02  0.67741950782E+02  0.00000000000E+00 0. -1.
         -5    1    5    5    0  503  0.10045387133E+02  0.30201923826E+02  0.11718494803E+03  0.12152147156E+03  0.47000000000E+01 0.  1.
         11    1    6    6    0    0  0.53684227783E+01 -0.94762873320E+02  0.82658532375E+02  0.12586204788E+03  0.00000000000E+00 0. -1.
        -12    1    6    6    0    0  0.54950309423E+02 -0.36315861499E+02  0.10031701492E+03  0.12000784052E+03  0.00000000000E+00 0.  1.
</event>
<event>
12    1  0.9246030E-003  0.2301700E+03  0.7818608E-02  0.1126541E+00
         21   -1    0    0  503  502  0.00000000000E+00  0.00000000000E+00  0.88655979102E+02  0.88655979102E+02  0.00000000000E+00 0.  1.
         21   -1    0    0  501  503 -0.00000000000E+00 -0.00000000000E+00 -0.60644155032E+03  0.60644155032E+03  0.00000000000E+00 0.  1.
          6    2    1    2  501    0  0.90957829785E+02 -0.12353791815E+03 -0.30171321600E+03  0.37948531732E+03  0.17159049314E+03 0.  0.
         24    2    3    3    0    0  0.89042069879E+02 -0.46610998926E+02 -0.98065827387E+02  0.16173369293E+03  0.80248398728E+02 0.  0.
         -6    2    1    2    0  502 -0.90957829785E+02  0.12353791815E+03 -0.21607235522E+03  0.31561221210E+03  0.17143179903E+03 0.  0.
        -24    2    5    5    0    0 -0.88389407252E+02  0.80426674951E+02 -0.22979241292E+03  0.27005448973E+03  0.76444339430E+02 0.  0.
          5    1    3    3  501    0  0.19157599064E+01 -0.76926919222E+02 -0.20364738861E+03  0.21775162439E+03  0.47000000000E+01 0. -1.
        -13    1    4    4    0    0  0.85857183912E+02 -0.50648727264E+02 -0.11017513737E+03  0.14857762448E+03  0.00000000000E+00 0.  1.
         14    1    4    4    0    0  0.31848859672E+01  0.40377283389E+01  0.12109309981E+02  0.13156068447E+02  0.00000000000E+00 0. -1.
         -5    1    5    5    0  502 -0.25684225336E+01  0.43111243197E+02  0.13720057700E+02  0.45557722370E+02  0.47000000000E+01 0.  1.
         13    1    6    6    0    0 -0.42406064389E+02 -0.17814389594E+01 -0.10832889955E+03  0.11634688779E+03  0.00000000000E+00 0. -1.
        -14    1    6    6    0    0 -0.45983342863E+02  0.82208113910E+02 -0.12146351338E+03  0.15370760194E+03  0.00000000000E+00 0.  1.
</event>
<event>
12    1  0.9246030E-003  0.2009149E+03  0.7818608E-02  0.1149478E+00
         21   -1    0    0  503  502  0.00000000000E+00  0.00000000000E+00  0.91769061642E+02  0.91769061642E+02  0.00000000000E+00 0.  1.
         21   -1    0    0  501  503 -0.00000000000E+00 -0.00000000000E+00 -0.44199201295E+03  0.44199201295E+03  0.00000000000E+00 0. -1.
          6    2    1    2  501    0 -0.69039617891E+02 -0.73904327227E+02 -0.14166536243E+03  0.24583712436E+03  0.17360443077E+03 0.  0.
         24    2    3    3    0    0 -0.21443318711E+02 -0.36993394924E+02  0.23277301492E+01  0.89683593091E+02  0.78799754802E+02 0.  0.
         -6    2    1    2    0  502  0.69039617891E+02  0.73904327227E+02 -0.20855758888E+03  0.28792395023E+03  0.17080870825E+03 0.  0.
        -24    2    5    5    0    0  0.64914057758E+02  0.10993036851E+03 -0.19415123668E+03  0.24862345556E+03  0.88433020619E+02 0.  0.
          5    1    3    3  501    0 -0.47596299180E+02 -0.36910932303E+02 -0.14399309258E+03  0.15615353127E+03  0.47000000000E+01 0. -1.
        -13    1    4    4    0    0  0.14960525701E+01 -0.57962928137E+02 -0.33952688031E+01  0.58081555263E+02  0.00000000000E+00 0.  1.
         14    1    4    4    0    0 -0.22939371281E+02  0.20969533213E+02  0.57229989523E+01  0.31602037829E+02  0.00000000000E+00 0. -1.
         -5    1    5    5    0  502  0.41255601330E+01 -0.36026041287E+02 -0.14406352202E+02  0.39300494666E+02  0.47000000000E+01 0.  1.
         13    1    6    6    0    0  0.79267974502E+02  0.91539592230E+02 -0.11837990491E+03  0.16934199306E+03  0.00000000000E+00 0. -1.
        -14    1    6    6    0    0 -0.14353916744E+02  0.18390776284E+02 -0.75771331774E+02  0.79281462506E+02  0.00000000000E+00 0.  1.
</event>
<event>
12    1  0.9246030E-003  0.1740217E+03  0.7818608E-02  0.1174203E+00
         21   -1    0    0  503  502  0.00000000000E+00  0.00000000000E+00  0.17628908824E+03  0.17628908824E+03  0.00000000000E+00 0. -1.
         21   -1    0    0  501  503 -0.00000000000E+00 -0.00000000000E+00 -0.18308128479E+03  0.18308128479E+03  0.00000000000E+00 0. -1.
          6    2    1    2  501    0  0.29790993495E+02  0.20908930554E+01 -0.51616534975E+02  0.18151535253E+03  0.17144002274E+03 0.  0.
         24    2    3    3    0    0  0.74052801863E+02  0.30515089172E+02 -0.65995025439E+01  0.11212035406E+03  0.78182045438E+02 0.  0.
         -6    2    1    2    0  502 -0.29790993495E+02 -0.20908930554E+01  0.44824338422E+02  0.17785502050E+03  0.16950313234E+03 0.  0.
        -24    2    5    5    0    0 -0.66379202420E+02 -0.18095239645E+01  0.76214269179E+02  0.12941749420E+03  0.80813365775E+02 0.  0.
          5    1    3    3  501    0 -0.44261808368E+02 -0.28424196117E+02 -0.45017032432E+02  0.69394998478E+02  0.47000000000E+01 0. -1.
        -13    1    4    4    0    0  0.79744208394E+02 -0.11160383437E+01 -0.34367995252E+01  0.79826035258E+02  0.00000000000E+00 0.  1.
         14    1    4    4    0    0 -0.56914065314E+01  0.31631127516E+02 -0.31627030187E+01  0.32294318798E+02  0.00000000000E+00 0. -1.
         -5    1    5    5    0  502  0.36588208925E+02 -0.28136909093E+00 -0.31389930757E+02  0.48437526297E+02  0.47000000000E+01 0.  1.
         13    1    6    6    0    0  0.12498873525E+02 -0.14690782472E+02  0.33852642219E+02  0.38962062500E+02  0.00000000000E+00 0. -1.
        -14    1    6    6    0    0 -0.78878075945E+02  0.12881258507E+02  0.42361626960E+02  0.90455431701E+02  0.00000000000E+00 0.  1.
</event>
<event>
12    1  0.9246030E-003  0.1856552E+03  0.7818608E-02  0.1162653E+00
         21   -1    0    0  501  502  0.00000000000E+00  0.00000000000E+00  0.57203744687E+02  0.57203744687E+02  0.00000000000E+00 0.  1.
         21   -1    0    0  502  503 -0.00000000000E+00 -0.00000000000E+00 -0.86555409926E+03  0.86555409926E+03  0.00000000000E+00 0.  1.
          6    2    1    2  501    0 -0.41164501626E+02  0.53884109964E+02 -0.14910885134E+03  0.23812033337E+03  0.17282890417E+03 0.  0.
         24    2    3    3    0    0  0.29648153545E+02 -0.12514349059E+02 -0.55401951576E+02  0.10311566472E+03  0.80795062548E+02 0.  0.
         -6    2    1    2    0  503  0.41164501626E+02 -0.53884109964E+02 -0.65924150323E+03  0.68463751058E+03  0.17184629120E+03 0.  0.
        -24    2    5    5    0    0  0.24238543291E+02  0.39416641300E+01 -0.57129486902E+03  0.57792758280E+03  0.83781978385E+02 0.  0.
          5    1    3    3  501    0 -0.70812655171E+02  0.66398459024E+02 -0.93706899762E+02  0.13500466865E+03  0.47000000000E+01 0. -1.
        -13    1    4    4    0    0  0.44615653917E+02 -0.95691912942E+00 -0.67316434343E+02  0.80764934231E+02  0.00000000000E+00 0.  1.
         14    1    4    4    0    0 -0.14967500372E+02 -0.11557429930E+02  0.11914482767E+02  0.22350730494E+02  0.00000000000E+00 0. -1.
         -5    1    5    5    0  503  0.16925958336E+02 -0.57825774094E+02 -0.87946634217E+02  0.10670992777E+03  0.47000000000E+01 0.  1.
         13    1    6    6    0    0  0.54999505781E+02  0.63687467508E+01 -0.32129398209E+03  0.32602964512E+03  0.00000000000E+00 0. -1.
        -14    1    6    6    0    0 -0.30760962490E+02 -0.24270826207E+01 -0.25000088693E+03  0.25189793768E+03  0.00000000000E+00 0.  1.
</event>
<event>
12    1  0.9246030E-003  0.1747651E+03  0.7818608E-02  0.1172990E+00
         21   -1    0    0  501  502  0.00000000000E+00  0.00000000000E+00  0.24698306058E+03  0.24698306058E+03  0.00000000000E+00 0.  1.
         21   -1    0    0  502  503 -0.00000000000E+00 -0.00000000000E+00 -0.13255765652E+03  0.13255765652E+03  0.00000000000E+00 0.  1.
          6    2    1    2  501    0 -0.24447447565E+02 -0.12951209493E+02  0.10655337429E+03  0.20468627476E+03  0.17256140351E+03 0.  0.
         24    2    3    3    0    0  0.42269797953E+02  0.28933870796E+02  0.29044468037E+02  0.94073113929E+02  0.73363921259E+02 0.  0.
         -6    2    1    2    0  503  0.24447447565E+02  0.12951209493E+02  0.78720297658E+01  0.17485444234E+03  0.17247230396E+03 0.  0.
        -24    2    5    5    0    0  0.37754262862E+02  0.51590644553E+02 -0.40782976781E+02  0.11114041768E+03  0.81252460138E+02 0.  0.
          5    1    3    3  501    0 -0.66717245518E+02 -0.41885080289E+02  0.77508906254E+02  0.11061316083E+03  0.47000000000E+01 0. -1.
        -11    1    4    4    0    0  0.53914350624E+01  0.59850804865E+01  0.46550503738E+02  0.47242334391E+02  0.00000000000E+00 0.  1.
         12    1    4    4    0    0  0.36878362890E+02  0.22948790309E+02 -0.17506035701E+02  0.46830779538E+02  0.00000000000E+00 0. -1.
         -5    1    5    5    0  503 -0.13306815297E+02 -0.38639435060E+02  0.48655006547E+02  0.63714024651E+02  0.47000000000E+01 0.  1.
         13    1    6    6    0    0  0.18397433104E+02  0.25750690497E+02  0.23356658687E+02  0.39333155365E+02  0.00000000000E+00 0. -1.
        -14    1    6    6    0    0  0.19356829757E+02  0.25839954056E+02 -0.64139635469E+02  0.71807262320E+02  0.00000000000E+00 0.  1.
</event>
<event>
12    1  0.9246030E-003  0.2124442E+03  0.7818608E-02  0.1139946E+00
         21   -1    0    0  501  502  0.00000000000E+00  0.00000000000E+00  0.93503489289E+02  0.93503489289E+02  0.00000000000E+00 0.  1.
         21   -1    0    0  502  503 -0.00000000000E+00 -0.00000000000E+00 -0.53712503979E+03  0.53712503979E+03  0.00000000000E+00 0. -1.
          6    2    1    2  501    0  0.41461483631E+00  0.12251135481E+03 -0.11897909901E+03  0.24349242923E+03  0.17356074765E+03 0.  0.
         24    2    3    3    0    0  0.62747289278E+02  0.10393752138E+03 -0.66565951314E+02  0.15982895068E+03  0.79837565956E+02 0.  0.
         -6    2    1    2    0  503 -0.41461483631E+00 -0.12251135481E+03 -0.32464245149E+03  0.38713609985E+03  0.17167537545E+03 0.  0.
        -24    2    5    5    0    0  0.62686396006E+02 -0.75681303860E+02 -0.24112142651E+03  0.27236396536E+03  0.79908343169E+02 0.  0.
          5    1    3    3  501    0 -0.62332674442E+02  0.18573833429E+02 -0.52413147699E+02  0.83663478550E+02  0.47000000000E+01 0. -1.
        -11    1    4    4    0    0  0.44520373855E+02  0.51097242445E+01 -0.20378079581E+02  0.49228437894E+02  0.00000000000E+00 0.  1.
         12    1    4    4    0    0  0.18226915423E+02  0.98827797139E+02 -0.46187871733E+02  0.11060051279E+03  0.00000000000E+00 0. -1.
         -5    1    5    5    0  503 -0.63101010842E+02 -0.46830050953E+02 -0.83521024984E+02  0.11477213449E+03  0.47000000000E+01 0.  1.
         11    1    6    6    0    0 -0.22899547720E+01 -0.50573258401E+02 -0.14553276390E+03  0.15408661112E+03  0.00000000000E+00 0. -1.
        -12    1    6    6    0    0  0.64976350778E+02 -0.25108045459E+02 -0.95588662607E+02  0.11827735424E+03  0.00000000000E+00 0.  1.
</event>
<event>
12    1  0.9246030E-003  0.1839032E+03  0.7818608E-02  0.1164223E+00
         21   -1    0    0  501  502  0.00000000000E+00  0.00000000000E+00  0.36108285702E+03  0.36108285702E+03  0.00000000000E+00 0.  1.
         21   -1    0    0  502  503 -0.00000000000E+00 -0.00000000000E+00 -0.93807094012E+02  0.93807094012E+02  0.00000000000E+00 0.  1.
          6    2    1    2  501    0 -0.78344316449E+01 -0.64237038462E+02  0.14928220540E+03  0.23638853509E+03  0.17148348971E+03 0.  0.
         24    2    3    3    0    0  0.28618283388E+02 -0.30851798361E+02  0.16201969955E+03  0.18512735633E+03  0.79062730872E+02 0.  0.
         -6    2    1    2    0  503  0.78344316449E+01  0.64237038462E+02  0.11799355760E+03  0.21850141594E+03  0.17214126089E+03 0.  0.
        -24    2    5    5    0    0 -0.60351541389E+02  0.51664735039E+02  0.56822895850E+02  0.12591994052E+03  0.79469720854E+02 0.  0.
          5    1    3    3  501    0 -0.36452715033E+02 -0.33385240101E+02 -0.12737494155E+02  0.51261178754E+02  0.47000000000E+01 0. -1.
        -13    1    4    4    0    0  0.48598174517E+02 -0.41516133404E+02  0.13816970651E+03  0.15223744512E+03  0.00000000000E+00 0.  1.
         14    1    4    4    0    0 -0.19979891129E+02  0.10664335043E+02  0.23849993042E+02  0.32889911212E+02  0.00000000000E+00 0. -1.
         -5    1    5    5    0  503  0.68185973034E+02  0.12572303422E+02  0.61170661755E+02  0.92581475423E+02  0.47000000000E+01 0.  1.
         13    1    6    6    0    0 -0.32125996555E+01 -0.15883159638E+02  0.28920029339E+02  0.33150620712E+02  0.00000000000E+00 0. -1.
        -14    1    6    6    0    0 -0.57138941733E+02  0.67547894677E+02  0.27902866510E+02  0.92769319806E+02  0.00000000000E+00 0.  1.
</event>
<event>
12    1  0.9246030E-003  0.2107634E+03  0.7818608E-02  0.1142360E+00
         21   -1    0    0  503  502  0.00000000000E+00  0.00000000000E+00  0.53402818803E+03  0.53402818803E+03  0.00000000000E+00 0.  1.
         21   -1    0    0  501  503 -0.00000000000E+00 -0.00000000000E+00 -0.85128018323E+02  0.85128018323E+02  0.00000000000E+00 0. -1.
          6    2    1    2  501    0 -0.88939447743E+02 -0.82033080765E+02  0.15549459766E+03  0.26191555971E+03  0.17257328535E+03 0.  0.
         24    2    3    3    0    0  0.16079507396E+02 -0.30416565136E+02  0.40340975861E+02  0.97672775285E+02  0.82029620904E+02 0.  0.
         -6    2    1    2    0  502  0.88939447743E+02  0.82033080765E+02  0.29340557205E+03  0.35724064664E+03  0.16399511638E+03 0.  0.
        -24    2    5    5    0    0  0.56290586472E+02  0.57324176548E+01  0.23947000220E+03  0.25815040984E+03  0.78065750554E+02 0.  0.
          5    1    3    3  501    0 -0.10501895514E+03 -0.51616515629E+02  0.11515362180E+03  0.16424278443E+03  0.47000000000E+01 0. -1.
        -11    1    4    4    0    0 -0.11178629888E+02  0.17170988129E+02  0.37530815131E+02  0.42759404625E+02  0.00000000000E+00 0.  1.
         12    1    4    4    0    0  0.27258137284E+02 -0.47587553264E+02  0.28101607296E+01  0.54913370659E+02  0.00000000000E+00 0. -1.
         -5    1    5    5    0  502  0.32648861271E+02  0.76300663110E+02  0.53935569844E+02  0.99090236793E+02  0.47000000000E+01 0.  1.
         11    1    6    6    0    0  0.32283474589E+01  0.31422728504E+02  0.45286053491E+02  0.55214461283E+02  0.00000000000E+00 0. -1.
        -12    1    6    6    0    0  0.53062239014E+02 -0.25690310850E+02  0.19418394871E+03  0.20293594856E+03  0.00000000000E+00 0.  1.
</event>
<event>
12    1  0.9246030E-003  0.2019718E+03  0.7818608E-02  0.1148436E+00
         21   -1    0    0  503  502  0.00000000000E+00  0.00000000000E+00  0.52946815775E+03  0.52946815775E+03  0.00000000000E+00 0.  1.
         21   -1    0    0  501  503 -0.00000000000E+00 -0.00000000000E+00 -0.77950226805E+02  0.77950226805E+02  0.00000000000E+00 0. -1.
          6    2    1    2  501    0  0.99970579044E+02  0.34884155566E+02  0.26757480367E+03  0.33423767356E+03  0.17002213350E+03 0.  0.
         24    2    3    3    0    0 -0.17935079330E+01 -0.30430292722E+01  0.63521961311E+02  0.10303634738E+03  0.81049198732E+02 0.  0.
         -6    2    1    2    0  502 -0.99970579044E+02 -0.34884155566E+02  0.18394312727E+03  0.27318071099E+03  0.17199304000E+03 0.  0.
        -24    2    5    5    0    0 -0.36294213582E+02 -0.53690055448E+02  0.32125743237E+02  0.10741295333E+03  0.79407727397E+02 0.  0.
          5    1    3    3  501    0  0.10176408698E+03  0.37927184838E+02  0.20405284236E+03  0.23120132617E+03  0.47000000000E+01 0. -1.
        -11    1    4    4    0    0 -0.55351105242E+01 -0.33348628332E+02  0.64130312255E+02  0.72494588833E+02  0.00000000000E+00 0.  1.
         12    1    4    4    0    0  0.37416025912E+01  0.30305599060E+02 -0.60835094418E+00  0.30541758548E+02  0.00000000000E+00 0. -1.
         -5    1    5    5    0  502 -0.63676365462E+02  0.18805899882E+02  0.15181738403E+03  0.16576775767E+03  0.47000000000E+01 0.  1.
         13    1    6    6    0    0 -0.34697608339E+02 -0.15208232408E+02 -0.19812705777E+02  0.42752282601E+02  0.00000000000E+00 0. -1.
        -14    1    6    6    0    0 -0.15966052436E+01 -0.38481823040E+02  0.51938449014E+02  0.64660670726E+02  0.00000000000E+00 0.  1.
</event>
<event>
12    1  0.9246030E-003  0.2245399E+03  0.7818608E-02  0.1132683E+00
         21   -1    0    0  503  502  0.00000000000E+00  0.00000000000E+00  0.82392015337E+03  0.82392015337E+03  0.00000000000E+00 0. -1.
         21   -1    0    0  501  503 -0.00000000000E+00 -0.00000000000E+00 -0.58161262681E+02  0.58161262681E+02  0.00000000000E+00 0. -1.
          6    2    1    2  501    0  0.11380745721E+03  0.52259006458E+02  0.37958760365E+03  0.44102711647E+03  0.18637335525E+03 0.  0.
         24    2    3    3    0    0  0.51293586748E+02 -0.34726431236E+02  0.96723046698E+02  0.13852273973E+03  0.77435422068E+02 0.  0.
         -6    2    1    2    0  502 -0.11380745721E+03 -0.52259006458E+02  0.38617128704E+03  0.44105429958E+03  0.17238761897E+03 0.  0.
        -24    2    5    5    0    0 -0.12524031237E+03 -0.33850002215E+02  0.39015454316E+03  0.41852525291E+03  0.78178393955E+02 0.  0.
          5    1    3    3  501    0  0.62513870457E+02  0.86985437694E+02  0.28286455695E+03  0.30250437675E+03  0.47000000000E+01 0. -1.
        -11    1    4    4    0    0  0.54715704603E+02 -0.38381584788E+02  0.10753222670E+03  0.12661016610E+03  0.00000000000E+00 0.  1.
         12    1    4    4    0    0 -0.34221178548E+01  0.36551535522E+01 -0.10809180001E+02  0.11912573626E+02  0.00000000000E+00 0. -1.
         -5    1    5    5    0  502  0.11432855165E+02 -0.18409004243E+02 -0.39832561240E+01  0.22529046669E+02  0.47000000000E+01 0.  1.
         13    1    6    6    0    0 -0.27406568378E+02  0.22896301289E+02  0.13070226097E+03  0.13549332687E+03  0.00000000000E+00 0. -1.
        -14    1    6    6    0    0 -0.97833743992E+02 -0.56746303504E+02  0.25945228219E+03  0.28303192604E+03  0.00000000000E+00 0.  1.
</event>
<event>
12    1  0.9246030E-003  0.1717925E+03  0.7818608E-02  0.1176024E+00
         21   -1    0    0  503  502  0.00000000000E+00  0.00000000000E+00  0.13807726024E+03  0.13807726024E+03  0.00000000000E+00 0. -1.
         21   -1    0    0  501  503 -0.00000000000E+00 -0.00000000000E+00 -0.22545367664E+03  0.22545367664E+03  0.00000000000E+00 0. -1.
          6    2    1    2  501    0 -0.86136345749E+01 -0.39470593514E+01 -0.85409204386E+02  0.19185249986E+03  0.17153097543E+03 0.  0.
         24    2    3    3    0    0 -0.15281012588E+02  0.26314921009E+02  0.15220131938E+02  0.86455181517E+02  0.79478686335E+02 0.  0.
         -6    2    1    2    0  502  0.86136345749E+01  0.39470593514E+01 -0.19672120196E+01  0.17167843702E+03  0.17140548952E+03 0.  0.
        -24    2    5    5    0    0  0.66708674201E+02  0.19846548755E+02  0.58900101020E+01  0.11075509722E+03  0.85953863386E+02 0.  0.
          5    1    3    3  501    0  0.66673780131E+01 -0.30261980361E+02 -0.10062933632E+03  0.10539731834E+03  0.47000000000E+01 0. -1.
        -11    1    4    4    0    0 -0.77595290905E+01 -0.23940919516E+02  0.24128210386E+02  0.34864716483E+02  0.00000000000E+00 0.  1.
         12    1    4    4    0    0 -0.75214834975E+01  0.50255840525E+02 -0.89080784480E+01  0.51590465035E+02  0.00000000000E+00 0. -1.
         -5    1    5    5    0  502 -0.58095039626E+02 -0.15899489404E+02 -0.78572221216E+01  0.60923339796E+02  0.47000000000E+01 0.  1.
         11    1    6    6    0    0  0.33428767795E+02 -0.15791782163E+02 -0.32084131707E+02  0.48951551636E+02  0.00000000000E+00 0. -1.
        -12    1    6    6    0    0  0.33279906406E+02  0.35638330918E+02  0.37974141809E+02  0.61803545588E+02  0.00000000000E+00 0.  1.
</event>
<event>
12    1  0.9246030E-003  0.1822069E+03  0.7818608E-02  0.1166383E+00
         21   -1    0    0  501  502  0.00000000000E+00  0.00000000000E+00  0.26087266201E+03  0.26087266201E+03  0.00000000000E+00 0. -1.
         21   -1    0    0  502  503 -0.00000000000E+00 -0.00000000000E+00 -0.14468782469E+03  0.14468782469E+03  0.00000000000E+00 0. -1.
          6    2    1    2  501    0 -0.35423121029E+02 -0.32099621746E+02  0.13283977268E+03  0.22549000733E+03  0.17582421613E+03 0.  0.
         24    2    3    3    0    0 -0.10969545333E+02 -0.80859082509E+02  0.44656677894E+02  0.12169303923E+03  0.78463079016E+02 0.  0.
         -6    2    1    2    0  503  0.35423121029E+02  0.32099621746E+02 -0.16654935363E+02  0.18007047937E+03  0.17280858616E+03 0.  0.
        -24    2    5    5    0    0 -0.54380349889E-01  0.83461186388E+02 -0.22611734844E+02  0.11718775610E+03  0.79094292058E+02 0.  0.
          5    1    3    3  501    0 -0.24453575696E+02  0.48759460763E+02  0.88183094790E+02  0.10379696809E+03  0.47000000000E+01 0. -1.
        -13    1    4    4    0    0  0.10535031653E+02 -0.79045464273E+02  0.55874120958E+02  0.97370887369E+02  0.00000000000E+00 0.  1.
         14    1    4    4    0    0 -0.21504576987E+02 -0.18136182360E+01 -0.11217443064E+02  0.24322151866E+02  0.00000000000E+00 0. -1.
         -5    1    5    5    0  503  0.35477501379E+02 -0.51361564642E+02  0.59567994807E+01  0.62882723276E+02  0.47000000000E+01 0.  1.
         11    1    6    6    0    0  0.36446297352E+02  0.62399211025E+02 -0.19928489519E+02  0.74960915294E+02  0.00000000000E+00 0. -1.
        -12    1    6    6    0    0 -0.36500677701E+02  0.21061975364E+02 -0.26832453249E+01  0.42226840805E+02  0.00000000000E+00 0.  1.
</event>
<event>
12    1  0.9246030E-003  0.1816767E+03  0.7818608E-02  0.1167293E+00
         21   -1    0    0  501  502  0.00000000000E+00  0.00000000000E+00  0.11921208965E+03  0.11921208965E+03  0.00000000000E+00 0.  1.
         21   -1    0    0  502  503 -0.00000000000E+00 -0.00000000000E+00 -0.27627792429E+03  0.27627792429E+03  0.00000000000E+00 0.  1.
          6    2    1    2  501    0 -0.24893032725E+02 -0.35095938763E+02 -0.47699233718E+02  0.18343466260E+03  0.17181871420E+03 0.  0.
         24    2    3    3    0    0  0.87112574695E+01 -0.77923818374E+02 -0.58779629495E+02  0.12768216703E+03  0.81851594110E+02 0.  0.
         -6    2    1    2    0  503  0.24893032725E+02  0.35095938763E+02 -0.10936660092E+03  0.21205535134E+03  0.17650787699E+03 0.  0.
        -24    2    5    5    0    0 -0.16298603520E+02 -0.43096238879E+02 -0.67114460993E+02  0.11398343452E+03  0.79780587787E+02 0.  0.
          5    1    3    3  501    0 -0.33604290195E+02  0.42827879611E+02  0.11080395777E+02  0.55752495568E+02  0.47000000000E+01 0. -1.
        -11    1    4    4    0    0 -0.20121315143E+02 -0.68390745899E+02 -0.12572615804E+02  0.72389447545E+02  0.00000000000E+00 0.  1.
         12    1    4    4    0    0  0.28832572612E+02 -0.95330724754E+01 -0.46207013692E+02  0.55292719490E+02  0.00000000000E+00 0. -1.
         -5    1    5    5    0  503  0.41191636246E+02  0.78192177643E+02 -0.42252139931E+02  0.98071916826E+02  0.47000000000E+01 0.  1.
         13    1    6    6    0    0 -0.18212121342E+02 -0.12411002427E+02  0.14761215124E+02  0.26525606816E+02  0.00000000000E+00 0. -1.
        -14    1    6    6    0    0  0.19135178218E+01 -0.30685236452E+02 -0.81875676117E+02  0.87457827701E+02  0.00000000000E+00 0.  1.
</event>
<event>
12    1  0.9246030E-003  0.1781213E+03  0.7818608E-02  0.1170073E+00
         21   -1    0    0  503  502  0.00000000000E+00  0.00000000000E+00  0.49015817274E+03  0.49015817274E+03  0.00000000000E+00 0.  1.
         21   -1    0    0  501  503 -0.00000000000E+00 -0.00000000000E+00 -0.64121390299E+02  0.64121390299E+02  0.00000000000E+00 0.  1.
          6    2    1    2  501    0 -0.41145611196E+02  0.83370840017E+00  0.21878164442E+03  0.28099971486E+03  0.17146945916E+03 0.  0.
         24    2    3    3    0    0 -0.74498291271E+02 -0.27649579844E+02  0.90694789154E+02  0.14553004493E+03  0.81479779887E+02 0.  0.
         -6    2    1    2    0  502  0.41145611196E+02 -0.83370840017E+00  0.20725513802E+03  0.27327984818E+03  0.17330183725E+03 0.  0.
        -24    2    5    5    0    0 -0.22456930959E+02 -0.38929112345E+02  0.16484437271E+03  0.18773859389E+03  0.77796676585E+02 0.  0.
          5    1    3    3  501    0  0.33352680076E+02  0.28483288244E+02  0.12808685527E+03  0.13546966993E+03  0.47000000000E+01 0. -1.
        -11    1    4    4    0    0 -0.14643651021E+02 -0.42773560885E+02  0.14532127832E+02  0.47488912026E+02  0.00000000000E+00 0.  1.
         12    1    4    4    0    0 -0.59854640250E+02  0.15123981042E+02  0.76162661322E+02  0.98041132907E+02  0.00000000000E+00 0. -1.
         -5    1    5    5    0  502  0.63602542154E+02  0.38095403945E+02  0.42410765308E+02  0.85541254283E+02  0.47000000000E+01 0.  1.
         13    1    6    6    0    0 -0.23608051890E+01 -0.47202954941E+02  0.42759166312E+02  0.63734124769E+02  0.00000000000E+00 0. -1.
        -14    1    6    6    0    0 -0.20096125770E+02  0.82738425959E+01  0.12208520640E+03  0.12400446913E+03  0.00000000000E+00 0.  1.
</event>
<event>
12    1  0.9246030E-003  0.2195596E+03  0.7818608E-02  0.1134657E+00
         21   -1    0    0  503  502  0.00000000000E+00  0.00000000000E+00  0.53407832530E+03  0.53407832530E+03  0.00000000000E+00 0.  1.
         21   -1    0    0  501  503 -0.00000000000E+00 -0.00000000000E+00 -0.14638895708E+03  0.14638895708E+03  0.00000000000E+00 0.  1.
          6    2    1    2  501    0 -0.12514706691E+03 -0.45098929370E+02 -0.18002191827E+02  0.22029638600E+03  0.17467317192E+03 0.  0.
         24    2    3    3    0    0 -0.11802942061E+03 -0.70211999851E+02 -0.61078305392E+02  0.16971013533E+03  0.78805466752E+02 0.  0.
         -6    2    1    2    0  502  0.12514706691E+03  0.45098929370E+02  0.40569156005E+03  0.46017089637E+03  0.17168549789E+03 0.  0.
        -24    2    5    5    0    0  0.15095488969E+03  0.66565847203E+02  0.34923206757E+03  0.39431775241E+03  0.79404421229E+02 0.  0.
          5    1    3    3  501    0 -0.71176462962E+01  0.25113070482E+02  0.43076113564E+02  0.50586250678E+02  0.47000000000E+01 0. -1.
        -13    1    4    4    0    0 -0.57931083688E+02  0.56978096139E+01 -0.39980572069E+02  0.70618139557E+02  0.00000000000E+00 0.  1.
         14    1    4    4    0    0 -0.60098336922E+02 -0.75909809465E+02 -0.21097733323E+02  0.99091995768E+02  0.00000000000E+00 0. -1.
         -5    1    5    5    0  502 -0.25807822789E+02 -0.21466917833E+02  0.56459492482E+02  0.65853143962E+02  0.47000000000E+01 0.  1.
         13    1    6    6    0    0  0.61070385178E+02  0.61470676410E+02  0.11978310083E+03  0.14783851747E+03  0.00000000000E+00 0. -1.
        -14    1    6    6    0    0  0.89884504517E+02  0.50951707925E+01  0.22944896674E+03  0.24647923494E+03  0.00000000000E+00 0.  1.
</event>
<event>
12    1  0.9246030E-003  0.1963916E+03  0.7818608E-02  0.1152920E+00
         21   -1    0    0  503  502  0.00000000000E+00  0.00000000000E+00  0.27223156486E+04  0.27223156486E+04  0.00000000000E+00 0.  1.
         21   -1    0    0  501  503 -0.00000000000E+00 -0.00000000000E+00 -0.14190992176E+02  0.14190992176E+02  0.00000000000E+00 0. -1.
          6    2    1    2  501    0 -0.41391353715E+02  0.85847469548E+02  0.14420138275E+04  0.14553259178E+04  0.17171667465E+03 0.  0.
         24    2    3    3    0    0 -0.14270908105E+01 -0.11727830591E+02  0.87102918133E+03  0.87466798271E+03  0.78820471041E+02 0.  0.
         -6    2    1    2    0  502  0.41391353715E+02 -0.85847469548E+02  0.12661108289E+04  0.12811807229E+04  0.17118522546E+03 0.  0.
        -24    2    5    5    0    0  0.19761177852E+02  0.17579089697E+02  0.41060508122E+03  0.41916152820E+03  0.80002034091E+02 0.  0.
          5    1    3    3  501    0 -0.39964262904E+02  0.97575300140E+02  0.57098464614E+03  0.58065793513E+03  0.47000000000E+01 0. -1.
        -11    1    4    4    0    0  0.84683981845E+01  0.73164969561E+01  0.16902094316E+02  0.20271302074E+02  0.00000000000E+00 0.  1.
         12    1    4    4    0    0 -0.98954889950E+01 -0.19044327547E+02  0.85412708702E+03  0.85439668064E+03  0.00000000000E+00 0. -1.
         -5    1    5    5    0  502  0.21630175863E+02 -0.10342655925E+03  0.85550574769E+03  0.86201919468E+03  0.47000000000E+01 0.  1.
         13    1    6    6    0    0  0.40154010906E+02  0.37114435716E+02  0.23333134693E+03  0.23965254722E+03  0.00000000000E+00 0. -1.
        -14    1    6    6    0    0 -0.20392833053E+02 -0.19535346019E+02  0.17727373429E+03  0.17950898098E+03  0.00000000000E+00 0.  1.
</event>
<event>
12    1  0.9246030E-003  0.1939524E+03  0.7818608E-02  0.1158207E+00
         21   -1    0    0  503  502  0.00000000000E+00  0.00000000000E+00  0.57819653948E+03  0.57819653948E+03  0.00000000000E+00 0.  1.
         21   -1    0    0  501  503 -0.00000000000E+00 -0.00000000000E+00 -0.72272670963E+02  0.72272670963E+02  0.00000000000E+00 0.  1.
          6    2    1    2  501    0 -0.13892233975E+02 -0.57474106851E+02  0.12907733397E+03  0.23297743683E+03  0.18471941101E+03 0.  0.
         24    2    3    3    0    0  0.27712606400E+02  0.14950260290E+01 -0.19532653716E+01  0.83313047818E+02  0.78530408345E+02 0.  0.
         -6    2    1    2    0  502  0.13892233975E+02  0.57474106851E+02  0.37684653454E+03  0.41749177361E+03  0.16967558254E+03 0.  0.
        -24    2    5    5    0    0  0.19856614235E+02  0.21365053101E+02  0.68772096598E+02  0.10721546624E+03  0.76907764945E+02 0.  0.
          5    1    3    3  501    0 -0.41604840375E+02 -0.58969132880E+02  0.13103059934E+03  0.14966438901E+03  0.47000000000E+01 0. -1.
        -13    1    4    4    0    0  0.26955014107E+02 -0.33422799231E+02 -0.15785639328E+02  0.45747597784E+02  0.00000000000E+00 0.  1.
         14    1    4    4    0    0  0.75759229209E+00  0.34917825260E+02  0.13832373957E+02  0.37565450034E+02  0.00000000000E+00 0. -1.
         -5    1    5    5    0  502 -0.59643802598E+01  0.36109053750E+02  0.30807443795E+03  0.31027630736E+03  0.47000000000E+01 0.  1.
         13    1    6    6    0    0  0.18165173850E+02  0.49754435883E+02  0.37211911837E+02  0.64731783643E+02  0.00000000000E+00 0. -1.
        -14    1    6    6    0    0  0.16914403852E+01 -0.28389382782E+02  0.31560184760E+02  0.42483682602E+02  0.00000000000E+00 0.  1.
</event>
<event>
12    1  0.9246030E-003  0.3065771E+03  0.7818608E-02  0.1082124E+00
         21   -1    0    0  503  502  0.00000000000E+00  0.00000000000E+00  0.18581994086E+03  0.18581994086E+03  0.00000000000E+00 0. -1.
         21   -1    0    0  501  503 -0.00000000000E+00 -0.00000000000E+00 -0.67771516314E+03  0.67771516314E+03  0.00000000000E+00 0. -1.
          6    2    1    2  501    0 -0.42161126779E+02 -0.24966305346E+03 -0.46416655252E+03  0.55570655686E+03  0.17102627862E+03 0.  0.
         24    2    3    3    0    0 -0.37243354580E+02 -0.41613139137E+02 -0.15129376777E+03  0.17991350108E+03  0.79751757937E+02 0.  0.
         -6    2    1    2    0  502  0.42161126779E+02  0.24966305346E+03 -0.27728669752E+02  0.30782854714E+03  0.17285929085E+03 0.  0.
        -24    2    5    5    0    0  0.40238391488E+02  0.13782477730E+03  0.50308321727E+02  0.17136111892E+03  0.78860056141E+02 0.  0.
          5    1    3    3  501    0 -0.49177721986E+01 -0.20804991432E+03 -0.31287278475E+03  0.37579305578E+03  0.47000000000E+01 0. -1.
        -13    1    4    4    0    0 -0.51326283885E+00  0.22984573622E+02 -0.33108203259E+02  0.40307656672E+02  0.00000000000E+00 0.  1.
         14    1    4    4    0    0 -0.36730091741E+02 -0.64597712759E+02 -0.11818556451E+03  0.13960584441E+03  0.00000000000E+00 0. -1.
         -5    1    5    5    0  502  0.19227352905E+01  0.11183827616E+03 -0.78036991480E+02  0.13646742822E+03  0.47000000000E+01 0.  1.
         11    1    6    6    0    0 -0.39585553452E+01  0.81922075198E+02 -0.34574727410E+01  0.82090503000E+02  0.00000000000E+00 0. -1.
        -12    1    6    6    0    0  0.44196946833E+02  0.55902702107E+02  0.53765794468E+02  0.89270615922E+02  0.00000000000E+00 0.  1.
</event>
<event>
12    1  0.9246030E-003  0.1935131E+03  0.7818608E-02  0.1155437E+00
         21   -1    0    0  501  502  0.00000000000E+00  0.00000000000E+00  0.11721591429E+03  0.11721591429E+03  0.00000000000E+00 0. -1.
         21   -1    0    0  502  503 -0.00000000000E+00 -0.00000000000E+00 -0.35507203089E+03  0.35507203089E+03  0.00000000000E+00 0.  1.
          6    2    1    2  501    0 -0.81638103282E+02 -0.34439916135E+02 -0.43459558680E+02  0.19833320964E+03  0.17203616212E+03 0.  0.
         24    2    3    3    0    0  0.94539097815E+01 -0.46785371680E+02  0.88418148832E+01  0.92466837299E+02  0.78700005694E+02 0.  0.
         -6    2    1    2    0  503  0.81638103282E+02  0.34439916135E+02 -0.19439655792E+03  0.27395473554E+03  0.17149427881E+03 0.  0.
        -24    2    5    5    0    0 -0.99542140434E+01  0.51590438845E+02 -0.12524930331E+03  0.15782237209E+03  0.80373213160E+02 0.  0.
          5    1    3    3  501    0 -0.91092013063E+02  0.12345455545E+02 -0.52301373564E+02  0.10586637234E+03  0.47000000000E+01 0. -1.
        -13    1    4    4    0    0 -0.22997718921E+02 -0.23378466891E+02 -0.24052380354E+02  0.40668965938E+02  0.00000000000E+00 0.  1.
         14    1    4    4    0    0  0.32451628703E+02 -0.23406904789E+02  0.32894195237E+02  0.51797871361E+02  0.00000000000E+00 0. -1.
         -5    1    5    5    0  503  0.91592317325E+02 -0.17150522710E+02 -0.69147254605E+02  0.11613236346E+03  0.47000000000E+01 0.  1.
         13    1    6    6    0    0 -0.36594715370E+02 -0.39799894745E+00 -0.59659773708E+02  0.69990143556E+02  0.00000000000E+00 0. -1.
        -14    1    6    6    0    0  0.26640501327E+02  0.51988437793E+02 -0.65589529604E+02  0.87832228531E+02  0.00000000000E+00 0.  1.
</event>
<event>
12    1  0.9246030E-003  0.1808976E+03  0.7818608E-02  0.1167498E+00
         21   -1    0    0  501  502  0.00000000000E+00  0.00000000000E+00  0.15100384048E+03  0.15100384048E+03  0.00000000000E+00 0.  1.
         21   -1    0    0  502  503 -0.00000000000E+00 -0.00000000000E+00 -0.21425292434E+03  0.21425292434E+03  0.00000000000E+00 0.  1.
          6    2    1    2  501    0 -0.15109707140E+02  0.54067864102E+02 -0.24857781368E+02  0.18259751278E+03  0.17196600013E+03 0.  0.
         24    2    3    3    0    0  0.46488575867E+02  0.69878365761E+02 -0.65268481789E+01  0.11624667598E+03  0.80165555209E+02 0.  0.
         -6    2    1    2    0  503  0.15109707140E+02 -0.54067864102E+02 -0.38391302489E+02  0.18265925204E+03  0.16952543488E+03 0.  0.
        -24    2    5    5    0    0 -0.48179341722E+02 -0.55589653716E+02  0.37498834392E+01  0.10646352315E+03  0.76869770173E+02 0.  0.
          5    1    3    3  501    0 -0.61598283006E+02 -0.15810501659E+02 -0.18330933190E+02  0.66350836796E+02  0.47000000000E+01 0. -1.
        -11    1    4    4    0    0  0.59743969410E+02  0.18866328391E+02 -0.99151273386E+01  0.63431774199E+02  0.00000000000E+00 0.  1.
         12    1    4    4    0    0 -0.13255393544E+02  0.51012037369E+02  0.33882791597E+01  0.52814901782E+02  0.00000000000E+00 0. -1.
         -5    1    5    5    0  503  0.63289048862E+02  0.15217896142E+01 -0.42141185928E+02  0.76195728888E+02  0.47000000000E+01 0.  1.
         11    1    6    6    0    0 -0.66257680645E+02 -0.27162745418E+02  0.96684211665E+01  0.72259071064E+02  0.00000000000E+00 0. -1.
        -12    1    6    6    0    0  0.18078338923E+02 -0.28426908298E+02 -0.59185377273E+01  0.34204452085E+02  0.00000000000E+00 0.  1.
</event>
<event>
12    1  0.9246030E-003  0.1883229E+03  0.7818608E-02  0.1160340E+00
         21   -1    0    0  501  502  0.00000000000E+00  0.00000000000E+00  0.13242117992E+03  0.13242117992E+03  0.00000000000E+00 0. -1.
         21   -1    0    0  502  503 -0.00000000000E+00 -0.00000000000E+00 -0.32238800543E+03  0.32238800543E+03  0.00000000000E+00 0. -1.
          6    2    1    2  501    0 -0.46873587828E+02 -0.56198753967E+02  0.12484895620E+00  0.18832291059E+03  0.17352253422E+03 0.  0.
         24    2    3    3    0    0  0.11543831560E+02 -0.58359844089E+02  0.49661151966E+02  0.11155572675E+03  0.80245365648E+02 0.  0.
         -6    2    1    2    0  503  0.46873587828E+02  0.56198753967E+02 -0.19009167446E+03  0.26648627476E+03  0.17182740396E+03 0.  0.
        -24    2    5    5    0    0  0.21700619825E+02  0.16321523998E+02 -0.20096741109E+03  0.21786278831E+03  0.79617744023E+02 0.  0.
          5    1    3    3  501    0 -0.58417419388E+02  0.21610901218E+01 -0.49536303010E+02  0.76767183837E+02  0.47000000000E+01 0. -1.
        -11    1    4    4    0    0 -0.25288846794E+01  0.62658907167E+01 -0.16606897980E+02  0.17928906958E+02  0.00000000000E+00 0.  1.
         12    1    4    4    0    0  0.14072716239E+02 -0.64625734806E+02  0.66268049946E+02  0.93626819796E+02  0.00000000000E+00 0. -1.
         -5    1    5    5    0  503  0.25172968002E+02  0.39877229969E+02  0.10875736622E+02  0.48623486456E+02  0.47000000000E+01 0.  1.
         13    1    6    6    0    0 -0.25235889509E+01 -0.29388622045E+02 -0.47527577610E+02  0.55936841530E+02  0.00000000000E+00 0. -1.
        -14    1    6    6    0    0  0.24224208776E+02  0.45710146043E+02 -0.15343983348E+03  0.16192594678E+03  0.00000000000E+00 0.  1.
</event>
<event>
12    1  0.9246030E-003  0.1854486E+03  0.7818608E-02  0.1162795E+00
         21   -1    0    0  503  502  0.00000000000E+00  0.00000000000E+00  0.12681233255E+04  0.12681233255E+04  0.00000000000E+00 0. -1.
         21   -1    0    0  501  503 -0.00000000000E+00 -0.00000000000E+00 -0.35883947531E+02  0.35883947531E+02  0.00000000000E+00 0. -1.
          6    2    1    2  501    0  0.65217879755E+02 -0.24560838458E+02  0.29289801624E+03  0.34667046823E+03  0.17185621607E+03 0.  0.
         24    2    3    3    0    0  0.64454502568E+02 -0.79242049274E+02  0.18916807388E+03  0.22931371085E+03  0.79790554172E+02 0.  0.
         -6    2    1    2    0  502 -0.65217879755E+02  0.24560838458E+02  0.93934136177E+03  0.95733680484E+03  0.17109926166E+03 0.  0.
        -24    2    5    5    0    0  0.40871139134E+01  0.33871659978E+02  0.75381037342E+03  0.75900952183E+03  0.81861965000E+02 0.  0.
          5    1    3    3  501    0  0.76337718613E+00  0.54681210816E+02  0.10372994236E+03  0.11735675738E+03  0.47000000000E+01 0. -1.
        -11    1    4    4    0    0 -0.14825203965E+02 -0.16910418181E+02  0.68251605925E+02  0.71861189991E+02  0.00000000000E+00 0.  1.
         12    1    4    4    0    0  0.79279706534E+02 -0.62331631093E+02  0.12091646796E+03  0.15745252086E+03  0.00000000000E+00 0. -1.
         -5    1    5    5    0  502 -0.69304993668E+02 -0.93108215205E+01  0.18553098835E+03  0.19832728300E+03  0.47000000000E+01 0.  1.
         11    1    6    6    0    0 -0.12838535619E+02  0.55664285288E+02  0.60263680713E+03  0.60533830373E+03  0.00000000000E+00 0. -1.
        -12    1    6    6    0    0  0.16925649532E+02 -0.21792625310E+02  0.15117356629E+03  0.15367121810E+03  0.00000000000E+00 0.  1.
</event>
<event>
12    1  0.9246030E-003  0.2080241E+03  0.7818608E-02  0.1143470E+00
         21   -1    0    0  501  502  0.00000000000E+00  0.00000000000E+00  0.95178545995E+03  0.95178545995E+03  0.00000000000E+00 0. -1.
         21   -1    0    0  502  503 -0.00000000000E+00 -0.00000000000E+00 -0.49912241576E+02  0.49912241576E+02  0.00000000000E+00 0.  1.
          6    2    1    2  501    0  0.11157278095E+03 -0.30511077449E+02  0.60469237456E+03  0.63894367108E+03  0.17092903694E+03 0.  0.
         24    2    3    3    0    0  0.62749471268E+02  0.17965668197E+02  0.17089221109E+03  0.19969615286E+03  0.80088352952E+02 0.  0.
         -6    2    1    2    0  503 -0.11157278095E+03  0.30511077449E+02  0.29718084382E+03  0.36275403044E+03  0.17290061127E+03 0.  0.
        -24    2    5    5    0    0 -0.10895722696E+03 -0.25687869646E+02  0.26259430208E+03  0.29654616349E+03  0.80326307280E+02 0.  0.
          5    1    3    3  501    0  0.48823309679E+02 -0.48476745646E+02  0.43380016347E+03  0.43924751822E+03  0.47000000000E+01 0. -1.
        -11    1    4    4    0    0  0.63739286925E+02  0.31091866787E+02  0.17242883784E+03  0.18644330237E+03  0.00000000000E+00 0.  1.
         12    1    4    4    0    0 -0.98981565699E+00 -0.13126198591E+02 -0.15366267517E+01  0.13252850496E+02  0.00000000000E+00 0. -1.
         -5    1    5    5    0  503 -0.26155539821E+01  0.56198947095E+02  0.34586541734E+02  0.66207866952E+02  0.47000000000E+01 0.  1.
         13    1    6    6    0    0 -0.97163567366E+02 -0.18194180294E+02  0.13049188666E+03  0.16370680959E+03  0.00000000000E+00 0. -1.
        -14    1    6    6    0    0 -0.11793659599E+02 -0.74936893515E+01  0.13210241542E+03  0.13283935391E+03  0.00000000000E+00 0.  1.
</event>
<event>
12    1  0.9246030E-003  0.1862844E+03  0.7818608E-02  0.1161953E+00
         21   -1    0    0  501  502  0.00000000000E+00  0.00000000000E+00  0.33782278593E+03  0.33782278593E+03  0.00000000000E+00 0.  1.
         21   -1    0    0  502  503 -0.00000000000E+00 -0.00000000000E+00 -0.10254323474E+03  0.10254323474E+03  0.00000000000E+00 0.  1.
          6    2    1    2  501    0  0.36310412519E+02  0.61793880391E+02  0.12271511590E+03  0.22307147217E+03  0.17194461991E+03 0.  0.
         24    2    3    3    0    0 -0.16043535991E+02 -0.13921339031E+02  0.19060043595E+02  0.84362444378E+02  0.79388525822E+02 0.  0.
         -6    2    1    2    0  503 -0.36310412519E+02 -0.61793880391E+02  0.11256443529E+03  0.21729454851E+03  0.17149122137E+03 0.  0.
        -24    2    5    5    0    0  0.19292071624E+02  0.35139504766E+02  0.75526042542E+02  0.99474134578E+02  0.50832583303E+02 0.  0.
          5    1    3    3  501    0  0.52353948510E+02  0.75715219421E+02  0.10365507230E+03  0.13870902779E+03  0.47000000000E+01 0. -1.
        -13    1    4    4    0    0  0.35656568443E+01  0.23999817734E+02  0.31625267559E+02  0.39860540741E+02  0.00000000000E+00 0.  1.
         14    1    4    4    0    0 -0.19609192835E+02 -0.37921156765E+02 -0.12565223964E+02  0.44501903637E+02  0.00000000000E+00 0. -1.
         -5    1    5    5    0  503 -0.55602484144E+02 -0.96933385156E+02  0.37038392752E+02  0.11782041393E+03  0.47000000000E+01 0.  1.
         11    1    6    6    0    0  0.20745530587E+01 -0.38043714528E+01  0.49247656445E+02  0.49437927524E+02  0.00000000000E+00 0. -1.
        -12    1    6    6    0    0  0.17217518565E+02  0.38943876219E+02  0.26278386097E+02  0.50036207054E+02  0.00000000000E+00 0.  1.
</event>
<event>
12    1  0.9246030E-003  0.2123185E+03  0.7818608E-02  0.1139891E+00
         21   -1    0    0  503  502  0.00000000000E+00  0.00000000000E+00  0.27050538076E+02  0.27050538076E+02  0.00000000000E+00 0. -1.
         21   -1    0    0  501  503 -0.00000000000E+00 -0.00000000000E+00 -0.18529415878E+04  0.18529415878E+04  0.00000000000E+00 0. -1.
          6    2    1    2  501    0  0.53189993890E+02  0.11112054634E+03 -0.12172891333E+04  0.12356666102E+04  0.17292248617E+03 0.  0.
         24    2    3    3    0    0 -0.27632696815E+02  0.29322461580E+02 -0.37498416697E+03  0.38553545543E+03  0.80006807359E+02 0.  0.
         -6    2    1    2    0  502 -0.53189993890E+02 -0.11112054634E+03 -0.60860191641E+03  0.64432551567E+03  0.17199455288E+03 0.  0.
        -24    2    5    5    0    0 -0.36324141997E+02 -0.13539048115E+03 -0.36236837186E+03  0.39628008605E+03  0.77955397480E+02 0.  0.
          5    1    3    3  501    0  0.80822690705E+02  0.81798084757E+02 -0.84230496637E+03  0.85013115481E+03  0.47000000000E+01 0. -1.
        -13    1    4    4    0    0  0.23715154162E+02 -0.83514922810E+01 -0.12997277996E+03  0.13238232318E+03  0.00000000000E+00 0.  1.
         14    1    4    4    0    0 -0.51347850977E+02  0.37673953861E+02 -0.24501138701E+03  0.25315313224E+03  0.00000000000E+00 0. -1.
         -5    1    5    5    0  502 -0.16865851893E+02  0.24269934811E+02 -0.24623354455E+03  0.24804542962E+03  0.47000000000E+01 0.  1.
         13    1    6    6    0    0 -0.51414514016E+02 -0.71088571147E+02 -0.26046675856E+03  0.27484535563E+03  0.00000000000E+00 0. -1.
        -14    1    6    6    0    0  0.15090372020E+02 -0.64301910001E+02 -0.10190161330E+03  0.12143473042E+03  0.00000000000E+00 0.  1.
</event>
<event>
12    1  0.9246030E-003  0.2232006E+03  0.7818608E-02  0.1131778E+00
         21   -1    0    0  501  502  0.00000000000E+00  0.00000000000E+00  0.20159897258E+02  0.20159897258E+02  0.00000000000E+00 0.  1.
         21   -1    0    0  502  503 -0.00000000000E+00 -0.00000000000E+00 -0.26262016270E+04  0.26262016270E+04  0.00000000000E+00 0. -1.
          6    2    1    2  501    0  0.90903393822E+02  0.10926153561E+03 -0.96961559529E+03  0.99497381579E+03  0.17209584917E+03 0.  0.
         24    2    3    3    0    0 -0.13926349224E+01  0.61948947448E+02 -0.30744398618E+03  0.32471239826E+03  0.84123275145E+02 0.  0.
         -6    2    1    2    0  503 -0.90903393822E+02 -0.10926153561E+03 -0.16364261344E+04  0.16513877084E+04  0.17026262066E+03 0.  0.
        -24    2    5    5    0    0 -0.11716754531E+03 -0.12341904786E+03 -0.14912704501E+04  0.15031227311E+04  0.80807762281E+02 0.  0.
          5    1    3    3  501    0  0.92296028744E+02  0.47312588162E+02 -0.66217160911E+03  0.67026141753E+03  0.47000000000E+01 0. -1.
        -11    1    4    4    0    0  0.19543621596E+02  0.28138813955E+02 -0.33567358861E+02  0.47963669342E+02  0.00000000000E+00 0.  1.
         12    1    4    4    0    0 -0.20936256518E+02  0.33810133493E+02 -0.27387662732E+03  0.27674872892E+03  0.00000000000E+00 0. -1.
         -5    1    5    5    0  503  0.26264151485E+02  0.14157512250E+02 -0.14515568434E+03  0.14826497733E+03  0.47000000000E+01 0.  1.
         13    1    6    6    0    0 -0.38591912478E+02 -0.95608383367E+02 -0.71619764465E+03  0.72358093182E+03  0.00000000000E+00 0. -1.
        -14    1    6    6    0    0 -0.78575632829E+02 -0.27810664493E+02 -0.77507280543E+03  0.77954179930E+03  0.00000000000E+00 0.  1.
</event>
<event>
12    1  0.9246030E-003  0.1899343E+03  0.7818608E-02  0.1158752E+00
         21   -1    0    0  503  502  0.00000000000E+00  0.00000000000E+00  0.25808157173E+03  0.25808157173E+03  0.00000000000E+00 0.  1.
         21   -1    0    0  501  503 -0.00000000000E+00 -0.00000000000E+00 -0.14291365603E+03  0.14291365603E+03  0.00000000000E+00 0.  1.
          6    2    1    2  501    0  0.78167805028E+02 -0.31214253518E+01  0.24682217250E+02  0.19153137303E+03  0.17307543433E+03 0.  0.
         24    2    3    3    0    0  0.25110957102E+02  0.61869549418E+02  0.25355879308E+02  0.10749923791E+03  0.80341547303E+02 0.  0.
         -6    2    1    2    0  502 -0.78167805028E+02  0.31214253518E+01  0.90485698451E+02  0.20946385473E+03  0.17195201591E+03 0.  0.
        -24    2    5    5    0    0 -0.57861950594E+02 -0.28523551847E+01 -0.14479223348E+02  0.10228298617E+03  0.83042278954E+02 0.  0.
          5    1    3    3  501    0  0.53056847927E+02 -0.64990974770E+02 -0.67366205770E+00  0.84032135127E+02  0.47000000000E+01 0. -1.
        -11    1    4    4    0    0  0.12306353599E+02 -0.18019954208E+02 -0.24203843100E+01  0.21955030147E+02  0.00000000000E+00 0.  1.
         12    1    4    4    0    0  0.12804603503E+02  0.79889503626E+02  0.27776263618E+02  0.85544207758E+02  0.00000000000E+00 0. -1.
         -5    1    5    5    0  502 -0.20305854435E+02  0.59737805364E+01  0.10496492180E+03  0.10718086857E+03  0.47000000000E+01 0.  1.
         11    1    6    6    0    0  0.11125066711E+01  0.30923065265E+02  0.55382871403E+01  0.31434793795E+02  0.00000000000E+00 0. -1.
        -12    1    6    6    0    0 -0.58974457265E+02 -0.33775420450E+02 -0.20017510488E+02  0.70848192372E+02  0.00000000000E+00 0.  1.
</event>
<event>
12    1  0.9246030E-003  0.2390440E+03  0.7818608E-02  0.1120765E+00
         21   -1    0    0  503  502  0.00000000000E+00  0.00000000000E+00  0.13191591632E+04  0.13191591632E+04  0.00000000000E+00 0. -1.
         21   -1    0    0  501  503 -0.00000000000E+00 -0.00000000000E+00 -0.49069817296E+02  0.49069817296E+02  0.00000000000E+00 0. -1.
          6    2    1    2  501    0  0.56080652460E+02  0.15332297175E+03  0.39592161108E+03  0.46248885073E+03  0.17461111558E+03 0.  0.
         24    2    3    3    0    0  0.40689076828E+02  0.50678453416E+02  0.80237299232E+02  0.13014644825E+03  0.79222264478E+02 0.  0.
         -6    2    1    2    0  502 -0.56080652460E+02 -0.15332297175E+03  0.87416773479E+03  0.90574012973E+03  0.17188071680E+03 0.  0.
        -24    2    5    5    0    0  0.36042934670E+02 -0.58614187294E+02  0.40962882518E+03  0.42275462508E+03  0.78682796832E+02 0.  0.
          5    1    3    3  501    0  0.15391575632E+02  0.10264451834E+03  0.31568431184E+03  0.33234240248E+03  0.47000000000E+01 0. -1.
        -13    1    4    4    0    0 -0.19147862125E+02 -0.15309609505E+01  0.31370721204E+01  0.19463444887E+02  0.00000000000E+00 0.  1.
         14    1    4    4    0    0  0.59836938953E+02  0.52209414366E+02  0.77100227112E+02  0.11068300336E+03  0.00000000000E+00 0. -1.
         -5    1    5    5    0  502 -0.92123587130E+02 -0.94708784457E+02  0.46453890961E+03  0.48298550465E+03  0.47000000000E+01 0.  1.
         11    1    6    6    0    0 -0.44948505778E+01  0.67070881579E+00  0.21897605787E+03  0.21902321213E+03  0.00000000000E+00 0. -1.
        -12    1    6    6    0    0  0.40537785248E+02 -0.59284896110E+02  0.19065276731E+03  0.20373141295E+03  0.00000000000E+00 0.  1.
</event>
<event>
12    1  0.9246030E-003  0.1816998E+03  0.7818608E-02  0.1166307E+00
         21   -1    0    0  501  502  0.00000000000E+00  0.00000000000E+00  0.10700551900E+03  0.10700551900E+03  0.00000000000E+00 0. -1.
         21   -1    0    0  502  503 -0.00000000000E+00 -0.00000000000E+00 -0.30980185991E+03  0.30980185991E+03  0.00000000000E+00 0. -1.
          6    2    1    2  501    0  0.46266130963E+02  0.35246034707E+02 -0.83452165357E+02  0.19941868819E+03  0.17152466720E+03 0.  0.
         24    2    3    3    0    0  0.21996036369E+02 -0.38361827667E+02 -0.52900176093E+01  0.89243526579E+02  0.77336713869E+02 0.  0.
         -6    2    1    2    0  503 -0.46266130963E+02 -0.35246034707E+02 -0.11934417555E+03  0.21738869073E+03  0.17213939927E+03 0.  0.
        -24    2    5    5    0    0 -0.22973736596E+02  0.47266949927E+02 -0.67938950108E+02  0.11731114344E+03  0.79901478739E+02 0.  0.
          5    1    3    3  501    0  0.24270094595E+02  0.73607862374E+02 -0.78162147748E+02  0.11017516161E+03  0.47000000000E+01 0. -1.
        -11    1    4    4    0    0 -0.20833615268E+02 -0.34083659015E+02 -0.18773583955E+02  0.44138223701E+02  0.00000000000E+00 0.  1.
         12    1    4    4    0    0  0.42829651637E+02 -0.42781686517E+01  0.13483566345E+02  0.45105302878E+02  0.00000000000E+00 0. -1.
         -5    1    5    5    0  503 -0.23292394368E+02 -0.82512984634E+02 -0.51405225443E+02  0.10007754729E+03  0.47000000000E+01 0.  1.
         13    1    6    6    0    0 -0.32826767365E+02  0.11504819617E+02 -0.72032329567E+02  0.79991337236E+02  0.00000000000E+00 0. -1.
        -14    1    6    6    0    0  0.98530307689E+01  0.35762130310E+02  0.40933794584E+01  0.37319806203E+02  0.00000000000E+00 0.  1.
</event>
<event>
12    1  0.9246030E-003  0.2005066E+03  0.7818608E-02  0.1150422E+00
         21   -1    0    0  503  502  0.00000000000E+00  0.00000000000E+00  0.35157455259E+02  0.35157455259E+02  0.00000000000E+00 0.  1.
         21   -1    0    0  501  503 -0.00000000000E+00 -0.00000000000E+00 -0.11320897024E+04  0.11320897024E+04  0.00000000000E+00 0. -1.
          6    2    1    2  501    0 -0.93210574188E+02 -0.20621801374E+02 -0.62926655657E+03  0.66043870894E+03  0.17632191928E+03 0.  0.
         24    2    3    3    0    0 -0.69269309397E+02 -0.40384493637E+02 -0.61598963847E+03  0.62634890520E+03  0.80253173047E+02 0.  0.
         -6    2    1    2    0  502  0.93210574188E+02  0.20621801374E+02 -0.46766569055E+03  0.50680844869E+03  0.17038232220E+03 0.  0.
        -24    2    5    5    0    0  0.89595896390E+02 -0.26268680090E+02 -0.19994398573E+03  0.23494674786E+03  0.80653014194E+02 0.  0.
          5    1    3    3  501    0 -0.23941264791E+02  0.19762692263E+02 -0.13276918098E+02  0.34089803746E+02  0.47000000000E+01 0. -1.
        -11    1    4    4    0    0 -0.57527800135E+01  0.11278883028E+00  0.16667521016E-01  0.57539097152E+01  0.00000000000E+00 0.  1.
         12    1    4    4    0    0 -0.63516529384E+02 -0.40497282467E+02 -0.61600630599E+03  0.62059499548E+03  0.00000000000E+00 0. -1.
         -5    1    5    5    0  502  0.36146777987E+01  0.46890481464E+02 -0.26772170482E+03  0.27186170083E+03  0.47000000000E+01 0.  1.
         13    1    6    6    0    0  0.37569858589E+01  0.16433315025E+02 -0.78137132603E+02  0.79934850202E+02  0.00000000000E+00 0. -1.
        -14    1    6    6    0    0  0.85838910531E+02 -0.42701995115E+02 -0.12180685313E+03  0.15501189766E+03  0.00000000000E+00 0.  1.
</event>
<event>
12    1  0.9246030E-003  0.2686093E+03  0.7818608E-02  0.1102119E+00
         21   -1    0    0  503  502  0.00000000000E+00  0.00000000000E+00  0.26376562974E+03  0.26376562974E+03  0.00000000000E+00 0.  1.
         21   -1    0    0  501  503 -0.00000000000E+00 -0.00000000000E+00 -0.34612161679E+03  0.34612161679E+03  0.00000000000E+00 0.  1.
          6    2    1    2  501    0 -0.86443038864E+02 -0.18730693039E+03 -0.18111446932E+03  0.32396515070E+03  0.17203105164E+03 0.  0.
         24    2    3    3    0    0 -0.17089351452E+02 -0.17990192226E+03 -0.15334759353E+03  0.24874641969E+03  0.75515225616E+02 0.  0.
         -6    2    1    2    0  502  0.86443038864E+02  0.18730693039E+03  0.98758482278E+02  0.28592209584E+03  0.17158648527E+03 0.  0.
        -24    2    5    5    0    0  0.42599876604E+02  0.18151494206E+02  0.20990837163E+02  0.94595983939E+02  0.79771916763E+02 0.  0.
          5    1    3    3  501    0 -0.69353687413E+02 -0.74050081228E+01 -0.27766875789E+02  0.75218731006E+02  0.47000000000E+01 0. -1.
        -13    1    4    4    0    0 -0.26713260342E+02 -0.17991226560E+03 -0.15501334551E+03  0.23897941099E+03  0.00000000000E+00 0.  1.
         14    1    4    4    0    0  0.96239088901E+01  0.10343330885E-01  0.16657519818E+01  0.97670087015E+01  0.00000000000E+00 0. -1.
         -5    1    5    5    0  502  0.43843162260E+02  0.16915543618E+03  0.77767645115E+02  0.19132611190E+03  0.47000000000E+01 0.  1.
         11    1    6    6    0    0 -0.13634360009E+01 -0.27128915850E+02 -0.24460338983E+01  0.27273065738E+02  0.00000000000E+00 0. -1.
        -12    1    6    6    0    0  0.43963312605E+02  0.45280410056E+02  0.23436871061E+02  0.67322918201E+02  0.00000000000E+00 0.  1.
</event>
<event>
12    1  0.9246030E-003  0.3026096E+03  0.7818608E-02  0.1084211E+00
         21   -1    0    0  503  502  0.00000000000E+00  0.00000000000E+00  0.65303227790E+03  0.65303227790E+03  0.00000000000E+00 0.  1.
         21   -1    0    0  501  503 -0.00000000000E+00 -0.00000000000E+00 -0.30546722026E+03  0.30546722026E+03  0.00000000000E+00 0. -1.
          6    2    1    2  501    0 -0.12071600164E+03 -0.21402788496E+03 -0.18004752384E+03  0.35026633677E+03  0.17288466456E+03 0.  0.
         24    2    3    3    0    0 -0.10647981763E+03 -0.63528399627E+02 -0.68865575698E+02  0.16255304578E+03  0.79417983191E+02 0.  0.
         -6    2    1    2    0  502  0.12071600164E+03  0.21402788496E+03  0.52761258149E+03  0.60823316139E+03  0.17661328907E+03 0.  0.
        -24    2    5    5    0    0  0.21823204124E+02  0.27503871499E+02  0.20491486305E+03  0.22258189343E+03  0.79497691763E+02 0.  0.
          5    1    3    3  501    0 -0.14236184012E+02 -0.15049948533E+03 -0.11118194815E+03  0.18771329099E+03  0.47000000000E+01 0. -1.
        -13    1    4    4    0    0 -0.62723033973E+02 -0.13833502921E+02 -0.71720942056E+02  0.96277922304E+02  0.00000000000E+00 0.  1.
         14    1    4    4    0    0 -0.43756783659E+02 -0.49694896706E+02  0.28553663577E+01  0.66275123476E+02  0.00000000000E+00 0. -1.
         -5    1    5    5    0  502  0.98892797520E+02  0.18652401346E+03  0.32269771844E+03  0.38565126796E+03  0.47000000000E+01 0.  1.
         13    1    6    6    0    0  0.23468235775E+02 -0.66810486439E+01  0.17627277441E+03  0.17795360491E+03  0.00000000000E+00 0. -1.
        -14    1    6    6    0    0 -0.16450316507E+01  0.34184920143E+02  0.28642088645E+02  0.44628288520E+02  0.00000000000E+00 0.  1.
</event>
<event>
12    1  0.9246030E-003  0.2804417E+03  0.7818608E-02  0.1095547E+00
         21   -1    0    0  501  502  0.00000000000E+00  0.00000000000E+00  0.38504916657E+03  0.38504916657E+03  0.00000000000E+00 0. -1.
         21   -1    0    0  502  503 -0.00000000000E+00 -0.00000000000E+00 -0.21603644911E+03  0.21603644911E+03  0.00000000000E+00 0.  1.
          6    2    1    2  501    0  0.19417932339E+03 -0.10390816596E+03  0.15614887996E+03  0.32034900507E+03  0.17244853073E+03 0.  0.
         24    2    3    3    0    0  0.10481789800E+03 -0.81448064394E+02  0.20614722785E+02  0.15639316263E+03  0.80082929434E+02 0.  0.
         -6    2    1    2    0  503 -0.19417932339E+03  0.10390816596E+03  0.12863837494E+02  0.28073661061E+03  0.17362329807E+03 0.  0.
        -24    2    5    5    0    0 -0.12131340184E+03  0.65986539793E+02  0.76048591691E+02  0.17699705490E+03  0.80457468550E+02 0.  0.
          5    1    3    3  501    0  0.89361425388E+02 -0.22460101570E+02  0.13553415717E+03  0.16395584244E+03  0.47000000000E+01 0. -1.
        -13    1    4    4    0    0  0.10750302016E+03 -0.48980364798E+02  0.31114924924E+02  0.12216429115E+03  0.00000000000E+00 0.  1.
         14    1    4    4    0    0 -0.26851221529E+01 -0.32467699596E+02 -0.10500202139E+02  0.34228871483E+02  0.00000000000E+00 0. -1.
         -5    1    5    5    0  503 -0.72865921558E+02  0.37921626171E+02 -0.63184754197E+02  0.10373955571E+03  0.47000000000E+01 0.  1.
         11    1    6    6    0    0 -0.62218854511E+02  0.15204671849E+01  0.17795252042E+01  0.62262865234E+02  0.00000000000E+00 0. -1.
        -12    1    6    6    0    0 -0.59094547324E+02  0.64466072609E+02  0.74269066487E+02  0.11473418966E+03  0.00000000000E+00 0.  1.
</event>
<event>
12    1  0.9246030E-003  0.2094225E+03  0.7818608E-02  0.1142043E+00
         21   -1    0    0  503  502  0.00000000000E+00  0.00000000000E+00  0.13187523103E+03  0.13187523103E+03  0.00000000000E+00 0.  1.
         21   -1    0    0  501  503 -0.00000000000E+00 -0.00000000000E+00 -0.39576446368E+03  0.39576446368E+03  0.00000000000E+00 0.  1.
          6    2    1    2  501    0 -0.11976924026E+03  0.52368779153E+01 -0.23746886319E+03  0.31655719253E+03  0.17159516122E+03 0.  0.
         24    2    3    3    0    0 -0.10770612237E+02  0.32206803476E+02 -0.15103266087E+03  0.17477783978E+03  0.81136578366E+02 0.  0.
         -6    2    1    2    0  502  0.11976924026E+03 -0.52368779153E+01 -0.26420369463E+02  0.21108250219E+03  0.17171398023E+03 0.  0.
        -24    2    5    5    0    0  0.47695222527E+02 -0.41489100934E+02 -0.66931301175E+02  0.12068276052E+03  0.78027878753E+02 0.  0.
          5    1    3    3  501    0 -0.10899862802E+03 -0.26969925560E+02 -0.86436202313E+02  0.14177935275E+03  0.47000000000E+01 0. -1.
        -13    1    4    4    0    0 -0.43393483698E+01  0.59316750250E+02 -0.92806124540E+02  0.11022832466E+03  0.00000000000E+00 0.  1.
         14    1    4    4    0    0 -0.64312638675E+01 -0.27109946774E+02 -0.58226536334E+02  0.64549515122E+02  0.00000000000E+00 0. -1.
         -5    1    5    5    0  502  0.72074017730E+02  0.36252223019E+02  0.40510931713E+02  0.90399741669E+02  0.47000000000E+01 0.  1.
         11    1    6    6    0    0 -0.74916455817E+01  0.76090415047E+01  0.95711069401E+01  0.14339747355E+02  0.00000000000E+00 0. -1.
        -12    1    6    6    0    0  0.55186868109E+02 -0.49098142439E+02 -0.76502408115E+02  0.10634301317E+03  0.00000000000E+00 0.  1.
</event>
<event>
12    1  0.9246030E-003  0.1750064E+03  0.7818608E-02  0.1174562E+00
         21   -1    0    0  501  502  0.00000000000E+00  0.00000000000E+00  0.10079605517E+03  0.10079605517E+03  0.00000000000E+00 0.  1.
         21   -1    0    0  502  503 -0.00000000000E+00 -0.00000000000E+00 -0.32305467979E+03  0.32305467979E+03  0.00000000000E+00 0.  1.
          6    2    1    2  501    0  0.19368407450E+02 -0.23668941381E+02 -0.42872193833E+02  0.17323799006E+03  0.16503945651E+03 0.  0.
         24    2    3    3    0    0  0.57222954048E+02 -0.94764184096E+01 -0.71959713902E+02  0.12321231435E+03  0.81478862336E+02 0.  0.
         -6    2    1    2    0  503 -0.19368407450E+02  0.23668941381E+02 -0.17938643079E+03  0.25061274489E+03  0.17231338415E+03 0.  0.
        -24    2    5    5    0    0 -0.53849290067E+01  0.41502632632E+01 -0.11568318666E+02  0.81020512694E+02  0.79901660402E+02 0.  0.
          5    1    3    3  501    0 -0.37854546599E+02 -0.14192522972E+02  0.29087520068E+02  0.50025675710E+02  0.47000000000E+01 0. -1.
        -13    1    4    4    0    0  0.55199304383E+01 -0.11220522739E+02  0.16519880515E+02  0.20718981993E+02  0.00000000000E+00 0.  1.
         14    1    4    4    0    0  0.51703023610E+02  0.17441043297E+01 -0.88479594417E+02  0.10249333236E+03  0.00000000000E+00 0. -1.
         -5    1    5    5    0  503 -0.13983478443E+02  0.19518678118E+02 -0.16781811212E+03  0.16959223219E+03  0.47000000000E+01 0.  1.
         13    1    6    6    0    0 -0.27330701019E+02  0.33666562592E+02 -0.48924629684E+01  0.43638753980E+02  0.00000000000E+00 0. -1.
        -14    1    6    6    0    0  0.21945772013E+02 -0.29516299329E+02 -0.66758556976E+01  0.37381758715E+02  0.00000000000E+00 0.  1.
</event>
<event>
12    1  0.9246030E-003  0.1889576E+03  0.7818608E-02  0.1161711E+00
         21   -1    0    0  501  502  0.00000000000E+00  0.00000000000E+00  0.40107019347E+03  0.40107019347E+03  0.00000000000E+00 0.  1.
         21   -1    0    0  502  503 -0.00000000000E+00 -0.00000000000E+00 -0.89981209681E+02  0.89981209681E+02  0.00000000000E+00 0.  1.
          6    2    1    2  501    0  0.15689705508E+02 -0.58395247263E+02  0.22038689010E+03  0.29030215578E+03  0.17902175443E+03 0.  0.
         24    2    3    3    0    0  0.41231996426E+01 -0.61893353832E+02  0.24363516452E+03  0.26368274424E+03  0.79515458859E+02 0.  0.
         -6    2    1    2    0  503 -0.15689705508E+02  0.58395247263E+02  0.90702093681E+02  0.20074924736E+03  0.16857407499E+03 0.  0.
        -24    2    5    5    0    0 -0.13965455882E+02 -0.28856370101E+02  0.19202712138E+02  0.87833042457E+02  0.79486949498E+02 0.  0.
          5    1    3    3  501    0  0.11566505865E+02  0.34981065687E+01 -0.23248274415E+02  0.26619411540E+02  0.47000000000E+01 0. -1.
        -13    1    4    4    0    0  0.71292092073E+01 -0.28294149771E+02  0.22132280169E+03  0.22323791587E+03  0.00000000000E+00 0.  1.
         14    1    4    4    0    0 -0.30060095647E+01 -0.33599204061E+02  0.22312362832E+02  0.40444828374E+02  0.00000000000E+00 0. -1.
         -5    1    5    5    0  503 -0.17242496260E+01  0.87251617364E+02  0.71499381543E+02  0.11291620491E+03  0.47000000000E+01 0.  1.
         11    1    6    6    0    0 -0.30938283512E+02  0.17937548632E+02  0.53144965554E+01  0.36154901621E+02  0.00000000000E+00 0. -1.
        -12    1    6    6    0    0  0.16972827630E+02 -0.46793918733E+02  0.13888215582E+02  0.51678140836E+02  0.00000000000E+00 0.  1.
</event>
<event>
12    1  0.9246030E-003  0.1792445E+03  0.7818608E-02  0.1168667E+00
         21   -1    0    0  503  502  0.00000000000E+00  0.00000000000E+00  0.10826344571E+03  0.10826344571E+03  0.00000000000E+00 0. -1.
         21   -1    0    0  501  503 -0.00000000000E+00 -0.00000000000E+00 -0.30370125972E+03  0.30370125972E+03  0.00000000000E+00 0. -1.
          6    2    1    2  501    0  0.39058272842E+02 -0.28417278362E+02 -0.64801444044E+02  0.19059859178E+03  0.17261374699E+03 0.  0.
         24    2    3    3    0    0  0.58962716010E+02 -0.77758223224E+02 -0.43504181185E+02  0.13309746915E+03  0.79368629548E+02 0.  0.
         -6    2    1    2    0  502 -0.39058272842E+02  0.28417278362E+02 -0.13063636996E+03  0.22136611364E+03  0.17205814344E+03 0.  0.
        -24    2    5    5    0    0 -0.58306833006E+02 -0.36187478383E+02 -0.61016113861E+02  0.12434368468E+03  0.83840118091E+02 0.  0.
          5    1    3    3  501    0 -0.19904443168E+02  0.49340944862E+02 -0.21297262860E+02  0.57501122624E+02  0.47000000000E+01 0. -1.
        -11    1    4    4    0    0  0.28870142446E+01 -0.59230436963E+02  0.73958909925E+00  0.59305366588E+02  0.00000000000E+00 0.  1.
         12    1    4    4    0    0  0.56075701765E+02 -0.18527786261E+02 -0.44243770284E+02  0.73792102566E+02  0.00000000000E+00 0. -1.
         -5    1    5    5    0  502  0.19248560164E+02  0.64604756744E+02 -0.69620256104E+02  0.97022428966E+02  0.47000000000E+01 0.  1.
         13    1    6    6    0    0 -0.88168819042E+01 -0.35018429048E+02  0.10280372829E+02  0.37546156195E+02  0.00000000000E+00 0. -1.
        -14    1    6    6    0    0 -0.49489951102E+02 -0.11690493346E+01 -0.71296486689E+02  0.86797528482E+02  0.00000000000E+00 0.  1.
</event>
<event>
12    1  0.9246030E-003  0.1843053E+03  0.7818608E-02  0.1163867E+00
         21   -1    0    0  501  502  0.00000000000E+00  0.00000000000E+00  0.72221623585E+03  0.72221623585E+03  0.00000000000E+00 0.  1.
         21   -1    0    0  502  503 -0.00000000000E+00 -0.00000000000E+00 -0.47532289812E+02  0.47532289812E+02  0.00000000000E+00 0. -1.
          6    2    1    2  501    0  0.59218820329E+02  0.24083843888E+02  0.38271629740E+03  0.42447538213E+03  0.17210661093E+03 0.  0.
         24    2    3    3    0    0  0.14008570036E+02  0.34988775419E+02  0.36214643248E+03  0.37340588433E+03  0.82833939008E+02 0.  0.
         -6    2    1    2    0  503 -0.59218820329E+02 -0.24083843888E+02  0.29196764864E+03  0.34527314353E+03  0.17286276514E+03 0.  0.
        -24    2    5    5    0    0 -0.97024529310E+02 -0.52443941907E+02  0.21207956560E+03  0.25233357928E+03  0.80810684669E+02 0.  0.
          5    1    3    3  501    0  0.45210250293E+02 -0.10904931530E+02  0.20569864915E+02  0.51069497804E+02  0.47000000000E+01 0. -1.
        -11    1    4    4    0    0  0.23910489478E+02  0.50503524876E+02  0.14364240704E+03  0.15412805920E+03  0.00000000000E+00 0.  1.
         12    1    4    4    0    0 -0.99019194420E+01 -0.15514749457E+02  0.21850402544E+03  0.21927782513E+03  0.00000000000E+00 0. -1.
         -5    1    5    5    0  503  0.37805708981E+02  0.28360098018E+02  0.79888083037E+02  0.92939564247E+02  0.47000000000E+01 0.  1.
         11    1    6    6    0    0 -0.38806710871E+02 -0.30413768290E+02  0.25223338160E+02  0.55382081021E+02  0.00000000000E+00 0. -1.
        -12    1    6    6    0    0 -0.58217818439E+02 -0.22030173617E+02  0.18685622744E+03  0.19695149826E+03  0.00000000000E+00 0.  1.
</event>
<event>
12    1  0.9246030E-003  0.1973484E+03  0.7818608E-02  0.1154653E+00
         21   -1    0    0  501  502  0.00000000000E+00  0.00000000000E+00  0.21353540614E+03  0.21353540614E+03  0.00000000000E+00 0. -1.
         21   -1    0    0  502  503 -0.00000000000E+00 -0.00000000000E+00 -0.17178372464E+03  0.17178372464E+03  0.00000000000E+00 0. -1.
          6    2    1    2  501    0 -0.68123270730E+02 -0.81155743725E+01  0.12274447280E+02  0.18578142759E+03  0.17221333926E+03 0.  0.
         24    2    3    3    0    0 -0.73929904656E+02 -0.27765989501E+02 -0.47726134183E+02  0.12220457969E+03  0.80122371647E+02 0.  0.
         -6    2    1    2    0  503  0.68123270730E+02  0.81155743725E+01  0.29477234217E+02  0.19953770320E+03  0.18503984732E+03 0.  0.
        -24    2    5    5    0    0 -0.96727426072E+01  0.44360826247E+02 -0.24016971061E+02  0.98297108707E+02  0.83809676209E+02 0.  0.
          5    1    3    3  501    0  0.58066339262E+01  0.19650415128E+02  0.60000581463E+02  0.63576847894E+02  0.47000000000E+01 0. -1.
        -11    1    4    4    0    0 -0.68306467034E+02 -0.29065484164E+02 -0.10335000732E+00  0.74233324657E+02  0.00000000000E+00 0.  1.
         12    1    4    4    0    0 -0.56234376220E+01  0.12994946632E+01 -0.47622784175E+02  0.47971255035E+02  0.00000000000E+00 0. -1.
         -5    1    5    5    0  503  0.77796013337E+02 -0.36245251875E+02  0.53494205278E+02  0.10124059449E+03  0.47000000000E+01 0.  1.
         11    1    6    6    0    0  0.17272190027E+02  0.36896255218E+02  0.20594001290E+02  0.45648385366E+02  0.00000000000E+00 0. -1.
        -12    1    6    6    0    0 -0.26944932634E+02  0.74645710294E+01 -0.44610972351E+02  0.52648723340E+02  0.00000000000E+00 0.  1.
</event>
<event>
12    1  0.9246030E-003  0.2467680E+03  0.7818608E-02  0.1115458E+00
         21   -1    0    0  501  502  0.00000000000E+00  0.00000000000E+00  0.56938425136E+02  0.56938425136E+02  0.00000000000E+00 0. -1.
         21   -1    0    0  502  503 -0.00000000000E+00 -0.00000000000E+00 -0.12832630171E+04  0.12832630171E+04  0.00000000000E+00 0. -1.
          6    2    1    2  501    0  0.81669510526E+02  0.15602330098E+03 -0.33745469481E+03  0.41771341835E+03  0.17203386128E+03 0.  0.
         24    2    3    3    0    0  0.47595662932E+02  0.31971135896E+02 -0.67013596313E+02  0.11819639963E+03  0.78689682511E+02 0.  0.
         -6    2    1    2    0  503 -0.81669510526E+02 -0.15602330098E+03 -0.88886989717E+03  0.92248802389E+03  0.17286202805E+03 0.  0.
        -24    2    5    5    0    0 -0.42118197003E+02 -0.10082378696E+02 -0.40830742050E+03  0.41867710383E+03  0.81853349078E+02 0.  0.
          5    1    3    3  501    0  0.34073847594E+02  0.12405216508E+03 -0.27044109849E+03  0.29951701872E+03  0.47000000000E+01 0. -1.
        -11    1    4    4    0    0 -0.17345984030E+02  0.22521165018E+02 -0.70196225928E+01  0.29280729791E+02  0.00000000000E+00 0.  1.
         12    1    4    4    0    0  0.64941646962E+02  0.94499708777E+01 -0.59993973720E+02  0.88915669837E+02  0.00000000000E+00 0. -1.
         -5    1    5    5    0  503 -0.39551313523E+02 -0.14594092228E+03 -0.48056247667E+03  0.50381092007E+03  0.47000000000E+01 0.  1.
         13    1    6    6    0    0  0.41690775935E+01 -0.17366232762E+02 -0.30168181270E+03  0.30220999878E+03  0.00000000000E+00 0. -1.
        -14    1    6    6    0    0 -0.46287274597E+02  0.72838540654E+01 -0.10662560780E+03  0.11646710505E+03  0.00000000000E+00 0.  1.
</event>
<event>
12    1  0.9246030E-003  0.1811967E+03  0.7818608E-02  0.1167012E+00
         21   -1    0    0  503  502  0.00000000000E+00  0.00000000000E+00  0.54956709347E+03  0.54956709347E+03  0.00000000000E+00 0.  1.
         21   -1    0    0  501  503 -0.00000000000E+00 -0.00000000000E+00 -0.60868922186E+02  0.60868922186E+02  0.00000000000E+00 0.  1.
          6    2    1    2  501    0  0.48501499795E+01 -0.56293359085E+02  0.29317261239E+03  0.34386054477E+03  0.17057968038E+03 0.  0.
         24    2    3    3    0    0 -0.11102823187E+02  0.18168067120E+02  0.23101192016E+03  0.24544792868E+03  0.80155019147E+02 0.  0.
         -6    2    1    2    0  502 -0.48501499795E+01  0.56293359085E+02  0.19552555889E+03  0.26657547089E+03  0.17216204944E+03 0.  0.
        -24    2    5    5    0    0 -0.54793935586E+02  0.77540769585E+02  0.15541388480E+03  0.19892289834E+03  0.80011858942E+02 0.  0.
          5    1    3    3  501    0  0.15952973166E+02 -0.74461426205E+02  0.62160692230E+02  0.98412616081E+02  0.47000000000E+01 0. -1.
        -13    1    4    4    0    0  0.43888979536E+00 -0.30597740922E+02  0.11647710902E+03  0.12042977746E+03  0.00000000000E+00 0.  1.
         14    1    4    4    0    0 -0.11541712982E+02  0.48765808043E+02  0.11453481114E+03  0.12501815122E+03  0.00000000000E+00 0. -1.
         -5    1    5    5    0  502  0.49943785606E+02 -0.21247410501E+02  0.40111674097E+02  0.67652572549E+02  0.47000000000E+01 0.  1.
         13    1    6    6    0    0 -0.25451210320E+02  0.95069941914E+01  0.10704842339E+03  0.11044234693E+03  0.00000000000E+00 0. -1.
        -14    1    6    6    0    0 -0.29342725266E+02  0.68033775394E+02  0.48365461405E+02  0.88480551407E+02  0.00000000000E+00 0.  1.
</event>
<event>
12    1  0.9246030E-003  0.2141211E+03  0.7818608E-02  0.1138463E+00
         21   -1    0    0  501  502  0.00000000000E+00  0.00000000000E+00  0.47573733705E+03  0.47573733705E+03  0.00000000000E+00 0.  1.
         21   -1    0    0  502  503 -0.00000000000E+00 -0.00000000000E+00 -0.12307434497E+03  0.12307434497E+03  0.00000000000E+00 0.  1.
          6    2    1    2  501    0 -0.49961110868E+02  0.11640734409E+03  0.31631656778E+03  0.38162766833E+03  0.17186251431E+03 0.  0.
         24    2    3    3    0    0 -0.22850052249E+02  0.11097163506E+02  0.58396237520E+02  0.10168083338E+03  0.79269157907E+02 0.  0.
         -6    2    1    2    0  503  0.49961110868E+02 -0.11640734409E+03  0.36346424303E+02  0.21718401369E+03  0.17262980880E+03 0.  0.
        -24    2    5    5    0    0  0.39013994586E+02 -0.11655836205E+03 -0.31771092295E+02  0.14803238154E+03  0.76133042383E+02 0.  0.
          5    1    3    3  501    0 -0.27111058619E+02  0.10531018058E+03  0.25792033026E+03  0.27994683495E+03  0.47000000000E+01 0. -1.
        -11    1    4    4    0    0 -0.20648669041E+02  0.27927887818E+02  0.71992480289E+02  0.79932794705E+02  0.00000000000E+00 0.  1.
         12    1    4    4    0    0 -0.22013832080E+01 -0.16830724312E+02 -0.13596242769E+02  0.21748038678E+02  0.00000000000E+00 0. -1.
         -5    1    5    5    0  503  0.10947116282E+02  0.15101796269E+00  0.68117516598E+02  0.69151632149E+02  0.47000000000E+01 0.  1.
         13    1    6    6    0    0 -0.51766289696E+01 -0.44230799490E+02  0.19887474538E+02  0.48771638833E+02  0.00000000000E+00 0. -1.
        -14    1    6    6    0    0  0.44190623556E+02 -0.72327562562E+02 -0.51658566833E+02  0.99260742711E+02  0.00000000000E+00 0.  1.
</event>
<event>
12    1  0.9246030E-003  0.2105016E+03  0.7818608E-02  0.1141261E+00
         21   -1    0    0  503  502  0.00000000000E+00  0.00000000000E+00  0.21407016582E+03  0.21407016582E+03  0.00000000000E+00 0. -1.
         21   -1    0    0  501  503 -0.00000000000E+00 -0.00000000000E+00 -0.25328297222E+03  0.25328297222E+03  0.00000000000E+00 0. -1.
          6    2    1    2  501    0 -0.11914022327E+03  0.22407150186E+02 -0.11997679401E+03  0.24188975667E+03  0.17152186479E+03 0.  0.
         24    2    3    3    0    0 -0.96469182109E+02  0.56191437193E+02 -0.13998966855E+03  0.19630511778E+03  0.80466211882E+02 0.  0.
         -6    2    1    2    0  502  0.11914022327E+03 -0.22407150186E+02  0.80763987610E+02  0.22546338136E+03  0.17208846987E+03 0.  0.
        -24    2    5    5    0    0  0.89644431463E+02  0.51934138204E+02  0.50016742294E+02  0.13964897705E+03  0.79163649977E+02 0.  0.
          5    1    3    3  501    0 -0.22671041158E+02 -0.33784287007E+02  0.20012874535E+02  0.45584638892E+02  0.47000000000E+01 0. -1.
        -11    1    4    4    0    0 -0.52096479953E+02  0.55681383189E+02 -0.38248887977E+02  0.85307895817E+02  0.00000000000E+00 0.  1.
         12    1    4    4    0    0 -0.44372702156E+02  0.51005400485E+00 -0.10174078057E+03  0.11099722196E+03  0.00000000000E+00 0. -1.
         -5    1    5    5    0  502  0.29495791803E+02 -0.74341288390E+02  0.30747245316E+02  0.85814404316E+02  0.47000000000E+01 0.  1.
         13    1    6    6    0    0  0.70525279715E+02  0.58787694568E+01  0.25691719373E+01  0.70816492808E+02  0.00000000000E+00 0. -1.
        -14    1    6    6    0    0  0.19119151748E+02  0.46055368747E+02  0.47447570356E+02  0.68832484240E+02  0.00000000000E+00 0.  1.
</event>
<event>
12    1  0.9246030E-003  0.2959927E+03  0.7818608E-02  0.1089449E+00
         21   -1    0    0  501  502  0.00000000000E+00  0.00000000000E+00  0.12786657240E+04  0.12786657240E+04  0.00000000000E+00 0.  1.
         21   -1    0    0  502  503 -0.00000000000E+00 -0.00000000000E+00 -0.70470802565E+02  0.70470802565E+02  0.00000000000E+00 0. -1.
          6    2    1    2  501    0 -0.20638729830E+03  0.90588031021E+02  0.81297179994E+03  0.86517906861E+03  0.19185871103E+03 0.  0.
         24    2    3    3    0    0 -0.11261162878E+03  0.78914294568E+02  0.69915347185E+03  0.71716942661E+03  0.81286926595E+02 0.  0.
         -6    2    1    2    0  503  0.20638729830E+03 -0.90588031021E+02  0.39522312144E+03  0.48395745791E+03  0.16495938007E+03 0.  0.
        -24    2    5    5    0    0  0.64403037326E+02 -0.71433313416E+02  0.24894944474E+03  0.27915386402E+03  0.81857096689E+02 0.  0.
          5    1    3    3  501    0 -0.93775669520E+02  0.11673736453E+02  0.11381832809E+03  0.14800964200E+03  0.47000000000E+01 0. -1.
        -11    1    4    4    0    0 -0.30782152214E+01  0.35363432723E+02  0.26236514310E+03  0.26475557803E+03  0.00000000000E+00 0.  1.
         12    1    4    4    0    0 -0.10953341356E+03  0.43550861845E+02  0.43678832875E+03  0.45241384858E+03  0.00000000000E+00 0. -1.
         -5    1    5    5    0  503  0.14198426098E+03 -0.19154717605E+02  0.14627367670E+03  0.20480359388E+03  0.47000000000E+01 0.  1.
         13    1    6    6    0    0  0.74274365988E+02 -0.61281054997E+02  0.14384280170E+03  0.17309766245E+03  0.00000000000E+00 0. -1.
        -14    1    6    6    0    0 -0.98713286613E+01 -0.10152258419E+02  0.10510664304E+03  0.10605620157E+03  0.00000000000E+00 0.  1.
</event>
<event>
12    1  0.9246030E-003  0.2000898E+03  0.7818608E-02  0.1149860E+00
         21   -1    0    0  501  502  0.00000000000E+00  0.00000000000E+00  0.44264728818E+03  0.44264728818E+03  0.00000000000E+00 0.  1.
         21   -1    0    0  502  503 -0.00000000000E+00 -0.00000000000E+00 -0.91439621466E+02  0.91439621466E+02  0.00000000000E+00 0.  1.
          6    2    1    2  501    0 -0.91749236195E+02  0.44994767747E+02  0.20920724146E+03  0.28948850935E+03  0.17202754344E+03 0.  0.
         24    2    3    3    0    0 -0.28178888911E+01  0.63786334620E+02  0.71834719337E+02  0.12470013794E+03  0.79456028839E+02 0.  0.
         -6    2    1    2    0  503  0.91749236195E+02 -0.44994767747E+02  0.14200042525E+03  0.24459840029E+03  0.17094386559E+03 0.  0.
        -24    2    5    5    0    0  0.87089503065E+02 -0.91290944955E+02  0.90048088067E+02  0.17469715226E+03  0.80571823038E+02 0.  0.
          5    1    3    3  501    0 -0.88931347304E+02 -0.18791566873E+02  0.13737252212E+03  0.16478837141E+03  0.47000000000E+01 0. -1.
        -13    1    4    4    0    0 -0.36267723140E+02  0.49379097536E+02  0.61573555732E+02  0.86861647352E+02  0.00000000000E+00 0.  1.
         14    1    4    4    0    0  0.33449834249E+02  0.14407237085E+02  0.10261163604E+02  0.37838490591E+02  0.00000000000E+00 0. -1.
         -5    1    5    5    0  503  0.46597331296E+01  0.46296177208E+02  0.51952337187E+02  0.69901248030E+02  0.47000000000E+01 0.  1.
         11    1    6    6    0    0 -0.29693983818E+01 -0.29339129778E+02 -0.49184066358E+01  0.29896364105E+02  0.00000000000E+00 0. -1.
        -12    1    6    6    0    0  0.90058901447E+02 -0.61951815177E+02  0.94966494703E+02  0.14480078815E+03  0.00000000000E+00 0.  1.
</event>
<event>
12    1  0.9246030E-003  0.1848907E+03  0.7818608E-02  0.1163538E+00
         21   -1    0    0  503  502  0.00000000000E+00  0.00000000000E+00  0.12202375784E+04  0.12202375784E+04  0.00000000000E+00 0.  1.
         21   -1    0    0  501  503 -0.00000000000E+00 -0.00000000000E+00 -0.33721427521E+02  0.33721427521E+02  0.00000000000E+00 0. -1.
          6    2    1    2  501    0  0.62398479871E+02 -0.16502631495E+02  0.33195524998E+03  0.37997216236E+03  0.17325890756E+03 0.  0.
         24    2    3    3    0    0  0.70200621175E+02  0.43666351035E+02  0.14268657787E+03  0.18116094510E+03  0.74999673998E+02 0.  0.
         -6    2    1    2    0  502 -0.62398479871E+02  0.16502631495E+02  0.85456090095E+03  0.87398684360E+03  0.17150149336E+03 0.  0.
        -24    2    5    5    0    0  0.44886313062E+01  0.59513474188E+02  0.38364562050E+03  0.39638124314E+03  0.79825599690E+02 0.  0.
          5    1    3    3  501    0 -0.78021413034E+01 -0.60168982530E+02  0.18926867211E+03  0.19881121727E+03  0.47000000000E+01 0. -1.
        -13    1    4    4    0    0  0.22599694692E+02 -0.12262770864E+02  0.81848734608E+02  0.85792407044E+02  0.00000000000E+00 0.  1.
         14    1    4    4    0    0  0.47600926483E+02  0.55929121899E+02  0.60837843257E+02  0.95368538054E+02  0.00000000000E+00 0. -1.
         -5    1    5    5    0  502 -0.66887111178E+02 -0.43010842693E+02  0.47091528045E+03  0.47760560046E+03  0.47000000000E+01 0.  1.
         13    1    6    6    0    0 -0.37421639414E+02  0.21928983067E+02  0.16566203467E+03  0.17124593170E+03  0.00000000000E+00 0. -1.
        -14    1    6    6    0    0  0.41910270720E+02  0.37584491121E+02  0.21798358583E+03  0.22513531144E+03  0.00000000000E+00 0.  1.
</event>
<event>
12    1  0.9246030E-003  0.1997126E+03  0.7818608E-02  0.1150435E+00
         21   -1    0    0  501  502  0.00000000000E+00  0.00000000000E+00  0.39097645246E+03  0.39097645246E+03  0.00000000000E+00 0. -1.
         21   -1    0    0  502  503 -0.00000000000E+00 -0.00000000000E+00 -0.11381073373E+03  0.11381073373E+03  0.00000000000E+00 0.  1.
          6    2    1    2  501    0  0.94630399272E+02 -0.27143288644E+02  0.22283887838E+03  0.29781735657E+03  0.17130773938E+03 0.  0.
         24    2    3    3    0    0  0.39402740061E+02  0.44574384653E+02  0.15600982708E+03  0.18520416417E+03  0.80137785026E+02 0.  0.
         -6    2    1    2    0  503 -0.94630399272E+02  0.27143288644E+02  0.54326840345E+02  0.20696982961E+03  0.17376257999E+03 0.  0.
        -24    2    5    5    0    0 -0.64148516691E+02 -0.51721469866E+02  0.35674835946E+02  0.12025891583E+03  0.79996064147E+02 0.  0.
          5    1    3    3  501    0  0.55227659211E+02 -0.71717673298E+02  0.66829051299E+02  0.11261319240E+03  0.47000000000E+01 0. -1.
        -11    1    4    4    0    0  0.50506059270E+02  0.55959472990E+02  0.15058950274E+03  0.16840285917E+03  0.00000000000E+00 0.  1.
         12    1    4    4    0    0 -0.11103319208E+02 -0.11385088337E+02  0.54203243418E+01  0.16801305004E+02  0.00000000000E+00 0. -1.
         -5    1    5    5    0  503 -0.30481882581E+02  0.78864758510E+02  0.18652004399E+02  0.86710913781E+02  0.47000000000E+01 0.  1.
         11    1    6    6    0    0 -0.80634008046E+02 -0.32789660306E+02  0.38139224940E+02  0.95034759723E+02  0.00000000000E+00 0. -1.
        -12    1    6    6    0    0  0.16485491355E+02 -0.18931809560E+02 -0.24643889940E+01  0.25224156111E+02  0.00000000000E+00 0.  1.
</event>
<event>
12    1  0.9246030E-003  0.1813494E+03  0.7818608E-02  0.1167305E+00
         21   -1    0    0  501  502  0.00000000000E+00  0.00000000000E+00  0.41135376908E+03  0.41135376908E+03  0.00000000000E+00 0.  1.
         21   -1    0    0  502  503 -0.00000000000E+00 -0.00000000000E+00 -0.79672776093E+02  0.79672776093E+02  0.00000000000E+00 0. -1.
          6    2    1    2  501    0  0.39026484536E+02 -0.22637345631E+02  0.19719063954E+03  0.26790248082E+03  0.17564758750E+03 0.  0.
         24    2    3    3    0    0  0.75671966337E+02  0.32907176414E+02  0.12092881068E+03  0.16658100330E+03  0.79475308487E+02 0.  0.
         -6    2    1    2    0  503 -0.39026484536E+02  0.22637345631E+02  0.13449035345E+03  0.22312406435E+03  0.17222420565E+03 0.  0.
        -24    2    5    5    0    0 -0.89119521408E+02 -0.55230052995E+01  0.10086081074E+03  0.15637562729E+03  0.79420658424E+02 0.  0.
          5    1    3    3  501    0 -0.36645481801E+02 -0.55544522044E+02  0.76261828859E+02  0.10132147752E+03  0.47000000000E+01 0. -1.
        -11    1    4    4    0    0  0.50961035957E+01  0.12487234020E+02  0.82637437383E+02  0.83730802830E+02  0.00000000000E+00 0.  1.
         12    1    4    4    0    0  0.70575862742E+02  0.20419942393E+02  0.38291373300E+02  0.82850200472E+02  0.00000000000E+00 0. -1.
         -5    1    5    5    0  503  0.50093036872E+02  0.28160350930E+02  0.33629542706E+02  0.66748437061E+02  0.47000000000E+01 0.  1.
         13    1    6    6    0    0 -0.17366174041E+02 -0.36694332090E+02  0.26773737342E+02  0.48630145174E+02  0.00000000000E+00 0. -1.
        -14    1    6    6    0    0 -0.71753347367E+02  0.31171326791E+02  0.74087073399E+02  0.10774548212E+03  0.00000000000E+00 0.  1.
</event>
<event>
12    1  0.9246030E-003  0.1818589E+03  0.7818608E-02  0.1166033E+00
         21   -1    0    0  503  502  0.00000000000E+00  0.00000000000E+00  0.12536075126E+04  0.12536075126E+04  0.00000000000E+00 0. -1.
         21   -1    0    0  501  503 -0.00000000000E+00 -0.00000000000E+00 -0.29442035933E+02  0.29442035933E+02  0.00000000000E+00 0. -1.
          6    2    1    2  501    0  0.39333212383E+02  0.43884495881E+02  0.40501987642E+03  0.44397493375E+03  0.17204560711E+03 0.  0.
         24    2    3    3    0    0  0.12096287787E+02 -0.33566673998E+02  0.12547258600E+03  0.15258291024E+03  0.79152592380E+02 0.  0.
         -6    2    1    2    0  502 -0.39333212383E+02 -0.43884495881E+02  0.81914560021E+03  0.83907461475E+03  0.17197018404E+03 0.  0.
        -24    2    5    5    0    0 -0.34980422751E+02 -0.18518000023E+02  0.80381571396E+03  0.80875133488E+03  0.79952944667E+02 0.  0.
          5    1    3    3  501    0  0.27236924596E+02  0.77451169880E+02  0.27954729042E+03  0.29139202350E+03  0.47000000000E+01 0. -1.
        -11    1    4    4    0    0 -0.26938578605E+02 -0.80041775539E+01  0.13296194755E+02  0.31089269379E+02  0.00000000000E+00 0.  1.
         12    1    4    4    0    0  0.39034866392E+02 -0.25562496445E+02  0.11217639124E+03  0.12149364087E+03  0.00000000000E+00 0. -1.
         -5    1    5    5    0  502 -0.43527896319E+01 -0.25366495858E+02  0.15329886254E+02  0.30323279873E+02  0.47000000000E+01 0.  1.
         13    1    6    6    0    0  0.24073891187E+02 -0.18089618795E+02  0.28367417714E+03  0.28526798861E+03  0.00000000000E+00 0. -1.
        -14    1    6    6    0    0 -0.59054313938E+02 -0.42838122872E+00  0.52014153681E+03  0.52348334627E+03  0.00000000000E+00 0.  1.
</event>
<event>
12    1  0.9246030E-003  0.2117140E+03  0.7818608E-02  0.1140304E+00
         21   -1    0    0  501  502  0.00000000000E+00  0.00000000000E+00  0.73669687675E+03  0.73669687675E+03  0.00000000000E+00 0.  1.
         21   -1    0    0  502  503 -0.00000000000E+00 -0.00000000000E+00 -0.63664616317E+02  0.63664616317E+02  0.00000000000E+00 0.  1.
          6    2    1    2  501    0  0.43951642224E+02 -0.11694645593E+03  0.42232961461E+03  0.47222334869E+03  0.17036539340E+03 0.  0.
         24    2    3    3    0    0  0.20486893825E+02 -0.15960002286E+02  0.11148648846E+03  0.14451250464E+03  0.88205398910E+02 0.  0.
         -6    2    1    2    0  503 -0.43951642224E+02  0.11694645593E+03  0.25070264583E+03  0.32813814437E+03  0.17092280351E+03 0.  0.
        -24    2    5    5    0    0 -0.51669420833E+02  0.46521091361E+02  0.53996469248E+02  0.11900970062E+03  0.80085886153E+02 0.  0.
          5    1    3    3  501    0  0.23464748399E+02 -0.10098645364E+03  0.31084312614E+03  0.32771084405E+03  0.47000000000E+01 0. -1.
        -13    1    4    4    0    0  0.49964070347E+01 -0.52118496179E+02  0.68935216981E+02  0.86564229722E+02  0.00000000000E+00 0.  1.
         14    1    4    4    0    0  0.15490486790E+02  0.36158493893E+02  0.42551271484E+02  0.57948274922E+02  0.00000000000E+00 0. -1.
         -5    1    5    5    0  503  0.77177786087E+01  0.70425364567E+02  0.19670617658E+03  0.20912844375E+03  0.47000000000E+01 0.  1.
         11    1    6    6    0    0 -0.15371630680E+02 -0.22976373441E+02  0.14604695057E+02  0.31264962562E+02  0.00000000000E+00 0. -1.
        -12    1    6    6    0    0 -0.36297790152E+02  0.69497464802E+02  0.39391774191E+02  0.87744738063E+02  0.00000000000E+00 0.  1.
</event>
<event>
12    1  0.9246030E-003  0.1777949E+03  0.7818608E-02  0.1170082E+00
         21   -1    0    0  503  502  0.00000000000E+00  0.00000000000E+00  0.76176801274E+03  0.76176801274E+03  0.00000000000E+00 0. -1.
         21   -1    0    0  501  503 -0.00000000000E+00 -0.00000000000E+00 -0.41391568999E+02  0.41391568999E+02  0.00000000000E+00 0. -1.
          6    2    1    2  501    0 -0.41869882011E+02  0.62006095557E+01  0.35187504020E+03  0.39400885580E+03  0.17214935361E+03 0.  0.
         24    2    3    3    0    0  0.39216165185E+02  0.22631490795E+01  0.23720589151E+03  0.25343306020E+03  0.80116487571E+02 0.  0.
         -6    2    1    2    0  502  0.41869882011E+02 -0.62006095557E+01  0.36850140353E+03  0.40915072594E+03  0.17268322892E+03 0.  0.
        -24    2    5    5    0    0  0.43952648362E+02 -0.43111312238E+02  0.35571627366E+03  0.36975164684E+03  0.79948686348E+02 0.  0.
          5    1    3    3  501    0 -0.81086047197E+02  0.39374604762E+01  0.11466914869E+03  0.14057579559E+03  0.47000000000E+01 0. -1.
        -11    1    4    4    0    0  0.11901486056E+02  0.34854348517E+02  0.54049605249E+02  0.65405128304E+02  0.00000000000E+00 0.  1.
         12    1    4    4    0    0  0.27314679130E+02 -0.32591199438E+02  0.18315628626E+03  0.18802793190E+03  0.00000000000E+00 0. -1.
         -5    1    5    5    0  502 -0.20827663507E+01  0.36910702683E+02  0.12785129871E+02  0.39399079101E+02  0.47000000000E+01 0.  1.
         13    1    6    6    0    0  0.24759108847E+02 -0.25794089981E+02  0.42798682609E+02  0.55768053417E+02  0.00000000000E+00 0. -1.
        -14    1    6    6    0    0  0.19193539515E+02 -0.17317222258E+02  0.31291759105E+03  0.31398359342E+03  0.00000000000E+00 0.  1.
</event>
<event>
12    1  0.9246030E-003  0.1887326E+03  0.7818608E-02  0.1163859E+00
         21   -1    0    0  501  502  0.00000000000E+00  0.00000000000E+00  0.96801385493E+02  0.96801385493E+02  0.00000000000E+00 0. -1.
         21   -1    0    0  502  503 -0.00000000000E+00 -0.00000000000E+00 -0.38378029991E+03  0.38378029991E+03  0.00000000000E+00 0. -1.
          6    2    1    2  501    0 -0.73865326835E+01 -0.10610386849E+02 -0.63390100604E+02  0.19909367057E+03  0.18828925522E+03 0.  0.
         24    2    3    3    0    0 -0.57019239070E+02  0.37315940837E+02  0.87535010113E+00  0.10468775665E+03  0.79467522228E+02 0.  0.
         -6    2    1    2    0  503  0.73865326835E+01  0.10610386849E+02 -0.22358881382E+03  0.28148801484E+03  0.17051804497E+03 0.  0.
        -24    2    5    5    0    0  0.56143146713E+02  0.33572122422E+02 -0.19401299118E+03  0.21983359086E+03  0.80041405516E+02 0.  0.
          5    1    3    3  501    0  0.49632706387E+02 -0.47926327686E+02 -0.64265450705E+02  0.94405913920E+02  0.47000000000E+01 0. -1.
        -13    1    4    4    0    0 -0.11606737611E+01  0.19102479514E+01 -0.31134153431E+02  0.31214287125E+02  0.00000000000E+00 0.  1.
         14    1    4    4    0    0 -0.55858565309E+02  0.35405692885E+02  0.32009503532E+02  0.73473469521E+02  0.00000000000E+00 0. -1.
         -5    1    5    5    0  503 -0.48756614029E+02 -0.22961735572E+02 -0.29575822641E+02  0.61654423985E+02  0.47000000000E+01 0.  1.
         13    1    6    6    0    0 -0.82836550234E-01 -0.21716135007E+02 -0.23662189033E+02  0.32116920329E+02  0.00000000000E+00 0. -1.
        -14    1    6    6    0    0  0.56225983263E+02  0.55288257429E+02 -0.17035080214E+03  0.18771667053E+03  0.00000000000E+00 0.  1.
</event>
<event>
12    1  0.9246030E-003  0.3071627E+03  0.7818608E-02  0.1082205E+00
         21   -1    0    0  501  502  0.00000000000E+00  0.00000000000E+00  0.61621725221E+03  0.61621725221E+03  0.00000000000E+00 0. -1.
         21   -1    0    0  502  503 -0.00000000000E+00 -0.00000000000E+00 -0.15544743853E+03  0.15544743853E+03  0.00000000000E+00 0.  1.
          6    2    1    2  501    0  0.24009094218E+03 -0.67437943698E+02  0.16447271615E+03  0.34488502083E+03  0.17234519566E+03 0.  0.
         24    2    3    3    0    0  0.17298006226E+03 -0.38497782392E+02  0.18565896497E+03  0.26864624934E+03  0.79356000542E+02 0.  0.
         -6    2    1    2    0  503 -0.24009094218E+03  0.67437943698E+02  0.29629709752E+03  0.42677966991E+03  0.17932478881E+03 0.  0.
        -24    2    5    5    0    0 -0.11897772513E+03  0.10748733126E+03  0.16034391548E+03  0.24029180839E+03  0.79503185397E+02 0.  0.
          5    1    3    3  501    0  0.67110879915E+02 -0.28940161306E+02 -0.21186248812E+02  0.76238771489E+02  0.47000000000E+01 0. -1.
        -13    1    4    4    0    0  0.93361814706E+02 -0.38755488741E+02  0.53534950123E+02  0.11438709384E+03  0.00000000000E+00 0.  1.
         14    1    4    4    0    0  0.79618247557E+02  0.25770634979E+00  0.13212401484E+03  0.15425915550E+03  0.00000000000E+00 0. -1.
         -5    1    5    5    0  503 -0.12111321705E+03 -0.40049387559E+02  0.13595318204E+03  0.18648786152E+03  0.47000000000E+01 0.  1.
         11    1    6    6    0    0 -0.12980210371E+03  0.89120744868E+02  0.13741596487E+03  0.20898382879E+03  0.00000000000E+00 0. -1.
        -12    1    6    6    0    0  0.10824378583E+02  0.18366586388E+02  0.22927950615E+02  0.31307979600E+02  0.00000000000E+00 0.  1.
</event>
<event>
12    1  0.9246030E-003  0.2419802E+03  0.7818608E-02  0.1118484E+00
         21   -1    0    0  501  502  0.00000000000E+00  0.00000000000E+00  0.60088517124E+03  0.60088517124E+03  0.00000000000E+00 0.  1.
         21   -1    0    0  502  503 -0.00000000000E+00 -0.00000000000E+00 -0.10950940861E+03  0.10950940861E+03  0.00000000000E+00 0.  1.
          6    2    1    2  501    0 -0.68465308830E+02 -0.15211827416E+03  0.36361808682E+03  0.43677515763E+03  0.17529106484E+03 0.  0.
         24    2    3    3    0    0 -0.53117035126E+02 -0.18295294193E+03  0.29633353588E+03  0.36104110296E+03  0.79018448211E+02 0.  0.
         -6    2    1    2    0  503  0.68465308830E+02  0.15211827416E+03  0.12775767582E+03  0.27361942222E+03  0.17526578856E+03 0.  0.
        -24    2    5    5    0    0  0.43353724175E+02  0.17583078023E+03  0.79752589024E+02  0.21429444447E+03  0.82253418146E+02 0.  0.
          5    1    3    3  501    0 -0.15348273704E+02  0.30834667766E+02  0.67284550941E+02  0.75734054674E+02  0.47000000000E+01 0. -1.
        -11    1    4    4    0    0 -0.17085063301E+02 -0.43727430292E+02  0.14439264615E+03  0.15183288119E+03  0.00000000000E+00 0.  1.
         12    1    4    4    0    0 -0.36031971825E+02 -0.13922551164E+03  0.15194088973E+03  0.20920822177E+03  0.00000000000E+00 0. -1.
         -5    1    5    5    0  503  0.25111584655E+02 -0.23712506065E+02  0.48005086794E+02  0.59324977757E+02  0.47000000000E+01 0.  1.
         13    1    6    6    0    0 -0.23870340475E+02  0.44392726344E+02  0.29182643157E+02  0.58242029225E+02  0.00000000000E+00 0. -1.
        -14    1    6    6    0    0  0.67224064650E+02  0.13143805388E+03  0.50569945868E+02  0.15605241524E+03  0.00000000000E+00 0.  1.
</event>
<event>
12    1  0.9246030E-003  0.1809682E+03  0.7818608E-02  0.1167127E+00
         21   -1    0    0  503  502  0.00000000000E+00  0.00000000000E+00  0.20037912493E+04  0.20037912493E+04  0.00000000000E+00 0. -1.
         21   -1    0    0  501  503 -0.00000000000E+00 -0.00000000000E+00 -0.20819112988E+02  0.20819112988E+02  0.00000000000E+00 0. -1.
          6    2    1    2  501    0  0.27184734107E+02  0.44658294076E+02  0.14681658067E+04  0.14792769626E+04  0.17325161863E+03 0.  0.
         24    2    3    3    0    0  0.27706656495E+02  0.17391743362E+02  0.14272568346E+04  0.14298869719E+04  0.80277948098E+02 0.  0.
         -6    2    1    2    0  502 -0.27184734107E+02 -0.44658294076E+02  0.51480632969E+03  0.54533339969E+03  0.17213246854E+03 0.  0.
        -24    2    5    5    0    0 -0.79136792132E+02 -0.45951167977E+01  0.27606592143E+03  0.29769829102E+03  0.78282389683E+02 0.  0.
          5    1    3    3  501    0 -0.52192238833E+00  0.27266550714E+02  0.40908972095E+02  0.49389990774E+02  0.47000000000E+01 0. -1.
        -11    1    4    4    0    0  0.41810778218E+02  0.82008927536E+01  0.36225294621E+03  0.36475004161E+03  0.00000000000E+00 0.  1.
         12    1    4    4    0    0 -0.14104121723E+02  0.91908506082E+01  0.10650038884E+04  0.10651369303E+04  0.00000000000E+00 0. -1.
         -5    1    5    5    0  502  0.51952058025E+02 -0.40063177278E+02  0.23874040827E+03  0.24763510867E+03  0.47000000000E+01 0.  1.
         13    1    6    6    0    0 -0.19644009628E+02 -0.29410150453E+02  0.41945373601E+02  0.54865822061E+02  0.00000000000E+00 0. -1.
        -14    1    6    6    0    0 -0.59492782504E+02  0.24815033655E+02  0.23412054783E+03  0.24283246896E+03  0.00000000000E+00 0.  1.
</event>
<event>
12    1  0.9246030E-003  0.1786790E+03  0.7818608E-02  0.1169126E+00
         21   -1    0    0  503  502  0.00000000000E+00  0.00000000000E+00  0.23513216144E+03  0.23513216144E+03  0.00000000000E+00 0.  1.
         21   -1    0    0  501  503 -0.00000000000E+00 -0.00000000000E+00 -0.14392595315E+03  0.14392595315E+03  0.00000000000E+00 0.  1.
          6    2    1    2  501    0 -0.41059899085E+02  0.23091850764E+02  0.91042626040E+02  0.20053667554E+03  0.17235733114E+03 0.  0.
         24    2    3    3    0    0  0.13403369795E+02  0.66040696404E+02  0.73019030801E+02  0.12871891322E+03  0.81827598396E+02 0.  0.
         -6    2    1    2    0  502  0.41059899085E+02 -0.23091850764E+02  0.16358224883E+00  0.17852143906E+03  0.17219386911E+03 0.  0.
        -24    2    5    5    0    0  0.86350635029E+02  0.44062871539E+01 -0.24379232124E+02  0.11993954690E+03  0.79468864438E+02 0.  0.
          5    1    3    3  501    0 -0.54463268880E+02 -0.42948845640E+02  0.18023595240E+02  0.71817762317E+02  0.47000000000E+01 0. -1.
        -11    1    4    4    0    0 -0.28727890420E+02  0.47958655920E+01  0.33981335637E+02  0.44755147038E+02  0.00000000000E+00 0.  1.
         12    1    4    4    0    0  0.42131260215E+02  0.61244830812E+02  0.39037695164E+02  0.83963766186E+02  0.00000000000E+00 0. -1.
         -5    1    5    5    0  502 -0.45290735944E+02 -0.27498137918E+02  0.24542814373E+02  0.58581892156E+02  0.47000000000E+01 0.  1.
         11    1    6    6    0    0  0.13066450454E+02  0.62147096548E+01 -0.42103876533E+02  0.44520682414E+02  0.00000000000E+00 0. -1.
        -12    1    6    6    0    0  0.73284184575E+02 -0.18084225009E+01  0.17724644409E+02  0.75418864485E+02  0.00000000000E+00 0.  1.
</event>
<event>
12    1  0.9246030E-003  0.1731063E+03  0.7818608E-02  0.1175371E+00
         21   -1    0    0  501  502  0.00000000000E+00  0.00000000000E+00  0.12716676428E+04  0.12716676428E+04  0.00000000000E+00 0.  1.
         21   -1    0    0  502  503 -0.00000000000E+00 -0.00000000000E+00 -0.23192037317E+02  0.23192037317E+02  0.00000000000E+00 0.  1.
          6    2    1    2  501    0 -0.34145053519E+01 -0.18065378172E+02  0.60565039617E+03  0.62913447468E+03  0.16929196117E+03 0.  0.
         24    2    3    3    0    0  0.37407781328E+02  0.26072635928E+02  0.49223987226E+03  0.50068736373E+03  0.79426821080E+02 0.  0.
         -6    2    1    2    0  503  0.34145053519E+01  0.18065378172E+02  0.64282520935E+03  0.66572520547E+03  0.17212722821E+03 0.  0.
        -24    2    5    5    0    0  0.28583045907E+02 -0.50329237012E+02  0.36013350013E+03  0.37375265319E+03  0.81516165544E+02 0.  0.
          5    1    3    3  501    0 -0.40822286680E+02 -0.44138014100E+02  0.11341052391E+03  0.12844711095E+03  0.47000000000E+01 0. -1.
        -11    1    4    4    0    0  0.32856610254E+02 -0.24343190066E+02  0.22985678958E+03  0.23346582503E+03  0.00000000000E+00 0.  1.
         12    1    4    4    0    0  0.45511710742E+01  0.50415825995E+02  0.26238308268E+03  0.26722153870E+03  0.00000000000E+00 0. -1.
         -5    1    5    5    0  503 -0.25168540555E+02  0.68394615184E+02  0.28269170923E+03  0.29197255228E+03  0.47000000000E+01 0.  1.
         11    1    6    6    0    0 -0.27178109269E+02 -0.63815960202E+01  0.78810999684E+02  0.83609497442E+02  0.00000000000E+00 0. -1.
        -12    1    6    6    0    0  0.55761155176E+02 -0.43947640992E+02  0.28132250044E+03  0.29014315575E+03  0.00000000000E+00 0.  1.
</event>
<event>
12    1  0.9246030E-003  0.2069041E+03  0.7818608E-02  0.1144268E+00
         21   -1    0    0  501  502  0.00000000000E+00  0.00000000000E+00  0.57440154146E+03  0.57440154146E+03  0.00000000000E+00 0. -1.
         21   -1    0    0  502  503 -0.00000000000E+00 -0.00000000000E+00 -0.74419719089E+02  0.74419719089E+02  0.00000000000E+00 0.  1.
          6    2    1    2  501    0 -0.47673709811E+02  0.10330890253E+03  0.27107500844E+03  0.34101462305E+03  0.17281146081E+03 0.  0.
         24    2    3    3    0    0 -0.99299848545E+02  0.78559719724E+02  0.20203015158E+03  0.25119779551E+03  0.79069974323E+02 0.  0.
         -6    2    1    2    0  503  0.47673709811E+02 -0.10330890253E+03  0.22890681393E+03  0.30780663750E+03  0.17146744494E+03 0.  0.
        -24    2    5    5    0    0  0.76094377907E+02 -0.73094562001E+02  0.21624855529E+03  0.26418368184E+03  0.10907066858E+03 0.  0.
          5    1    3    3  501    0  0.51626138735E+02  0.24749182801E+02  0.69044856860E+02  0.89816827537E+02  0.47000000000E+01 0. -1.
        -11    1    4    4    0    0  0.56003672322E+01 -0.30802706022E+01 -0.28309681685E+01  0.69904621370E+01  0.00000000000E+00 0.  1.
         12    1    4    4    0    0 -0.10490021578E+03  0.81639990326E+02  0.20486111975E+03  0.24420733338E+03  0.00000000000E+00 0. -1.
         -5    1    5    5    0  503 -0.28420668096E+02 -0.30214340524E+02  0.12658258641E+02  0.43622955656E+02  0.47000000000E+01 0.  1.
         11    1    6    6    0    0 -0.12175148262E+02 -0.58968657759E+02  0.10937031490E+03  0.12484951988E+03  0.00000000000E+00 0. -1.
        -12    1    6    6    0    0  0.88269526169E+02 -0.14125904242E+02  0.10687824039E+03  0.13933416196E+03  0.00000000000E+00 0.  1.
</event>
<event>
12    1  0.9246030E-003  0.2301658E+03  0.7818608E-02  0.1127493E+00
         21   -1    0    0  501  502  0.00000000000E+00  0.00000000000E+00  0.12044676807E+03  0.12044676807E+03  0.00000000000E+00 0.  1.
         21   -1    0    0  502  503 -0.00000000000E+00 -0.00000000000E+00 -0.44444864745E+03  0.44444864745E+03  0.00000000000E+00 0.  1.
          6    2    1    2  501    0  0.13514092309E+03 -0.43114443991E+02 -0.11205361139E+03  0.25599281328E+03  0.18125778398E+03 0.  0.
         24    2    3    3    0    0  0.16088747777E+03 -0.75361023964E+02 -0.97481274687E+02  0.21197951989E+03  0.62198500807E+02 0.  0.
         -6    2    1    2    0  503 -0.13514092309E+03  0.43114443991E+02 -0.21194826799E+03  0.30890260224E+03  0.17428948618E+03 0.  0.
        -24    2    5    5    0    0 -0.12462272388E+03  0.65471396353E+01 -0.22418165647E+03  0.26865901820E+03  0.79665328834E+02 0.  0.
          5    1    3    3  501    0 -0.25746554685E+02  0.32246579973E+02 -0.14572336706E+02  0.44013293391E+02  0.47000000000E+01 0. -1.
        -11    1    4    4    0    0  0.11345463208E+03 -0.28725599012E+02 -0.84127154420E+02  0.14413358973E+03  0.00000000000E+00 0.  1.
         12    1    4    4    0    0  0.47432845690E+02 -0.46635424952E+02 -0.13354120267E+02  0.67845930157E+02  0.00000000000E+00 0. -1.
         -5    1    5    5    0  503 -0.10518199202E+02  0.36567304356E+02  0.12233388482E+02  0.40243584036E+02  0.47000000000E+01 0.  1.
         11    1    6    6    0    0 -0.58503941317E+02 -0.22516290946E+02 -0.16072702156E+03  0.17251918725E+03  0.00000000000E+00 0. -1.
        -12    1    6    6    0    0 -0.66118782567E+02  0.29063430581E+02 -0.63454634911E+02  0.96139830960E+02  0.00000000000E+00 0.  1.
</event>
<event>
12    1  0.9246030E-003  0.1861680E+03  0.7818608E-02  0.1162855E+00
         21   -1    0    0  503  502  0.00000000000E+00  0.00000000000E+00  0.11901836297E+03  0.11901836297E+03  0.00000000000E+00 0. -1.
         21   -1    0    0  501  503 -0.00000000000E+00 -0.00000000000E+00 -0.38319176108E+03  0.38319176108E+03  0.00000000000E+00 0.  1.
          6    2    1    2  501    0 -0.20554129188E+02  0.56030706364E+02 -0.26002723040E+03  0.31980099971E+03  0.17634229948E+03 0.  0.
         24    2    3    3    0    0 -0.21168424343E+02  0.10492550778E+03 -0.21867884791E+03  0.25559151679E+03  0.77776092440E+02 0.  0.
         -6    2    1    2    0  502  0.20554129188E+02 -0.56030706364E+02 -0.41461677191E+01  0.18240912434E+03  0.17231942912E+03 0.  0.
        -24    2    5    5    0    0  0.49495579377E+02 -0.56085240146E+02  0.48097346746E+02  0.12250014908E+03  0.84247048737E+02 0.  0.
          5    1    3    3  501    0  0.61429515575E+00 -0.48894801415E+02 -0.41348382480E+02  0.64209482927E+02  0.47000000000E+01 0. -1.
        -11    1    4    4    0    0  0.25785055500E+02  0.12546718150E+02 -0.48719313163E+02  0.56531944054E+02  0.00000000000E+00 0.  1.
         12    1    4    4    0    0 -0.46953479843E+02  0.92378789630E+02 -0.16995953475E+03  0.19905957273E+03  0.00000000000E+00 0. -1.
         -5    1    5    5    0  502 -0.28941450189E+02  0.54533782423E-01 -0.52243514465E+02  0.59908975259E+02  0.47000000000E+01 0.  1.
         13    1    6    6    0    0  0.12192170596E+02  0.21102861855E+02  0.22141367813E+02  0.32927495668E+02  0.00000000000E+00 0. -1.
        -14    1    6    6    0    0  0.37303408781E+02 -0.77188102001E+02  0.25955978933E+02  0.89572653414E+02  0.00000000000E+00 0.  1.
</event>
<event>
12    1  0.9246030E-003  0.1861969E+03  0.7818608E-02  0.1161991E+00
         21   -1    0    0  501  502  0.00000000000E+00  0.00000000000E+00  0.52504703706E+02  0.52504703706E+02  0.00000000000E+00 0.  1.
         21   -1    0    0  502  503 -0.00000000000E+00 -0.00000000000E+00 -0.67387245529E+03  0.67387245529E+03  0.00000000000E+00 0.  1.
          6    2    1    2  501    0  0.66469290657E+02  0.19617394749E+02 -0.25740991407E+03  0.31755617992E+03  0.17256608811E+03 0.  0.
         24    2    3    3    0    0  0.71856401223E+02  0.53468935304E+02 -0.25611904745E+03  0.28293387360E+03  0.80201876084E+02 0.  0.
         -6    2    1    2    0  503 -0.66469290657E+02 -0.19617394749E+02 -0.36395783751E+03  0.40882097908E+03  0.17281862362E+03 0.  0.
        -24    2    5    5    0    0  0.14393478126E+02  0.36082072429E+02 -0.21415929671E+03  0.22964812721E+03  0.73245954157E+02 0.  0.
          5    1    3    3  501    0 -0.53871105657E+01 -0.33851540555E+02 -0.12908666266E+01  0.34622306319E+02  0.47000000000E+01 0. -1.
        -13    1    4    4    0    0  0.33690483978E+02 -0.18717315670E+02 -0.79107078613E+02  0.87996116410E+02  0.00000000000E+00 0.  1.
         14    1    4    4    0    0  0.38165917245E+02  0.72186250974E+02 -0.17701196883E+03  0.19493775719E+03  0.00000000000E+00 0. -1.
         -5    1    5    5    0  503 -0.80862768783E+02 -0.55699467178E+02 -0.14979854080E+03  0.17917285187E+03  0.47000000000E+01 0.  1.
         11    1    6    6    0    0  0.25193075788E+02 -0.14028981412E+02 -0.50550401429E+02  0.58196619075E+02  0.00000000000E+00 0. -1.
        -12    1    6    6    0    0 -0.10799597662E+02  0.50111053841E+02 -0.16360889528E+03  0.17145150813E+03  0.00000000000E+00 0.  1.
</event>
<event>
12    1  0.9246030E-003  0.2072251E+03  0.7818608E-02  0.1143992E+00
         21   -1    0    0  501  502  0.00000000000E+00  0.00000000000E+00  0.52651613231E+03  0.52651613231E+03  0.00000000000E+00 0. -1.
         21   -1    0    0  502  503 -0.00000000000E+00 -0.00000000000E+00 -0.89811066917E+02  0.89811066917E+02  0.00000000000E+00 0. -1.
          6    2    1    2  501    0  0.10477300058E+03  0.44205264593E+02  0.31354572471E+03  0.37526605111E+03  0.17199476900E+03 0.  0.
         24    2    3    3    0    0 -0.74489030792E+00  0.53262467604E+02  0.19698474756E+03  0.21770777739E+03  0.75869890253E+02 0.  0.
         -6    2    1    2    0  503 -0.10477300058E+03 -0.44205264593E+02  0.12315934069E+03  0.24106114812E+03  0.17323615924E+03 0.  0.
        -24    2    5    5    0    0 -0.51273328864E+02  0.31588857029E+02  0.20267517690E+02  0.10244015049E+03  0.80351739353E+02 0.  0.
          5    1    3    3  501    0  0.10551789089E+03 -0.90572030110E+01  0.11656097714E+03  0.15755827372E+03  0.47000000000E+01 0. -1.
        -13    1    4    4    0    0  0.25557341588E+01 -0.20744621510E+01 -0.62415816880E+01  0.70563809616E+01  0.00000000000E+00 0.  1.
         14    1    4    4    0    0 -0.33006244667E+01  0.55336929755E+02  0.20322632925E+03  0.21065139643E+03  0.00000000000E+00 0. -1.
         -5    1    5    5    0  503 -0.53499671716E+02 -0.75794121622E+02  0.10289182300E+03  0.13862099764E+03  0.47000000000E+01 0.  1.
         11    1    6    6    0    0 -0.70509414196E+02  0.27495558190E+02  0.21672006513E+01  0.75711821859E+02  0.00000000000E+00 0. -1.
        -12    1    6    6    0    0  0.19236085332E+02  0.40932988390E+01  0.18100317039E+02  0.26728328627E+02  0.00000000000E+00 0.  1.
</event>
<event>
12    1  0.9246030E-003  0.2093862E+03  0.7818608E-02  0.1143223E+00
         21   -1    0    0  503  502  0.00000000000E+00  0.00000000000E+00  0.37992671625E+03  0.37992671625E+03  0.00000000000E+00 0. -1.
         21   -1    0    0  501  503 -0.00000000000E+00 -0.00000000000E+00 -0.11987864488E+03  0.11987864488E+03  0.00000000000E+00 0. -1.
          6    2    1    2  501    0 -0.11559992088E+03  0.28923532541E+02  0.19145918268E+03  0.27947150995E+03  0.16506905768E+03 0.  0.
         24    2    3    3    0    0 -0.54875274868E+02  0.70261171021E+02  0.16143055655E+03  0.19997250760E+03  0.77338549658E+02 0.  0.
         -6    2    1    2    0  502  0.11559992088E+03 -0.28923532541E+02  0.68588888684E+02  0.22033385118E+03  0.17217043266E+03 0.  0.
        -24    2    5    5    0    0  0.14422756104E+03 -0.39123881589E+02  0.32327173615E+02  0.17278817965E+03  0.80488765669E+02 0.  0.
          5    1    3    3  501    0 -0.60724646010E+02 -0.41337638480E+02  0.30028626134E+02  0.79499002356E+02  0.47000000000E+01 0. -1.
        -11    1    4    4    0    0 -0.51892829033E+02  0.52811803579E+02  0.55394516842E+02  0.92468939642E+02  0.00000000000E+00 0.  1.
         12    1    4    4    0    0 -0.29824458355E+01  0.17449367442E+02  0.10603603970E+03  0.10750356796E+03  0.00000000000E+00 0. -1.
         -5    1    5    5    0  502 -0.28627640158E+02  0.10200349048E+02  0.36261715069E+02  0.47545671532E+02  0.47000000000E+01 0.  1.
         13    1    6    6    0    0  0.14045775652E+03 -0.53502413409E+02  0.40716027465E+02  0.15571989115E+03  0.00000000000E+00 0. -1.
        -14    1    6    6    0    0  0.37698045199E+01  0.14378531821E+02 -0.83888538497E+01  0.17068288501E+02  0.00000000000E+00 0.  1.
</event>
<event>
12    1  0.9246030E-003  0.2151398E+03  0.7818608E-02  0.1137809E+00
         21   -1    0    0  501  502  0.00000000000E+00  0.00000000000E+00  0.86896160397E+02  0.86896160397E+02  0.00000000000E+00 0.  1.
         21   -1    0    0  502  503 -0.00000000000E+00 -0.00000000000E+00 -0.58107031481E+03  0.58107031481E+03  0.00000000000E+00 0. -1.
          6    2    1    2  501    0 -0.41331710703E+02 -0.11855642301E+03 -0.14685927992E+03  0.25941688606E+03  0.17310556585E+03 0.  0.
         24    2    3    3    0    0 -0.48488044183E+02 -0.15134462198E+01 -0.83675335065E+02  0.12613308205E+03  0.80960556700E+02 0.  0.
         -6    2    1    2    0  503  0.41331710703E+02  0.11855642301E+03 -0.34731487450E+03  0.40854958915E+03  0.17470320260E+03 0.  0.
        -24    2    5    5    0    0  0.86387583853E+02  0.47283548479E+02 -0.17882181316E+03  0.22007716127E+03  0.82208074129E+02 0.  0.
          5    1    3    3  501    0  0.71563334795E+01 -0.11704297679E+03 -0.63183944850E+02  0.13328380401E+03  0.47000000000E+01 0. -1.
        -11    1    4    4    0    0  0.18350244746E+02  0.16857517670E+02 -0.19080922378E+02  0.31384534138E+02  0.00000000000E+00 0.  1.
         12    1    4    4    0    0 -0.66838288929E+02 -0.18370963890E+02 -0.64594412687E+02  0.94748547913E+02  0.00000000000E+00 0. -1.
         -5    1    5    5    0  503 -0.45055873149E+02  0.71272874530E+02 -0.16849306134E+03  0.18847242788E+03  0.47000000000E+01 0.  1.
         13    1    6    6    0    0  0.31348056239E+02 -0.22457313896E+02 -0.66432111168E+02  0.76813130203E+02  0.00000000000E+00 0. -1.
        -14    1    6    6    0    0  0.55039527614E+02  0.69740862375E+02 -0.11238970199E+03  0.14326403107E+03  0.00000000000E+00 0.  1.
</event>
<event>
12    1  0.9246030E-003  0.1883422E+03  0.7818608E-02  0.1160488E+00
         21   -1    0    0  501  502  0.00000000000E+00  0.00000000000E+00  0.15147368466E+04  0.15147368466E+04  0.00000000000E+00 0. -1.
         21   -1    0    0  502  503 -0.00000000000E+00 -0.00000000000E+00 -0.26704020290E+02  0.26704020290E+02  0.00000000000E+00 0. -1.
          6    2    1    2  501    0 -0.52011855453E+02 -0.56469254848E+02  0.45836793779E+03  0.49469230541E+03  0.16948539992E+03 0.  0.
         24    2    3    3    0    0  0.14059571698E+02 -0.38358629727E+01  0.11412406791E+03  0.14020445037E+03  0.80128644219E+02 0.  0.
         -6    2    1    2    0  503  0.52011855453E+02  0.56469254848E+02  0.10296648885E+04  0.10467485614E+04  0.17198476228E+03 0.  0.
        -24    2    5    5    0    0 -0.31525394708E+02 -0.47967209966E+00  0.44926170925E+03  0.45758679002E+03  0.80966081811E+02 0.  0.
          5    1    3    3  501    0 -0.66071427151E+02 -0.52633391875E+02  0.34424386988E+03  0.35448785504E+03  0.47000000000E+01 0. -1.
        -13    1    4    4    0    0  0.46031908693E+02 -0.13245154779E+02  0.62231325791E+02  0.78530940735E+02  0.00000000000E+00 0.  1.
         14    1    4    4    0    0 -0.31972336995E+02  0.94092918068E+01  0.51892742123E+02  0.61673509632E+02  0.00000000000E+00 0. -1.
         -5    1    5    5    0  503  0.83537250161E+02  0.56948926947E+02  0.58040317924E+03  0.58916177143E+03  0.47000000000E+01 0.  1.
         13    1    6    6    0    0  0.27615065116E+00 -0.33058994697E+02  0.29205922188E+03  0.29392441626E+03  0.00000000000E+00 0. -1.
        -14    1    6    6    0    0 -0.31801545359E+02  0.32579322598E+02  0.15720248737E+03  0.16366237375E+03  0.00000000000E+00 0.  1.
</event>
<event>
12    1  0.9246030E-003  0.3268195E+03  0.7818608E-02  0.1072638E+00
         21   -1    0    0  503  502  0.00000000000E+00  0.00000000000E+00  0.84500406719E+03  0.84500406719E+03  0.00000000000E+00 0. -1.
         21   -1    0    0  501  503 -0.00000000000E+00 -0.00000000000E+00 -0.20227129129E+03  0.20227129129E+03  0.00000000000E+00 0.  1.
          6    2    1    2  501    0  0.43520961683E+02 -0.27354727613E+03  0.28556724479E+00  0.32681962929E+03  0.17346124108E+03 0.  0.
         24    2    3    3    0    0 -0.14448688297E+02 -0.14580482196E+03 -0.55372483684E+02  0.17582782968E+03  0.79884310352E+02 0.  0.
         -6    2    1    2    0  502 -0.43520961683E+02  0.27354727613E+03  0.64244720865E+03  0.72045572920E+03  0.17203446004E+03 0.  0.
        -24    2    5    5    0    0  0.11448236550E+02  0.48688480165E+02  0.16623151052E+03  0.19094031674E+03  0.79521438918E+02 0.  0.
          5    1    3    3  501    0  0.57969649980E+02 -0.12774245417E+03  0.55658050929E+02  0.15099179961E+03  0.47000000000E+01 0. -1.
        -11    1    4    4    0    0  0.28652082332E+02 -0.66660640750E+02 -0.44346879613E+02  0.85036630804E+02  0.00000000000E+00 0.  1.
         12    1    4    4    0    0 -0.43100770629E+02 -0.79144181207E+02 -0.11025604071E+02  0.90791198873E+02  0.00000000000E+00 0. -1.
         -5    1    5    5    0  502 -0.54969198233E+02  0.22485879597E+03  0.47621569813E+03  0.52951541245E+03  0.47000000000E+01 0.  1.
         11    1    6    6    0    0  0.16186604730E+01  0.20604076553E+02  0.15897570571E+03  0.16031351483E+03  0.00000000000E+00 0. -1.
        -12    1    6    6    0    0  0.98295760774E+01  0.28084403611E+02  0.72558048163E+01  0.30626801916E+02  0.00000000000E+00 0.  1.
</event>
<event>
12    1  0.9246030E-003  0.1869353E+03  0.7818608E-02  0.1161381E+00
         21   -1    0    0  503  502  0.00000000000E+00  0.00000000000E+00  0.40479552593E+02  0.40479552593E+02  0.00000000000E+00 0. -1.
         21   -1    0    0  501  503 -0.00000000000E+00 -0.00000000000E+00 -0.86255708702E+03  0.86255708702E+03  0.00000000000E+00 0. -1.
          6    2    1    2  501    0  0.71283321366E+02 -0.17400930921E+02 -0.39096033581E+03  0.43335294596E+03  0.17193221714E+03 0.  0.
         24    2    3    3    0    0  0.99252160743E-01  0.35454537736E+02 -0.12037176350E+03  0.14857033107E+03  0.79540855724E+02 0.  0.
         -6    2    1    2    0  502 -0.71283321366E+02  0.17400930921E+02 -0.43111719861E+03  0.46968369365E+03  0.17133776245E+03 0.  0.
        -24    2    5    5    0    0 -0.10285704002E+03  0.36285635850E+02 -0.24471383063E+03  0.27962623554E+03  0.80060943338E+02 0.  0.
          5    1    3    3  501    0  0.71184069205E+02 -0.52855468657E+02 -0.27058857232E+03  0.28478261489E+03  0.47000000000E+01 0. -1.
        -13    1    4    4    0    0  0.35656342976E+02  0.24649843811E+02 -0.35892464921E+02  0.56278402895E+02  0.00000000000E+00 0.  1.
         14    1    4    4    0    0 -0.35557090815E+02  0.10804693924E+02 -0.84479298577E+02  0.92291928174E+02  0.00000000000E+00 0. -1.
         -5    1    5    5    0  502  0.31573718657E+02 -0.18884704929E+02 -0.18640336798E+03  0.19005745811E+03  0.47000000000E+01 0.  1.
         11    1    6    6    0    0 -0.89028916677E+02  0.41480426424E+02 -0.24591714024E+03  0.26480561482E+03  0.00000000000E+00 0. -1.
        -12    1    6    6    0    0 -0.13828123347E+02 -0.51947905736E+01  0.12033096033E+01  0.14820620716E+02  0.00000000000E+00 0.  1.
</event>
<event>
12    1  0.9246030E-003  0.1831432E+03  0.7818608E-02  0.1165482E+00
         21   -1    0    0  501  502  0.00000000000E+00  0.00000000000E+00  0.24075446480E+02  0.24075446480E+02  0.00000000000E+00 0.  1.
         21   -1    0    0  502  503 -0.00000000000E+00 -0.00000000000E+00 -0.14420607491E+04  0.14420607491E+04  0.00000000000E+00 0.  1.
          6    2    1    2  501    0 -0.42289616967E+02 -0.43588547699E+02 -0.86595122816E+03  0.88451513386E+03  0.16972660159E+03 0.  0.
         24    2    3    3    0    0 -0.68823409037E+02 -0.71857519275E+02 -0.77542939247E+03  0.78592776341E+03  0.80570105424E+02 0.  0.
         -6    2    1    2    0  503  0.42289616967E+02  0.43588547699E+02 -0.55203407450E+03  0.58162106176E+03  0.17278040073E+03 0.  0.
        -24    2    5    5    0    0  0.38463916310E+02  0.23699672476E+02 -0.55337066253E+03  0.56078647967E+03  0.78874826790E+02 0.  0.
          5    1    3    3  501    0  0.26533792070E+02  0.28268971575E+02 -0.90521835691E+02  0.98587370451E+02  0.47000000000E+01 0. -1.
        -11    1    4    4    0    0 -0.61765756716E+02 -0.88353774037E+02 -0.60233563654E+03  0.61190654281E+03  0.00000000000E+00 0.  1.
         12    1    4    4    0    0 -0.70576523213E+01  0.16496254763E+02 -0.17309375593E+03  0.17402122060E+03  0.00000000000E+00 0. -1.
         -5    1    5    5    0  503  0.38257006563E+01  0.19888875223E+02  0.13365880286E+01  0.20834582086E+02  0.47000000000E+01 0.  1.
         11    1    6    6    0    0  0.10830143852E+02 -0.26393772570E+02 -0.28269493411E+03  0.28413086601E+03  0.00000000000E+00 0. -1.
        -12    1    6    6    0    0  0.27633772458E+02  0.50093445047E+02 -0.27067572842E+03  0.27665561366E+03  0.00000000000E+00 0.  1.
</event>
<event>
12    1  0.9246030E-003  0.1763452E+03  0.7818608E-02  0.1172440E+00
         21   -1    0    0  501  502  0.00000000000E+00  0.00000000000E+00  0.11421909234E+04  0.11421909234E+04  0.00000000000E+00 0.  1.
         21   -1    0    0  502  503 -0.00000000000E+00 -0.00000000000E+00 -0.26994755032E+02  0.26994755032E+02  0.00000000000E+00 0.  1.
          6    2    1    2  501    0  0.17880764747E+02 -0.30416739769E+02  0.62304167848E+03  0.64639158275E+03  0.16851185511E+03 0.  0.
         24    2    3    3    0    0 -0.21798583434E+02 -0.75744870391E+02  0.41543780076E+03  0.43017282745E+03  0.79041960653E+02 0.  0.
         -6    2    1    2    0  503 -0.17880764747E+02  0.30416739769E+02  0.49215448986E+03  0.52279409566E+03  0.17277941069E+03 0.  0.
        -24    2    5    5    0    0  0.12038458734E+01  0.58367973678E+02  0.15290702784E+03  0.18183013228E+03  0.79204597368E+02 0.  0.
          5    1    3    3  501    0  0.39679348181E+02  0.45328130622E+02  0.20760387772E+03  0.21621875529E+03  0.47000000000E+01 0. -1.
        -11    1    4    4    0    0  0.19807192930E+02 -0.62731790989E+02  0.29026373179E+03  0.29762499304E+03  0.00000000000E+00 0.  1.
         12    1    4    4    0    0 -0.41605776364E+02 -0.13013079402E+02  0.12517406897E+03  0.13254783441E+03  0.00000000000E+00 0. -1.
         -5    1    5    5    0  503 -0.19084610621E+02 -0.27951233909E+02  0.33924746201E+03  0.34096396338E+03  0.47000000000E+01 0.  1.
         13    1    6    6    0    0  0.28394408326E+02  0.13600749400E+02  0.10908694499E+03  0.11353935166E+03  0.00000000000E+00 0. -1.
        -14    1    6    6    0    0 -0.27190562453E+02  0.44767224278E+02  0.43820082856E+02  0.68290780618E+02  0.00000000000E+00 0.  1.
</event>
<event>
12    1  0.9246030E-003  0.2105518E+03  0.7818608E-02  0.1142424E+00
         21   -1    0    0  503  502  0.00000000000E+00  0.00000000000E+00  0.25453119226E+03  0.25453119226E+03  0.00000000000E+00 0. -1.
         21   -1    0    0  501  503 -0.00000000000E+00 -0.00000000000E+00 -0.21025285630E+03  0.21025285630E+03  0.00000000000E+00 0. -1.
          6    2    1    2  501    0  0.89307146842E+02  0.88295339805E+02  0.12549752905E+03  0.24511567483E+03  0.16899772407E+03 0.  0.
         24    2    3    3    0    0  0.52625597624E+02  0.27614712373E+02 -0.59286004758E+01  0.95708204735E+02  0.74785602126E+02 0.  0.
         -6    2    1    2    0  502 -0.89307146842E+02 -0.88295339805E+02 -0.81219193094E+02  0.21966837373E+03  0.16089065723E+03 0.  0.
        -24    2    5    5    0    0 -0.21546578693E+02  0.76301612469E+01 -0.16191935762E+02  0.85341047607E+02  0.80612909692E+02 0.  0.
          5    1    3    3  501    0  0.36681549218E+02  0.60680627432E+02  0.13142612953E+03  0.14940747010E+03  0.47000000000E+01 0. -1.
        -11    1    4    4    0    0  0.63229570153E+01 -0.23530314954E+02  0.73531774977E+01  0.25450436668E+02  0.00000000000E+00 0.  1.
         12    1    4    4    0    0  0.46302640608E+02  0.51145027327E+02 -0.13281777973E+02  0.70257768067E+02  0.00000000000E+00 0. -1.
         -5    1    5    5    0  502 -0.67760568149E+02 -0.95925501052E+02 -0.65027257332E+02  0.13432732613E+03  0.47000000000E+01 0.  1.
         13    1    6    6    0    0 -0.61153870484E+01  0.56738731487E+01 -0.48643804749E+02  0.49353931309E+02  0.00000000000E+00 0. -1.
        -14    1    6    6    0    0 -0.15431191645E+02  0.19562880982E+01  0.32451868987E+02  0.35987116298E+02  0.00000000000E+00 0.  1.
</event>
<event>
12    1  0.9246030E-003  0.3444687E+03  0.7818608E-02  0.1065080E+00
         21   -1    0    0  501  502  0.00000000000E+00  0.00000000000E+00  0.42591162468E+03  0.42591162468E+03  0.00000000000E+00 0.  1.
         21   -1    0    0  502  503 -0.00000000000E+00 -0.00000000000E+00 -0.27728354507E+03  0.27728354507E+03  0.00000000000E+00 0. -1.
          6    2    1    2  501    0  0.18039972199E+03 -0.23477704998E+03  0.72326079524E+02  0.35037694322E+03  0.17282539648E+03 0.  0.
         24    2    3    3    0    0  0.16158768726E+02 -0.84712085554E+02  0.52681416804E+02  0.12698807364E+03  0.76898608085E+02 0.  0.
         -6    2    1    2    0  503 -0.18039972199E+03  0.23477704998E+03  0.76302000088E+02  0.35281822654E+03  0.17605221631E+03 0.  0.
        -24    2    5    5    0    0 -0.88605099809E+02  0.89413934990E+02  0.99303813081E+02  0.17930205651E+03  0.80263719655E+02 0.  0.
          5    1    3    3  501    0  0.16424095326E+03 -0.15006496443E+03  0.19644662721E+02  0.22338886958E+03  0.47000000000E+01 0. -1.
        -13    1    4    4    0    0 -0.10173643303E+02  0.10254254537E+02 -0.15066812333E+01  0.14523182933E+02  0.00000000000E+00 0.  1.
         14    1    4    4    0    0  0.26332412029E+02 -0.94966340091E+02  0.54188098037E+02  0.11246489071E+03  0.00000000000E+00 0. -1.
         -5    1    5    5    0  503 -0.91794622179E+02  0.14536311499E+03 -0.23001812993E+02  0.17351617003E+03  0.47000000000E+01 0.  1.
         11    1    6    6    0    0  0.37586686584E+01  0.46074917361E+02  0.41009446002E+02  0.61796442141E+02  0.00000000000E+00 0. -1.
        -12    1    6    6    0    0 -0.92363768467E+02  0.43339017629E+02  0.58294367078E+02  0.11750561437E+03  0.00000000000E+00 0.  1.
</event>
<event>
12    1  0.9246030E-003  0.2190798E+03  0.7818608E-02  0.1134859E+00
         21   -1    0    0  503  502  0.00000000000E+00  0.00000000000E+00  0.49959070742E+03  0.49959070742E+03  0.00000000000E+00 0.  1.
         21   -1    0    0  501  503 -0.00000000000E+00 -0.00000000000E+00 -0.23074973720E+03  0.23074973720E+03  0.00000000000E+00 0. -1.
          6    2    1    2  501    0 -0.13236412546E+03 -0.42155512168E+01 -0.14544735465E+03  0.26169262469E+03  0.17259798452E+03 0.  0.
         24    2    3    3    0    0 -0.42022262800E+01  0.27283968421E+02 -0.76293902417E+02  0.11262223160E+03  0.78108474995E+02 0.  0.
         -6    2    1    2    0  502  0.13236412546E+03  0.42155512168E+01  0.41428832487E+03  0.46864781993E+03  0.17452200555E+03 0.  0.
        -24    2    5    5    0    0  0.11903818918E+03 -0.27950495552E+02  0.40752736330E+03  0.43287023276E+03  0.79666592045E+02 0.  0.
          5    1    3    3  501    0 -0.12816189918E+03 -0.31499519638E+02 -0.69153452238E+02  0.14907039309E+03  0.47000000000E+01 0. -1.
        -11    1    4    4    0    0 -0.77883555380E+01 -0.89596064260E+01  0.12141492491E+02  0.16980838295E+02  0.00000000000E+00 0.  1.
         12    1    4    4    0    0  0.35861292580E+01  0.36243574847E+02 -0.88435394908E+02  0.95641393305E+02  0.00000000000E+00 0. -1.
         -5    1    5    5    0  502  0.13325936282E+02  0.32166046769E+02  0.67609615741E+01  0.35777587173E+02  0.47000000000E+01 0.  1.
         13    1    6    6    0    0  0.12611919408E+02  0.21244123142E+02  0.39235106369E+02  0.46365578299E+02  0.00000000000E+00 0. -1.
        -14    1    6    6    0    0  0.10642626977E+03 -0.49194618694E+02  0.36829225693E+03  0.38650465446E+03  0.00000000000E+00 0.  1.
</event>
<event>
12    1  0.9246030E-003  0.1742021E+03  0.7818608E-02  0.1173561E+00
         21   -1    0    0  501  502  0.00000000000E+00  0.00000000000E+00  0.21089792384E+03  0.21089792384E+03  0.00000000000E+00 0. -1.
         21   -1    0    0  502  503 -0.00000000000E+00 -0.00000000000E+00 -0.24613957443E+03  0.24613957443E+03  0.00000000000E+00 0. -1.
          6    2    1    2  501    0 -0.14831017240E+01  0.28556941481E+02  0.12972140973E+03  0.21719582375E+03  0.17183912015E+03 0.  0.
         24    2    3    3    0    0  0.37252096162E+02  0.43781187187E+02  0.33418414783E+02  0.11217892012E+03  0.90348263136E+02 0.  0.
         -6    2    1    2    0  503  0.14831017240E+01 -0.28556941481E+02 -0.16496306032E+03  0.23984167452E+03  0.17173677262E+03 0.  0.
        -24    2    5    5    0    0  0.29593876651E+02 -0.57944314563E+02 -0.17062472507E+03  0.19851398633E+03  0.77856694227E+02 0.  0.
          5    1    3    3  501    0 -0.38735197886E+02 -0.15224245705E+02  0.96302994948E+02  0.10501690363E+03  0.47000000000E+01 0. -1.
        -13    1    4    4    0    0  0.20808457035E+02 -0.17520950822E+02  0.39995746865E+02  0.48369777436E+02  0.00000000000E+00 0.  1.
         14    1    4    4    0    0  0.16443639127E+02  0.61302138009E+02 -0.65773320822E+01  0.63809142679E+02  0.00000000000E+00 0. -1.
         -5    1    5    5    0  503 -0.28110774927E+02  0.29387373082E+02  0.56616647518E+01  0.41327688193E+02  0.47000000000E+01 0.  1.
         13    1    6    6    0    0 -0.82334127916E+01 -0.33004539952E+02 -0.16384024711E+02  0.37756125454E+02  0.00000000000E+00 0. -1.
        -14    1    6    6    0    0  0.37827289442E+02 -0.24939774612E+02 -0.15424070036E+03  0.16075786087E+03  0.00000000000E+00 0.  1.
</event>
<event>
12    1  0.9246030E-003  0.1833974E+03  0.7818608E-02  0.1165295E+00
         21   -1    0    0  501  502  0.00000000000E+00  0.00000000000E+00  0.99677362565E+03  0.99677362565E+03  0.00000000000E+00 0.  1.
         21   -1    0    0  502  503 -0.00000000000E+00 -0.00000000000E+00 -0.33552589043E+02  0.33552589043E+02  0.00000000000E+00 0.  1.
          6    2    1    2  501    0  0.58318812103E+02 -0.12430049287E+02  0.53224728113E+03  0.56195350214E+03  0.17014399880E+03 0.  0.
         24    2    3    3    0    0  0.10028830523E+03 -0.23539401475E+02  0.31979122817E+03  0.34505601369E+03  0.78647157466E+02 0.  0.
         -6    2    1    2    0  503 -0.58318812103E+02  0.12430049287E+02  0.43097375548E+03  0.46837271256E+03  0.17343307062E+03 0.  0.
        -24    2    5    5    0    0 -0.95731486317E+01 -0.38380506814E+02  0.36292363176E+03  0.37033822038E+03  0.62226413234E+02 0.  0.
          5    1    3    3  501    0 -0.41969493128E+02  0.11109352188E+02  0.21245605295E+03  0.21689748845E+03  0.47000000000E+01 0. -1.
        -13    1    4    4    0    0  0.10440888830E+03 -0.12300751826E+02  0.31514081769E+03  0.33221417704E+03  0.00000000000E+00 0.  1.
         14    1    4    4    0    0 -0.41205830712E+01 -0.11238649648E+02  0.46504104795E+01  0.12841836644E+02  0.00000000000E+00 0. -1.
         -5    1    5    5    0  503 -0.48745663471E+02  0.50810556101E+02  0.68050123722E+02  0.98034492181E+02  0.47000000000E+01 0.  1.
         11    1    6    6    0    0 -0.21821944055E+02  0.89912659287E+01  0.15143803899E+03  0.15326617291E+03  0.00000000000E+00 0. -1.
        -12    1    6    6    0    0  0.12248795423E+02 -0.47371772743E+02  0.21148559276E+03  0.21707204746E+03  0.00000000000E+00 0.  1.
</event>
<event>
12    1  0.9246030E-003  0.2030572E+03  0.7818608E-02  0.1147504E+00
         21   -1    0    0  501  502  0.00000000000E+00  0.00000000000E+00  0.11983926967E+03  0.11983926967E+03  0.00000000000E+00 0.  1.
         21   -1    0    0  502  503 -0.00000000000E+00 -0.00000000000E+00 -0.34149646872E+03  0.34149646872E+03  0.00000000000E+00 0.  1.
          6    2    1    2  501    0  0.53954640727E+02  0.92185007802E+02 -0.10889459911E+03  0.23041324530E+03  0.17269351746E+03 0.  0.
         24    2    3    3    0    0  0.53811275998E+02  0.33286097911E+01 -0.10230407251E+03  0.14118878082E+03  0.81002564832E+02 0.  0.
         -6    2    1    2    0  503 -0.53954640727E+02 -0.92185007802E+02 -0.11276259994E+03  0.23092249309E+03  0.17088187426E+03 0.  0.
        -24    2    5    5    0    0 -0.27813535634E+02 -0.22510300239E+02 -0.12755184646E+03  0.15490450797E+03  0.80284660243E+02 0.  0.
          5    1    3    3  501    0  0.14336472920E+00  0.88856398011E+02 -0.65905266008E+01  0.89224464481E+02  0.47000000000E+01 0. -1.
        -13    1    4    4    0    0  0.54737315145E+02  0.17231101021E+01 -0.11551990313E+03  0.12784361852E+03  0.00000000000E+00 0.  1.
         14    1    4    4    0    0 -0.92603914774E+00  0.16054996890E+01  0.13215830620E+02  0.13345162297E+02  0.00000000000E+00 0. -1.
         -5    1    5    5    0  503 -0.26141105092E+02 -0.69674707564E+02  0.14789246525E+02  0.76017985124E+02  0.47000000000E+01 0.  1.
         11    1    6    6    0    0  0.24641366720E+02 -0.90802443748E+01 -0.74934989484E+02  0.79403403206E+02  0.00000000000E+00 0. -1.
        -12    1    6    6    0    0 -0.52454902354E+02 -0.13430055864E+02 -0.52616856981E+02  0.75501104760E+02  0.00000000000E+00 0.  1.
</event>
<event>
12    1  0.9246030E-003  0.2264893E+03  0.7818608E-02  0.1129150E+00
         21   -1    0    0  501  502  0.00000000000E+00  0.00000000000E+00  0.87934580332E+02  0.87934580332E+02  0.00000000000E+00 0.  1.
         21   -1    0    0  502  503 -0.00000000000E+00 -0.00000000000E+00 -0.62105260549E+03  0.62105260549E+03  0.00000000000E+00 0. -1.
          6    2    1    2  501    0 -0.11518387396E+03  0.91752713723E+02 -0.35409099106E+03  0.42028650045E+03  0.17197216990E+03 0.  0.
         24    2    3    3    0    0 -0.11597093025E+03  0.55284359738E+02 -0.35180674360E+03  0.38343723877E+03  0.82161512517E+02 0.  0.
         -6    2    1    2    0  503  0.11518387396E+03 -0.91752713723E+02 -0.17902703410E+03  0.28870068537E+03  0.17207998576E+03 0.  0.
        -24    2    5    5    0    0  0.14216460228E+03 -0.58078248562E+02 -0.17295368269E+03  0.24487255625E+03  0.80409796366E+02 0.  0.
          5    1    3    3  501    0  0.78705628768E+00  0.36468353985E+02 -0.22842474549E+01  0.36849261680E+02  0.47000000000E+01 0. -1.
        -13    1    4    4    0    0 -0.18926036068E+02 -0.20569850554E+02 -0.46997163081E+02  0.54681321589E+02  0.00000000000E+00 0.  1.
         14    1    4    4    0    0 -0.97044894178E+02  0.75854210292E+02 -0.30480958052E+03  0.32875591718E+03  0.00000000000E+00 0. -1.
         -5    1    5    5    0  503 -0.26980728318E+02 -0.33674465161E+02 -0.60733514066E+01  0.43828129116E+02  0.47000000000E+01 0.  1.
         13    1    6    6    0    0  0.14855639273E+01 -0.11491554390E+02  0.55697647656E+01  0.12856321481E+02  0.00000000000E+00 0. -1.
        -14    1    6    6    0    0  0.14067903835E+03 -0.46586694172E+02 -0.17852344746E+03  0.23201623477E+03  0.00000000000E+00 0.  1.
</event>
<event>
12    1  0.9246030E-003  0.1760093E+03  0.7818608E-02  0.1171943E+00
         21   -1    0    0  501  502  0.00000000000E+00  0.00000000000E+00  0.70453073326E+02  0.70453073326E+02  0.00000000000E+00 0. -1.
         21   -1    0    0  502  503 -0.00000000000E+00 -0.00000000000E+00 -0.49292062102E+03  0.49292062102E+03  0.00000000000E+00 0. -1.
          6    2    1    2  501    0 -0.32611952288E+02  0.67483697841E+01 -0.11726018022E+03  0.21149286074E+03  0.17282997528E+03 0.  0.
         24    2    3    3    0    0  0.19916619170E+02 -0.45915994644E+02 -0.33446470272E+02  0.99333982027E+02  0.79016601600E+02 0.  0.
         -6    2    1    2    0  503  0.32611952288E+02 -0.67483697841E+01 -0.30520736748E+03  0.35188083361E+03  0.17192877586E+03 0.  0.
        -24    2    5    5    0    0 -0.82797774420E+01 -0.13562611231E+02 -0.29886551734E+03  0.30968040103E+03  0.79554095968E+02 0.  0.
          5    1    3    3  501    0 -0.52528571458E+02  0.52664364428E+02 -0.83813709947E+02  0.11215887872E+03  0.47000000000E+01 0. -1.
        -13    1    4    4    0    0 -0.17050292362E+02 -0.39679907745E+02 -0.42685798664E+02  0.60723018336E+02  0.00000000000E+00 0.  1.
         14    1    4    4    0    0  0.36966911532E+02 -0.62360868985E+01  0.92393283917E+01  0.38610963691E+02  0.00000000000E+00 0. -1.
         -5    1    5    5    0  503  0.40891729730E+02  0.68142414465E+01 -0.63418501369E+01  0.42200432580E+02  0.47000000000E+01 0.  1.
         11    1    6    6    0    0 -0.10966003745E+02  0.14428142617E+02 -0.26519023747E+03  0.26580874062E+03  0.00000000000E+00 0. -1.
        -12    1    6    6    0    0  0.26862263028E+01 -0.27990753847E+02 -0.33675279868E+02  0.43871660407E+02  0.00000000000E+00 0.  1.
</event>
<event>
12    1  0.9246030E-003  0.1889107E+03  0.7818608E-02  0.1159697E+00
         21   -1    0    0  503  502  0.00000000000E+00  0.00000000000E+00  0.20765680500E+04  0.20765680500E+04  0.00000000000E+00 0. -1.
         21   -1    0    0  501  503 -0.00000000000E+00 -0.00000000000E+00 -0.17337288467E+02  0.17337288467E+02  0.00000000000E+00 0.  1.
          6    2    1    2  501    0 -0.37824376694E+02 -0.64889744141E+02  0.90064336412E+03  0.92001777726E+03  0.17214203080E+03 0.  0.
         24    2    3    3    0    0  0.30756493421E+02 -0.28057037693E+02  0.68047500302E+03  0.68644513066E+03  0.80171867990E+02 0.  0.
         -6    2    1    2    0  502  0.37824376694E+02  0.64889744141E+02  0.11585873974E+04  0.11738875612E+04  0.17333749321E+03 0.  0.
        -24    2    5    5    0    0  0.46419014523E+02  0.62726035929E+02  0.11585829740E+04  0.11638556395E+04  0.78461209238E+02 0.  0.
          5    1    3    3  501    0 -0.68580870114E+02 -0.36832706448E+02  0.22016836109E+03  0.23357264659E+03  0.47000000000E+01 0. -1.
        -13    1    4    4    0    0  0.79550877540E+01 -0.19656399537E+02  0.38042994106E+02  0.43553723888E+02  0.00000000000E+00 0.  1.
         14    1    4    4    0    0  0.22801405667E+02 -0.84006381563E+01  0.64243200892E+03  0.64289140677E+03  0.00000000000E+00 0. -1.
         -5    1    5    5    0  502 -0.85946378299E+01  0.21637082119E+01  0.44233185552E-02  0.10031921661E+02  0.47000000000E+01 0.  1.
         13    1    6    6    0    0  0.38074584695E+02  0.25220903119E+02  0.23067652427E+03  0.23515404909E+03  0.00000000000E+00 0. -1.
        -14    1    6    6    0    0  0.83444298283E+01  0.37505132810E+02  0.92790644977E+03  0.92870159041E+03  0.00000000000E+00 0.  1.
</event>
<event>
12    1  0.9246030E-003  0.1974762E+03  0.7818608E-02  0.1151952E+00
         21   -1    0    0  501  502  0.00000000000E+00  0.00000000000E+00  0.32317797392E+02  0.32317797392E+02  0.00000000000E+00 0.  1.
         21   -1    0    0  502  503 -0.00000000000E+00 -0.00000000000E+00 -0.12665856309E+04  0.12665856309E+04  0.00000000000E+00 0.  1.
          6    2    1    2  501    0  0.82306525672E+02 -0.50485926626E+02 -0.76103637118E+03  0.78623991895E+03  0.17226043926E+03 0.  0.
         24    2    3    3    0    0  0.12220882124E+03 -0.12425249258E+02 -0.58626460565E+03  0.60291488417E+03  0.68635172443E+02 0.  0.
         -6    2    1    2    0  503 -0.82306525672E+02  0.50485926626E+02 -0.47323146236E+03  0.51266350937E+03  0.17190888261E+03 0.  0.
        -24    2    5    5    0    0 -0.61234613285E+02  0.98548008306E+02 -0.29972912473E+03  0.33133744850E+03  0.80533029032E+02 0.  0.
          5    1    3    3  501    0 -0.39902295572E+02 -0.38060677368E+02 -0.17477176552E+03  0.18332503478E+03  0.47000000000E+01 0. -1.
        -11    1    4    4    0    0  0.74067415824E+02 -0.18639687927E+02 -0.48063849926E+03  0.48666907342E+03  0.00000000000E+00 0.  1.
         12    1    4    4    0    0  0.48141405420E+02  0.62144386697E+01 -0.10562610639E+03  0.11624581075E+03  0.00000000000E+00 0. -1.
         -5    1    5    5    0  503 -0.21071912387E+02 -0.48062081680E+02 -0.17350233763E+03  0.18132606087E+03  0.47000000000E+01 0.  1.
         13    1    6    6    0    0 -0.61749910890E+01  0.77211742680E+02 -0.12660814523E+03  0.14842306479E+03  0.00000000000E+00 0. -1.
        -14    1    6    6    0    0 -0.55059622196E+02  0.21336265626E+02 -0.17312097950E+03  0.18291438372E+03  0.00000000000E+00 0.  1.
</event>
<event>
12    1  0.9246030E-003  0.2307204E+03  0.7818608E-02  0.1126491E+00
         21   -1    0    0  501  502  0.00000000000E+00  0.00000000000E+00  0.40075109546E+03  0.40075109546E+03  0.00000000000E+00 0. -1.
         21   -1    0    0  502  503 -0.00000000000E+00 -0.00000000000E+00 -0.13310045419E+03  0.13310045419E+03  0.00000000000E+00 0. -1.
          6    2    1    2  501    0 -0.15262159340E+03 -0.13860849524E+02  0.10553110931E+03  0.25186817551E+03  0.16975066681E+03 0.  0.
         24    2    3    3    0    0 -0.14710964162E+03 -0.51813436003E+02  0.44943420911E+02  0.18000901870E+03  0.77829666066E+02 0.  0.
         -6    2    1    2    0  503  0.15262159340E+03  0.13860849524E+02  0.16211953196E+03  0.28198337414E+03  0.17247146642E+03 0.  0.
        -24    2    5    5    0    0  0.14998665249E+03  0.59883344556E+02  0.14916643408E+03  0.23387011498E+03  0.79765874556E+02 0.  0.
          5    1    3    3  501    0 -0.55119517732E+01  0.37952586479E+02  0.60587688395E+02  0.71859156813E+02  0.47000000000E+01 0. -1.
        -11    1    4    4    0    0 -0.17073015313E+02  0.84189534574E+01 -0.15427981468E+02  0.24502841496E+02  0.00000000000E+00 0.  1.
         12    1    4    4    0    0 -0.13003662631E+03 -0.60232389460E+02  0.60371402379E+02  0.15550617720E+03  0.00000000000E+00 0. -1.
         -5    1    5    5    0  503  0.26349409109E+01 -0.46022495032E+02  0.12953097879E+02  0.48113259162E+02  0.47000000000E+01 0.  1.
         13    1    6    6    0    0  0.43511127968E+02  0.10143405327E+02  0.91293642401E+00  0.44687138884E+02  0.00000000000E+00 0. -1.
        -14    1    6    6    0    0  0.10647552452E+03  0.49739939229E+02  0.14825349766E+03  0.18918297610E+03  0.00000000000E+00 0.  1.
</event>
<event>
12    1  0.9246030E-003  0.1758833E+03  0.7818608E-02  0.1172296E+00
         21   -1    0    0  503  502  0.00000000000E+00  0.00000000000E+00  0.63758927451E+03  0.63758927451E+03  0.00000000000E+00 0. -1.
         21   -1    0    0  501  503 -0.00000000000E+00 -0.00000000000E+00 -0.50460592906E+02  0.50460592906E+02  0.00000000000E+00 0. -1.
          6    2    1    2  501    0 -0.12224100517E+02  0.26911258866E+02  0.21943490952E+03  0.28122344757E+03  0.17338195830E+03 0.  0.
         24    2    3    3    0    0 -0.53509132652E+02  0.64480957798E+02  0.15157238099E+03  0.19322714689E+03  0.85682684484E+02 0.  0.
         -6    2    1    2    0  502  0.12224100517E+02 -0.26911258866E+02  0.36769377208E+03  0.40682641984E+03  0.17156742512E+03 0.  0.
        -24    2    5    5    0    0  0.70338769209E+02 -0.74523170437E+01  0.27851521369E+03  0.29851727705E+03  0.80862605433E+02 0.  0.
          5    1    3    3  501    0  0.41285032135E+02 -0.37569698932E+02  0.67862528529E+02  0.87996300687E+02  0.47000000000E+01 0. -1.
        -13    1    4    4    0    0  0.60570442364E+01 -0.14179335869E+02  0.43898809228E+01  0.16031606441E+02  0.00000000000E+00 0.  1.
         14    1    4    4    0    0 -0.59566176889E+02  0.78660293667E+02  0.14718250006E+03  0.17719554045E+03  0.00000000000E+00 0. -1.
         -5    1    5    5    0  502 -0.58114668691E+02 -0.19458941822E+02  0.89178558389E+02  0.10830914278E+03  0.47000000000E+01 0.  1.
         13    1    6    6    0    0  0.53515468198E+02  0.17970176736E+02  0.81405201245E+02  0.99063814676E+02  0.00000000000E+00 0. -1.
        -14    1    6    6    0    0  0.16823301010E+02 -0.25422493780E+02  0.19711001245E+03  0.19945346238E+03  0.00000000000E+00 0.  1.
</event>
<event>
12    1  0.9246030E-003  0.3510120E+03  0.7818608E-02  0.1062233E+00
         21   -1    0    0  501  502  0.00000000000E+00  0.00000000000E+00  0.15339944778E+03  0.15339944778E+03  0.00000000000E+00 0. -1.
         21   -1    0    0  502  503 -0.00000000000E+00 -0.00000000000E+00 -0.81963126789E+03  0.81963126789E+03  0.00000000000E+00 0.  1.
          6    2    1    2  501    0 -0.10408219007E+03 -0.28687949200E+03 -0.26284690333E+03  0.43851787940E+03  0.17342574995E+03 0.  0.
         24    2    3    3    0    0 -0.68222516697E+02 -0.76079260291E+02 -0.14706866284E+03  0.19531149620E+03  0.77942435969E+02 0.  0.
         -6    2    1    2    0  503  0.10408219007E+03  0.28687949200E+03 -0.40338491678E+03  0.53451283627E+03  0.17277625946E+03 0.  0.
        -24    2    5    5    0    0  0.17507074784E+02  0.34899031931E+02 -0.90980780151E+02  0.12389398937E+03  0.74483408549E+02 0.  0.
          5    1    3    3  501    0 -0.35859673378E+02 -0.21080023171E+03 -0.11577824048E+03  0.24320638321E+03  0.47000000000E+01 0. -1.
        -13    1    4    4    0    0 -0.33827930276E+02 -0.60696110942E+02 -0.14094012769E+03  0.15713836688E+03  0.00000000000E+00 0.  1.
         14    1    4    4    0    0 -0.34394586421E+02 -0.15383149349E+02 -0.61285351497E+01  0.38173129319E+02  0.00000000000E+00 0. -1.
         -5    1    5    5    0  503  0.86575115290E+02  0.25198046007E+03 -0.31240413663E+03  0.41061884690E+03  0.47000000000E+01 0.  1.
         13    1    6    6    0    0 -0.11968320048E+02  0.35755572395E+02 -0.11969912184E+02  0.39559833667E+02  0.00000000000E+00 0. -1.
        -14    1    6    6    0    0  0.29475394831E+02 -0.85654046421E+00 -0.79010867967E+02  0.84334155708E+02  0.00000000000E+00 0.  1.
</event>
<event>
12    1  0.9246030E-003  0.1870078E+03  0.7818608E-02  0.1161459E+00
         21   -1    0    0  503  502  0.00000000000E+00  0.00000000000E+00  0.15203906868E+04  0.15203906868E+04  0.00000000000E+00 0. -1.
         21   -1    0    0  501  503 -0.00000000000E+00 -0.00000000000E+00 -0.23449788633E+02  0.23449788633E+02  0.00000000000E+00 0. -1.
          6    2    1    2  501    0  0.19847628886E+02  0.65125764258E+02  0.62813205436E+03  0.65537912311E+03  0.17417411907E+03 0.  0.
         24    2    3    3    0    0  0.54421895322E+02  0.46518265117E+02  0.59288533768E+03  0.60240705537E+03  0.79092003672E+02 0.  0.
         -6    2    1    2    0  502 -0.19847628886E+02 -0.65125764258E+02  0.86880884379E+03  0.88846135230E+03  0.17291464353E+03 0.  0.
        -24    2    5    5    0    0 -0.73572450571E+01  0.18753969867E+02  0.62403651254E+03  0.62937178549E+03  0.79255504226E+02 0.  0.
          5    1    3    3  501    0 -0.34574266436E+02  0.18607499141E+02  0.35246716675E+02  0.52972067736E+02  0.47000000000E+01 0. -1.
        -11    1    4    4    0    0  0.72339440560E+02  0.37847061858E+02  0.38443601832E+03  0.39300947436E+03  0.00000000000E+00 0.  1.
         12    1    4    4    0    0 -0.17917545238E+02  0.86712032586E+01  0.20844931936E+03  0.20939758101E+03  0.00000000000E+00 0. -1.
         -5    1    5    5    0  502 -0.12490383829E+02 -0.83879734125E+02  0.24477233125E+03  0.25908956681E+03  0.47000000000E+01 0.  1.
         11    1    6    6    0    0 -0.35621195313E+02  0.99787392511E+01  0.51692467192E+03  0.51824662201E+03  0.00000000000E+00 0. -1.
        -12    1    6    6    0    0  0.28263950256E+02  0.87752306158E+01  0.10711184062E+03  0.11112516348E+03  0.00000000000E+00 0.  1.
</event>
<event>
12    1  0.9246030E-003  0.1830943E+03  0.7818608E-02  0.1165057E+00
         21   -1    0    0  503  502  0.00000000000E+00  0.00000000000E+00  0.11896185344E+03  0.11896185344E+03  0.00000000000E+00 0.  1.
         21   -1    0    0  501  503 -0.00000000000E+00 -0.00000000000E+00 -0.29855131002E+03  0.29855131002E+03  0.00000000000E+00 0.  1.
          6    2    1    2  501    0 -0.26637558705E+02 -0.57400501613E+02 -0.14146757757E+03  0.23137974026E+03  0.17181132552E+03 0.  0.
         24    2    3    3    0    0 -0.11696718382E+02 -0.11339921820E+02 -0.15972292288E+03  0.17941674041E+03  0.80084627728E+02 0.  0.
         -6    2    1    2    0  502  0.26637558705E+02  0.57400501613E+02 -0.38121879009E+02  0.18613342321E+03  0.17084494858E+03 0.  0.
        -24    2    5    5    0    0 -0.43711425945E+02  0.23670687195E+00 -0.16017503596E+02  0.92713015999E+02  0.80177291834E+02 0.  0.
          5    1    3    3  501    0 -0.14940840322E+02 -0.46060579793E+02  0.18255345311E+02  0.51962999844E+02  0.47000000000E+01 0. -1.
        -11    1    4    4    0    0  0.33860451837E+02  0.27748218974E+01 -0.63153274736E+02  0.71711686252E+02  0.00000000000E+00 0.  1.
         12    1    4    4    0    0 -0.45557170220E+02 -0.14114743717E+02 -0.96569648149E+02  0.10770505416E+03  0.00000000000E+00 0. -1.
         -5    1    5    5    0  502  0.70348984649E+02  0.57163794741E+02 -0.22104375413E+02  0.93420407207E+02  0.47000000000E+01 0.  1.
         13    1    6    6    0    0  0.10149602782E+02  0.18180817077E+02 -0.27798522535E+02  0.34732037103E+02  0.00000000000E+00 0. -1.
        -14    1    6    6    0    0 -0.53861028726E+02 -0.17944110205E+02  0.11781018939E+02  0.57980978896E+02  0.00000000000E+00 0.  1.
</event>
<event>
12    1  0.9246030E-003  0.1785978E+03  0.7818608E-02  0.1169175E+00
         21   -1    0    0  501  502  0.00000000000E+00  0.00000000000E+00  0.17668890642E+02  0.17668890642E+02  0.00000000000E+00 0. -1.
         21   -1    0    0  502  503 -0.00000000000E+00 -0.00000000000E+00 -0.18845619437E+04  0.18845619437E+04  0.00000000000E+00 0. -1.
          6    2    1    2  501    0 -0.50473178567E+02 -0.47578912435E+01 -0.73786591476E+03  0.75916502032E+03  0.17121694029E+03 0.  0.
         24    2    3    3    0    0  0.29488277049E+02  0.16321220242E+02 -0.49794668165E+03  0.50535112839E+03  0.79327955249E+02 0.  0.
         -6    2    1    2    0  503  0.50473178567E+02  0.47578912435E+01 -0.11290271383E+04  0.11430658140E+04  0.17125126823E+03 0.  0.
        -24    2    5    5    0    0 -0.84618955311E+01 -0.51449827129E+02 -0.51545531295E+03  0.52409479254E+03  0.79135854905E+02 0.  0.
          5    1    3    3  501    0 -0.79961455616E+02 -0.21079111485E+02 -0.23991923311E+03  0.25381389194E+03  0.47000000000E+01 0. -1.
        -13    1    4    4    0    0  0.31559795061E+02  0.31576868715E+02 -0.13729889069E+03  0.14437487554E+03  0.00000000000E+00 0.  1.
         14    1    4    4    0    0 -0.20715180121E+01 -0.15255648473E+02 -0.36064779096E+03  0.36097625285E+03  0.00000000000E+00 0. -1.
         -5    1    5    5    0  503  0.58935074098E+02  0.56207718373E+02 -0.61357182536E+03  0.61897102148E+03  0.47000000000E+01 0.  1.
         13    1    6    6    0    0 -0.27610766698E+02 -0.21129061481E+01 -0.66560145245E+02  0.72090718855E+02  0.00000000000E+00 0. -1.
        -14    1    6    6    0    0  0.19148871166E+02 -0.49336920981E+02 -0.44889516771E+03  0.45200407369E+03  0.00000000000E+00 0.  1.
</event>
<event>
12    1  0.9246030E-003  0.3150814E+03  0.7818608E-02  0.1077960E+00
         21   -1    0    0  503  502  0.00000000000E+00  0.00000000000E+00  0.59883679571E+03  0.59883679571E+03  0.00000000000E+00 0.  1.
         21   -1    0    0  501  503 -0.00000000000E+00 -0.00000000000E+00 -0.17609664525E+03  0.17609664525E+03  0.00000000000E+00 0.  1.
          6    2    1    2  501    0 -0.31487272519E+02 -0.26166615861E+03  0.11716710258E+03  0.33616134210E+03  0.17267220710E+03 0.  0.
         24    2    3    3    0    0  0.80415098402E+01 -0.23466587901E+03  0.13810066917E+03  0.28370332132E+03  0.79265623408E+02 0.  0.
         -6    2    1    2    0  502  0.31487272519E+02  0.26166615861E+03  0.30557304787E+03  0.43877209886E+03  0.17229463213E+03 0.  0.
        -24    2    5    5    0    0  0.64669842722E+00  0.26190124664E+03  0.22908815463E+03  0.35616928310E+03  0.76042714471E+02 0.  0.
          5    1    3    3  501    0 -0.39528782359E+02 -0.27000279601E+02 -0.20933566591E+02  0.52458020774E+02  0.47000000000E+01 0. -1.
        -13    1    4    4    0    0 -0.18604430584E+02 -0.21064410939E+03  0.12412240272E+03  0.24520080856E+03  0.00000000000E+00 0.  1.
         14    1    4    4    0    0  0.26645940425E+02 -0.24021769614E+02  0.13978266449E+02  0.38502512768E+02  0.00000000000E+00 0. -1.
         -5    1    5    5    0  502  0.30840574092E+02 -0.23508803390E+00  0.76484893241E+02  0.82602815756E+02  0.47000000000E+01 0.  1.
         11    1    6    6    0    0 -0.41143902615E+01  0.69286653235E+02  0.10872222633E+03  0.12898872440E+03  0.00000000000E+00 0. -1.
        -12    1    6    6    0    0  0.47610886887E+01  0.19261459341E+03  0.12036592830E+03  0.22718055871E+03  0.00000000000E+00 0.  1.
</event>
<event>
12    1  0.9246030E-003  0.1796298E+03  0.7818608E-02  0.1168514E+00
         21   -1    0    0  501  502  0.00000000000E+00  0.00000000000E+00  0.12472491458E+03  0.12472491458E+03  0.00000000000E+00 0.  1.
         21   -1    0    0  502  503 -0.00000000000E+00 -0.00000000000E+00 -0.27114254003E+03  0.27114254003E+03  0.00000000000E+00 0.  1.
          6    2    1    2  501    0 -0.43044855052E+02 -0.30618024289E+02 -0.27692371894E+02  0.18175182461E+03  0.17168731849E+03 0.  0.
         24    2    3    3    0    0  0.40960102575E+02 -0.16058761190E+02  0.37172920435E+00  0.91871410623E+02  0.80651125803E+02 0.  0.
         -6    2    1    2    0  503  0.43044855052E+02  0.30618024289E+02 -0.11872525355E+03  0.21411563000E+03  0.17017489304E+03 0.  0.
        -24    2    5    5    0    0 -0.17265904311E+02  0.52545983364E+02 -0.11475108326E+03  0.14964775340E+03  0.78533096000E+02 0.  0.
          5    1    3    3  501    0 -0.84004957627E+02 -0.14559263098E+02 -0.28064101098E+02  0.89880413986E+02  0.47000000000E+01 0. -1.
        -11    1    4    4    0    0  0.36712077408E+01 -0.44565389487E+02  0.33375050352E+01  0.44840725309E+02  0.00000000000E+00 0.  1.
         12    1    4    4    0    0  0.37288894834E+02  0.28506628296E+02 -0.29657758309E+01  0.47030685314E+02  0.00000000000E+00 0. -1.
         -5    1    5    5    0  503  0.60310759363E+02 -0.21927959075E+02 -0.39741702866E+01  0.64467876602E+02  0.47000000000E+01 0.  1.
         11    1    6    6    0    0 -0.64609954273E+01 -0.10300947073E+02  0.56453496264E+01  0.13406115952E+02  0.00000000000E+00 0. -1.
        -12    1    6    6    0    0 -0.10804908884E+02  0.62846930437E+02 -0.12039643289E+03  0.13624163745E+03  0.00000000000E+00 0.  1.
</event>
<event>
12    1  0.9246030E-003  0.1982408E+03  0.7818608E-02  0.1151248E+00
         21   -1    0    0  501  502  0.00000000000E+00  0.00000000000E+00  0.22138321814E+04  0.22138321814E+04  0.00000000000E+00 0. -1.
         21   -1    0    0  502  503 -0.00000000000E+00 -0.00000000000E+00 -0.21209966161E+02  0.21209966161E+02  0.00000000000E+00 0.  1.
          6    2    1    2  501    0  0.74198857838E+02  0.64012026822E+02  0.15481750755E+04  0.15608156399E+04  0.17232639753E+03 0.  0.
         24    2    3    3    0    0  0.16429961549E+02 -0.30004781004E+02  0.71215318367E+03  0.71752974583E+03  0.80725142383E+02 0.  0.
         -6    2    1    2    0  503 -0.74198857838E+02 -0.64012026822E+02  0.64444713975E+03  0.67422650767E+03  0.17223895503E+03 0.  0.
        -24    2    5    5    0    0 -0.87054907440E+02 -0.85466138849E+02  0.62548769989E+03  0.64249155385E+03  0.81716070963E+02 0.  0.
          5    1    3    3  501    0  0.57768896289E+02  0.94016807826E+02  0.83602189178E+03  0.84328589403E+03  0.47000000000E+01 0. -1.
        -11    1    4    4    0    0  0.26246442317E+01 -0.10388921817E+02  0.90732047414E+01  0.14040708605E+02  0.00000000000E+00 0.  1.
         12    1    4    4    0    0  0.13805317318E+02 -0.19615859187E+02  0.70307997893E+03  0.70348903722E+03  0.00000000000E+00 0. -1.
         -5    1    5    5    0  503  0.12856049602E+02  0.21454112027E+02  0.18959439860E+02  0.31734953821E+02  0.47000000000E+01 0.  1.
         11    1    6    6    0    0 -0.17328950232E+02 -0.74121798663E+02  0.33443972890E+03  0.34299309879E+03  0.00000000000E+00 0. -1.
        -12    1    6    6    0    0 -0.69725957208E+02 -0.11344340186E+02  0.29104797099E+03  0.29949845506E+03  0.00000000000E+00 0.  1.
</event>
<event>
12    1  0.9246030E-003  0.1890928E+03  0.7818608E-02  0.1159610E+00
         21   -1    0    0  503  502  0.00000000000E+00  0.00000000000E+00  0.70888342926E+03  0.70888342926E+03  0.00000000000E+00 0. -1.
         21   -1    0    0  501  503 -0.00000000000E+00 -0.00000000000E+00 -0.53052463893E+02  0.53052463893E+02  0.00000000000E+00 0.  1.
          6    2    1    2  501    0 -0.23907267647E+02 -0.70857830687E+02  0.41725331480E+03  0.45750957532E+03  0.17211128139E+03 0.  0.
         24    2    3    3    0    0 -0.75333762944E+02 -0.18531348568E+02  0.25529489835E+03  0.27964624630E+03  0.83713506852E+02 0.  0.
         -6    2    1    2    0  502  0.23907267647E+02  0.70857830687E+02  0.23857765057E+03  0.30442631783E+03  0.17367699336E+03 0.  0.
        -24    2    5    5    0    0  0.19001794509E+02 -0.17677766460E+02  0.51013279569E+02  0.96904996286E+02  0.78196240262E+02 0.  0.
          5    1    3    3  501    0  0.51426495297E+02 -0.52326482120E+02  0.16195841645E+03  0.17786332902E+03  0.47000000000E+01 0. -1.
        -11    1    4    4    0    0 -0.74852151214E+02 -0.18963215793E+02  0.11025772219E+03  0.13460762756E+03  0.00000000000E+00 0.  1.
         12    1    4    4    0    0 -0.48161172955E+00  0.43186722498E+00  0.14503717616E+03  0.14503861874E+03  0.00000000000E+00 0. -1.
         -5    1    5    5    0  502  0.49054731386E+01  0.88535597148E+02  0.18756437100E+03  0.20752132155E+03  0.47000000000E+01 0.  1.
         13    1    6    6    0    0  0.28889776256E+02  0.22754502454E+02  0.38951686763E+02  0.53568838477E+02  0.00000000000E+00 0. -1.
        -14    1    6    6    0    0 -0.98879817476E+01 -0.40432268914E+02  0.12061592806E+02  0.43336157809E+02  0.00000000000E+00 0.  1.
</event>
<event>
12    1  0.9246030E-003  0.1770040E+03  0.7818608E-02  0.1171118E+00
         21   -1    0    0  501  502  0.00000000000E+00  0.00000000000E+00  0.15709969782E+04  0.15709969782E+04  0.00000000000E+00 0. -1.
         21   -1    0    0  502  503 -0.00000000000E+00 -0.00000000000E+00 -0.28240538225E+02  0.28240538225E+02  0.00000000000E+00 0. -1.
          6    2    1    2  501    0  0.49011618792E+01  0.33786555060E+02  0.12069509265E+04  0.12196380285E+04  0.17210702694E+03 0.  0.
         24    2    3    3    0    0  0.65572069073E+02  0.50576917548E+01  0.59751527409E+03  0.60649839425E+03  0.80563782029E+02 0.  0.
         -6    2    1    2    0  503 -0.49011618792E+01 -0.33786555060E+02  0.33580551345E+03  0.37959948797E+03  0.17368038379E+03 0.  0.
        -24    2    5    5    0    0 -0.65091195134E+02 -0.17115870008E+02  0.24810232295E+03  0.27182800999E+03  0.88350934739E+02 0.  0.
          5    1    3    3  501    0 -0.60670907194E+02  0.28728863305E+02  0.60943565245E+03  0.61313963422E+03  0.47000000000E+01 0. -1.
        -11    1    4    4    0    0  0.17800065019E+02  0.10421877634E+02  0.27079048976E+02  0.34040163654E+02  0.00000000000E+00 0.  1.
         12    1    4    4    0    0  0.47772004054E+02 -0.53641858795E+01  0.57043622511E+03  0.57245823060E+03  0.00000000000E+00 0. -1.
         -5    1    5    5    0  503  0.60190033255E+02 -0.16670685052E+02  0.87703190496E+02  0.10777147798E+03  0.47000000000E+01 0.  1.
         13    1    6    6    0    0  0.43664287976E+01  0.87401337033E+01 -0.28362880140E+01  0.10173503197E+02  0.00000000000E+00 0. -1.
        -14    1    6    6    0    0 -0.69457623932E+02 -0.25856003711E+02  0.25093861097E+03  0.26165450679E+03  0.00000000000E+00 0.  1.
</event>
<event>
12    1  0.9246030E-003  0.1786897E+03  0.7818608E-02  0.1169215E+00
         21   -1    0    0  503  502  0.00000000000E+00  0.00000000000E+00  0.38388884744E+03  0.38388884744E+03  0.00000000000E+00 0.  1.
         21   -1    0    0  501  503 -0.00000000000E+00 -0.00000000000E+00 -0.83298831724E+02  0.83298831724E+02  0.00000000000E+00 0.  1.
          6    2    1    2  501    0 -0.18875751394E+02  0.44618411548E+02  0.16640806759E+03  0.24417548822E+03  0.17199688209E+03 0.  0.
         24    2    3    3    0    0 -0.44596855477E+02  0.78945218720E+02  0.93413670467E+02  0.15938057742E+03  0.91950136224E+02 0.  0.
         -6    2    1    2    0  502  0.18875751394E+02 -0.44618411548E+02  0.13418194812E+03  0.22301219094E+03  0.17141337599E+03 0.  0.
        -24    2    5    5    0    0 -0.42994343798E+02 -0.35250061151E+02  0.12522408754E+03  0.15962443239E+03  0.81901202105E+02 0.  0.
          5    1    3    3  501    0  0.25721104083E+02 -0.34326807171E+02  0.72994397126E+02  0.84794910800E+02  0.47000000000E+01 0. -1.
        -13    1    4    4    0    0 -0.37556289187E+02  0.21196895166E+02  0.91522561493E+02  0.10117392196E+03  0.00000000000E+00 0.  1.
         14    1    4    4    0    0 -0.70405662897E+01  0.57748323554E+02  0.18911089739E+01  0.58206655462E+02  0.00000000000E+00 0. -1.
         -5    1    5    5    0  502  0.61870095192E+02 -0.93683503969E+01  0.89578605857E+01  0.63387758554E+02  0.47000000000E+01 0.  1.
         11    1    6    6    0    0 -0.40886462570E+02  0.13772337969E+02  0.30148515966E+02  0.52633764159E+02  0.00000000000E+00 0. -1.
        -12    1    6    6    0    0 -0.21078812289E+01 -0.49022399120E+02  0.95075571571E+02  0.10699066823E+03  0.00000000000E+00 0.  1.
</event>
<event>
12    1  0.9246030E-003  0.1823791E+03  0.7818608E-02  0.1166376E+00
         21   -1    0    0  503  502  0.00000000000E+00  0.00000000000E+00  0.52684355090E+02  0.52684355090E+02  0.00000000000E+00 0. -1.
         21   -1    0    0  501  503 -0.00000000000E+00 -0.00000000000E+00 -0.65133721295E+03  0.65133721295E+03  0.00000000000E+00 0.  1.
          6    2    1    2  501    0 -0.40965154102E+02  0.27710463358E+02 -0.37485624743E+03  0.41532267714E+03  0.17184209695E+03 0.  0.
         24    2    3    3    0    0  0.44483296232E+01 -0.29928377648E+02 -0.10270535671E+03  0.13341344030E+03  0.79594348617E+02 0.  0.
         -6    2    1    2    0  502  0.40965154102E+02 -0.27710463358E+02 -0.22379661044E+03  0.28869889090E+03  0.17554518830E+03 0.  0.
        -24    2    5    5    0    0  0.12707558559E+01 -0.74743866939E+02 -0.18037641726E+03  0.21323241172E+03  0.85698010709E+02 0.  0.
          5    1    3    3  501    0 -0.45413483725E+02  0.57638841006E+02 -0.27215089072E+03  0.28190923684E+03  0.47000000000E+01 0. -1.
        -11    1    4    4    0    0 -0.34034756886E+02 -0.24541201576E+02 -0.74122426103E+02  0.85174933534E+02  0.00000000000E+00 0.  1.
         12    1    4    4    0    0  0.38483086510E+02 -0.53871760718E+01 -0.28582930608E+02  0.48238506771E+02  0.00000000000E+00 0. -1.
         -5    1    5    5    0  502  0.39694398246E+02  0.47033403581E+02 -0.43420193177E+02  0.75466479181E+02  0.47000000000E+01 0.  1.
         13    1    6    6    0    0 -0.12985510626E+02  0.16303168998E+00 -0.10573307573E+03  0.10652761787E+03  0.00000000000E+00 0. -1.
        -14    1    6    6    0    0  0.14256266482E+02 -0.74906898629E+02 -0.74643341530E+02  0.10670479385E+03  0.00000000000E+00 0.  1.
</event>
<event>
12    1  0.9246030E-003  0.2475050E+03  0.7818608E-02  0.1114932E+00
         21   -1    0    0  501  502  0.00000000000E+00  0.00000000000E+00  0.49320138939E+02  0.49320138939E+02  0.00000000000E+00 0.  1.
         21   -1    0    0  502  503 -0.00000000000E+00 -0.00000000000E+00 -0.12441621518E+04  0.12441621518E+04  0.00000000000E+00 0. -1.
          6    2    1    2  501    0  0.16642725467E+03 -0.63669041966E+02 -0.56353498998E+03  0.61539137584E+03  0.17141494253E+03 0.  0.
         24    2    3    3    0    0  0.78707244763E+02 -0.15875766886E+02 -0.14032592069E+03  0.18052702503E+03  0.80322925706E+02 0.  0.
         -6    2    1    2    0  503 -0.16642725467E+03  0.63669041966E+02 -0.63130702288E+03  0.67809091490E+03  0.17177588227E+03 0.  0.
        -24    2    5    5    0    0 -0.11573763280E+03 -0.26951527992E+02 -0.35118531738E+03  0.37930707103E+03  0.80132031568E+02 0.  0.
          5    1    3    3  501    0  0.87720009905E+02 -0.47793275081E+02 -0.42320906929E+03  0.43486435081E+03  0.47000000000E+01 0. -1.
        -11    1    4    4    0    0  0.78013915755E+02  0.38342298298E+00 -0.14406199103E+03  0.16382971441E+03  0.00000000000E+00 0.  1.
         12    1    4    4    0    0  0.69332900863E+00 -0.16259189869E+02  0.37360703345E+01  0.16697310617E+02  0.00000000000E+00 0. -1.
         -5    1    5    5    0  503 -0.50689621869E+02  0.90620569958E+02 -0.28012170551E+03  0.29878384387E+03  0.47000000000E+01 0.  1.
         11    1    6    6    0    0 -0.10861307473E+03 -0.38996112080E+02 -0.23011210278E+03  0.25742780853E+03  0.00000000000E+00 0. -1.
        -12    1    6    6    0    0 -0.71245580677E+01  0.12044584088E+02 -0.12107321460E+03  0.12187926249E+03  0.00000000000E+00 0.  1.
</event>
<event>
12    1  0.9246030E-003  0.1839957E+03  0.7818608E-02  0.1164058E+00
         21   -1    0    0  501  502  0.00000000000E+00  0.00000000000E+00  0.45550271264E+03  0.45550271264E+03  0.00000000000E+00 0. -1.
         21   -1    0    0  502  503 -0.00000000000E+00 -0.00000000000E+00 -0.79797066374E+02  0.79797066374E+02  0.00000000000E+00 0.  1.
          6    2    1    2  501    0 -0.61588292472E+02 -0.21364539686E+02  0.25855059688E+03  0.31717201294E+03  0.17175597026E+03 0.  0.
         24    2    3    3    0    0 -0.36450874105E+02  0.98995261476E+01  0.55908438676E+02  0.11054368503E+03  0.87564181855E+02 0.  0.
         -6    2    1    2    0  503  0.61588292472E+02  0.21364539686E+02  0.11715504939E+03  0.21812776607E+03  0.17206061551E+03 0.  0.
        -24    2    5    5    0    0 -0.18255088564E+02  0.47868555393E+02  0.85551968293E+02  0.12813736059E+03  0.80469851786E+02 0.  0.
          5    1    3    3  501    0 -0.25137418367E+02 -0.31264065833E+02  0.20264215820E+03  0.20662832791E+03  0.47000000000E+01 0. -1.
        -13    1    4    4    0    0  0.23837272903E+02  0.19747421351E+02  0.57090381539E+01  0.31476488783E+02  0.00000000000E+00 0.  1.
         14    1    4    4    0    0 -0.60288147008E+02 -0.98478952034E+01  0.50199400522E+02  0.79067196247E+02  0.00000000000E+00 0. -1.
         -5    1    5    5    0  503  0.79843381036E+02 -0.26504015707E+02  0.31603081093E+02  0.89990405480E+02  0.47000000000E+01 0.  1.
         13    1    6    6    0    0 -0.11612417091E+02 -0.80590936272E+01  0.67544825362E+02  0.69007975292E+02  0.00000000000E+00 0. -1.
        -14    1    6    6    0    0 -0.66426714730E+01  0.55927649020E+02  0.18007142931E+02  0.59129385298E+02  0.00000000000E+00 0.  1.
</event>
<event>
12    1  0.9246030E-003  0.2344096E+03  0.7818608E-02  0.1123889E+00
         21   -1    0    0  501  502  0.00000000000E+00  0.00000000000E+00  0.12338683867E+03  0.12338683867E+03  0.00000000000E+00 0.  1.
         21   -1    0    0  502  503 -0.00000000000E+00 -0.00000000000E+00 -0.44351108982E+03  0.44351108982E+03  0.00000000000E+00 0.  1.
          6    2    1    2  501    0 -0.15747377912E+03 -0.18845146077E+02 -0.14340543979E+03  0.27479628018E+03  0.17261154307E+03 0.  0.
         24    2    3    3    0    0 -0.14412558288E+03  0.39244610512E+02 -0.13330721333E+03  0.21416082570E+03  0.76037642271E+02 0.  0.
         -6    2    1    2    0  503  0.15747377912E+03  0.18845146077E+02 -0.17671881136E+03  0.29210164830E+03  0.17011967556E+03 0.  0.
        -24    2    5    5    0    0  0.17435468586E+03  0.24420363849E+02 -0.18890699049E+03  0.27004060173E+03  0.78994714211E+02 0.  0.
          5    1    3    3  501    0 -0.13348196237E+02 -0.58089756589E+02 -0.10098226457E+02  0.60635454488E+02  0.47000000000E+01 0. -1.
        -13    1    4    4    0    0 -0.10816094745E+03  0.72370245263E+01 -0.53330921571E+02  0.12081122577E+03  0.00000000000E+00 0.  1.
         14    1    4    4    0    0 -0.35964635432E+02  0.32007585985E+02 -0.79976291763E+02  0.93349599927E+02  0.00000000000E+00 0. -1.
         -5    1    5    5    0  503 -0.16880906742E+02 -0.55752177714E+01  0.12188179129E+02  0.22061046578E+02  0.47000000000E+01 0.  1.
         11    1    6    6    0    0  0.11869958384E+03 -0.19463855296E+02 -0.10059519069E+03  0.15680505495E+03  0.00000000000E+00 0. -1.
        -12    1    6    6    0    0  0.55655102017E+02  0.43884219145E+02 -0.88311799797E+02  0.11323554678E+03  0.00000000000E+00 0.  1.
</event>
<event>
12    1  0.9246030E-003  0.2759683E+03  0.7818608E-02  0.1098152E+00
         21   -1    0    0  503  502  0.00000000000E+00  0.00000000000E+00  0.23732448462E+03  0.23732448462E+03  0.00000000000E+00 0.  1.
         21   -1    0    0  501  503 -0.00000000000E+00 -0.00000000000E+00 -0.37287791899E+03  0.37287791899E+03  0.00000000000E+00 0. -1.
          6    2    1    2  501    0 -0.21179414414E+03 -0.45081537241E+02 -0.18403221779E+03  0.33170222532E+03  0.17108303424E+03 0.  0.
         24    2    3    3    0    0 -0.22664626480E+03 -0.19902739002E+02 -0.17962915904E+03  0.30176839337E+03  0.83862268569E+02 0.  0.
         -6    2    1    2    0  502  0.21179414414E+03  0.45081537241E+02  0.48478783416E+02  0.27850017829E+03  0.16829454054E+03 0.  0.
        -24    2    5    5    0    0  0.34179146646E+02  0.34925286868E+02 -0.28275414420E+01  0.93284990666E+02  0.79410986423E+02 0.  0.
          5    1    3    3  501    0  0.14852120662E+02 -0.25178798239E+02 -0.44030587502E+01  0.29933831951E+02  0.47000000000E+01 0. -1.
        -13    1    4    4    0    0 -0.23652437543E+02  0.23803045385E+02 -0.14894613161E+02  0.36713380021E+02  0.00000000000E+00 0.  1.
         14    1    4    4    0    0 -0.20299382726E+03 -0.43705784387E+02 -0.16473454588E+03  0.26505501335E+03  0.00000000000E+00 0. -1.
         -5    1    5    5    0  502  0.17761499750E+03  0.10156250373E+02  0.51306324858E+02  0.18521518763E+03  0.47000000000E+01 0.  1.
         13    1    6    6    0    0  0.41385008741E+02  0.44531210444E+02  0.22844574941E+02  0.64943223328E+02  0.00000000000E+00 0. -1.
        -14    1    6    6    0    0 -0.72058620947E+01 -0.96059235756E+01 -0.25672116383E+02  0.28341767338E+02  0.00000000000E+00 0.  1.
</event>
<event>
12    1  0.9246030E-003  0.1934549E+03  0.7818608E-02  0.1155456E+00
         21   -1    0    0  503  502  0.00000000000E+00  0.00000000000E+00  0.11305984079E+03  0.11305984079E+03  0.00000000000E+00 0.  1.
         21   -1    0    0  501  503 -0.00000000000E+00 -0.00000000000E+00 -0.46952948974E+03  0.46952948974E+03  0.00000000000E+00 0.  1.
          6    2    1    2  501    0 -0.85110360355E+02  0.24653140894E+02 -0.33666698877E+03  0.38812349742E+03  0.17159148325E+03 0.  0.
         24    2    3    3    0    0 -0.10938738766E+03  0.43520018681E+02 -0.32561015637E+03  0.35511324636E+03  0.78891388680E+02 0.  0.
         -6    2    1    2    0  502  0.85110360355E+02 -0.24653140894E+02 -0.19802660173E+02  0.19446583312E+03  0.17196878817E+03 0.  0.
        -24    2    5    5    0    0  0.12313123603E+03 -0.10159325526E+02 -0.33768128117E+02  0.15119018216E+03  0.80334746677E+02 0.  0.
          5    1    3    3  501    0  0.24277027300E+02 -0.18866877787E+02 -0.11056832404E+02  0.33010251056E+02  0.47000000000E+01 0. -1.
        -11    1    4    4    0    0 -0.45493934124E+02  0.41818509966E+02 -0.24260455142E+03  0.25035066244E+03  0.00000000000E+00 0.  1.
         12    1    4    4    0    0 -0.63893453531E+02  0.17015087150E+01 -0.83005604952E+02  0.10476258392E+03  0.00000000000E+00 0. -1.
         -5    1    5    5    0  502 -0.38020875673E+02 -0.14493815369E+02  0.13965467944E+02  0.43275650957E+02  0.47000000000E+01 0.  1.
         13    1    6    6    0    0 -0.15212782775E+01  0.18544591492E+02  0.10026758633E+01  0.18633880972E+02  0.00000000000E+00 0. -1.
        -14    1    6    6    0    0  0.12465251431E+03 -0.28703917017E+02 -0.34770803980E+02  0.13255630119E+03  0.00000000000E+00 0.  1.
</event>
<event>
12    1  0.9246030E-003  0.1857463E+03  0.7818608E-02  0.1163076E+00
         21   -1    0    0  501  502  0.00000000000E+00  0.00000000000E+00  0.13754041450E+03  0.13754041450E+03  0.00000000000E+00 0.  1.
         21   -1    0    0  502  503 -0.00000000000E+00 -0.00000000000E+00 -0.33263671492E+03  0.33263671492E+03  0.00000000000E+00 0.  1.
          6    2    1    2  501    0 -0.50313724784E+02  0.45938943499E+02  0.21330350276E+02  0.18696707892E+03  0.17280002120E+03 0.  0.
         24    2    3    3    0    0  0.19845597570E+02  0.31532752390E+02  0.60779679810E+02  0.10506342542E+03  0.77175071544E+02 0.  0.
         -6    2    1    2    0  503  0.50313724784E+02 -0.45938943499E+02 -0.21642665070E+03  0.28321005050E+03  0.16948622405E+03 0.  0.
        -24    2    5    5    0    0 -0.27121584802E+02 -0.22499537602E+02 -0.53581501300E+02  0.10131374597E+03  0.78432699090E+02 0.  0.
          5    1    3    3  501    0 -0.70159322354E+02  0.14406191109E+02 -0.39449329534E+02  0.81903653496E+02  0.47000000000E+01 0. -1.
        -11    1    4    4    0    0 -0.21012936466E+02  0.38831172008E+02  0.32946594731E+02  0.55089758783E+02  0.00000000000E+00 0.  1.
         12    1    4    4    0    0  0.40858534036E+02 -0.72984196177E+01  0.27833085079E+02  0.49973666640E+02  0.00000000000E+00 0. -1.
         -5    1    5    5    0  503  0.77435309586E+02 -0.23439405897E+02 -0.16284514940E+03  0.18189630453E+03  0.47000000000E+01 0.  1.
         11    1    6    6    0    0 -0.22022525667E+02 -0.32691581026E+02  0.66840675462E+01  0.39980093368E+02  0.00000000000E+00 0. -1.
        -12    1    6    6    0    0 -0.50990591353E+01  0.10192043424E+02 -0.60265568846E+02  0.61333652602E+02  0.00000000000E+00 0.  1.
</event>
<event>
12    1  0.9246030E-003  0.1800733E+03  0.7818608E-02  0.1168367E+00
         21   -1    0    0  503  502  0.00000000000E+00  0.00000000000E+00  0.99876204400E+02  0.99876204400E+02  0.00000000000E+00 0.  1.
         21   -1    0    0  501  503 -0.00000000000E+00 -0.00000000000E+00 -0.41370001980E+03  0.41370001980E+03  0.00000000000E+00 0.  1.
          6    2    1    2  501    0 -0.43337548187E+02  0.28178502383E+02 -0.28001260536E+03  0.33291659505E+03  0.17249414199E+03 0.  0.
         24    2    3    3    0    0 -0.63984381808E+02 -0.38233212802E+02 -0.19017241824E+03  0.21920574739E+03  0.79560237279E+02 0.  0.
         -6    2    1    2    0  502  0.43337548187E+02 -0.28178502383E+02 -0.33811210031E+02  0.18065962914E+03  0.16977200181E+03 0.  0.
        -24    2    5    5    0    0 -0.52617277414E+01 -0.53543426064E+02  0.25436117546E+02  0.99804172933E+02  0.80120488051E+02 0.  0.
          5    1    3    3  501    0  0.20646833621E+02  0.66411715185E+02 -0.89840187127E+02  0.11371084766E+03  0.47000000000E+01 0. -1.
        -11    1    4    4    0    0 -0.15771342032E+02  0.21375788014E+02 -0.85011660580E+02  0.89065380352E+02  0.00000000000E+00 0.  1.
         12    1    4    4    0    0 -0.48213039776E+02 -0.59609000816E+02 -0.10516075766E+03  0.13014036704E+03  0.00000000000E+00 0. -1.
         -5    1    5    5    0  502  0.48599275928E+02  0.25364923680E+02 -0.59247327577E+02  0.80855456211E+02  0.47000000000E+01 0.  1.
         13    1    6    6    0    0  0.10252387885E+02 -0.63012393851E+02 -0.53377108343E+01  0.64063752569E+02  0.00000000000E+00 0. -1.
        -14    1    6    6    0    0 -0.15514115627E+02  0.94689677875E+01  0.30773828380E+02  0.35740420364E+02  0.00000000000E+00 0.  1.
</event>
<event>
12    1  0.9246030E-003  0.1918097E+03  0.7818608E-02  0.1157788E+00
         21   -1    0    0  501  502  0.00000000000E+00  0.00000000000E+00  0.47695864491E+03  0.47695864491E+03  0.00000000000E+00 0.  1.
         21   -1    0    0  502  503 -0.00000000000E+00 -0.00000000000E+00 -0.12996367054E+03  0.12996367054E+03  0.00000000000E+00 0.  1.
          6    2    1    2  501    0  0.16587414057E+02  0.74737785083E+02  0.36890514581E+03  0.41386526093E+03  0.17126753566E+03 0.  0.
         24    2    3    3    0    0  0.67109497124E+02  0.12112229233E+02  0.19439471337E+03  0.22164033498E+03  0.81760276448E+02 0.  0.
         -6    2    1    2    0  503 -0.16587414057E+02 -0.74737785083E+02 -0.21910171436E+02  0.19305705452E+03  0.17586953080E+03 0.  0.
        -24    2    5    5    0    0  0.17092496858E+02 -0.11033095930E+03 -0.83996110043E+01  0.14200966778E+03  0.87356271939E+02 0.  0.
          5    1    3    3  501    0 -0.50522083066E+02  0.62625555850E+02  0.17451043244E+03  0.19222492594E+03  0.47000000000E+01 0. -1.
        -13    1    4    4    0    0 -0.26465038199E+01 -0.17220422751E+02  0.95705977925E+02  0.97278883386E+02  0.00000000000E+00 0.  1.
         14    1    4    4    0    0  0.69756000944E+02  0.29332651984E+02  0.98688735442E+02  0.12436145160E+03  0.00000000000E+00 0. -1.
         -5    1    5    5    0  503 -0.33679910915E+02  0.35593174221E+02 -0.13510560432E+02  0.51047386746E+02  0.47000000000E+01 0.  1.
         11    1    6    6    0    0  0.39957551684E+02 -0.16059424303E+02 -0.12736343818E+02  0.44907966992E+02  0.00000000000E+00 0. -1.
        -12    1    6    6    0    0 -0.22865054826E+02 -0.94271535001E+02  0.43367328137E+01  0.97101700784E+02  0.00000000000E+00 0.  1.
</event>
<event>
12    1  0.9246030E-003  0.1737892E+03  0.7818608E-02  0.1173957E+00
         21   -1    0    0  501  502  0.00000000000E+00  0.00000000000E+00  0.65058753519E+03  0.65058753519E+03  0.00000000000E+00 0. -1.
         21   -1    0    0  502  503 -0.00000000000E+00 -0.00000000000E+00 -0.49934174414E+02  0.49934174414E+02  0.00000000000E+00 0. -1.
          6    2    1    2  501    0  0.28492901950E+02  0.78207569974E+00  0.20738366576E+03  0.27056386462E+03  0.17141867725E+03 0.  0.
         24    2    3    3    0    0 -0.36515251993E+02  0.28958243125E+02  0.15482133510E+03  0.18221883027E+03  0.84036378017E+02 0.  0.
         -6    2    1    2    0  503 -0.28492901950E+02 -0.78207569974E+00  0.39326969501E+03  0.42995784498E+03  0.17143581406E+03 0.  0.
        -24    2    5    5    0    0 -0.10984084704E+02  0.46487888518E+02  0.35350357871E+03  0.36558050266E+03  0.80015935098E+02 0.  0.
          5    1    3    3  501    0  0.65008153943E+02 -0.28176167425E+02  0.52562330666E+02  0.88345034353E+02  0.47000000000E+01 0. -1.
        -13    1    4    4    0    0  0.92177217859E+00 -0.96710140395E+01  0.11470060362E+03  0.11511127941E+03  0.00000000000E+00 0.  1.
         14    1    4    4    0    0 -0.37437024172E+02  0.38629257164E+02  0.40120731474E+02  0.67107550857E+02  0.00000000000E+00 0. -1.
         -5    1    5    5    0  503 -0.17508817246E+02 -0.47269964218E+02  0.39766116302E+02  0.64377342320E+02  0.47000000000E+01 0.  1.
         11    1    6    6    0    0 -0.17266715916E+02  0.37655424656E+02  0.35224060090E+03  0.35466817084E+03  0.00000000000E+00 0. -1.
        -12    1    6    6    0    0  0.62826312125E+01  0.88324638623E+01  0.12629778101E+01  0.10912331821E+02  0.00000000000E+00 0.  1.
</event>
<event>
12    1  0.9246030E-003  0.2557981E+03  0.7818608E-02  0.1109781E+00
         21   -1    0    0  501  502  0.00000000000E+00  0.00000000000E+00  0.16634180149E+03  0.16634180149E+03  0.00000000000E+00 0. -1.
         21   -1    0    0  502  503 -0.00000000000E+00 -0.00000000000E+00 -0.47385235387E+03  0.47385235387E+03  0.00000000000E+00 0.  1.
          6    2    1    2  501    0 -0.12106881584E+03 -0.14442483502E+03 -0.21260929487E+02  0.25668017151E+03  0.17296384647E+03 0.  0.
         24    2    3    3    0    0 -0.14676088053E+03 -0.13479383074E+03  0.97039059721E+01  0.21504185422E+03  0.80253974465E+02 0.  0.
         -6    2    1    2    0  503  0.12106881584E+03  0.14442483502E+03 -0.28624962289E+03  0.38351398386E+03  0.17212767955E+03 0.  0.
        -24    2    5    5    0    0  0.41733996887E+02  0.14154352175E+03 -0.23553473932E+03  0.28919322856E+03  0.79873743943E+02 0.  0.
          5    1    3    3  501    0  0.25692064692E+02 -0.96310042872E+01 -0.30964835459E+02  0.41638317290E+02  0.47000000000E+01 0. -1.
        -13    1    4    4    0    0  0.19574141820E+00 -0.33542960047E+02 -0.11194799467E+02  0.35362296568E+02  0.00000000000E+00 0.  1.
         14    1    4    4    0    0 -0.14695662195E+03 -0.10125087069E+03  0.20898705439E+02  0.17967955765E+03  0.00000000000E+00 0. -1.
         -5    1    5    5    0  503  0.79334818950E+02  0.28813132694E+01 -0.50714883570E+02  0.94320755295E+02  0.47000000000E+01 0.  1.
         11    1    6    6    0    0 -0.19238400287E+02  0.74252280707E+02 -0.99453816604E+02  0.12559689038E+03  0.00000000000E+00 0. -1.
        -12    1    6    6    0    0  0.60972397174E+02  0.67291241046E+02 -0.13608092272E+03  0.16359633818E+03  0.00000000000E+00 0.  1.
</event>
<event>
12    1  0.9246030E-003  0.2544461E+03  0.7818608E-02  0.1110592E+00
         21   -1    0    0  501  502  0.00000000000E+00  0.00000000000E+00  0.22963970969E+03  0.22963970969E+03  0.00000000000E+00 0. -1.
         21   -1    0    0  502  503 -0.00000000000E+00 -0.00000000000E+00 -0.29083650945E+03  0.29083650945E+03  0.00000000000E+00 0. -1.
          6    2    1    2  501    0 -0.11206678051E+01  0.18611076013E+03 -0.77286397941E+02  0.26552193522E+03  0.17288794013E+03 0.  0.
         24    2    3    3    0    0 -0.91767582624E+01  0.19939737972E+03 -0.98949076677E+02  0.23845172089E+03  0.84998679320E+02 0.  0.
         -6    2    1    2    0  503  0.11206678051E+01 -0.18611076013E+03  0.16089598190E+02  0.25495428393E+03  0.17350602523E+03 0.  0.
        -24    2    5    5    0    0 -0.23332265380E+02 -0.15506090844E+03 -0.45235607488E+02  0.18184539197E+03  0.80207271886E+02 0.  0.
          5    1    3    3  501    0  0.80560904573E+01 -0.13286619597E+02  0.21662678736E+02  0.27070214328E+02  0.47000000000E+01 0. -1.
        -11    1    4    4    0    0 -0.17856685223E+02  0.50929433239E+00 -0.88110007003E+01  0.19918692758E+02  0.00000000000E+00 0.  1.
         12    1    4    4    0    0  0.86799269602E+01  0.19888808539E+03 -0.90138075976E+02  0.21853302813E+03  0.00000000000E+00 0. -1.
         -5    1    5    5    0  503  0.24452933185E+02 -0.31049851691E+02  0.61325205678E+02  0.73108891955E+02  0.47000000000E+01 0.  1.
         13    1    6    6    0    0 -0.12731652304E+02 -0.32723199777E+02  0.22405192837E+02  0.41652076060E+02  0.00000000000E+00 0. -1.
        -14    1    6    6    0    0 -0.10600613077E+02 -0.12233770866E+03 -0.67640800325E+02  0.14019331591E+03  0.00000000000E+00 0.  1.
</event>
<event>
12    1  0.9246030E-003  0.2014747E+03  0.7818608E-02  0.1148536E+00
         21   -1    0    0  503  502  0.00000000000E+00  0.00000000000E+00  0.32347890386E+03  0.32347890386E+03  0.00000000000E+00 0. -1.
         21   -1    0    0  501  503 -0.00000000000E+00 -0.00000000000E+00 -0.47692855702E+03  0.47692855702E+03  0.00000000000E+00 0. -1.
          6    2    1    2  501    0 -0.15351962725E+02 -0.10375463898E+03 -0.42032833860E+03  0.46612010432E+03  0.17202131133E+03 0.  0.
         24    2    3    3    0    0  0.15568261792E+02 -0.68924213661E+02 -0.10989388493E+03  0.15217606657E+03  0.78025452822E+02 0.  0.
         -6    2    1    2    0  502  0.15351962725E+02  0.10375463898E+03  0.26687868544E+03  0.33428735656E+03  0.17182286269E+03 0.  0.
        -24    2    5    5    0    0  0.35603259834E+02 -0.55929586596E+01  0.13656930876E+03  0.16291164126E+03  0.81179760194E+02 0.  0.
          5    1    3    3  501    0 -0.30920224518E+02 -0.34830425315E+02 -0.31043445367E+03  0.31394403775E+03  0.47000000000E+01 0. -1.
        -11    1    4    4    0    0  0.86679648014E+01  0.15014133650E+02 -0.58075443447E+01  0.18283473258E+02  0.00000000000E+00 0.  1.
         12    1    4    4    0    0  0.69002969910E+01 -0.83938347311E+02 -0.10408634059E+03  0.13389259332E+03  0.00000000000E+00 0. -1.
         -5    1    5    5    0  502 -0.20251297108E+02  0.10934759764E+03  0.13030937668E+03  0.17137571530E+03  0.47000000000E+01 0.  1.
         11    1    6    6    0    0 -0.24698003891E+02 -0.34689631189E+01  0.63039871779E+02  0.67794177739E+02  0.00000000000E+00 0. -1.
        -12    1    6    6    0    0  0.60301263725E+02 -0.21239955407E+01  0.73529436985E+02  0.95117463524E+02  0.00000000000E+00 0.  1.
</event>
<event>
12    1  0.9246030E-003  0.2850132E+03  0.7818608E-02  0.1093014E+00
         21   -1    0    0  503  502  0.00000000000E+00  0.00000000000E+00  0.25006467557E+03  0.25006467557E+03  0.00000000000E+00 0. -1.
         21   -1    0    0  501  503 -0.00000000000E+00 -0.00000000000E+00 -0.46083554260E+03  0.46083554260E+03  0.00000000000E+00 0. -1.
          6    2    1    2  501    0  0.10876143992E+03  0.19915175962E+03 -0.29870317690E+03  0.41286328345E+03  0.17245877411E+03 0.  0.
         24    2    3    3    0    0  0.13326353006E+03  0.20451367045E+03 -0.25406465647E+03  0.36144548483E+03  0.80678243611E+02 0.  0.
         -6    2    1    2    0  502 -0.10876143992E+03 -0.19915175962E+03  0.87932309869E+02  0.29803693472E+03  0.17205652898E+03 0.  0.
        -24    2    5    5    0    0 -0.14651969143E+00 -0.42859947745E+02  0.11638320257E+02  0.92934047842E+02  0.81635103731E+02 0.  0.
          5    1    3    3  501    0 -0.24502090147E+02 -0.53619108329E+01 -0.44638520430E+02  0.51417798626E+02  0.47000000000E+01 0. -1.
        -11    1    4    4    0    0  0.75626066311E+02  0.15772972354E+03 -0.13426817659E+03  0.22051283599E+03  0.00000000000E+00 0.  1.
         12    1    4    4    0    0  0.57637463752E+02  0.46783946907E+02 -0.11979647988E+03  0.14093264883E+03  0.00000000000E+00 0. -1.
         -5    1    5    5    0  502 -0.10861492022E+03 -0.15629181187E+03  0.76293989612E+02  0.20510288687E+03  0.47000000000E+01 0.  1.
         13    1    6    6    0    0 -0.34133243081E+02 -0.46863153968E+02  0.68697120309E+01  0.58381730246E+02  0.00000000000E+00 0. -1.
        -14    1    6    6    0    0  0.33986723390E+02  0.40032062229E+01  0.47686082263E+01  0.34552317596E+02  0.00000000000E+00 0.  1.
</event>
<event>
12    1  0.9246030E-003  0.1995137E+03  0.7818608E-02  0.1150314E+00
         21   -1    0    0  503  502  0.00000000000E+00  0.00000000000E+00  0.56150757301E+03  0.56150757301E+03  0.00000000000E+00 0. -1.
         21   -1    0    0  501  503 -0.00000000000E+00 -0.00000000000E+00 -0.83584837280E+02  0.83584837280E+02  0.00000000000E+00 0.  1.
          6    2    1    2  501    0 -0.52186152842E+02  0.85436516769E+02  0.11151407508E+03  0.22788619373E+03  0.17167974664E+03 0.  0.
         24    2    3    3    0    0 -0.66406485861E+01  0.51984612905E+02 -0.96759099076E+01  0.94085875002E+02  0.77537284256E+02 0.  0.
         -6    2    1    2    0  502  0.52186152842E+02 -0.85436516769E+02  0.36640866065E+03  0.41720621656E+03  0.17257730903E+03 0.  0.
        -24    2    5    5    0    0 -0.20613015978E+02 -0.75121132924E+02  0.12869751475E+03  0.16833917372E+03  0.75544331806E+02 0.  0.
          5    1    3    3  501    0 -0.45545504256E+02  0.33451903864E+02  0.12118998499E+03  0.13380031873E+03  0.47000000000E+01 0. -1.
        -13    1    4    4    0    0 -0.19189174528E+02 -0.51741954536E+01 -0.26565660469E+02  0.33177266823E+02  0.00000000000E+00 0.  1.
         14    1    4    4    0    0  0.12548525942E+02  0.57158808359E+02  0.16889750562E+02  0.60908608180E+02  0.00000000000E+00 0. -1.
         -5    1    5    5    0  502  0.72799168820E+02 -0.10315383846E+02  0.23771114590E+03  0.24886704284E+03  0.47000000000E+01 0.  1.
         11    1    6    6    0    0 -0.11080280515E+02 -0.78151163862E+02  0.13509601486E+03  0.15646504485E+03  0.00000000000E+00 0. -1.
        -12    1    6    6    0    0 -0.95327354630E+01  0.30300309386E+01 -0.63985001083E+01  0.11874128875E+02  0.00000000000E+00 0.  1.
</event>
<event>
12    1  0.9246030E-003  0.2824110E+03  0.7818608E-02  0.1094478E+00
         21   -1    0    0  503  502  0.00000000000E+00  0.00000000000E+00  0.10522914354E+03  0.10522914354E+03  0.00000000000E+00 0.  1.
         21   -1    0    0  501  503 -0.00000000000E+00 -0.00000000000E+00 -0.75597731998E+03  0.75597731998E+03  0.00000000000E+00 0. -1.
          6    2    1    2  501    0  0.92696492354E+02 -0.20345514692E+03 -0.32552634796E+03  0.43048005546E+03  0.17134479400E+03 0.  0.
         24    2    3    3    0    0  0.10161858462E+02 -0.18843455976E+02 -0.91192322968E+02  0.12091912851E+03  0.76466049142E+02 0.  0.
         -6    2    1    2    0  502 -0.92696492354E+02  0.20345514692E+03 -0.32522182848E+03  0.43072640806E+03  0.17253800850E+03 0.  0.
        -24    2    5    5    0    0 -0.51853513549E+02  0.15178242466E+03 -0.12199687127E+03  0.21704278123E+03  0.80607946134E+02 0.  0.
          5    1    3    3  501    0  0.82534633893E+02 -0.18461169094E+03 -0.23433402499E+03  0.30956092695E+03  0.47000000000E+01 0. -1.
        -11    1    4    4    0    0 -0.75533728860E+01 -0.45787862262E+02 -0.61825641804E+02  0.77304539045E+02  0.00000000000E+00 0.  1.
         12    1    4    4    0    0  0.17715231348E+02  0.26944406286E+02 -0.29366681164E+02  0.43614589467E+02  0.00000000000E+00 0. -1.
         -5    1    5    5    0  502 -0.40842978805E+02  0.51672722259E+02 -0.20322495721E+03  0.21368362683E+03  0.47000000000E+01 0.  1.
         11    1    6    6    0    0 -0.52579102466E+02  0.11648479414E+03 -0.12839921004E+03  0.18116187905E+03  0.00000000000E+00 0. -1.
        -12    1    6    6    0    0  0.72558891694E+00  0.35297630517E+02  0.64023387657E+01  0.35880902178E+02  0.00000000000E+00 0.  1.
</event>
<event>
12    1  0.9246030E-003  0.1796459E+03  0.7818608E-02  0.1168261E+00
         21   -1    0    0  501  502  0.00000000000E+00  0.00000000000E+00  0.15524064242E+03  0.15524064242E+03  0.00000000000E+00 0. -1.
         21   -1    0    0  502  503 -0.00000000000E+00 -0.00000000000E+00 -0.41876148458E+03  0.41876148458E+03  0.00000000000E+00 0. -1.
          6    2    1    2  501    0 -0.20230561620E+02  0.48426278053E+02  0.72079686357E+02  0.19356687907E+03  0.17180883405E+03 0.  0.
         24    2    3    3    0    0 -0.15403637037E+02  0.72518266641E+02  0.10711936139E+03  0.15051351751E+03  0.75389590387E+02 0.  0.
         -6    2    1    2    0  503  0.20230561620E+02 -0.48426278053E+02 -0.33560052852E+03  0.38043524794E+03  0.17131515725E+03 0.  0.
        -24    2    5    5    0    0  0.37225971239E+02 -0.92778222706E+02 -0.20962877730E+03  0.24572477675E+03  0.80267490889E+02 0.  0.
          5    1    3    3  501    0 -0.48269245830E+01 -0.24091988589E+02 -0.35039675032E+02  0.43053361558E+02  0.47000000000E+01 0. -1.
        -13    1    4    4    0    0 -0.42316921240E+02  0.54140499027E+02  0.50837615270E+02  0.85477357145E+02  0.00000000000E+00 0.  1.
         14    1    4    4    0    0  0.26913284203E+02  0.18377767614E+02  0.56281746118E+02  0.65036160366E+02  0.00000000000E+00 0. -1.
         -5    1    5    5    0  503 -0.16995409618E+02  0.44351944653E+02 -0.12597175122E+03  0.13471047119E+03  0.47000000000E+01 0.  1.
         11    1    6    6    0    0  0.49772961153E+02 -0.25857893587E+02 -0.12574020134E+03  0.13768288403E+03  0.00000000000E+00 0. -1.
        -12    1    6    6    0    0 -0.12546989914E+02 -0.66920329119E+02 -0.83888575957E+02  0.10804189271E+03  0.00000000000E+00 0.  1.
</event>
<event>
12    1  0.9246030E-003  0.2173819E+03  0.7818608E-02  0.1136127E+00
         21   -1    0    0  501  502  0.00000000000E+00  0.00000000000E+00  0.29559801630E+03  0.29559801630E+03  0.00000000000E+00 0. -1.
         21   -1    0    0  502  503 -0.00000000000E+00 -0.00000000000E+00 -0.18637150660E+03  0.18637150660E+03  0.00000000000E+00 0. -1.
          6    2    1    2  501    0 -0.11448626209E+03 -0.63782005432E+02  0.14715864949E+03  0.26130294785E+03  0.17160511068E+03 0.  0.
         24    2    3    3    0    0 -0.55368622445E+02 -0.91920596046E+01  0.15148516744E+03  0.18058265140E+03  0.80697953635E+02 0.  0.
         -6    2    1    2    0  503  0.11448626209E+03  0.63782005432E+02 -0.37932139785E+02  0.22066657505E+03  0.17343483414E+03 0.  0.
        -24    2    5    5    0    0  0.14508421814E+03  0.79418333297E+02 -0.31148947891E+02  0.18532776698E+03  0.77584935681E+02 0.  0.
          5    1    3    3  501    0 -0.59117639640E+02 -0.54589945827E+02 -0.43265179478E+01  0.80720296454E+02  0.47000000000E+01 0. -1.
        -11    1    4    4    0    0 -0.53877754831E+02  0.14009465606E+02  0.44981920481E+02  0.71571298454E+02  0.00000000000E+00 0.  1.
         12    1    4    4    0    0 -0.14908676146E+01 -0.23201525211E+02  0.10650324696E+03  0.10901135294E+03  0.00000000000E+00 0. -1.
         -5    1    5    5    0  503 -0.30597956051E+02 -0.15636327865E+02 -0.67831918934E+01  0.35338808070E+02  0.47000000000E+01 0.  1.
         11    1    6    6    0    0  0.13967365677E+03  0.44526753871E+02 -0.18223185626E+02  0.14772760981E+03  0.00000000000E+00 0. -1.
        -12    1    6    6    0    0  0.54105613623E+01  0.34891579426E+02 -0.12925762266E+02  0.37600157171E+02  0.00000000000E+00 0.  1.
</event>
<event>
12    1  0.9246030E-003  0.1750884E+03  0.7818608E-02  0.1173610E+00
         21   -1    0    0  503  502  0.00000000000E+00  0.00000000000E+00  0.11519971720E+04  0.11519971720E+04  0.00000000000E+00 0. -1.
         21   -1    0    0  501  503 -0.00000000000E+00 -0.00000000000E+00 -0.27625241601E+02  0.27625241601E+02  0.00000000000E+00 0. -1.
          6    2    1    2  501    0  0.26322470427E+02  0.17374257176E+02  0.70951714098E+03  0.73080128053E+03  0.17222427533E+03 0.  0.
         24    2    3    3    0    0  0.52884926707E+02  0.46518891755E+02  0.28519392001E+03  0.30462378268E+03  0.80617952129E+02 0.  0.
         -6    2    1    2    0  502 -0.26322470427E+02 -0.17374257176E+02  0.41485478939E+03  0.44882113305E+03  0.16834837667E+03 0.  0.
        -24    2    5    5    0    0  0.22198458910E+02 -0.58101514396E+02  0.18757713612E+03  0.21283339663E+03  0.79020979316E+02 0.  0.
          5    1    3    3  501    0 -0.26562456280E+02 -0.29144634578E+02  0.42432322098E+03  0.42617749784E+03  0.47000000000E+01 0. -1.
        -11    1    4    4    0    0  0.29671542445E+02  0.48834052888E+02  0.81144421935E+02  0.99245062163E+02  0.00000000000E+00 0.  1.
         12    1    4    4    0    0  0.23213384262E+02 -0.23151611335E+01  0.20404949807E+03  0.20537872052E+03  0.00000000000E+00 0. -1.
         -5    1    5    5    0  502 -0.48520929336E+02  0.40727257220E+02  0.22727765327E+03  0.23598773642E+03  0.47000000000E+01 0.  1.
         11    1    6    6    0    0  0.27035617010E+02  0.58035004495E+01  0.22160412208E+02  0.35435703377E+02  0.00000000000E+00 0. -1.
        -12    1    6    6    0    0 -0.48371581003E+01 -0.63905014846E+02  0.16541672391E+03  0.17739769325E+03  0.00000000000E+00 0.  1.
</event>
<event>
12    1  0.9246030E-003  0.1853955E+03  0.7818608E-02  0.1162757E+00
         21   -1    0    0  503  502  0.00000000000E+00  0.00000000000E+00  0.13106703193E+03  0.13106703193E+03  0.00000000000E+00 0.  1.
         21   -1    0    0  501  503 -0.00000000000E+00 -0.00000000000E+00 -0.28280598244E+03  0.28280598244E+03  0.00000000000E+00 0.  1.
          6    2    1    2  501    0  0.64415715333E+02  0.25967192876E+02 -0.19389659381E+02  0.18608401393E+03  0.17154481006E+03 0.  0.
         24    2    3    3    0    0  0.50061075675E+02  0.83148884674E+02 -0.63384015801E+01  0.12551812512E+03  0.79339624898E+02 0.  0.
         -6    2    1    2    0  502 -0.64415715333E+02 -0.25967192876E+02 -0.13234929113E+03  0.22778900044E+03  0.17189477703E+03 0.  0.
        -24    2    5    5    0    0 -0.73137324730E+02 -0.57257052918E+02 -0.37888913868E+02  0.12778912702E+03  0.79164719492E+02 0.  0.
          5    1    3    3  501    0  0.14354639658E+02 -0.57181691798E+02 -0.13051257801E+02  0.60565888805E+02  0.47000000000E+01 0. -1.
        -13    1    4    4    0    0  0.45035411901E+02  0.30938868330E+01 -0.27537275179E+01  0.45225473752E+02  0.00000000000E+00 0.  1.
         14    1    4    4    0    0  0.50256637734E+01  0.80054997841E+02 -0.35846740622E+01  0.80292651369E+02  0.00000000000E+00 0. -1.
         -5    1    5    5    0  502  0.87216093973E+01  0.31289860042E+02 -0.94460377263E+02  0.99999873423E+02  0.47000000000E+01 0.  1.
         13    1    6    6    0    0 -0.74177698303E+02 -0.37480194325E+02  0.21319580385E+01  0.83136280511E+02  0.00000000000E+00 0. -1.
        -14    1    6    6    0    0  0.10403735725E+01 -0.19776858594E+02 -0.40020871906E+02  0.44652846506E+02  0.00000000000E+00 0.  1.
</event>
<event>
12    1  0.9246030E-003  0.1794019E+03  0.7818608E-02  0.1168874E+00
         21   -1    0    0  501  502  0.00000000000E+00  0.00000000000E+00  0.37079804049E+03  0.37079804049E+03  0.00000000000E+00 0.  1.
         21   -1    0    0  502  503 -0.00000000000E+00 -0.00000000000E+00 -0.12615487302E+03  0.12615487302E+03  0.00000000000E+00 0.  1.
          6    2    1    2  501    0  0.49360754545E+01 -0.44879786972E+02  0.26327085273E+03  0.31858527887E+03  0.17362741114E+03 0.  0.
         24    2    3    3    0    0 -0.30954750782E+02  0.32029863294E+02  0.18199071318E+03  0.20097661934E+03  0.72710887081E+02 0.  0.
         -6    2    1    2    0  503 -0.49360754545E+01  0.44879786972E+02 -0.18627685250E+02  0.17836763463E+03  0.17155017432E+03 0.  0.
        -24    2    5    5    0    0  0.38357283953E+02  0.80020762651E+02 -0.58573644021E+00  0.11957303406E+03  0.80142146830E+02 0.  0.
          5    1    3    3  501    0  0.35890826237E+02 -0.76909650266E+02  0.81280139544E+02  0.11760865953E+03  0.47000000000E+01 0. -1.
        -11    1    4    4    0    0 -0.91397826749E+00  0.10038269567E+02  0.15417225608E+03  0.15450141344E+03  0.00000000000E+00 0.  1.
         12    1    4    4    0    0 -0.30040772515E+02  0.21991593727E+02  0.27818457107E+02  0.46475205903E+02  0.00000000000E+00 0. -1.
         -5    1    5    5    0  503 -0.43293359408E+02 -0.35140975678E+02 -0.18041948810E+02  0.58794600580E+02  0.47000000000E+01 0.  1.
         11    1    6    6    0    0  0.31345634011E+02 -0.17719869581E+01  0.16875729490E+02  0.35643778632E+02  0.00000000000E+00 0. -1.
        -12    1    6    6    0    0  0.70116499425E+01  0.81792749609E+02 -0.17461465930E+02  0.83929255423E+02  0.00000000000E+00 0.  1.
</event>
<event>
12    1  0.9246030E-003  0.4062416E+03  0.7818608E-02  0.1041722E+00
         21   -1    0    0  501  502  0.00000000000E+00  0.00000000000E+00  0.24775353283E+03  0.24775353283E+03  0.00000000000E+00 0.  1.
         21   -1    0    0  502  503 -0.00000000000E+00 -0.00000000000E+00 -0.68186201769E+03  0.68186201769E+03  0.00000000000E+00 0.  1.
          6    2    1    2  501    0  0.26618733951E+03  0.25370175301E+03 -0.29142107203E+03  0.49995846200E+03  0.17266135441E+03 0.  0.
         24    2    3    3    0    0  0.13028865513E+03  0.12443962759E+03 -0.22877359371E+03  0.30216072181E+03  0.80643598971E+02 0.  0.
         -6    2    1    2    0  503 -0.26618733951E+03 -0.25370175301E+03 -0.14268741283E+03  0.42965708851E+03  0.17036794514E+03 0.  0.
        -24    2    5    5    0    0 -0.45747591038E+02 -0.73021710538E+02 -0.59000268789E+02  0.13256351986E+03  0.81651961308E+02 0.  0.
          5    1    3    3  501    0  0.13589868438E+03  0.12926212542E+03 -0.62647478316E+02  0.19779774019E+03  0.47000000000E+01 0. -1.
        -11    1    4    4    0    0  0.10165389876E+02  0.41644564011E+02 -0.19601946063E+02  0.47136410051E+02  0.00000000000E+00 0.  1.
         12    1    4    4    0    0  0.12012326526E+03  0.82795063577E+02 -0.20917164765E+03  0.25502431176E+03  0.00000000000E+00 0. -1.
         -5    1    5    5    0  503 -0.22043974848E+03 -0.18068004248E+03 -0.83687144040E+02  0.29709356865E+03  0.47000000000E+01 0.  1.
         11    1    6    6    0    0 -0.25442263779E+02 -0.88686899520E+02 -0.52302205085E+02  0.10605751076E+03  0.00000000000E+00 0. -1.
        -12    1    6    6    0    0 -0.20305327259E+02  0.15665188982E+02 -0.66980637043E+01  0.26506009099E+02  0.00000000000E+00 0.  1.
</event>
<event>
12    1  0.9246030E-003  0.2072645E+03  0.7818608E-02  0.1143783E+00
         21   -1    0    0  503  502  0.00000000000E+00  0.00000000000E+00  0.47025510542E+02  0.47025510542E+02  0.00000000000E+00 0. -1.
         21   -1    0    0  501  503 -0.00000000000E+00 -0.00000000000E+00 -0.96813382000E+03  0.96813382000E+03  0.00000000000E+00 0. -1.
          6    2    1    2  501    0 -0.23682232167E+02 -0.11345781724E+03 -0.58172468722E+03  0.61749137236E+03  0.17163466669E+03 0.  0.
         24    2    3    3    0    0  0.13280079760E+02 -0.44840386200E+02 -0.13725710179E+03  0.16621752109E+03  0.81251040440E+02 0.  0.
         -6    2    1    2    0  502  0.23682232167E+02  0.11345781724E+03 -0.33938362224E+03  0.39766795818E+03  0.17182851191E+03 0.  0.
        -24    2    5    5    0    0  0.44885459782E+02  0.14049430282E+03 -0.31018486658E+03  0.35233358109E+03  0.78555377194E+02 0.  0.
          5    1    3    3  501    0 -0.36962311927E+02 -0.68617431035E+02 -0.44446758543E+03  0.45127385128E+03  0.47000000000E+01 0. -1.
        -11    1    4    4    0    0  0.20543520102E+02 -0.66045563364E+02 -0.11746086829E+03  0.13631253881E+03  0.00000000000E+00 0.  1.
         12    1    4    4    0    0 -0.72634403417E+01  0.21205177164E+02 -0.19796233495E+02  0.29904982273E+02  0.00000000000E+00 0. -1.
         -5    1    5    5    0  502 -0.21203227615E+02 -0.27036485580E+02 -0.29198755658E+02  0.45334377087E+02  0.47000000000E+01 0.  1.
         11    1    6    6    0    0  0.28726656145E+02  0.40528283461E+02 -0.18374494342E+03  0.19034171052E+03  0.00000000000E+00 0. -1.
        -12    1    6    6    0    0  0.16158803637E+02  0.99966019355E+02 -0.12643992316E+03  0.16199187057E+03  0.00000000000E+00 0.  1.
</event>
<event>
12    1  0.9246030E-003  0.2386697E+03  0.7818608E-02  0.1120988E+00
         21   -1    0    0  503  502  0.00000000000E+00  0.00000000000E+00  0.10467535303E+03  0.10467535303E+03  0.00000000000E+00 0. -1.
         21   -1    0    0  501  503 -0.00000000000E+00 -0.00000000000E+00 -0.68650587417E+03  0.68650587417E+03  0.00000000000E+00 0.  1.
          6    2    1    2  501    0  0.12353363384E+03 -0.10907620364E+03 -0.47450112592E+03  0.53114456236E+03  0.17264139345E+03 0.  0.
         24    2    3    3    0    0  0.21820484015E+02 -0.70415550528E+02 -0.34599592000E+03  0.36269311863E+03  0.79991489324E+02 0.  0.
         -6    2    1    2    0  502 -0.12353363384E+03  0.10907620364E+03 -0.10732939522E+03  0.26003666485E+03  0.17012140105E+03 0.  0.
        -24    2    5    5    0    0 -0.13878161638E+03  0.12286544789E+03 -0.12088074161E+03  0.23496929128E+03  0.79007333967E+02 0.  0.
          5    1    3    3  501    0  0.10171314982E+03 -0.38660653115E+02 -0.12850520592E+03  0.16845144373E+03  0.47000000000E+01 0. -1.
        -13    1    4    4    0    0  0.36982268524E+02 -0.18604649362E+02 -0.68843166980E+02  0.80331829326E+02  0.00000000000E+00 0.  1.
         14    1    4    4    0    0 -0.15161784509E+02 -0.51810901166E+02 -0.27715275302E+03  0.28236128931E+03  0.00000000000E+00 0. -1.
         -5    1    5    5    0  502  0.15247982542E+02 -0.13789244246E+02  0.13551346394E+02  0.25067373568E+02  0.47000000000E+01 0.  1.
         13    1    6    6    0    0 -0.74073984030E+02  0.50956249155E+02 -0.14308065147E+02  0.91039635140E+02  0.00000000000E+00 0. -1.
        -14    1    6    6    0    0 -0.64707632350E+02  0.71909198734E+02 -0.10657267647E+03  0.14392965614E+03  0.00000000000E+00 0.  1.
</event>
<event>
12    1  0.9246030E-003  0.1813114E+03  0.7818608E-02  0.1166808E+00
         21   -1    0    0  501  502  0.00000000000E+00  0.00000000000E+00  0.25984428078E+03  0.25984428078E+03  0.00000000000E+00 0.  1.
         21   -1    0    0  502  503 -0.00000000000E+00 -0.00000000000E+00 -0.16432216646E+03  0.16432216646E+03  0.00000000000E+00 0.  1.
          6    2    1    2  501    0  0.46421655409E+02  0.33272855469E+02  0.15041763750E+03  0.23472687039E+03  0.17090694840E+03 0.  0.
         24    2    3    3    0    0  0.88973218043E+02  0.25534951046E+02  0.63144560862E+02  0.13721179180E+03  0.79193263528E+02 0.  0.
         -6    2    1    2    0  503 -0.46421655409E+02 -0.33272855469E+02 -0.54895523189E+02  0.18943957685E+03  0.17208074212E+03 0.  0.
        -24    2    5    5    0    0 -0.81173899121E+02 -0.34218741674E+02 -0.82491809007E+02  0.14480485791E+03  0.80021398020E+02 0.  0.
          5    1    3    3  501    0 -0.42551562634E+02  0.77379044230E+01  0.87273076638E+02  0.97515078595E+02  0.47000000000E+01 0. -1.
        -11    1    4    4    0    0  0.17737123124E+02  0.32340533905E+02 -0.63873411344E+01  0.37434126098E+02  0.00000000000E+00 0.  1.
         12    1    4    4    0    0  0.71236094919E+02 -0.68055828591E+01  0.69531901996E+02  0.99777665700E+02  0.00000000000E+00 0. -1.
         -5    1    5    5    0  503  0.34752243712E+02  0.94588620483E+00  0.27596285817E+02  0.44634718938E+02  0.47000000000E+01 0.  1.
         11    1    6    6    0    0  0.42277159100E+01  0.18251695292E+02 -0.14431498442E+02  0.23648807795E+02  0.00000000000E+00 0. -1.
        -12    1    6    6    0    0 -0.85401615031E+02 -0.52470436966E+02 -0.68060310565E+02  0.12115605011E+03  0.00000000000E+00 0.  1.
</event>
<event>
12    1  0.9246030E-003  0.2098588E+03  0.7818608E-02  0.1142320E+00
         21   -1    0    0  501  502  0.00000000000E+00  0.00000000000E+00  0.10101731335E+04  0.10101731335E+04  0.00000000000E+00 0.  1.
         21   -1    0    0  502  503 -0.00000000000E+00 -0.00000000000E+00 -0.46467154744E+02  0.46467154744E+02  0.00000000000E+00 0. -1.
          6    2    1    2  501    0 -0.94702599916E+02  0.78135598450E+02  0.33956431292E+03  0.39917997867E+03  0.17019688184E+03 0.  0.
         24    2    3    3    0    0 -0.71821317494E+02  0.27699522691E+02  0.32313074284E+03  0.34121875845E+03  0.78046133454E+02 0.  0.
         -6    2    1    2    0  503  0.94702599916E+02 -0.78135598450E+02  0.62414166579E+03  0.65746030953E+03  0.16621517817E+03 0.  0.
        -24    2    5    5    0    0  0.27040189339E+02  0.20437716141E+02  0.29912000985E+03  0.31111356567E+03  0.78549337152E+02 0.  0.
          5    1    3    3  501    0 -0.22881282422E+02  0.50436075759E+02  0.16433570075E+02  0.57961220214E+02  0.47000000000E+01 0. -1.
        -11    1    4    4    0    0 -0.55817909241E+01 -0.13610783732E+02  0.83774916710E+01  0.16929033948E+02  0.00000000000E+00 0.  1.
         12    1    4    4    0    0 -0.66239526570E+02  0.41310306423E+02  0.31475325117E+03  0.32428972451E+03  0.00000000000E+00 0. -1.
         -5    1    5    5    0  503  0.67662410577E+02 -0.98573314592E+02  0.32502165594E+03  0.34634674386E+03  0.47000000000E+01 0.  1.
         11    1    6    6    0    0 -0.19595902935E+02 -0.13421290137E+02  0.49176663549E+02  0.54612037855E+02  0.00000000000E+00 0. -1.
        -12    1    6    6    0    0  0.46636092273E+02  0.33859006278E+02  0.24994334630E+03  0.25650152781E+03  0.00000000000E+00 0.  1.
</event>
<event>
12    1  0.9246030E-003  0.1752867E+03  0.7818608E-02  0.1172528E+00
         21   -1    0    0  501  502  0.00000000000E+00  0.00000000000E+00  0.91216863920E+02  0.91216863920E+02  0.00000000000E+00 0. -1.
         21   -1    0    0  502  503 -0.00000000000E+00 -0.00000000000E+00 -0.34119030997E+03  0.34119030997E+03  0.00000000000E+00 0. -1.
          6    2    1    2  501    0 -0.32318875581E+02  0.48594781136E+01 -0.98723996235E+02  0.20088647846E+03  0.17187444706E+03 0.  0.
         24    2    3    3    0    0 -0.27118238708E+02  0.63623024096E+02 -0.27257738790E+02  0.10809791821E+03  0.78478580087E+02 0.  0.
         -6    2    1    2    0  503  0.32318875581E+02 -0.48594781136E+01 -0.15124944982E+03  0.23152069543E+03  0.17221298469E+03 0.  0.
        -24    2    5    5    0    0  0.55825393123E+02 -0.60633678303E+02 -0.97307768452E+02  0.15031039582E+03  0.79570697049E+02 0.  0.
          5    1    3    3  501    0 -0.52006368736E+01 -0.58763545982E+02 -0.71466257445E+02  0.92788560251E+02  0.47000000000E+01 0. -1.
        -11    1    4    4    0    0 -0.39685969917E+02  0.17948074711E+02 -0.39898707747E+02  0.59067897152E+02  0.00000000000E+00 0.  1.
         12    1    4    4    0    0  0.12567731210E+02  0.45674949385E+02  0.12640968957E+02  0.49030021061E+02  0.00000000000E+00 0. -1.
         -5    1    5    5    0  503 -0.23506517542E+02  0.55774200189E+02 -0.53941681365E+02  0.81210299607E+02  0.47000000000E+01 0.  1.
         13    1    6    6    0    0  0.44398269432E+02 -0.65846786767E+02 -0.10783427649E+03  0.13392250312E+03  0.00000000000E+00 0. -1.
        -14    1    6    6    0    0  0.11427123691E+02  0.52131084646E+01  0.10526508037E+02  0.16387892701E+02  0.00000000000E+00 0.  1.
</event>
<event>
12    1  0.9246030E-003  0.1830746E+03  0.7818608E-02  0.1165332E+00
         21   -1    0    0  501  502  0.00000000000E+00  0.00000000000E+00  0.18365414781E+03  0.18365414781E+03  0.00000000000E+00 0. -1.
         21   -1    0    0  502  503 -0.00000000000E+00 -0.00000000000E+00 -0.23051554694E+03  0.23051554694E+03  0.00000000000E+00 0. -1.
          6    2    1    2  501    0  0.53671212845E+02  0.22074967526E+02  0.73102224799E+02  0.19529172914E+03  0.17154305850E+03 0.  0.
         24    2    3    3    0    0 -0.27310646689E+02 -0.21828615075E+02  0.50953718918E+02  0.10043271559E+03  0.79171263920E+02 0.  0.
         -6    2    1    2    0  503 -0.53671212845E+02 -0.22074967526E+02 -0.11996362393E+03  0.21887796561E+03  0.17363291589E+03 0.  0.
        -24    2    5    5    0    0  0.68018970541E+00  0.47411309810E+02 -0.78092788812E+02  0.12111460575E+03  0.79510811248E+02 0.  0.
          5    1    3    3  501    0  0.80981859533E+02  0.43903582601E+02  0.22148505881E+02  0.94859013549E+02  0.47000000000E+01 0. -1.
        -13    1    4    4    0    0 -0.33335795698E+02 -0.13258843882E+02 -0.11058803943E+02  0.37541568435E+02  0.00000000000E+00 0.  1.
         14    1    4    4    0    0  0.60251490096E+01 -0.85697711937E+01  0.62012522862E+02  0.62891147156E+02  0.00000000000E+00 0. -1.
         -5    1    5    5    0  503 -0.54351402550E+02 -0.69486277335E+02 -0.41870835116E+02  0.97763359856E+02  0.47000000000E+01 0.  1.
         11    1    6    6    0    0 -0.58939999047E+01  0.46138976577E+02 -0.39623835081E+01  0.46682382946E+02  0.00000000000E+00 0. -1.
        -12    1    6    6    0    0  0.65741896102E+01  0.12723332329E+01 -0.74130405304E+02  0.74432222803E+02  0.00000000000E+00 0.  1.
</event>
<event>
12    1  0.9246030E-003  0.1755505E+03  0.7818608E-02  0.1172449E+00
         21   -1    0    0  501  502  0.00000000000E+00  0.00000000000E+00  0.69522744355E+02  0.69522744355E+02  0.00000000000E+00 0. -1.
         21   -1    0    0  502  503 -0.00000000000E+00 -0.00000000000E+00 -0.56902750337E+03  0.56902750337E+03  0.00000000000E+00 0. -1.
          6    2    1    2  501    0 -0.14563381520E+02  0.25272569829E+02 -0.98651193317E+02  0.20137043753E+03  0.17311037029E+03 0.  0.
         24    2    3    3    0    0 -0.40907163331E+02 -0.42708573432E+02 -0.37639899696E+02  0.10618693776E+03  0.79758920787E+02 0.  0.
         -6    2    1    2    0  503  0.14563381520E+02 -0.25272569829E+02 -0.40085356570E+03  0.43717981020E+03  0.17202270328E+03 0.  0.
        -24    2    5    5    0    0  0.22672404562E+02 -0.82357938706E+02 -0.26278899780E+03  0.28748541984E+03  0.79328060994E+02 0.  0.
          5    1    3    3  501    0  0.26343781811E+02  0.67981143260E+02 -0.61011293621E+02  0.95183499770E+02  0.47000000000E+01 0. -1.
        -13    1    4    4    0    0 -0.56527331221E+02 -0.63174144629E+01 -0.96496329241E+01  0.57691977918E+02  0.00000000000E+00 0.  1.
         14    1    4    4    0    0  0.15620167890E+02 -0.36391158969E+02 -0.27990266772E+02  0.48494959841E+02  0.00000000000E+00 0. -1.
         -5    1    5    5    0  503 -0.81090230420E+01  0.57085368877E+02 -0.13806456790E+03  0.14969439035E+03  0.47000000000E+01 0.  1.
         11    1    6    6    0    0  0.31367551021E+02 -0.15987491253E+02 -0.16671573858E+03  0.17039266600E+03  0.00000000000E+00 0. -1.
        -12    1    6    6    0    0 -0.86951464593E+01 -0.66370447453E+02 -0.96073259213E+02  0.11709275384E+03  0.00000000000E+00 0.  1.
</event>
<event>
12    1  0.9246030E-003  0.1795778E+03  0.7818608E-02  0.1168368E+00
         21   -1    0    0  501  502  0.00000000000E+00  0.00000000000E+00  0.58896547729E+03  0.58896547729E+03  0.00000000000E+00 0. -1.
         21   -1    0    0  502  503 -0.00000000000E+00 -0.00000000000E+00 -0.60793188264E+02  0.60793188264E+02  0.00000000000E+00 0. -1.
          6    2    1    2  501    0  0.42421888301E+02  0.31694653630E+02  0.15962293697E+03  0.23978696359E+03  0.17092143874E+03 0.  0.
         24    2    3    3    0    0  0.15712677685E+02 -0.34286072431E+02  0.31816460195E+02  0.93419536712E+02  0.79325277796E+02 0.  0.
         -6    2    1    2    0  503 -0.42421888301E+02 -0.31694653630E+02  0.36854935205E+03  0.40997170196E+03  0.17159255182E+03 0.  0.
        -24    2    5    5    0    0 -0.73451130686E+02 -0.60346905132E+02  0.19033199708E+03  0.22675794427E+03  0.78460681970E+02 0.  0.
          5    1    3    3  501    0  0.26709210616E+02  0.65980726061E+02  0.12780647678E+03  0.14636742687E+03  0.47000000000E+01 0. -1.
        -11    1    4    4    0    0  0.22054615161E+02 -0.35204946436E+02  0.55249967107E+02  0.69125633226E+02  0.00000000000E+00 0.  1.
         12    1    4    4    0    0 -0.63419374763E+01  0.91887400507E+00 -0.23433506913E+02  0.24293903487E+02  0.00000000000E+00 0. -1.
         -5    1    5    5    0  503  0.31029242385E+02  0.28652251502E+02  0.17821735497E+03  0.18321375770E+03  0.47000000000E+01 0.  1.
         11    1    6    6    0    0 -0.66189216186E+02 -0.73421884275E+02  0.18687144062E+03  0.21140652958E+03  0.00000000000E+00 0. -1.
        -12    1    6    6    0    0 -0.72619145002E+01  0.13074979143E+02  0.34605564643E+01  0.15351414685E+02  0.00000000000E+00 0.  1.
</event>
<event>
12    1  0.9246030E-003  0.1869710E+03  0.7818608E-02  0.1161457E+00
         21   -1    0    0  503  502  0.00000000000E+00  0.00000000000E+00  0.89588172288E+02  0.89588172288E+02  0.00000000000E+00 0.  1.
         21   -1    0    0  501  503 -0.00000000000E+00 -0.00000000000E+00 -0.38914199800E+03  0.38914199800E+03  0.00000000000E+00 0. -1.
          6    2    1    2  501    0 -0.66817505951E+02 -0.20175113449E+02 -0.13689853678E+03  0.23090991317E+03  0.17235592338E+03 0.  0.
         24    2    3    3    0    0 -0.30544642759E+02 -0.55426129889E+02 -0.14758432900E+03  0.17900007865E+03  0.79087691291E+02 0.  0.
         -6    2    1    2    0  502  0.66817505951E+02  0.20175113449E+02 -0.16265528894E+03  0.24782025712E+03  0.17345466992E+03 0.  0.
        -24    2    5    5    0    0  0.74404158178E+02 -0.44939629722E+01 -0.18405138818E+03  0.21396758092E+03  0.79693398310E+02 0.  0.
          5    1    3    3  501    0 -0.36272863192E+02  0.35251016440E+02  0.10685792227E+02  0.51909834518E+02  0.47000000000E+01 0. -1.
        -13    1    4    4    0    0 -0.13634605261E+02 -0.47596522676E+02 -0.25859948670E+02  0.55857572241E+02  0.00000000000E+00 0.  1.
         14    1    4    4    0    0 -0.16910037498E+02 -0.78296072128E+01 -0.12172438033E+03  0.12314250641E+03  0.00000000000E+00 0. -1.
         -5    1    5    5    0  502 -0.75866522274E+01  0.24669076421E+02  0.21396099242E+02  0.33852676206E+02  0.47000000000E+01 0.  1.
         13    1    6    6    0    0  0.51533797625E+02  0.34973442220E+02 -0.90127677742E+02  0.10955305680E+03  0.00000000000E+00 0. -1.
        -14    1    6    6    0    0  0.22870360554E+02 -0.39467405192E+02 -0.93923710440E+02  0.10441452412E+03  0.00000000000E+00 0.  1.
</event>
<event>
12    1  0.9246030E-003  0.2034689E+03  0.7818608E-02  0.1147066E+00
         21   -1    0    0  503  502  0.00000000000E+00  0.00000000000E+00  0.45532491212E+03  0.45532491212E+03  0.00000000000E+00 0. -1.
         21   -1    0    0  501  503 -0.00000000000E+00 -0.00000000000E+00 -0.96287506763E+02  0.96287506763E+02  0.00000000000E+00 0.  1.
          6    2    1    2  501    0  0.58696904894E+02  0.89873297123E+02  0.24789078709E+03  0.32070147872E+03  0.17284981907E+03 0.  0.
         24    2    3    3    0    0 -0.48858054613E+01 -0.15552821268E+02  0.36675616592E+02  0.76178748199E+02  0.64748277817E+02 0.  0.
         -6    2    1    2    0  502 -0.58696904894E+02 -0.89873297123E+02  0.11114661827E+03  0.23091094016E+03  0.17159182776E+03 0.  0.
        -24    2    5    5    0    0 -0.29637273476E+02 -0.80807499585E+02  0.14357122033E+03  0.18618851087E+03  0.81518380177E+02 0.  0.
          5    1    3    3  501    0  0.63582710355E+02  0.10542611839E+03  0.21121517050E+03  0.24452273052E+03  0.47000000000E+01 0. -1.
        -11    1    4    4    0    0 -0.10135726233E+02 -0.83880972265E+01 -0.17155621866E+02  0.21619631888E+02  0.00000000000E+00 0.  1.
         12    1    4    4    0    0  0.52499207720E+01 -0.71647240412E+01  0.53831238458E+02  0.54559116311E+02  0.00000000000E+00 0. -1.
         -5    1    5    5    0  502 -0.29059631418E+02 -0.90657975380E+01 -0.32424602056E+02  0.44722429291E+02  0.47000000000E+01 0.  1.
         11    1    6    6    0    0  0.20283728197E+02 -0.31973879052E+01  0.76725476497E+01  0.21920787085E+02  0.00000000000E+00 0. -1.
        -12    1    6    6    0    0 -0.49921001673E+02 -0.77610111679E+02  0.13589867268E+03  0.16426772379E+03  0.00000000000E+00 0.  1.
</event>
<event>
12    1  0.9246030E-003  0.2486970E+03  0.7818608E-02  0.1114743E+00
         21   -1    0    0  503  502  0.00000000000E+00  0.00000000000E+00  0.78198026773E+02  0.78198026773E+02  0.00000000000E+00 0. -1.
         21   -1    0    0  501  503 -0.00000000000E+00 -0.00000000000E+00 -0.90477013514E+03  0.90477013514E+03  0.00000000000E+00 0.  1.
          6    2    1    2  501    0  0.13737225270E+03 -0.10597199606E+03 -0.59387680167E+03  0.64238437316E+03  0.17282021744E+03 0.  0.
         24    2    3    3    0    0  0.16502975444E+03 -0.93022396476E+02 -0.43955243314E+03  0.48499717465E+03  0.78281107843E+02 0.  0.
         -6    2    1    2    0  502 -0.13737225270E+03  0.10597199606E+03 -0.23269530670E+03  0.34058378876E+03  0.17818252340E+03 0.  0.
        -24    2    5    5    0    0 -0.16960565558E+03  0.10452516175E+03 -0.21193610163E+03  0.30192993791E+03  0.80951765784E+02 0.  0.
          5    1    3    3  501    0 -0.27657501740E+02 -0.12949599589E+02 -0.15432436852E+03  0.15738719850E+03  0.47000000000E+01 0. -1.
        -11    1    4    4    0    0  0.43288809664E+02 -0.82645198179E+01 -0.18681279453E+03  0.19194072921E+03  0.00000000000E+00 0.  1.
         12    1    4    4    0    0  0.12174094477E+03 -0.84757876658E+02 -0.25273963862E+03  0.29305644545E+03  0.00000000000E+00 0. -1.
         -5    1    5    5    0  502  0.32233402882E+02  0.14468343123E+01 -0.20759205071E+02  0.38653850856E+02  0.47000000000E+01 0.  1.
         13    1    6    6    0    0 -0.12652033466E+03  0.11466004629E+03 -0.17059032682E+03  0.24136151495E+03  0.00000000000E+00 0. -1.
        -14    1    6    6    0    0 -0.43085320925E+02 -0.10134884538E+02 -0.41345774815E+02  0.60568422952E+02  0.00000000000E+00 0.  1.
</event>
<event>
12    1  0.9246030E-003  0.3487138E+03  0.7818608E-02  0.1063176E+00
         21   -1    0    0  501  502  0.00000000000E+00  0.00000000000E+00  0.13587105442E+04  0.13587105442E+04  0.00000000000E+00 0.  1.
         21   -1    0    0  502  503 -0.00000000000E+00 -0.00000000000E+00 -0.93485837765E+02  0.93485837765E+02  0.00000000000E+00 0. -1.
          6    2    1    2  501    0 -0.21480124560E+03  0.21513689804E+03  0.48091780711E+03  0.59386159508E+03  0.17019458544E+03 0.  0.
         24    2    3    3    0    0 -0.64061871492E+02  0.85006000046E+02  0.28513457023E+03  0.31455965209E+03  0.79473946419E+02 0.  0.
         -6    2    1    2    0  503  0.21480124560E+03 -0.21513689804E+03  0.78430689932E+03  0.85833478688E+03  0.17081520432E+03 0.  0.
        -24    2    5    5    0    0  0.14425955698E+03 -0.74810907625E+02  0.31461491372E+03  0.36305692067E+03  0.80126724810E+02 0.  0.
          5    1    3    3  501    0 -0.15073937411E+03  0.13013089799E+03  0.19578323688E+03  0.27930194300E+03  0.47000000000E+01 0. -1.
        -11    1    4    4    0    0  0.11344125315E+02  0.38754120849E+02  0.56821467113E+02  0.69708322221E+02  0.00000000000E+00 0.  1.
         12    1    4    4    0    0 -0.75405996807E+02  0.46251879197E+02  0.22831310311E+03  0.24485132987E+03  0.00000000000E+00 0. -1.
         -5    1    5    5    0  503  0.70541688619E+02 -0.14032599042E+03  0.46969198560E+03  0.49527786621E+03  0.47000000000E+01 0.  1.
         13    1    6    6    0    0  0.62061221980E+02 -0.75744976684E+02  0.15136210741E+03  0.18027585619E+03  0.00000000000E+00 0. -1.
        -14    1    6    6    0    0  0.82198334998E+02  0.93406905907E+00  0.16325280632E+03  0.18278106448E+03  0.00000000000E+00 0.  1.
</event>
<event>
12    1  0.9246030E-003  0.2046706E+03  0.7818608E-02  0.1146037E+00
         21   -1    0    0  501  502  0.00000000000E+00  0.00000000000E+00  0.52312334241E+03  0.52312334241E+03  0.00000000000E+00 0.  1.
         21   -1    0    0  502  503 -0.00000000000E+00 -0.00000000000E+00 -0.82386792168E+02  0.82386792168E+02  0.00000000000E+00 0.  1.
          6    2    1    2  501    0  0.11064615762E+03  0.86298279569E+01  0.16651011685E+03  0.26384781680E+03  0.17196803565E+03 0.  0.
         24    2    3    3    0    0  0.28704426148E+02  0.24213114170E+02  0.13934797807E+02  0.89897812060E+02  0.80481171990E+02 0.  0.
         -6    2    1    2    0  503 -0.11064615762E+03 -0.86298279569E+01  0.27422643339E+03  0.34166231778E+03  0.17092675769E+03 0.  0.
        -24    2    5    5    0    0 -0.85954023531E+02 -0.50994606082E+02  0.10182192781E+03  0.16235844316E+03  0.77485579758E+02 0.  0.
          5    1    3    3  501    0  0.81941731474E+02 -0.15583286213E+02  0.15257531905E+03  0.17395000474E+03  0.47000000000E+01 0. -1.
        -13    1    4    4    0    0  0.61365200255E+01 -0.23353057750E+02 -0.16349847137E+02  0.29160584454E+02  0.00000000000E+00 0.  1.
         14    1    4    4    0    0  0.22567906123E+02  0.47566171920E+02  0.30284644944E+02  0.60737227606E+02  0.00000000000E+00 0. -1.
         -5    1    5    5    0  503 -0.24692134091E+02  0.42364778125E+02  0.17240450558E+03  0.17930387463E+03  0.47000000000E+01 0.  1.
         13    1    6    6    0    0 -0.18201895766E+02 -0.52785271468E+02  0.29150195965E+02  0.62986727318E+02  0.00000000000E+00 0. -1.
        -14    1    6    6    0    0 -0.67752127765E+02  0.17906653864E+01  0.72671731844E+02  0.99371715837E+02  0.00000000000E+00 0.  1.
</event>
<event>
12    1  0.9246030E-003  0.2053431E+03  0.7818608E-02  0.1145321E+00
         21   -1    0    0  503  502  0.00000000000E+00  0.00000000000E+00  0.22138109726E+03  0.22138109726E+03  0.00000000000E+00 0. -1.
         21   -1    0    0  501  503 -0.00000000000E+00 -0.00000000000E+00 -0.19101244006E+03  0.19101244006E+03  0.00000000000E+00 0.  1.
          6    2    1    2  501    0 -0.32585013323E+02 -0.10920348667E+03  0.26814315482E+02  0.20701970872E+03  0.17073654469E+03 0.  0.
         24    2    3    3    0    0 -0.43250759743E+02 -0.21992878765E+02  0.62470326387E+02  0.11208347017E+03  0.79409367657E+02 0.  0.
         -6    2    1    2    0  502  0.32585013323E+02  0.10920348667E+03  0.35543417135E+01  0.20537382859E+03  0.17081742163E+03 0.  0.
        -24    2    5    5    0    0  0.48931024342E+02  0.34306954474E+02 -0.49692048867E+02  0.11191822030E+03  0.80530590753E+02 0.  0.
          5    1    3    3  501    0  0.10665746420E+02 -0.87210607901E+02 -0.35656010905E+02  0.94936238555E+02  0.47000000000E+01 0. -1.
        -11    1    4    4    0    0 -0.51729507326E+02 -0.37337843239E+02  0.21172592051E+02  0.67218562318E+02  0.00000000000E+00 0.  1.
         12    1    4    4    0    0  0.84787475829E+01  0.15344964474E+02  0.41297734336E+02  0.44864907852E+02  0.00000000000E+00 0. -1.
         -5    1    5    5    0  502 -0.16346011019E+02  0.74896532193E+02  0.53246390580E+02  0.93455608288E+02  0.47000000000E+01 0.  1.
         13    1    6    6    0    0  0.54194784458E+01  0.49103012903E+02 -0.83513525915E+01  0.50102112858E+02  0.00000000000E+00 0. -1.
        -14    1    6    6    0    0  0.43511545896E+02 -0.14796058429E+02 -0.41340696275E+02  0.61816107446E+02  0.00000000000E+00 0.  1.
</event>
<event>
12    1  0.9246030E-003  0.2316624E+03  0.7818608E-02  0.1125994E+00
         21   -1    0    0  501  502  0.00000000000E+00  0.00000000000E+00  0.10466675855E+03  0.10466675855E+03  0.00000000000E+00 0.  1.
         21   -1    0    0  502  503 -0.00000000000E+00 -0.00000000000E+00 -0.79534838367E+03  0.79534838367E+03  0.00000000000E+00 0. -1.
          6    2    1    2  501    0  0.32726200470E+02 -0.15014375124E+03 -0.72609758027E+02  0.23995430056E+03  0.16938636061E+03 0.  0.
         24    2    3    3    0    0 -0.16018278337E+02 -0.87958279718E+02  0.17057415868E+02  0.12034932927E+03  0.78738563664E+02 0.  0.
         -6    2    1    2    0  503 -0.32726200470E+02  0.15014375124E+03 -0.61807186710E+03  0.66006084166E+03  0.17335896735E+03 0.  0.
        -24    2    5    5    0    0 -0.12402314834E+02  0.36276804771E+02 -0.12104453454E+03  0.14973055534E+03  0.79357645396E+02 0.  0.
          5    1    3    3  501    0  0.48744478807E+02 -0.62185471523E+02 -0.89667173894E+02  0.11960497129E+03  0.47000000000E+01 0. -1.
        -11    1    4    4    0    0 -0.14760465779E+01 -0.56586385012E+02 -0.28323156466E+02  0.63296120532E+02  0.00000000000E+00 0.  1.
         12    1    4    4    0    0 -0.14542231759E+02 -0.31371894705E+02  0.45380572334E+02  0.57053208738E+02  0.00000000000E+00 0. -1.
         -5    1    5    5    0  503 -0.20323885636E+02  0.11386694647E+03 -0.49702733255E+03  0.51033028632E+03  0.47000000000E+01 0.  1.
         11    1    6    6    0    0 -0.11980254499E+01  0.30658928129E+02 -0.13048207133E+03  0.13404094925E+03  0.00000000000E+00 0. -1.
        -12    1    6    6    0    0 -0.11204289384E+02  0.56178766416E+01  0.94375367860E+01  0.15689606087E+02  0.00000000000E+00 0.  1.
</event>
<event>
12    1  0.9246030E-003  0.2272303E+03  0.7818608E-02  0.1129019E+00
         21   -1    0    0  503  502  0.00000000000E+00  0.00000000000E+00  0.15004640159E+04  0.15004640159E+04  0.00000000000E+00 0.  1.
         21   -1    0    0  501  503 -0.00000000000E+00 -0.00000000000E+00 -0.70397399615E+02  0.70397399615E+02  0.00000000000E+00 0. -1.
          6    2    1    2  501    0  0.12097341061E+03 -0.86482571715E+02  0.15253325616E+03  0.27367867112E+03  0.17181332750E+03 0.  0.
         24    2    3    3    0    0  0.48449286497E+02 -0.87655695446E+02  0.15616362184E+03  0.20090234012E+03  0.77096168354E+02 0.  0.
         -6    2    1    2    0  502 -0.12097341061E+03  0.86482571715E+02  0.12775333601E+04  0.12971827444E+04  0.16875362170E+03 0.  0.
        -24    2    5    5    0    0 -0.44902096985E+02 -0.42987501298E+01  0.79467766555E+03  0.79999082477E+03  0.80237460265E+02 0.  0.
          5    1    3    3  501    0  0.72524124116E+02  0.11731237311E+01 -0.36303656820E+01  0.72776330995E+02  0.47000000000E+01 0. -1.
        -11    1    4    4    0    0  0.24181199884E+02  0.73473175030E+01  0.52184421172E+02  0.57982129276E+02  0.00000000000E+00 0.  1.
         12    1    4    4    0    0  0.24268086613E+02 -0.95003012949E+02  0.10397920067E+03  0.14292021085E+03  0.00000000000E+00 0. -1.
         -5    1    5    5    0  502 -0.76071313628E+02  0.90781321845E+02  0.48285569454E+03  0.49719191959E+03  0.47000000000E+01 0.  1.
         13    1    6    6    0    0  0.21643339184E+02 -0.82501197846E+01  0.13710366520E+03  0.13904644410E+03  0.00000000000E+00 0. -1.
        -14    1    6    6    0    0 -0.66545436169E+02  0.39513696548E+01  0.65757400036E+03  0.66094438067E+03  0.00000000000E+00 0.  1.
</event>
<event>
12    1  0.9246030E-003  0.1781169E+03  0.7818608E-02  0.1170038E+00
         21   -1    0    0  501  502  0.00000000000E+00  0.00000000000E+00  0.19097012787E+03  0.19097012787E+03  0.00000000000E+00 0.  1.
         21   -1    0    0  502  503 -0.00000000000E+00 -0.00000000000E+00 -0.22709262074E+03  0.22709262074E+03  0.00000000000E+00 0.  1.
          6    2    1    2  501    0 -0.39057063652E+02  0.68830029983E+01 -0.12763676001E+03  0.21781171187E+03  0.17198246820E+03 0.  0.
         24    2    3    3    0    0 -0.75547317763E+02  0.28835002241E+02 -0.40108398109E+02  0.12036052894E+03  0.79618582967E+02 0.  0.
         -6    2    1    2    0  503  0.39057063652E+02 -0.68830029983E+01  0.91514267146E+02  0.20025103675E+03  0.17364557776E+03 0.  0.
        -24    2    5    5    0    0 -0.44467267661E+02 -0.17714017666E+02  0.57247853882E+02  0.10920213847E+03  0.79728702215E+02 0.  0.
          5    1    3    3  501    0  0.36490254111E+02 -0.21951999243E+02 -0.87528361902E+02  0.97451182923E+02  0.47000000000E+01 0. -1.
        -13    1    4    4    0    0  0.18656294430E+01 -0.15947936442E+01 -0.37043933960E+02  0.37125152973E+02  0.00000000000E+00 0.  1.
         14    1    4    4    0    0 -0.77412947206E+02  0.30429795885E+02 -0.30644641488E+01  0.83235375972E+02  0.00000000000E+00 0. -1.
         -5    1    5    5    0  503  0.83524331313E+02  0.10831014668E+02  0.34266413264E+02  0.91048898280E+02  0.47000000000E+01 0.  1.
         13    1    6    6    0    0 -0.62511069639E+02  0.35116294530E+01  0.50752112778E+02  0.80596168148E+02  0.00000000000E+00 0. -1.
        -14    1    6    6    0    0  0.18043801978E+02 -0.21225647119E+02  0.64957411039E+01  0.28605970320E+02  0.00000000000E+00 0.  1.
</event>
<event>
12    1  0.9246030E-003  0.1810662E+03  0.7818608E-02  0.1168170E+00
         21   -1    0    0  501  502  0.00000000000E+00  0.00000000000E+00  0.62378041953E+02  0.62378041953E+02  0.00000000000E+00 0. -1.
         21   -1    0    0  502  503 -0.00000000000E+00 -0.00000000000E+00 -0.52213337693E+03  0.52213337693E+03  0.00000000000E+00 0. -1.
          6    2    1    2  501    0  0.23093768748E+02 -0.52284490131E+02 -0.18018954153E+03  0.25143183606E+03  0.16577909170E+03 0.  0.
         24    2    3    3    0    0 -0.34125961580E+02 -0.43288682780E+01 -0.55560771070E+02  0.10607620448E+03  0.83557414516E+02 0.  0.
         -6    2    1    2    0  503 -0.23093768748E+02  0.52284490131E+02 -0.27956579344E+03  0.33307958282E+03  0.17180799040E+03 0.  0.
        -24    2    5    5    0    0  0.10499514245E+02  0.69176793067E+01 -0.51090026166E+02  0.97686459683E+02  0.82306497589E+02 0.  0.
          5    1    3    3  501    0  0.57219730328E+02 -0.47955621853E+02 -0.12462877046E+03  0.14535563158E+03  0.47000000000E+01 0. -1.
        -11    1    4    4    0    0 -0.52671903553E+02  0.18135788248E+02 -0.52903028588E+02  0.76824258363E+02  0.00000000000E+00 0.  1.
         12    1    4    4    0    0  0.18545941973E+02 -0.22464656526E+02 -0.26577424824E+01  0.29251946117E+02  0.00000000000E+00 0. -1.
         -5    1    5    5    0  503 -0.33593282993E+02  0.45366810825E+02 -0.22847576728E+03  0.23539312314E+03  0.47000000000E+01 0.  1.
         13    1    6    6    0    0  0.90001689165E+01  0.44406846389E+02 -0.22972681976E+02  0.50800739797E+02  0.00000000000E+00 0. -1.
        -14    1    6    6    0    0  0.14993453286E+01 -0.37489167082E+02 -0.28117344190E+02  0.46885719886E+02  0.00000000000E+00 0.  1.
</event>
<event>
12    1  0.9246030E-003  0.2235343E+03  0.7818608E-02  0.1133327E+00
         21   -1    0    0  501  502  0.00000000000E+00  0.00000000000E+00  0.14078475887E+03  0.14078475887E+03  0.00000000000E+00 0. -1.
         21   -1    0    0  502  503 -0.00000000000E+00 -0.00000000000E+00 -0.33854506242E+03  0.33854506242E+03  0.00000000000E+00 0. -1.
          6    2    1    2  501    0  0.12551386856E+03  0.79159492201E+01 -0.89816480892E+02  0.24090367388E+03  0.18480039610E+03 0.  0.
         24    2    3    3    0    0  0.10289703417E+03 -0.55323027576E+02 -0.19047458427E+02  0.14322545766E+03  0.80636772183E+02 0.  0.
         -6    2    1    2    0  503 -0.12551386856E+03 -0.79159492201E+01 -0.10794382266E+03  0.23842614741E+03  0.17140234965E+03 0.  0.
        -24    2    5    5    0    0 -0.49698294798E+02 -0.64396610116E+01 -0.12851467147E+03  0.15971509055E+03  0.80507761281E+02 0.  0.
          5    1    3    3  501    0  0.22616834387E+02  0.63238976796E+02 -0.70769022465E+02  0.97678216223E+02  0.47000000000E+01 0. -1.
        -13    1    4    4    0    0 -0.11489732700E+02  0.44986327178E+01 -0.52345053505E+01  0.13403421209E+02  0.00000000000E+00 0.  1.
         14    1    4    4    0    0  0.11438676687E+03 -0.59821660294E+02 -0.13812953076E+02  0.12982203645E+03  0.00000000000E+00 0. -1.
         -5    1    5    5    0  503 -0.75815573760E+02 -0.14762882085E+01  0.20570848806E+02  0.78711056860E+02  0.47000000000E+01 0.  1.
         11    1    6    6    0    0  0.21896618388E+02  0.27733559310E+00 -0.40675540904E+02  0.46195653905E+02  0.00000000000E+00 0. -1.
        -12    1    6    6    0    0 -0.71594913186E+02 -0.67169966047E+01 -0.87839130561E+02  0.11351943664E+03  0.00000000000E+00 0.  1.
</event>
<event>
12    1  0.9246030E-003  0.1821202E+03  0.7818608E-02  0.1165911E+00
         21   -1    0    0  501  502  0.00000000000E+00  0.00000000000E+00  0.83198290327E+02  0.83198290327E+02  0.00000000000E+00 0. -1.
         21   -1    0    0  502  503 -0.00000000000E+00 -0.00000000000E+00 -0.42918478943E+03  0.42918478943E+03  0.00000000000E+00 0. -1.
          6    2    1    2  501    0  0.45546382820E+02  0.31022546595E+02 -0.10347444892E+03  0.20946298835E+03  0.17358257553E+03 0.  0.
         24    2    3    3    0    0  0.63107270216E+02 -0.15547947400E+02 -0.11898285838E+03  0.15711992347E+03  0.79407074879E+02 0.  0.
         -6    2    1    2    0  503 -0.45546382820E+02 -0.31022546595E+02 -0.24251205019E+03  0.30292009141E+03  0.17294974965E+03 0.  0.
        -24    2    5    5    0    0  0.38205856776E+02  0.49056482683E+01 -0.72344330147E+02  0.10982836251E+03  0.73108236406E+02 0.  0.
          5    1    3    3  501    0 -0.17560887396E+02  0.46570493995E+02  0.15508409464E+02  0.52343064882E+02  0.47000000000E+01 0. -1.
        -11    1    4    4    0    0 -0.14226460054E+02 -0.94016886539E+01 -0.51666520988E+02  0.54407842323E+02  0.00000000000E+00 0.  1.
         12    1    4    4    0    0  0.77333730270E+02 -0.61462587460E+01 -0.67316337393E+02  0.10271208115E+03  0.00000000000E+00 0. -1.
         -5    1    5    5    0  503 -0.83752239596E+02 -0.35928194863E+02 -0.17016772004E+03  0.19309172890E+03  0.47000000000E+01 0.  1.
         13    1    6    6    0    0  0.44971223225E+02  0.29082117672E+02 -0.63823867608E+02  0.83316664378E+02  0.00000000000E+00 0. -1.
        -14    1    6    6    0    0 -0.67653664487E+01 -0.24176469403E+02 -0.85204625387E+01  0.26511698133E+02  0.00000000000E+00 0.  1.
</event>
<event>
12    1  0.9246030E-003  0.2146703E+03  0.7818608E-02  0.1138177E+00
         21   -1    0    0  501  502  0.00000000000E+00  0.00000000000E+00  0.45898472717E+02  0.45898472717E+02  0.00000000000E+00 0. -1.
         21   -1    0    0  502  503 -0.00000000000E+00 -0.00000000000E+00 -0.10363134793E+04  0.10363134793E+04  0.00000000000E+00 0.  1.
          6    2    1    2  501    0 -0.12760956446E+03  0.93314365073E+01 -0.39238890508E+03  0.44727214715E+03  0.17237181946E+03 0.  0.
         24    2    3    3    0    0 -0.56113498071E+02  0.63972496656E+02 -0.27667092005E+03  0.30060901265E+03  0.81103486313E+02 0.  0.
         -6    2    1    2    0  503  0.12760956446E+03 -0.93314365073E+01 -0.59802610152E+03  0.63493980488E+03  0.17071045976E+03 0.  0.
        -24    2    5    5    0    0  0.75325718405E+02  0.15764539811E+02 -0.16822886199E+03  0.20122196377E+03  0.79163401455E+02 0.  0.
          5    1    3    3  501    0 -0.71496066385E+02 -0.54641060149E+02 -0.11571798503E+03  0.14666313450E+03  0.47000000000E+01 0. -1.
        -13    1    4    4    0    0 -0.46945149643E+02  0.71691380274E+02 -0.14526522225E+03  0.16865789598E+03  0.00000000000E+00 0.  1.
         14    1    4    4    0    0 -0.91683484276E+01 -0.77188836175E+01 -0.13140569780E+03  0.13195111667E+03  0.00000000000E+00 0. -1.
         -5    1    5    5    0  503  0.52283846050E+02 -0.25095976318E+02 -0.42979723953E+03  0.43371784111E+03  0.47000000000E+01 0.  1.
         11    1    6    6    0    0  0.41100744882E+01  0.27186290096E+02 -0.13764763757E+02  0.30748265037E+02  0.00000000000E+00 0. -1.
        -12    1    6    6    0    0  0.71215643917E+02 -0.11421750285E+02 -0.15446409823E+03  0.17047369874E+03  0.00000000000E+00 0.  1.
</event>
<event>
12    1  0.9246030E-003  0.2042559E+03  0.7818608E-02  0.1146267E+00
         21   -1    0    0  503  502  0.00000000000E+00  0.00000000000E+00  0.17478338413E+03  0.17478338413E+03  0.00000000000E+00 0.  1.
         21   -1    0    0  501  503 -0.00000000000E+00 -0.00000000000E+00 -0.26812735895E+03  0.26812735895E+03  0.00000000000E+00 0. -1.
          6    2    1    2  501    0  0.40591705845E+02 -0.10211526222E+03 -0.12049558259E+03  0.23685813869E+03  0.17177712035E+03 0.  0.
         24    2    3    3    0    0  0.26120145209E+02 -0.10634401365E+03 -0.24895295382E+02  0.13996224961E+03  0.83536485194E+02 0.  0.
         -6    2    1    2    0  502 -0.40591705845E+02  0.10211526222E+03  0.27151607772E+02  0.20605260440E+03  0.17217796785E+03 0.  0.
        -24    2    5    5    0    0 -0.76753180190E+02  0.44728976903E+02 -0.20397300792E+02  0.12308377486E+03  0.82715377719E+02 0.  0.
          5    1    3    3  501    0  0.14471560636E+02  0.42287514300E+01 -0.95600287209E+02  0.96895889079E+02  0.47000000000E+01 0. -1.
        -11    1    4    4    0    0 -0.85906827132E+00 -0.10847347312E+03 -0.96618038298E+01  0.10890630295E+03  0.00000000000E+00 0.  1.
         12    1    4    4    0    0  0.26979213480E+02  0.21294594767E+01 -0.15233491552E+02  0.31055946653E+02  0.00000000000E+00 0. -1.
         -5    1    5    5    0  502  0.36161474345E+02  0.57386285313E+02  0.47548908564E+02  0.82968829535E+02  0.47000000000E+01 0.  1.
         13    1    6    6    0    0 -0.38680570732E+02  0.56029605723E+02 -0.39820234388E+02  0.78874294522E+02  0.00000000000E+00 0. -1.
        -14    1    6    6    0    0 -0.38072609458E+02 -0.11300628820E+02  0.19422933596E+02  0.44209480342E+02  0.00000000000E+00 0.  1.
</event>
<event>
12    1  0.9246030E-003  0.2208796E+03  0.7818608E-02  0.1133243E+00
         21   -1    0    0  503  502  0.00000000000E+00  0.00000000000E+00  0.43078342584E+02  0.43078342584E+02  0.00000000000E+00 0.  1.
         21   -1    0    0  501  503 -0.00000000000E+00 -0.00000000000E+00 -0.12453528919E+04  0.12453528919E+04  0.00000000000E+00 0.  1.
          6    2    1    2  501    0  0.77107935563E+02 -0.11566771194E+03 -0.79545151398E+03  0.82554885864E+03  0.17164834288E+03 0.  0.
         24    2    3    3    0    0  0.16325793824E+02 -0.52512474728E+02 -0.63520205446E+03  0.64283314499E+03  0.82028719135E+02 0.  0.
         -6    2    1    2    0  502 -0.77107935563E+02  0.11566771194E+03 -0.40682303533E+03  0.46288237583E+03  0.17155307769E+03 0.  0.
        -24    2    5    5    0    0 -0.46313307418E+02  0.77890107338E+02 -0.11493866654E+03  0.16691948749E+03  0.80246040226E+02 0.  0.
          5    1    3    3  501    0  0.60782141740E+02 -0.63155237208E+02 -0.16024945952E+03  0.18271571366E+03  0.47000000000E+01 0. -1.
        -13    1    4    4    0    0  0.45030839724E+02 -0.48557545344E+02 -0.35391361123E+03  0.36005618444E+03  0.00000000000E+00 0.  1.
         14    1    4    4    0    0 -0.28705045900E+02 -0.39549293833E+01 -0.28128844322E+03  0.28277696055E+03  0.00000000000E+00 0. -1.
         -5    1    5    5    0  502 -0.30794628145E+02  0.37777604597E+02 -0.29188436879E+03  0.29596288834E+03  0.47000000000E+01 0.  1.
         13    1    6    6    0    0  0.97054540686E+01 -0.11684197973E+02 -0.11373608298E+02  0.18975649835E+02  0.00000000000E+00 0. -1.
        -14    1    6    6    0    0 -0.56018761487E+02  0.89574305312E+02 -0.10356505825E+03  0.14794383765E+03  0.00000000000E+00 0.  1.
</event>
<event>
12    1  0.9246030E-003  0.2164714E+03  0.7818608E-02  0.1136840E+00
         21   -1    0    0  503  502  0.00000000000E+00  0.00000000000E+00  0.59051891809E+03  0.59051891809E+03  0.00000000000E+00 0. -1.
         21   -1    0    0  501  503 -0.00000000000E+00 -0.00000000000E+00 -0.80783700499E+02  0.80783700499E+02  0.00000000000E+00 0. -1.
          6    2    1    2  501    0 -0.23142800091E+01  0.12919279884E+03  0.20112720588E+03  0.29434269816E+03  0.17172459303E+03 0.  0.
         24    2    3    3    0    0 -0.29353380889E+01 -0.20630225186E+01  0.92583491802E+02  0.12395401245E+03  0.82340888845E+02 0.  0.
         -6    2    1    2    0  502  0.23142800091E+01 -0.12919279884E+03  0.30860801171E+03  0.37695992042E+03  0.17367711867E+03 0.  0.
        -24    2    5    5    0    0 -0.16143289952E+02 -0.13001763802E+03  0.14214604533E+03  0.20940981299E+03  0.80509499875E+02 0.  0.
          5    1    3    3  501    0  0.62105807983E+00  0.13125582136E+03  0.10854371408E+03  0.17038868572E+03  0.47000000000E+01 0. -1.
        -13    1    4    4    0    0  0.38202185477E+02 -0.35849349842E+01  0.28536062327E+02  0.47818046668E+02  0.00000000000E+00 0.  1.
         14    1    4    4    0    0 -0.41137523566E+02  0.15219124656E+01  0.64047429475E+02  0.76135965779E+02  0.00000000000E+00 0. -1.
         -5    1    5    5    0  502  0.18457569961E+02  0.82483917358E+00  0.16646196638E+03  0.16755010743E+03  0.47000000000E+01 0.  1.
         11    1    6    6    0    0 -0.48951668384E+02 -0.84422218688E+02  0.91648383294E+02  0.13387607332E+03  0.00000000000E+00 0. -1.
        -12    1    6    6    0    0  0.32808378432E+02 -0.45595419327E+02  0.50497662034E+02  0.75533739678E+02  0.00000000000E+00 0.  1.
</event>
<event>
12    1  0.9246030E-003  0.1880471E+03  0.7818608E-02  0.1160403E+00
         21   -1    0    0  503  502  0.00000000000E+00  0.00000000000E+00  0.59303572670E+03  0.59303572670E+03  0.00000000000E+00 0.  1.
         21   -1    0    0  501  503 -0.00000000000E+00 -0.00000000000E+00 -0.69539004970E+02  0.69539004970E+02  0.00000000000E+00 0. -1.
          6    2    1    2  501    0  0.60422498822E+02 -0.44951953598E+02  0.38783563566E+03  0.43070053071E+03  0.17150775602E+03 0.  0.
         24    2    3    3    0    0  0.44405284550E+02 -0.77404839418E+02  0.14469231561E+03  0.18483368660E+03  0.72555406713E+02 0.  0.
         -6    2    1    2    0  502 -0.60422498822E+02  0.44951953598E+02  0.13566108607E+03  0.23187420095E+03  0.17230832336E+03 0.  0.
        -24    2    5    5    0    0 -0.73690903247E+02  0.89081142240E+02  0.89792277724E+02  0.16668621567E+03  0.79723536248E+02 0.  0.
          5    1    3    3  501    0  0.16017214272E+02  0.32452885820E+02  0.24314332005E+03  0.24586684412E+03  0.47000000000E+01 0. -1.
        -11    1    4    4    0    0  0.46134764126E+02 -0.71054102097E+02  0.15260373098E+03  0.17454226020E+03  0.00000000000E+00 0.  1.
         12    1    4    4    0    0 -0.17294795763E+01 -0.63507373208E+01 -0.79114153719E+01  0.10291426398E+02  0.00000000000E+00 0. -1.
         -5    1    5    5    0  502  0.13268404425E+02 -0.44129188642E+02  0.45868808342E+02  0.65187985280E+02  0.47000000000E+01 0.  1.
         13    1    6    6    0    0 -0.65284680922E+02  0.20553355192E+02  0.61698006497E+02  0.92147566319E+02  0.00000000000E+00 0. -1.
        -14    1    6    6    0    0 -0.84062223246E+01  0.68527787049E+02  0.28094271227E+02  0.74538649352E+02  0.00000000000E+00 0.  1.
</event>
<event>
12    1  0.9246030E-003  0.1847253E+03  0.7818608E-02  0.1163311E+00
         21   -1    0    0  501  502  0.00000000000E+00  0.00000000000E+00  0.31485979271E+03  0.31485979271E+03  0.00000000000E+00 0. -1.
         21   -1    0    0  502  503 -0.00000000000E+00 -0.00000000000E+00 -0.14711015778E+03  0.14711015778E+03  0.00000000000E+00 0. -1.
          6    2    1    2  501    0  0.66506280469E+02 -0.11924803235E+02  0.20241154230E+03  0.27402083390E+03  0.17190607516E+03 0.  0.
         24    2    3    3    0    0  0.41445504744E+02 -0.63096141252E+02  0.70904473018E+02  0.13062366661E+03  0.79600534420E+02 0.  0.
         -6    2    1    2    0  503 -0.66506280469E+02  0.11924803235E+02 -0.34661907370E+02  0.18794911660E+03  0.17192479848E+03 0.  0.
        -24    2    5    5    0    0  0.12753894654E+02 -0.27170980334E+02 -0.43845305318E+02  0.98971139259E+02  0.83498213194E+02 0.  0.
          5    1    3    3  501    0  0.25060775725E+02  0.51171338017E+02  0.13150706928E+03  0.14339716729E+03  0.47000000000E+01 0. -1.
        -13    1    4    4    0    0 -0.18471895327E+02 -0.31659696813E+02  0.65334379025E+01  0.37232151833E+02  0.00000000000E+00 0.  1.
         14    1    4    4    0    0  0.59917400071E+02 -0.31436444439E+02  0.64371035116E+02  0.93391514776E+02  0.00000000000E+00 0. -1.
         -5    1    5    5    0  503 -0.79260175123E+02  0.39095783569E+02  0.91833979487E+01  0.88977977339E+02  0.47000000000E+01 0.  1.
         11    1    6    6    0    0 -0.24654359130E+02 -0.13635086271E+02 -0.51271270164E+02  0.58502103773E+02  0.00000000000E+00 0. -1.
        -12    1    6    6    0    0  0.37408253784E+02 -0.13535894063E+02  0.74259648454E+01  0.40469035486E+02  0.00000000000E+00 0.  1.
</event>
<event>
12    1  0.9246030E-003  0.1977983E+03  0.7818608E-02  0.1151710E+00
         21   -1    0    0  501  502  0.00000000000E+00  0.00000000000E+00  0.58651773770E+03  0.58651773770E+03  0.00000000000E+00 0. -1.
         21   -1    0    0  502  503 -0.00000000000E+00 -0.00000000000E+00 -0.67126474232E+02  0.67126474232E+02  0.00000000000E+00 0. -1.
          6    2    1    2  501    0  0.85070453451E+02  0.46498721101E+02  0.22907791912E+03  0.30235232759E+03  0.17187531486E+03 0.  0.
         24    2    3    3    0    0  0.10901187107E+03 -0.44589861460E+01  0.19176751438E+03  0.23464682038E+03  0.79880411553E+02 0.  0.
         -6    2    1    2    0  503 -0.85070453451E+02 -0.46498721101E+02  0.29031334434E+03  0.35129188434E+03  0.17240950374E+03 0.  0.
        -24    2    5    5    0    0 -0.12654409164E+03 -0.39805636211E+02  0.21227603340E+03  0.26254070435E+03  0.79174562085E+02 0.  0.
          5    1    3    3  501    0 -0.23941417618E+02  0.50957707247E+02  0.37310404739E+02  0.67705507215E+02  0.47000000000E+01 0. -1.
        -11    1    4    4    0    0 -0.54651448641E+01 -0.18342668894E+02  0.36826841000E+02  0.41503464056E+02  0.00000000000E+00 0.  1.
         12    1    4    4    0    0  0.11447701593E+03  0.13883682748E+02  0.15494067338E+03  0.19314335632E+03  0.00000000000E+00 0. -1.
         -5    1    5    5    0  503  0.41473638186E+02 -0.66930848907E+01  0.78037310946E+02  0.88751179989E+02  0.47000000000E+01 0.  1.
         11    1    6    6    0    0 -0.17207368462E+01 -0.35352912517E+01 -0.67705875664E+01  0.78294364754E+01  0.00000000000E+00 0. -1.
        -12    1    6    6    0    0 -0.12482335479E+03 -0.36270344959E+02  0.21904662096E+03  0.25471126787E+03  0.00000000000E+00 0.  1.
</event>
<event>
12    1  0.9246030E-003  0.2002062E+03  0.7818608E-02  0.1150201E+00
         21   -1    0    0  503  502  0.00000000000E+00  0.00000000000E+00  0.79528465506E+02  0.79528465506E+02  0.00000000000E+00 0.  1.
         21   -1    0    0  501  503 -0.00000000000E+00 -0.00000000000E+00 -0.52085648972E+03  0.52085648972E+03  0.00000000000E+00 0.  1.
          6    2    1    2  501    0  0.98614400561E+02 -0.31157731418E+02 -0.28716901667E+03  0.35006937942E+03  0.17142614167E+03 0.  0.
         24    2    3    3    0    0  0.11325282848E+03  0.25431232865E+02 -0.18754465719E+03  0.23446791987E+03  0.79556622865E+02 0.  0.
         -6    2    1    2    0  502 -0.98614400561E+02  0.31157731418E+02 -0.15415900754E+03  0.25031557580E+03  0.16792046825E+03 0.  0.
        -24    2    5    5    0    0 -0.49401368043E+02  0.75456905424E+02 -0.59099885556E+02  0.13437306393E+03  0.80181569551E+02 0.  0.
          5    1    3    3  501    0 -0.14638427915E+02 -0.56588964284E+02 -0.99624359472E+02  0.11560145955E+03  0.47000000000E+01 0. -1.
        -13    1    4    4    0    0  0.74121288482E+02  0.12431139112E+02 -0.48521538676E+02  0.89458584503E+02  0.00000000000E+00 0.  1.
         14    1    4    4    0    0  0.39131539993E+02  0.13000093753E+02 -0.13902311852E+03  0.14500933536E+03  0.00000000000E+00 0. -1.
         -5    1    5    5    0  502 -0.49213032518E+02 -0.44299174006E+02 -0.95059121987E+02  0.11594251188E+03  0.47000000000E+01 0.  1.
         13    1    6    6    0    0  0.17223303258E+02  0.28418125179E+02  0.70735240134E+00  0.33237514366E+02  0.00000000000E+00 0. -1.
        -14    1    6    6    0    0 -0.66624671301E+02  0.47038780245E+02 -0.59807237957E+02  0.10113554956E+03  0.00000000000E+00 0.  1.
</event>
<event>
12    1  0.9246030E-003  0.1942211E+03  0.7818608E-02  0.1157616E+00
         21   -1    0    0  501  502  0.00000000000E+00  0.00000000000E+00  0.19938056953E+03  0.19938056953E+03  0.00000000000E+00 0. -1.
         21   -1    0    0  502  503 -0.00000000000E+00 -0.00000000000E+00 -0.17831261371E+03  0.17831261371E+03  0.00000000000E+00 0.  1.
          6    2    1    2  501    0  0.28705338494E+02 -0.52503804651E+02 -0.64019652329E+01  0.18153911238E+03  0.17127410255E+03 0.  0.
         24    2    3    3    0    0  0.78352001566E+02 -0.12616052712E+02 -0.24411947412E+02  0.11518948263E+03  0.79840295577E+02 0.  0.
         -6    2    1    2    0  503 -0.28705338494E+02  0.52503804651E+02  0.27469921051E+02  0.19615407087E+03  0.18477331246E+03 0.  0.
        -24    2    5    5    0    0 -0.15951604725E+02  0.76093527261E+02 -0.43775780151E+02  0.11988367899E+03  0.80069338552E+02 0.  0.
          5    1    3    3  501    0 -0.49646663072E+02 -0.39887751939E+02  0.18009982179E+02  0.66349629743E+02  0.47000000000E+01 0. -1.
        -13    1    4    4    0    0  0.32919016201E+02 -0.23303353411E+02 -0.48163395794E+02  0.62820542836E+02  0.00000000000E+00 0.  1.
         14    1    4    4    0    0  0.45432985365E+02  0.10687300699E+02  0.23751448381E+02  0.52368939799E+02  0.00000000000E+00 0. -1.
         -5    1    5    5    0  503 -0.12753733769E+02 -0.23589722610E+02  0.71245701202E+02  0.76270391881E+02  0.47000000000E+01 0.  1.
         13    1    6    6    0    0 -0.22723974511E+02  0.16553421074E+02  0.18345911235E+02  0.33570332525E+02  0.00000000000E+00 0. -1.
        -14    1    6    6    0    0  0.67723697856E+01  0.59540106187E+02 -0.62121691386E+02  0.86313346465E+02  0.00000000000E+00 0.  1.
</event>
<event>
12    1  0.9246030E-003  0.2988252E+03  0.7818608E-02  0.1085943E+00
         21   -1    0    0  501  502  0.00000000000E+00  0.00000000000E+00  0.19632451928E+03  0.19632451928E+03  0.00000000000E+00 0. -1.
         21   -1    0    0  502  503 -0.00000000000E+00 -0.00000000000E+00 -0.46004633919E+03  0.46004633919E+03  0.00000000000E+00 0.  1.
          6    2    1    2  501    0 -0.15102762557E+03 -0.19094779159E+03 -0.92410365670E+02  0.31192329882E+03  0.17171507173E+03 0.  0.
         24    2    3    3    0    0 -0.32671650203E+02 -0.14569754497E+03 -0.66379933702E+02  0.18248066630E+03  0.81226145026E+02 0.  0.
         -6    2    1    2    0  503  0.15102762557E+03  0.19094779159E+03 -0.17131145424E+03  0.34444755966E+03  0.17328042070E+03 0.  0.
        -24    2    5    5    0    0  0.60604885526E+02  0.16925557959E+03 -0.15345027704E+03  0.24964283599E+03  0.80337753657E+02 0.  0.
          5    1    3    3  501    0 -0.11835597537E+03 -0.45250246621E+02 -0.26030431968E+02  0.12944263252E+03  0.47000000000E+01 0. -1.
        -11    1    4    4    0    0 -0.14845917014E+02 -0.56963441591E+02 -0.70543210371E+02  0.91878068435E+02  0.00000000000E+00 0.  1.
         12    1    4    4    0    0 -0.17825733190E+02 -0.88734103382E+02  0.41632766691E+01  0.90602597862E+02  0.00000000000E+00 0. -1.
         -5    1    5    5    0  503  0.90422740047E+02  0.21692212004E+02 -0.17861177198E+02  0.94804723670E+02  0.47000000000E+01 0.  1.
         13    1    6    6    0    0  0.51839737622E+02  0.35638956573E+02 -0.52789253314E+02  0.82123071592E+02  0.00000000000E+00 0. -1.
        -14    1    6    6    0    0  0.87651479037E+01  0.13361662302E+03 -0.10066102373E+03  0.16751976439E+03  0.00000000000E+00 0.  1.
</event>
<event>
12    1  0.9246030E-003  0.2791911E+03  0.7818608E-02  0.1096257E+00
         21   -1    0    0  503  502  0.00000000000E+00  0.00000000000E+00  0.65955869319E+03  0.65955869319E+03  0.00000000000E+00 0. -1.
         21   -1    0    0  501  503 -0.00000000000E+00 -0.00000000000E+00 -0.16018129071E+03  0.16018129071E+03  0.00000000000E+00 0.  1.
          6    2    1    2  501    0 -0.51623889712E+02 -0.21256392672E+03  0.39152780893E+02  0.28192309493E+03  0.17349133197E+03 0.  0.
         24    2    3    3    0    0 -0.73773078903E+02 -0.17515161859E+03 -0.21264406735E+02  0.20734029569E+03  0.80107843289E+02 0.  0.
         -6    2    1    2    0  502  0.51623889712E+02  0.21256392672E+03  0.46022462158E+03  0.53781688897E+03  0.17202283229E+03 0.  0.
        -24    2    5    5    0    0  0.15213661135E+02  0.23918407662E+02  0.16746819403E+03  0.18761515786E+03  0.79688805592E+02 0.  0.
          5    1    3    3  501    0  0.22149189191E+02 -0.37412308126E+02  0.60417187628E+02  0.74582799236E+02  0.47000000000E+01 0. -1.
        -11    1    4    4    0    0 -0.43209958179E+02 -0.43623007597E+02  0.22498237133E+02  0.65392950321E+02  0.00000000000E+00 0.  1.
         12    1    4    4    0    0 -0.30563120724E+02 -0.13152861099E+03 -0.43762643868E+02  0.14194734537E+03  0.00000000000E+00 0. -1.
         -5    1    5    5    0  502  0.36410228578E+02  0.18864551906E+03  0.29275642755E+03  0.35020173111E+03  0.47000000000E+01 0.  1.
         13    1    6    6    0    0 -0.49194373514E+01  0.45767523589E+02  0.13916823089E+03  0.14658329907E+03  0.00000000000E+00 0. -1.
        -14    1    6    6    0    0  0.20133098486E+02 -0.21849115928E+02  0.28299963144E+02  0.41031858786E+02  0.00000000000E+00 0.  1.
</event>
<event>
12    1  0.9246030E-003  0.2106374E+03  0.7818608E-02  0.1141565E+00
         21   -1    0    0  503  502  0.00000000000E+00  0.00000000000E+00  0.17241959848E+03  0.17241959848E+03  0.00000000000E+00 0.  1.
         21   -1    0    0  501  503 -0.00000000000E+00 -0.00000000000E+00 -0.34759565432E+03  0.34759565432E+03  0.00000000000E+00 0.  1.
          6    2    1    2  501    0 -0.23275408913E+02  0.12002158712E+03 -0.22272015175E+03  0.30654914519E+03  0.17152605164E+03 0.  0.
         24    2    3    3    0    0 -0.36651350076E+02  0.23061186645E+02 -0.39429805581E+02  0.98708638893E+02  0.79457825494E+02 0.  0.
         -6    2    1    2    0  502  0.23275408913E+02 -0.12002158712E+03  0.47544095906E+02  0.21346610761E+03  0.16840549875E+03 0.  0.
        -24    2    5    5    0    0 -0.27092075266E+02 -0.40834197559E+02  0.69631860188E+02  0.11693898470E+03  0.80154338348E+02 0.  0.
          5    1    3    3  501    0  0.13375941162E+02  0.96960400473E+02 -0.18329034617E+03  0.20784050630E+03  0.47000000000E+01 0. -1.
        -13    1    4    4    0    0 -0.13064485466E+02  0.48178973352E+02 -0.40430075560E+02  0.64237724614E+02  0.00000000000E+00 0.  1.
         14    1    4    4    0    0 -0.23586864610E+02 -0.25117786708E+02  0.10002699797E+01  0.34470914279E+02  0.00000000000E+00 0. -1.
         -5    1    5    5    0  502  0.50367484179E+02 -0.79187389559E+02 -0.22087764282E+02  0.96527122917E+02  0.47000000000E+01 0.  1.
         13    1    6    6    0    0 -0.69104099067E+01 -0.14322792466E+02 -0.17504530290E+02  0.23649624305E+02  0.00000000000E+00 0. -1.
        -14    1    6    6    0    0 -0.20181665359E+02 -0.26511405093E+02  0.87136390478E+02  0.93289360391E+02  0.00000000000E+00 0.  1.
</event>
<event>
12    1  0.9246030E-003  0.1823520E+03  0.7818608E-02  0.1165652E+00
         21   -1    0    0  501  502  0.00000000000E+00  0.00000000000E+00  0.12695043807E+03  0.12695043807E+03  0.00000000000E+00 0. -1.
         21   -1    0    0  502  503 -0.00000000000E+00 -0.00000000000E+00 -0.32814628317E+03  0.32814628317E+03  0.00000000000E+00 0.  1.
          6    2    1    2  501    0 -0.53608700021E+02  0.27745027476E+02 -0.20340489518E+03  0.27317724253E+03  0.17207142467E+03 0.  0.
         24    2    3    3    0    0  0.29786202954E+02  0.31888344752E+02 -0.14088560970E+03  0.16876159247E+03  0.82022165641E+02 0.  0.
         -6    2    1    2    0  503  0.53608700021E+02 -0.27745027476E+02  0.22090500710E+01  0.18191947871E+03  0.17159876912E+03 0.  0.
        -24    2    5    5    0    0  0.17886016925E+02 -0.71024838823E+02 -0.34815454648E+02  0.11452395878E+03  0.80865220707E+02 0.  0.
          5    1    3    3  501    0 -0.83394902975E+02 -0.41433172758E+01 -0.62519285477E+02  0.10441565006E+03  0.47000000000E+01 0. -1.
        -11    1    4    4    0    0  0.28450131651E+02  0.45284374461E+00 -0.45167212318E+01  0.28809995298E+02  0.00000000000E+00 0.  1.
         12    1    4    4    0    0  0.13360713037E+01  0.31435501007E+02 -0.13636888847E+03  0.13995159718E+03  0.00000000000E+00 0. -1.
         -5    1    5    5    0  503  0.35722683095E+02  0.43279811347E+02  0.37024504719E+02  0.67395519936E+02  0.47000000000E+01 0.  1.
         13    1    6    6    0    0  0.26231883767E+02 -0.52900864291E+02  0.14947195528E+02  0.60910030560E+02  0.00000000000E+00 0. -1.
        -14    1    6    6    0    0 -0.83458668414E+01 -0.18123974532E+02 -0.49762650176E+02  0.53613928215E+02  0.00000000000E+00 0.  1.
</event>
<event>
12    1  0.9246030E-003  0.3456089E+03  0.7818608E-02  0.1064460E+00
         21   -1    0    0  501  502  0.00000000000E+00  0.00000000000E+00  0.22637099996E+04  0.22637099996E+04  0.00000000000E+00 0. -1.
         21   -1    0    0  502  503 -0.00000000000E+00 -0.00000000000E+00 -0.57700015033E+02  0.57700015033E+02  0.00000000000E+00 0. -1.
          6    2    1    2  501    0  0.26904780495E+03 -0.13089608383E+03  0.14442807881E+04  0.14850564084E+04  0.17298854056E+03 0.  0.
         24    2    3    3    0    0  0.23151687596E+03 -0.95535339226E+02  0.13670017491E+04  0.13920344069E+04  0.79617480257E+02 0.  0.
         -6    2    1    2    0  503 -0.26904780495E+03  0.13089608383E+03  0.76172919644E+03  0.83635360620E+03  0.17243978597E+03 0.  0.
        -24    2    5    5    0    0 -0.14511288495E+03  0.14493893688E+03  0.50866310789E+03  0.55418060732E+03  0.79454033298E+02 0.  0.
          5    1    3    3  501    0  0.37530928987E+02 -0.35360744600E+02  0.77279039033E+02  0.93022001500E+02  0.47000000000E+01 0. -1.
        -13    1    4    4    0    0  0.31504414985E+02 -0.38108995269E+02  0.16863468528E+03  0.17573411952E+03  0.00000000000E+00 0.  1.
         14    1    4    4    0    0  0.20001246098E+03 -0.57426343957E+02  0.11983670638E+04  0.12163002874E+04  0.00000000000E+00 0. -1.
         -5    1    5    5    0  503 -0.12393492000E+03 -0.14042853059E+02  0.25306608856E+03  0.28217299888E+03  0.47000000000E+01 0.  1.
         13    1    6    6    0    0 -0.15518893962E+03  0.13838587151E+03  0.48033436284E+03  0.52340744792E+03  0.00000000000E+00 0. -1.
        -14    1    6    6    0    0  0.10076054679E+02  0.65530653748E+01  0.28328745049E+02  0.30773159404E+02  0.00000000000E+00 0.  1.
</event>
<event>
12    1  0.9246030E-003  0.1855741E+03  0.7818608E-02  0.1163235E+00
         21   -1    0    0  503  502  0.00000000000E+00  0.00000000000E+00  0.42523155748E+02  0.42523155748E+02  0.00000000000E+00 0.  1.
         21   -1    0    0  501  503 -0.00000000000E+00 -0.00000000000E+00 -0.96380583474E+03  0.96380583474E+03  0.00000000000E+00 0.  1.
          6    2    1    2  501    0  0.62599566782E+02  0.98291932539E+01 -0.66708411067E+03  0.69159950754E+03  0.17115299971E+03 0.  0.
         24    2    3    3    0    0 -0.29517535193E+02 -0.10433630811E+02 -0.37375938538E+03  0.38344755316E+03  0.79723286008E+02 0.  0.
         -6    2    1    2    0  502 -0.62599566782E+02 -0.98291932539E+01 -0.25419856832E+03  0.31472948295E+03  0.17442022962E+03 0.  0.
        -24    2    5    5    0    0  0.18613873870E+02  0.17822798611E+02 -0.61452993338E+02  0.10370056960E+03  0.79455706490E+02 0.  0.
          5    1    3    3  501    0  0.92117101974E+02  0.20262824065E+02 -0.29332472529E+03  0.30815195437E+03  0.47000000000E+01 0. -1.
        -11    1    4    4    0    0  0.15904621888E+02 -0.15571654295E+02 -0.25846857003E+03  0.25942520138E+03  0.00000000000E+00 0.  1.
         12    1    4    4    0    0 -0.45422157081E+02  0.51380234841E+01 -0.11529081535E+03  0.12402235178E+03  0.00000000000E+00 0. -1.
         -5    1    5    5    0  502 -0.81213440651E+02 -0.27651991865E+02 -0.19274557498E+03  0.21102891336E+03  0.47000000000E+01 0.  1.
         13    1    6    6    0    0 -0.17835919093E+01 -0.36224507621E+01 -0.72125599257E+02  0.72238531393E+02  0.00000000000E+00 0. -1.
        -14    1    6    6    0    0  0.20397465779E+02  0.21445249373E+02  0.10672605919E+02  0.31462038204E+02  0.00000000000E+00 0.  1.
</event>
<event>
12    1  0.9246030E-003  0.1863250E+03  0.7818608E-02  0.1161865E+00
         21   -1    0    0  503  502  0.00000000000E+00  0.00000000000E+00  0.10257709617E+04  0.10257709617E+04  0.00000000000E+00 0.  1.
         21   -1    0    0  501  503 -0.00000000000E+00 -0.00000000000E+00 -0.33852167964E+02  0.33852167964E+02  0.00000000000E+00 0.  1.
          6    2    1    2  501    0  0.54849183782E+02 -0.41710859318E+02  0.51474900220E+03  0.54736536869E+03  0.17289905387E+03 0.  0.
         24    2    3    3    0    0  0.62324890332E+02 -0.44796695481E+02  0.52314145872E+03  0.53479827277E+03  0.80256282299E+02 0.  0.
         -6    2    1    2    0  502 -0.54849183782E+02  0.41710859318E+02  0.47716979158E+03  0.51225776102E+03  0.17311491842E+03 0.  0.
        -24    2    5    5    0    0 -0.50635847081E+02 -0.40244872034E+02  0.28598821522E+03  0.30415447117E+03  0.80851990399E+02 0.  0.
          5    1    3    3  501    0 -0.74757065500E+01  0.30858361632E+01 -0.83924565219E+01  0.12567095914E+02  0.47000000000E+01 0. -1.
        -11    1    4    4    0    0  0.56621297444E+02 -0.18985295539E+02  0.16143040479E+03  0.17212259689E+03  0.00000000000E+00 0.  1.
         12    1    4    4    0    0  0.57035928876E+01 -0.25811399942E+02  0.36171105393E+03  0.36267567588E+03  0.00000000000E+00 0. -1.
         -5    1    5    5    0  502 -0.42133367010E+01  0.81955731352E+02  0.19118157636E+03  0.20810328985E+03  0.47000000000E+01 0.  1.
         13    1    6    6    0    0 -0.43946928389E+02 -0.20153604901E+01  0.23990730600E+03  0.24390758427E+03  0.00000000000E+00 0. -1.
        -14    1    6    6    0    0 -0.66889186925E+01 -0.38229511544E+02  0.46080909221E+02  0.60246886897E+02  0.00000000000E+00 0.  1.
</event>
<event>
12    1  0.9246030E-003  0.2243317E+03  0.7818608E-02  0.1131817E+00
         21   -1    0    0  503  502  0.00000000000E+00  0.00000000000E+00  0.87993888800E+02  0.87993888800E+02  0.00000000000E+00 0. -1.
         21   -1    0    0  501  503 -0.00000000000E+00 -0.00000000000E+00 -0.57554235953E+03  0.57554235953E+03  0.00000000000E+00 0.  1.
          6    2    1    2  501    0  0.10246737973E+03 -0.82149698909E+02 -0.30736782344E+03  0.38052555363E+03  0.18186968174E+03 0.  0.
         24    2    3    3    0    0  0.11706551782E+03 -0.88109516877E+02 -0.31932254808E+03  0.36018764549E+03  0.79376494183E+02 0.  0.
         -6    2    1    2    0  502 -0.10246737973E+03  0.82149698909E+02 -0.18018064729E+03  0.28301069470E+03  0.17430390334E+03 0.  0.
        -24    2    5    5    0    0 -0.10137245765E+03  0.11373843780E+03 -0.10644694005E+03  0.20265027620E+03  0.80767419154E+02 0.  0.
          5    1    3    3  501    0 -0.14598138094E+02  0.59598179678E+01  0.11954724637E+02  0.20337908132E+02  0.47000000000E+01 0. -1.
        -13    1    4    4    0    0  0.47474487088E+01 -0.43731970838E+02 -0.62973784920E+02  0.76816151491E+02  0.00000000000E+00 0.  1.
         14    1    4    4    0    0  0.11231806911E+03 -0.44377546039E+02 -0.25634876316E+03  0.28337149400E+03  0.00000000000E+00 0. -1.
         -5    1    5    5    0  502 -0.10949220792E+01 -0.31588738886E+02 -0.73733707236E+02  0.80360418500E+02  0.47000000000E+01 0.  1.
         13    1    6    6    0    0 -0.67321302090E+02  0.11565650838E+03 -0.10198532731E+03  0.16825454714E+03  0.00000000000E+00 0. -1.
        -14    1    6    6    0    0 -0.34051155558E+02 -0.19180705830E+01 -0.44616127365E+01  0.34395729063E+02  0.00000000000E+00 0.  1.
</event>
<event>
12    1  0.9246030E-003  0.2509752E+03  0.7818608E-02  0.1113423E+00
         21   -1    0    0  501  502  0.00000000000E+00  0.00000000000E+00  0.53281815279E+02  0.53281815279E+02  0.00000000000E+00 0.  1.
         21   -1    0    0  502  503 -0.00000000000E+00 -0.00000000000E+00 -0.17534619139E+04  0.17534619139E+04  0.00000000000E+00 0. -1.
          6    2    1    2  501    0 -0.18308446991E+03  0.48922147620E+01 -0.31956591791E+03  0.40350317789E+03  0.16476826694E+03 0.  0.
         24    2    3    3    0    0 -0.10622686585E+03  0.61171217476E+02 -0.23164934402E+03  0.27378875536E+03  0.79201004409E+02 0.  0.
         -6    2    1    2    0  503  0.18308446991E+03 -0.48922147620E+01 -0.13806141807E+04  0.14032405513E+04  0.17159449848E+03 0.  0.
        -24    2    5    5    0    0  0.14312827713E+03 -0.63967221576E+02 -0.10700396877E+04  0.10845479730E+04  0.81742664794E+02 0.  0.
          5    1    3    3  501    0 -0.76857604063E+02 -0.56279002714E+02 -0.87916573885E+02  0.12971442253E+03  0.47000000000E+01 0. -1.
        -11    1    4    4    0    0 -0.52130974937E+02  0.47508310082E+02 -0.57749558266E+02  0.91157498619E+02  0.00000000000E+00 0.  1.
         12    1    4    4    0    0 -0.54095890914E+02  0.13662907394E+02 -0.17389978576E+03  0.18263125674E+03  0.00000000000E+00 0. -1.
         -5    1    5    5    0  503  0.39956192782E+02  0.59075006814E+02 -0.31057449299E+03  0.31869257831E+03  0.47000000000E+01 0.  1.
         11    1    6    6    0    0  0.13871820435E+03 -0.77342057543E+02 -0.89832408140E+03  0.91225582449E+03  0.00000000000E+00 0. -1.
        -12    1    6    6    0    0  0.44100727787E+01  0.13374835967E+02 -0.17171560632E+03  0.17229214849E+03  0.00000000000E+00 0.  1.
</event>
<event>
12    1  0.9246030E-003  0.2891258E+03  0.7818608E-02  0.1090876E+00
         21   -1    0    0  503  502  0.00000000000E+00  0.00000000000E+00  0.14091506687E+03  0.14091506687E+03  0.00000000000E+00 0.  1.
         21   -1    0    0  501  503 -0.00000000000E+00 -0.00000000000E+00 -0.62118778102E+03  0.62118778102E+03  0.00000000000E+00 0.  1.
          6    2    1    2  501    0  0.70604605502E+02  0.22023372313E+03 -0.15750856397E+03  0.32877800862E+03  0.17262134315E+03 0.  0.
         24    2    3    3    0    0  0.76341914482E+02  0.23663303278E+03 -0.16606142828E+03  0.30885075192E+03  0.77389333178E+02 0.  0.
         -6    2    1    2    0  502 -0.70604605502E+02 -0.22023372313E+03 -0.32276415018E+03  0.43332483927E+03  0.17351027799E+03 0.  0.
        -24    2    5    5    0    0 -0.10730997050E+03 -0.11621541948E+03 -0.22376313824E+03  0.28503329644E+03  0.78438412439E+02 0.  0.
          5    1    3    3  501    0 -0.57373089805E+01 -0.16399309656E+02  0.85528643144E+01  0.19927256698E+02  0.47000000000E+01 0. -1.
        -11    1    4    4    0    0  0.37116092901E+02  0.18089445579E+03 -0.86000125301E+02  0.20370672557E+03  0.00000000000E+00 0.  1.
         12    1    4    4    0    0  0.39225821581E+02  0.55738576988E+02 -0.80061302981E+02  0.10514402636E+03  0.00000000000E+00 0. -1.
         -5    1    5    5    0  502  0.36705364997E+02 -0.10401830364E+03 -0.99001011936E+02  0.14829154284E+03  0.47000000000E+01 0.  1.
         13    1    6    6    0    0  0.85134705902E+01 -0.21434496769E+02 -0.12805641345E+02  0.26379940930E+02  0.00000000000E+00 0. -1.
        -14    1    6    6    0    0 -0.11582344109E+03 -0.94780922716E+02 -0.21095749690E+03  0.25865335550E+03  0.00000000000E+00 0.  1.
</event>
<event>
12    1  0.9246030E-003  0.4105773E+03  0.7818608E-02  0.1040205E+00
         21   -1    0    0  503  502  0.00000000000E+00  0.00000000000E+00  0.43142714163E+03  0.43142714163E+03  0.00000000000E+00 0. -1.
         21   -1    0    0  501  503 -0.00000000000E+00 -0.00000000000E+00 -0.42065908191E+03  0.42065908191E+03  0.00000000000E+00 0. -1.
          6    2    1    2  501    0 -0.17446233382E+03  0.32886952588E+03 -0.10884733609E+03  0.42443969477E+03  0.17236310786E+03 0.  0.
         24    2    3    3    0    0 -0.65957896633E+02  0.67218180731E+02 -0.74831691034E+01  0.12355529229E+03  0.79631554578E+02 0.  0.
         -6    2    1    2    0  502  0.17446233382E+03 -0.32886952588E+03  0.11961539581E+03  0.42764652877E+03  0.17315149342E+03 0.  0.
        -24    2    5    5    0    0  0.76202596125E+02 -0.27775210956E+03  0.85912576419E+02  0.31177618598E+03  0.82887570448E+02 0.  0.
          5    1    3    3  501    0 -0.10850443719E+03  0.26165134515E+03 -0.10136416698E+03  0.30088440248E+03  0.47000000000E+01 0. -1.
        -13    1    4    4    0    0  0.10716930497E+02 -0.53672536170E+01 -0.13185313084E+02  0.17818880206E+02  0.00000000000E+00 0.  1.
         14    1    4    4    0    0 -0.76674827130E+02  0.72585434348E+02  0.57021439804E+01  0.10573641209E+03  0.00000000000E+00 0. -1.
         -5    1    5    5    0  502  0.98259737694E+02 -0.51117416326E+02  0.33702819392E+02  0.11587034279E+03  0.47000000000E+01 0.  1.
         13    1    6    6    0    0  0.87559753327E+02 -0.22521969124E+03  0.48957685405E+02  0.24655116038E+03  0.00000000000E+00 0. -1.
        -14    1    6    6    0    0 -0.11357157202E+02 -0.52532418318E+02  0.36954891015E+02  0.65225025596E+02  0.00000000000E+00 0.  1.
</event>
<event>
12    1  0.9246030E-003  0.2015409E+03  0.7818608E-02  0.1148701E+00
         21   -1    0    0  501  502  0.00000000000E+00  0.00000000000E+00  0.40600855643E+03  0.40600855643E+03  0.00000000000E+00 0.  1.
         21   -1    0    0  502  503 -0.00000000000E+00 -0.00000000000E+00 -0.10034394542E+03  0.10034394542E+03  0.00000000000E+00 0. -1.
          6    2    1    2  501    0  0.26884562198E+02  0.10139505308E+03  0.17732579374E+03  0.26844581349E+03  0.17209003801E+03 0.  0.
         24    2    3    3    0    0 -0.19656630585E+02  0.46768232536E+02  0.17291158361E+03  0.19639203220E+03  0.78088180040E+02 0.  0.
         -6    2    1    2    0  503 -0.26884562198E+02 -0.10139505308E+03  0.12833881726E+03  0.23790668835E+03  0.17066049301E+03 0.  0.
        -24    2    5    5    0    0  0.23324791333E+02 -0.12063598650E+03  0.96620423179E+02  0.17530206214E+03  0.79361323612E+02 0.  0.
          5    1    3    3  501    0  0.46541192783E+02  0.54626820543E+02  0.44142101267E+01  0.72053781297E+02  0.47000000000E+01 0. -1.
        -13    1    4    4    0    0 -0.66516648142E+01  0.64426246152E+02  0.15530199026E+03  0.16826673473E+03  0.00000000000E+00 0.  1.
         14    1    4    4    0    0 -0.13004965771E+02 -0.17658013617E+02  0.17609593359E+02  0.28125297471E+02  0.00000000000E+00 0. -1.
         -5    1    5    5    0  503 -0.50209353531E+02  0.19240933419E+02  0.31718394081E+02  0.62604626218E+02  0.47000000000E+01 0.  1.
         13    1    6    6    0    0  0.24054332645E+02 -0.77103548981E+01 -0.20462313641E+01  0.25342603545E+02  0.00000000000E+00 0. -1.
        -14    1    6    6    0    0 -0.72954131189E+00 -0.11292563160E+03  0.98666654543E+02  0.14995945859E+03  0.00000000000E+00 0.  1.
</event>
<event>
12    1  0.9246030E-003  0.1762632E+03  0.7818608E-02  0.1171708E+00
         21   -1    0    0  503  502  0.00000000000E+00  0.00000000000E+00  0.11307911084E+03  0.11307911084E+03  0.00000000000E+00 0. -1.
         21   -1    0    0  501  503 -0.00000000000E+00 -0.00000000000E+00 -0.29866606303E+03  0.29866606303E+03  0.00000000000E+00 0. -1.
          6    2    1    2  501    0 -0.24687557281E+02 -0.30639878154E+02 -0.15260094584E+03  0.23242205745E+03  0.17083526128E+03 0.  0.
         24    2    3    3    0    0 -0.49052342699E+02 -0.53470054289E+02 -0.16470786790E+03  0.19659570859E+03  0.79094954676E+02 0.  0.
         -6    2    1    2    0  502  0.24687557281E+02  0.30639878154E+02 -0.32986006339E+02  0.17932311642E+03  0.17181509203E+03 0.  0.
        -24    2    5    5    0    0  0.41575207032E+02 -0.26331875563E+02 -0.62799827964E+02  0.11267533029E+03  0.79561587178E+02 0.  0.
          5    1    3    3  501    0  0.24364785417E+02  0.22830176135E+02  0.12106922059E+02  0.35826348859E+02  0.47000000000E+01 0. -1.
        -11    1    4    4    0    0 -0.39507601878E+02 -0.66142244027E+02 -0.16343047356E+03  0.18067973528E+03  0.00000000000E+00 0.  1.
         12    1    4    4    0    0 -0.95447408208E+01  0.12672189738E+02 -0.12773943430E+01  0.15915973310E+02  0.00000000000E+00 0. -1.
         -5    1    5    5    0  502 -0.16887649750E+02  0.56971753717E+02  0.29813821624E+02  0.66647786126E+02  0.47000000000E+01 0.  1.
         11    1    6    6    0    0  0.20996726107E+02 -0.32088790251E+01 -0.76082535473E+02  0.78991845249E+02  0.00000000000E+00 0. -1.
        -12    1    6    6    0    0  0.20578480924E+02 -0.23122996538E+02  0.13282707509E+02  0.33683485046E+02  0.00000000000E+00 0.  1.
</event>
<event>
12    1  0.9246030E-003  0.1893757E+03  0.7818608E-02  0.1159251E+00
         21   -1    0    0  501  502  0.00000000000E+00  0.00000000000E+00  0.11786475921E+03  0.11786475921E+03  0.00000000000E+00 0. -1.
         21   -1    0    0  502  503 -0.00000000000E+00 -0.00000000000E+00 -0.32854515801E+03  0.32854515801E+03  0.00000000000E+00 0. -1.
          6    2    1    2  501    0  0.53209892712E+02 -0.55540053701E+02 -0.16771236639E+03  0.25222084442E+03  0.17196489837E+03 0.  0.
         24    2    3    3    0    0  0.36130634564E+01  0.18504416839E+02 -0.28901892708E+02  0.87197007676E+02  0.80078280922E+02 0.  0.
         -6    2    1    2    0  503 -0.53209892712E+02  0.55540053701E+02 -0.42968032409E+02  0.19418907281E+03  0.17305246008E+03 0.  0.
        -24    2    5    5    0    0 -0.95045721965E+02  0.72118832556E+02 -0.23865594468E+02  0.14507608417E+03  0.79010684886E+02 0.  0.
          5    1    3    3  501    0  0.49596829256E+02 -0.74044470540E+02 -0.13881047368E+03  0.16502383674E+03  0.47000000000E+01 0. -1.
        -11    1    4    4    0    0  0.31293976181E+02 -0.81684162679E+00 -0.40780946171E+02  0.51410755160E+02  0.00000000000E+00 0.  1.
         12    1    4    4    0    0 -0.27680912725E+02  0.19321258466E+02  0.11879053463E+02  0.35786252516E+02  0.00000000000E+00 0. -1.
         -5    1    5    5    0  503  0.41835829252E+02 -0.16578778855E+02 -0.19102437941E+02  0.49112988637E+02  0.47000000000E+01 0.  1.
         13    1    6    6    0    0 -0.97637833172E+02  0.32132428980E+02 -0.20928580171E+02  0.10489825988E+03  0.00000000000E+00 0. -1.
        -14    1    6    6    0    0  0.25921112079E+01  0.39986403576E+02 -0.29370142975E+01  0.40177824287E+02  0.00000000000E+00 0.  1.
</event>
<event>
12    1  0.9246030E-003  0.1853073E+03  0.7818608E-02  0.1162838E+00
         21   -1    0    0  501  502  0.00000000000E+00  0.00000000000E+00  0.29869891111E+02  0.29869891111E+02  0.00000000000E+00 0. -1.
         21   -1    0    0  502  503 -0.00000000000E+00 -0.00000000000E+00 -0.12972945923E+04  0.12972945923E+04  0.00000000000E+00 0.  1.
          6    2    1    2  501    0  0.26052951185E+02  0.66548587565E+02 -0.85959036856E+03  0.87933748310E+03  0.17097174238E+03 0.  0.
         24    2    3    3    0    0 -0.19907243609E+02  0.77142550189E+02 -0.76221269832E+03  0.77103664188E+03  0.84746883299E+02 0.  0.
         -6    2    1    2    0  503 -0.26052951185E+02 -0.66548587565E+02 -0.40783433262E+03  0.44782700030E+03  0.17062446648E+03 0.  0.
        -24    2    5    5    0    0  0.29362539085E+02  0.11233978375E+02 -0.15693895670E+03  0.17932824093E+03  0.80872868709E+02 0.  0.
          5    1    3    3  501    0  0.45960194794E+02 -0.10593962624E+02 -0.97377670233E+02  0.10830084122E+03  0.47000000000E+01 0. -1.
        -13    1    4    4    0    0 -0.34383857495E+02  0.61275346185E+02 -0.29203904568E+03  0.30037263841E+03  0.00000000000E+00 0.  1.
         14    1    4    4    0    0  0.14476613885E+02  0.15867204004E+02 -0.47017365265E+03  0.47066400346E+03  0.00000000000E+00 0. -1.
         -5    1    5    5    0  503 -0.55415490270E+02 -0.77782565940E+02 -0.25089537591E+03  0.26849875937E+03  0.47000000000E+01 0.  1.
         11    1    6    6    0    0  0.86672132006E+01  0.37096923244E+02 -0.31027122066E+02  0.49132317292E+02  0.00000000000E+00 0. -1.
        -12    1    6    6    0    0  0.20695325885E+02 -0.25862944869E+02 -0.12591183464E+03  0.13019592364E+03  0.00000000000E+00 0.  1.
</event>
<event>
12    1  0.9246030E-003  0.2011130E+03  0.7818608E-02  0.1148823E+00
         21   -1    0    0  501  502  0.00000000000E+00  0.00000000000E+00  0.81061201934E+02  0.81061201934E+02  0.00000000000E+00 0. -1.
         21   -1    0    0  502  503 -0.00000000000E+00 -0.00000000000E+00 -0.83379708007E+03  0.83379708007E+03  0.00000000000E+00 0.  1.
          6    2    1    2  501    0  0.78897921316E+02 -0.65023455346E+02 -0.86445818076E+02  0.21890477382E+03  0.17318628353E+03 0.  0.
         24    2    3    3    0    0  0.30611911937E+02 -0.24654772509E+02 -0.11819082083E+03  0.14825773244E+03  0.80413544506E+02 0.  0.
         -6    2    1    2    0  503 -0.78897921316E+02  0.65023455346E+02 -0.66629006006E+03  0.69595350819E+03  0.17307775620E+03 0.  0.
        -24    2    5    5    0    0 -0.28477544003E+02  0.46100053616E+01 -0.13516918103E+03  0.15901451954E+03  0.78630065894E+02 0.  0.
          5    1    3    3  501    0  0.48286009379E+02 -0.40368682837E+02  0.31745002752E+02  0.70647041378E+02  0.47000000000E+01 0. -1.
        -11    1    4    4    0    0  0.49472050550E+02 -0.35781585061E+02 -0.10809127442E+03  0.12414318032E+03  0.00000000000E+00 0.  1.
         12    1    4    4    0    0 -0.18860138613E+02  0.11126812552E+02 -0.10099546408E+02  0.24114552115E+02  0.00000000000E+00 0. -1.
         -5    1    5    5    0  503 -0.50420377312E+02  0.60413449985E+02 -0.53112087904E+03  0.53693898865E+03  0.47000000000E+01 0.  1.
         13    1    6    6    0    0  0.14979995602E+02  0.10721392718E+02 -0.10291664494E+03  0.10455230431E+03  0.00000000000E+00 0. -1.
        -14    1    6    6    0    0 -0.43457539605E+02 -0.61113873561E+01 -0.32252536087E+02  0.54462215232E+02  0.00000000000E+00 0.  1.
</event>
<event>
12    1  0.9246030E-003  0.1868237E+03  0.7818608E-02  0.1161392E+00
         21   -1    0    0  501  502  0.00000000000E+00  0.00000000000E+00  0.40256229579E+03  0.40256229579E+03  0.00000000000E+00 0. -1.
         21   -1    0    0  502  503 -0.00000000000E+00 -0.00000000000E+00 -0.89340494096E+02  0.89340494096E+02  0.00000000000E+00 0. -1.
          6    2    1    2  501    0  0.68124756571E+01  0.75531878295E+02  0.11385678267E+03  0.21878403836E+03  0.17073843743E+03 0.  0.
         24    2    3    3    0    0  0.57148154054E+02  0.60104719364E+02  0.57281431351E+02  0.14135963569E+03  0.99110521249E+02 0.  0.
         -6    2    1    2    0  503 -0.68124756571E+01 -0.75531878295E+02  0.19936501903E+03  0.27311875153E+03  0.17057540023E+03 0.  0.
        -24    2    5    5    0    0 -0.66270700115E+01 -0.16168747972E+02  0.27531788871E+02  0.91259562587E+02  0.85234745833E+02 0.  0.
          5    1    3    3  501    0 -0.50335678397E+02  0.15427158931E+02  0.56575351315E+02  0.77424402670E+02  0.47000000000E+01 0. -1.
        -13    1    4    4    0    0 -0.13522191873E+02  0.53793813298E+02  0.39849815274E+02  0.68298109780E+02  0.00000000000E+00 0.  1.
         14    1    4    4    0    0  0.70670345927E+02  0.63109060665E+01  0.17431616078E+02  0.73061525907E+02  0.00000000000E+00 0. -1.
         -5    1    5    5    0  503 -0.18540564557E+00 -0.59363130323E+02  0.17183323016E+03  0.18185918895E+03  0.47000000000E+01 0.  1.
         13    1    6    6    0    0  0.33720273900E+02  0.52613397855E+01 -0.59180555022E+01  0.34637580013E+02  0.00000000000E+00 0. -1.
        -14    1    6    6    0    0 -0.40347343911E+02 -0.21430087758E+02  0.33449844373E+02  0.56621982574E+02  0.00000000000E+00 0.  1.
</event>
<event>
12    1  0.9246030E-003  0.3042926E+03  0.7818608E-02  0.1083442E+00
         21   -1    0    0  501  502  0.00000000000E+00  0.00000000000E+00  0.87072326881E+02  0.87072326881E+02  0.00000000000E+00 0. -1.
         21   -1    0    0  502  503 -0.00000000000E+00 -0.00000000000E+00 -0.11067227694E+04  0.11067227694E+04  0.00000000000E+00 0.  1.
          6    2    1    2  501    0 -0.23433577504E+03  0.88426072250E+02 -0.64206791536E+03  0.71052458442E+03  0.17280495192E+03 0.  0.
         24    2    3    3    0    0 -0.10194056409E+03  0.10250119214E+03 -0.42283259840E+03  0.45398449966E+03  0.80100853103E+02 0.  0.
         -6    2    1    2    0  503  0.23433577504E+03 -0.88426072250E+02 -0.37758252711E+03  0.48327051182E+03  0.16807556959E+03 0.  0.
        -24    2    5    5    0    0  0.24703476320E+03 -0.81954247730E+02 -0.32263964196E+03  0.42631474440E+03  0.99525121338E+02 0.  0.
          5    1    3    3  501    0 -0.13239521095E+03 -0.14075119893E+02 -0.21923531697E+03  0.25654008476E+03  0.47000000000E+01 0. -1.
        -13    1    4    4    0    0  0.93336536368E+01  0.29004363089E+01 -0.72412516045E+02  0.73069159712E+02  0.00000000000E+00 0.  1.
         14    1    4    4    0    0 -0.11127421773E+03  0.99600755834E+02 -0.35042008235E+03  0.38091533995E+03  0.00000000000E+00 0. -1.
         -5    1    5    5    0  503 -0.12698988162E+02 -0.64718245196E+01 -0.54942885157E+02  0.56955767420E+02  0.47000000000E+01 0.  1.
         13    1    6    6    0    0 -0.40676014776E+01 -0.15207429099E+02 -0.63109992401E+01  0.16959952624E+02  0.00000000000E+00 0. -1.
        -14    1    6    6    0    0  0.25110236468E+03 -0.66746818631E+02 -0.31632864272E+03  0.40935479177E+03  0.00000000000E+00 0.  1.
</event>
<event>
12    1  0.9246030E-003  0.2214314E+03  0.7818608E-02  0.1133892E+00
         21   -1    0    0  501  502  0.00000000000E+00  0.00000000000E+00  0.18949445195E+03  0.18949445195E+03  0.00000000000E+00 0.  1.
         21   -1    0    0  502  503 -0.00000000000E+00 -0.00000000000E+00 -0.38919628690E+03  0.38919628690E+03  0.00000000000E+00 0.  1.
          6    2    1    2  501    0 -0.14076752076E+03  0.76262484369E+01  0.72709029720E+02  0.22763581033E+03  0.16327217942E+03 0.  0.
         24    2    3    3    0    0 -0.23591169419E+02 -0.30266857521E+02  0.60177676355E+01  0.87507300625E+02  0.78413571508E+02 0.  0.
         -6    2    1    2    0  503  0.14076752076E+03 -0.76262484369E+01 -0.27241086467E+03  0.35105492853E+03  0.17075780829E+03 0.  0.
        -24    2    5    5    0    0  0.53706670640E+02  0.43841942224E+02 -0.20051674453E+03  0.22687996816E+03  0.80380549544E+02 0.  0.
          5    1    3    3  501    0 -0.11717635134E+03  0.37893105958E+02  0.66691262084E+02  0.14012850970E+03  0.47000000000E+01 0. -1.
        -13    1    4    4    0    0 -0.29507798287E+02 -0.54369159686E+02  0.89967816841E+01  0.62511261108E+02  0.00000000000E+00 0.  1.
         14    1    4    4    0    0  0.59166288679E+01  0.24102302165E+02 -0.29790140487E+01  0.24996039517E+02  0.00000000000E+00 0. -1.
         -5    1    5    5    0  503  0.87060850118E+02 -0.51468190661E+02 -0.71894120136E+02  0.12417496037E+03  0.47000000000E+01 0.  1.
         11    1    6    6    0    0  0.54791910793E+02  0.42816658312E+02 -0.78562428133E+02  0.10491651363E+03  0.00000000000E+00 0. -1.
        -12    1    6    6    0    0 -0.10852401523E+01  0.10252839114E+01 -0.12195431640E+03  0.12196345453E+03  0.00000000000E+00 0.  1.
</event>
<event>
12    1  0.9246030E-003  0.2204009E+03  0.7818608E-02  0.1133657E+00
         21   -1    0    0  503  502  0.00000000000E+00  0.00000000000E+00  0.33673365225E+03  0.33673365225E+03  0.00000000000E+00 0. -1.
         21   -1    0    0  501  503 -0.00000000000E+00 -0.00000000000E+00 -0.14426749818E+03  0.14426749818E+03  0.00000000000E+00 0.  1.
          6    2    1    2  501    0 -0.12604866557E+03  0.56157191867E+02  0.10641561583E+03  0.24439753003E+03  0.17135919322E+03 0.  0.
         24    2    3    3    0    0 -0.12969954578E+03  0.95451651811E+02  0.91626748531E+02  0.20199252909E+03  0.80452040075E+02 0.  0.
         -6    2    1    2    0  502  0.12604866557E+03 -0.56157191867E+02  0.86050538239E+02  0.23660362040E+03  0.17185657324E+03 0.  0.
        -24    2    5    5    0    0  0.83633912954E+02  0.19538037056E+02  0.92833394632E+02  0.14944356038E+03  0.79617663202E+02 0.  0.
          5    1    3    3  501    0  0.36508802100E+01 -0.39294459944E+02  0.14788867295E+02  0.42405000937E+02  0.47000000000E+01 0. -1.
        -11    1    4    4    0    0 -0.39622699712E+02  0.34669734884E+02 -0.95598501624E+01  0.53510182064E+02  0.00000000000E+00 0.  1.
         12    1    4    4    0    0 -0.90076846069E+02  0.60781916928E+02  0.10118659869E+03  0.14848234703E+03  0.00000000000E+00 0. -1.
         -5    1    5    5    0  502  0.42414752616E+02 -0.75695228923E+02 -0.67828563922E+01  0.87160060017E+02  0.47000000000E+01 0.  1.
         11    1    6    6    0    0  0.70069849305E+02 -0.21278792993E+02  0.49514403472E+02  0.88398229416E+02  0.00000000000E+00 0. -1.
        -12    1    6    6    0    0  0.13564063649E+02  0.40816830049E+02  0.43318991160E+02  0.61045330968E+02  0.00000000000E+00 0.  1.
</event>
<event>
12    1  0.9246030E-003  0.1935163E+03  0.7818608E-02  0.1156209E+00
         21   -1    0    0  503  502  0.00000000000E+00  0.00000000000E+00  0.75559466385E+02  0.75559466385E+02  0.00000000000E+00 0. -1.
         21   -1    0    0  501  503 -0.00000000000E+00 -0.00000000000E+00 -0.48563391563E+03  0.48563391563E+03  0.00000000000E+00 0. -1.
          6    2    1    2  501    0  0.78342228496E+02 -0.28990151514E+01 -0.20710937530E+03  0.28075909243E+03  0.17258466210E+03 0.  0.
         24    2    3    3    0    0 -0.14837596043E+02 -0.23206088589E+02 -0.15890311133E+03  0.17379745997E+03  0.64781799129E+02 0.  0.
         -6    2    1    2    0  502 -0.78342228496E+02  0.28990151514E+01 -0.20296507395E+03  0.28043428959E+03  0.17692557892E+03 0.  0.
        -24    2    5    5    0    0 -0.18372676300E+02  0.26163038097E+02 -0.23123766121E+02  0.89377889652E+02  0.80197498727E+02 0.  0.
          5    1    3    3  501    0  0.93179824539E+02  0.20307073438E+02 -0.48206263970E+02  0.10696163246E+03  0.47000000000E+01 0. -1.
        -13    1    4    4    0    0 -0.27042278869E+02 -0.17082155498E+02 -0.28988868771E+02  0.43167573426E+02  0.00000000000E+00 0.  1.
         14    1    4    4    0    0  0.12204682825E+02 -0.61239330912E+01 -0.12991424256E+03  0.13062988654E+03  0.00000000000E+00 0. -1.
         -5    1    5    5    0  502 -0.59969552195E+02 -0.23264022946E+02 -0.17984130783E+03  0.19105639994E+03  0.47000000000E+01 0.  1.
         13    1    6    6    0    0 -0.24817614105E+02  0.32621838712E+02  0.19781818451E+02  0.45512840738E+02  0.00000000000E+00 0. -1.
        -14    1    6    6    0    0  0.64449378046E+01 -0.64588006154E+01 -0.42905584572E+02  0.43865048913E+02  0.00000000000E+00 0.  1.
</event>
<event>
12    1  0.9246030E-003  0.2590218E+03  0.7818608E-02  0.1107869E+00
         21   -1    0    0  503  502  0.00000000000E+00  0.00000000000E+00  0.20950882294E+03  0.20950882294E+03  0.00000000000E+00 0. -1.
         21   -1    0    0  501  503 -0.00000000000E+00 -0.00000000000E+00 -0.32974410639E+03  0.32974410639E+03  0.00000000000E+00 0. -1.
          6    2    1    2  501    0 -0.15468479522E+03 -0.11466859107E+03 -0.10841254334E+03  0.27996148263E+03  0.17189787826E+03 0.  0.
         24    2    3    3    0    0 -0.50589758432E+02 -0.10730355416E+03 -0.10170240258E+03  0.17528514126E+03  0.79423709707E+02 0.  0.
         -6    2    1    2    0  502  0.15468479522E+03  0.11466859107E+03 -0.11822740110E+02  0.25929144670E+03  0.17325127849E+03 0.  0.
        -24    2    5    5    0    0  0.12485961496E+02  0.17624904572E+02  0.18657627604E+02  0.84393967535E+02  0.79421018584E+02 0.  0.
          5    1    3    3  501    0 -0.10409503679E+03 -0.73650369187E+01 -0.67101407607E+01  0.10467634137E+03  0.47000000000E+01 0. -1.
        -11    1    4    4    0    0 -0.22290587969E+01 -0.10721714515E+02  0.13488723329E+02  0.17374392717E+02  0.00000000000E+00 0.  1.
         12    1    4    4    0    0 -0.48360699635E+02 -0.96581839640E+02 -0.11519112591E+03  0.15791074854E+03  0.00000000000E+00 0. -1.
         -5    1    5    5    0  502  0.14219883373E+03  0.97043686502E+02 -0.30480367713E+02  0.17489747917E+03  0.47000000000E+01 0.  1.
         13    1    6    6    0    0  0.24442956032E+02 -0.14947910472E+02 -0.18065504846E+02  0.33871235472E+02  0.00000000000E+00 0. -1.
        -14    1    6    6    0    0 -0.11956994535E+02  0.32572815044E+02  0.36723132450E+02  0.50522732063E+02  0.00000000000E+00 0.  1.
</event>
<event>
12    1  0.9246030E-003  0.2171269E+03  0.7818608E-02  0.1136233E+00
         21   -1    0    0  503  502  0.00000000000E+00  0.00000000000E+00  0.19907458698E+03  0.19907458698E+03  0.00000000000E+00 0. -1.
         21   -1    0    0  501  503 -0.00000000000E+00 -0.00000000000E+00 -0.24587641318E+03  0.24587641318E+03  0.00000000000E+00 0. -1.
          6    2    1    2  501    0 -0.10791242715E+03 -0.73861165602E+02 -0.68548339332E+02  0.22673778394E+03  0.17207726208E+03 0.  0.
         24    2    3    3    0    0 -0.10575035819E+03 -0.11292059822E+03 -0.42620498885E+02  0.17957151709E+03  0.80592946727E+02 0.  0.
         -6    2    1    2    0  502  0.10791242715E+03  0.73861165602E+02  0.21746513132E+02  0.21821321621E+03  0.17333070466E+03 0.  0.
        -24    2    5    5    0    0  0.10984990259E+03  0.15316253102E+02 -0.31026731467E+02  0.13922988926E+03  0.78235000421E+02 0.  0.
          5    1    3    3  501    0 -0.21620689579E+01  0.39059432622E+02 -0.25927840447E+02  0.47166266857E+02  0.47000000000E+01 0. -1.
        -11    1    4    4    0    0 -0.86347824469E+02 -0.34166917048E+02 -0.29312909714E+02  0.97378497047E+02  0.00000000000E+00 0.  1.
         12    1    4    4    0    0 -0.19402533724E+02 -0.78753681176E+02 -0.13307589171E+02  0.82193020039E+02  0.00000000000E+00 0. -1.
         -5    1    5    5    0  502 -0.19374754361E+01  0.58544912500E+02  0.52773244599E+02  0.78983326951E+02  0.47000000000E+01 0.  1.
         11    1    6    6    0    0  0.18708366703E+02  0.33591996300E+02 -0.25443892376E+02  0.46106581518E+02  0.00000000000E+00 0. -1.
        -12    1    6    6    0    0  0.91141535884E+02 -0.18275743197E+02 -0.55828390911E+01  0.93123307743E+02  0.00000000000E+00 0.  1.
</event>
<event>
12    1  0.9246030E-003  0.1739641E+03  0.7818608E-02  0.1176203E+00
         21   -1    0    0  503  502  0.00000000000E+00  0.00000000000E+00  0.38978980232E+02  0.38978980232E+02  0.00000000000E+00 0.  1.
         21   -1    0    0  501  503 -0.00000000000E+00 -0.00000000000E+00 -0.73744001057E+03  0.73744001057E+03  0.00000000000E+00 0.  1.
          6    2    1    2  501    0 -0.34972663979E+01 -0.12246684844E+02 -0.33835944921E+03  0.38046106514E+03  0.17349724221E+03 0.  0.
         24    2    3    3    0    0 -0.29221293572E+02 -0.14535639060E+02 -0.71240264472E+02  0.11205519013E+03  0.80100072106E+02 0.  0.
         -6    2    1    2    0  502  0.34972663979E+01  0.12246684844E+02 -0.36010158113E+03  0.39595792567E+03  0.16415638277E+03 0.  0.
        -24    2    5    5    0    0 -0.12817129350E+02  0.67790182920E+02 -0.20370420522E+03  0.22912426935E+03  0.79011011115E+02 0.  0.
          5    1    3    3  501    0  0.25724027174E+02  0.22889542151E+01 -0.26711918474E+03  0.26840587501E+03  0.47000000000E+01 0. -1.
        -13    1    4    4    0    0 -0.54072030889E+02 -0.17465555010E+02 -0.31161573576E+02  0.64806433354E+02  0.00000000000E+00 0.  1.
         14    1    4    4    0    0  0.24850737317E+02  0.29299159502E+01 -0.40078690896E+02  0.47248756773E+02  0.00000000000E+00 0. -1.
         -5    1    5    5    0  502  0.16314395748E+02 -0.55543498076E+02 -0.15639737591E+03  0.16683365632E+03  0.47000000000E+01 0.  1.
         11    1    6    6    0    0  0.99333695253E+01  0.16036404494E+02 -0.12277948559E+01  0.18903586417E+02  0.00000000000E+00 0. -1.
        -12    1    6    6    0    0 -0.22750498876E+02  0.51753778426E+02 -0.20247641036E+03  0.21022068293E+03  0.00000000000E+00 0.  1.
</event>
<event>
12    1  0.9246030E-003  0.1991642E+03  0.7818608E-02  0.1150462E+00
         21   -1    0    0  503  502  0.00000000000E+00  0.00000000000E+00  0.57776942749E+03  0.57776942749E+03  0.00000000000E+00 0.  1.
         21   -1    0    0  501  503 -0.00000000000E+00 -0.00000000000E+00 -0.12548401447E+03  0.12548401447E+03  0.00000000000E+00 0. -1.
          6    2    1    2  501    0  0.57052380349E+02  0.82984922168E+02 -0.10569187981E+02  0.19936777330E+03  0.17173913323E+03 0.  0.
         24    2    3    3    0    0 -0.49090763076E+02  0.16205603890E+02 -0.96496223546E+01  0.73873630619E+02  0.51881340311E+02 0.  0.
         -6    2    1    2    0  502 -0.57052380349E+02 -0.82984922168E+02  0.46285460100E+03  0.50388566866E+03  0.17182815255E+03 0.  0.
        -24    2    5    5    0    0 -0.18662681165E+02 -0.44835568852E+02  0.43043803571E+03  0.44062378545E+03  0.80708697303E+02 0.  0.
          5    1    3    3  501    0  0.10614314342E+03  0.66779318278E+02 -0.91956562613E+00  0.12549414268E+03  0.47000000000E+01 0. -1.
        -11    1    4    4    0    0 -0.43121990877E+02  0.24604168563E+02  0.10950209538E+02  0.50840714952E+02  0.00000000000E+00 0.  1.
         12    1    4    4    0    0 -0.59687721985E+01 -0.83985646727E+01 -0.20599831893E+02  0.23032915667E+02  0.00000000000E+00 0. -1.
         -5    1    5    5    0  502 -0.38389699183E+02 -0.38149353317E+02  0.32416565288E+02  0.63261883207E+02  0.47000000000E+01 0.  1.
         11    1    6    6    0    0  0.98809814096E+01 -0.12672821752E+02  0.12187703213E+02  0.20168646816E+02  0.00000000000E+00 0. -1.
        -12    1    6    6    0    0 -0.28543662575E+02 -0.32162747100E+02  0.41825033250E+03  0.42045513864E+03  0.00000000000E+00 0.  1.
</event>
<event>
12    1  0.9246030E-003  0.2549203E+03  0.7818608E-02  0.1110744E+00
         21   -1    0    0  503  502  0.00000000000E+00  0.00000000000E+00  0.18165724482E+03  0.18165724482E+03  0.00000000000E+00 0.  1.
         21   -1    0    0  501  503 -0.00000000000E+00 -0.00000000000E+00 -0.35461791874E+03  0.35461791874E+03  0.00000000000E+00 0.  1.
          6    2    1    2  501    0  0.18733268765E+03  0.11602655020E+02 -0.10439574686E+03  0.27546838699E+03  0.17249986319E+03 0.  0.
         24    2    3    3    0    0  0.77067140472E+02  0.56532894024E+02 -0.12202498459E+02  0.12480683807E+03  0.79325491576E+02 0.  0.
         -6    2    1    2    0  502 -0.18733268765E+03 -0.11602655020E+02 -0.68564927068E+02  0.26080677657E+03  0.16760330551E+03 0.  0.
        -24    2    5    5    0    0 -0.15979746208E+03 -0.62284075445E+02 -0.72705307371E+02  0.20278929841E+03  0.80143015213E+02 0.  0.
          5    1    3    3  501    0  0.11026554718E+03 -0.44930239004E+02 -0.92193248397E+02  0.15066154891E+03  0.47000000000E+01 0. -1.
        -13    1    4    4    0    0  0.87125963770E+02  0.27238694622E+02  0.61433165029E+00  0.91286677291E+02  0.00000000000E+00 0.  1.
         14    1    4    4    0    0 -0.10058823298E+02  0.29294199402E+02 -0.12816830109E+02  0.33520160781E+02  0.00000000000E+00 0. -1.
         -5    1    5    5    0  502 -0.27535225570E+02  0.50681420425E+02  0.41403803028E+01  0.58017478164E+02  0.47000000000E+01 0.  1.
         11    1    6    6    0    0 -0.54787949602E+02 -0.49264782465E+02  0.12538963995E+01  0.73690640308E+02  0.00000000000E+00 0. -1.
        -12    1    6    6    0    0 -0.10500951248E+03 -0.13019292980E+02 -0.73959203771E+02  0.12909865810E+03  0.00000000000E+00 0.  1.
</event>
<event>
12    1  0.9246030E-003  0.1961205E+03  0.7818608E-02  0.1153441E+00
         21   -1    0    0  503  502  0.00000000000E+00  0.00000000000E+00  0.21252263098E+04  0.21252263098E+04  0.00000000000E+00 0. -1.
         21   -1    0    0  501  503 -0.00000000000E+00 -0.00000000000E+00 -0.18268774302E+02  0.18268774302E+02  0.00000000000E+00 0. -1.
          6    2    1    2  501    0  0.40158978166E+02 -0.85535957773E+02  0.91320940785E+03  0.93403141040E+03  0.17185490805E+03 0.  0.
         24    2    3    3    0    0 -0.19704263064E+02  0.80635157808E+01  0.31060661809E+03  0.32125357029E+03  0.79209260523E+02 0.  0.
         -6    2    1    2    0  502 -0.40158978166E+02  0.85535957773E+02  0.11937481277E+04  0.12094636737E+04  0.16981943986E+03 0.  0.
        -24    2    5    5    0    0 -0.81998556552E+02  0.19909570271E+02  0.73061201275E+03  0.73981005243E+03  0.80030283241E+02 0.  0.
          5    1    3    3  501    0  0.59863241230E+02 -0.93599473554E+02  0.60260278976E+03  0.61277784011E+03  0.47000000000E+01 0. -1.
        -13    1    4    4    0    0 -0.35284510443E-01  0.88137066790E+01  0.29744446376E+03  0.29757501860E+03  0.00000000000E+00 0.  1.
         14    1    4    4    0    0 -0.19668978554E+02 -0.75019089819E+00  0.13162154331E+02  0.23678551695E+02  0.00000000000E+00 0. -1.
         -5    1    5    5    0  502  0.41839578386E+02  0.65626387503E+02  0.46313611493E+03  0.46965362131E+03  0.47000000000E+01 0.  1.
         11    1    6    6    0    0 -0.15131216650E+02 -0.67918018860E+00  0.46160347257E+03  0.46185190363E+03  0.00000000000E+00 0. -1.
        -12    1    6    6    0    0 -0.66867339903E+02  0.20588750459E+02  0.26900854019E+03  0.27795814880E+03  0.00000000000E+00 0.  1.
</event>
<event>
12    1  0.9246030E-003  0.3850267E+03  0.7818608E-02  0.1049742E+00
         21   -1    0    0  501  502  0.00000000000E+00  0.00000000000E+00  0.30929441290E+03  0.30929441290E+03  0.00000000000E+00 0.  1.
         21   -1    0    0  502  503 -0.00000000000E+00 -0.00000000000E+00 -0.93726793696E+03  0.93726793696E+03  0.00000000000E+00 0. -1.
          6    2    1    2  501    0 -0.11177740235E+03 -0.32066239338E+03  0.12730764575E+03  0.39880343133E+03  0.16588665398E+03 0.  0.
         24    2    3    3    0    0 -0.14073606339E+03 -0.30292438867E+03  0.11934628347E+03  0.36360806019E+03  0.79984131340E+02 0.  0.
         -6    2    1    2    0  503  0.11177740235E+03  0.32066239338E+03 -0.75528116981E+03  0.84775891854E+03  0.18145792982E+03 0.  0.
        -24    2    5    5    0    0  0.65806196247E+02  0.31431005827E+03 -0.59744053605E+03  0.68317015945E+03  0.81639478556E+02 0.  0.
          5    1    3    3  501    0  0.28958661041E+02 -0.17738004709E+02  0.79613622769E+01  0.35195371140E+02  0.47000000000E+01 0. -1.
        -11    1    4    4    0    0  0.73701506687E+01 -0.41960137404E+02  0.23245167681E+02  0.48531536885E+02  0.00000000000E+00 0.  1.
         12    1    4    4    0    0 -0.14810621406E+03 -0.26096425126E+03  0.96101115791E+02  0.31507652330E+03  0.00000000000E+00 0. -1.
         -5    1    5    5    0  503  0.45971206098E+02  0.63523351019E+01 -0.15784063376E+03  0.16458875909E+03  0.47000000000E+01 0.  1.
         13    1    6    6    0    0  0.78756669111E+02  0.20524299369E+03 -0.42972218563E+03  0.48268877779E+03  0.00000000000E+00 0. -1.
        -14    1    6    6    0    0 -0.12950472863E+02  0.10906706459E+03 -0.16771835042E+03  0.20048138166E+03  0.00000000000E+00 0.  1.
</event>
<event>
12    1  0.9246030E-003  0.1745241E+03  0.7818608E-02  0.1173289E+00
         21   -1    0    0  501  502  0.00000000000E+00  0.00000000000E+00  0.60443507146E+02  0.60443507146E+02  0.00000000000E+00 0. -1.
         21   -1    0    0  502  503 -0.00000000000E+00 -0.00000000000E+00 -0.63052302849E+03  0.63052302849E+03  0.00000000000E+00 0. -1.
          6    2    1    2  501    0 -0.21651423453E+02  0.11730486003E+01 -0.12947409280E+03  0.21705536586E+03  0.17285638825E+03 0.  0.
         24    2    3    3    0    0  0.49759160276E+02  0.41296553125E+01 -0.90440988389E+02  0.13548400917E+03  0.87654527982E+02 0.  0.
         -6    2    1    2    0  503  0.21651423453E+02 -0.11730486003E+01 -0.44060542854E+03  0.47391116978E+03  0.17317185972E+03 0.  0.
        -24    2    5    5    0    0 -0.40249689902E+02  0.39712660869E+02 -0.20051910540E+03  0.22258086593E+03  0.78340265997E+02 0.  0.
          5    1    3    3  501    0 -0.71410583728E+02 -0.29566067122E+01 -0.39033104413E+02  0.81571356687E+02  0.47000000000E+01 0. -1.
        -11    1    4    4    0    0  0.43507986461E+02 -0.19836131711E+02 -0.98454838383E+02  0.10945214574E+03  0.00000000000E+00 0.  1.
         12    1    4    4    0    0  0.62511738151E+01  0.23965787023E+02  0.80138499936E+01  0.26031863426E+02  0.00000000000E+00 0. -1.
         -5    1    5    5    0  503  0.61901113354E+02 -0.40885709469E+02 -0.24008632314E+03  0.25133030385E+03  0.47000000000E+01 0.  1.
         11    1    6    6    0    0 -0.50701842874E+02 -0.33000337627E+01 -0.12669373872E+03  0.13650227296E+03  0.00000000000E+00 0. -1.
        -12    1    6    6    0    0  0.10452152972E+02  0.43012694631E+02 -0.73825366685E+02  0.86078592968E+02  0.00000000000E+00 0.  1.
</event>
<event>
12    1  0.9246030E-003  0.2585111E+03  0.7818608E-02  0.1108192E+00
         21   -1    0    0  503  502  0.00000000000E+00  0.00000000000E+00  0.75584315425E+02  0.75584315425E+02  0.00000000000E+00 0.  1.
         21   -1    0    0  501  503 -0.00000000000E+00 -0.00000000000E+00 -0.91053252120E+03  0.91053252120E+03  0.00000000000E+00 0.  1.
          6    2    1    2  501    0  0.17324753554E+03  0.81693935815E+02 -0.50586053563E+03  0.56763545670E+03  0.17212356745E+03 0.  0.
         24    2    3    3    0    0  0.10670112739E+03  0.11496035845E+03 -0.29048418041E+03  0.33972287762E+03  0.80184536596E+02 0.  0.
         -6    2    1    2    0  502 -0.17324753554E+03 -0.81693935815E+02 -0.32908767015E+03  0.41848137993E+03  0.17360692090E+03 0.  0.
        -24    2    5    5    0    0 -0.14006908183E+03 -0.77672442931E+01 -0.28083925725E+03  0.32405699294E+03  0.80390101979E+02 0.  0.
          5    1    3    3  501    0  0.66546408149E+02 -0.33266422639E+02 -0.21537635522E+03  0.22791257908E+03  0.47000000000E+01 0. -1.
        -11    1    4    4    0    0  0.11350387991E+02  0.20926852092E+02 -0.12299487742E+03  0.12527770878E+03  0.00000000000E+00 0.  1.
         12    1    4    4    0    0  0.95350739400E+02  0.94033506363E+02 -0.16748930299E+03  0.21444516884E+03  0.00000000000E+00 0. -1.
         -5    1    5    5    0  502 -0.33178453714E+02 -0.73926691522E+02 -0.48248412897E+02  0.94424386984E+02  0.47000000000E+01 0.  1.
         11    1    6    6    0    0  0.83012569831E-01 -0.20754224557E+02 -0.41424316378E+02  0.46332695965E+02  0.00000000000E+00 0. -1.
        -12    1    6    6    0    0 -0.14015209440E+03  0.12986980264E+02 -0.23941494087E+03  0.27772429698E+03  0.00000000000E+00 0.  1.
</event>
<event>
12    1  0.9246030E-003  0.1912532E+03  0.7818608E-02  0.1159799E+00
         21   -1    0    0  503  502  0.00000000000E+00  0.00000000000E+00  0.28165584378E+03  0.28165584378E+03  0.00000000000E+00 0.  1.
         21   -1    0    0  501  503 -0.00000000000E+00 -0.00000000000E+00 -0.12849835750E+03  0.12849835750E+03  0.00000000000E+00 0. -1.
          6    2    1    2  501    0  0.19671163184E+02  0.70772339963E+02  0.11796958723E+03  0.21569094462E+03  0.16495478566E+03 0.  0.
         24    2    3    3    0    0  0.20972602074E+02 -0.18237300012E+02  0.39183726631E+02  0.96721572161E+02  0.83947894191E+02 0.  0.
         -6    2    1    2    0  502 -0.19671163184E+02 -0.70772339963E+02  0.35187899053E+02  0.19446325667E+03  0.17658451571E+03 0.  0.
        -24    2    5    5    0    0  0.23013886695E+02 -0.93143935876E+02 -0.12768131263E+02  0.12631362255E+03  0.81158328562E+02 0.  0.
          5    1    3    3  501    0 -0.13014388903E+01  0.89009639975E+02  0.78785860600E+02  0.11896937245E+03  0.47000000000E+01 0. -1.
        -13    1    4    4    0    0 -0.14677796311E+02 -0.99360774557E+00  0.52825769525E+02  0.54835999916E+02  0.00000000000E+00 0.  1.
         14    1    4    4    0    0  0.35650398385E+02 -0.17243692266E+02 -0.13642042894E+02  0.41885572245E+02  0.00000000000E+00 0. -1.
         -5    1    5    5    0  502 -0.42685049878E+02  0.22371595912E+02  0.47956030316E+02  0.68149634118E+02  0.47000000000E+01 0.  1.
         13    1    6    6    0    0  0.45336611161E+02 -0.68572102763E+02  0.14350627466E+02  0.83447481074E+02  0.00000000000E+00 0. -1.
        -14    1    6    6    0    0 -0.22322724467E+02 -0.24571833113E+02 -0.27118758729E+02  0.42866141477E+02  0.00000000000E+00 0.  1.
</event>
<event>
12    1  0.9246030E-003  0.2128168E+03  0.7818608E-02  0.1140919E+00
         21   -1    0    0  501  502  0.00000000000E+00  0.00000000000E+00  0.32308455169E+03  0.32308455169E+03  0.00000000000E+00 0. -1.
         21   -1    0    0  502  503 -0.00000000000E+00 -0.00000000000E+00 -0.16953318427E+03  0.16953318427E+03  0.00000000000E+00 0. -1.
          6    2    1    2  501    0 -0.11719602212E+03  0.43781213614E+02  0.18901003269E+03  0.28463268722E+03  0.17216059917E+03 0.  0.
         24    2    3    3    0    0 -0.33420416226E+02  0.78769761400E+02  0.13331358398E+03  0.17801779605E+03  0.81217144165E+02 0.  0.
         -6    2    1    2    0  503  0.11719602212E+03 -0.43781213614E+02 -0.35458665271E+02  0.20798504875E+03  0.16232301529E+03 0.  0.
        -24    2    5    5    0    0  0.78600767422E+02 -0.84943434507E+02 -0.49374682008E+02  0.14967837987E+03  0.81069664307E+02 0.  0.
          5    1    3    3  501    0 -0.83775605892E+02 -0.34988547785E+02  0.55696448714E+02  0.10661489116E+03  0.47000000000E+01 0. -1.
        -11    1    4    4    0    0 -0.29379532014E+02  0.24771393211E+02  0.11436501109E+03  0.12064880681E+03  0.00000000000E+00 0.  1.
         12    1    4    4    0    0 -0.40408842117E+01  0.53998368188E+02  0.18948572890E+02  0.57368989243E+02  0.00000000000E+00 0. -1.
         -5    1    5    5    0  503  0.38595254696E+02  0.41162220893E+02  0.13916016737E+02  0.58306668879E+02  0.47000000000E+01 0.  1.
         11    1    6    6    0    0  0.76420077357E+02 -0.29833481371E+02 -0.46839763860E+02  0.94467075283E+02  0.00000000000E+00 0. -1.
        -12    1    6    6    0    0  0.21806900648E+01 -0.55109953136E+02 -0.25349181478E+01  0.55211304584E+02  0.00000000000E+00 0.  1.
</event>
<event>
12    1  0.9246030E-003  0.2010810E+03  0.7818608E-02  0.1149094E+00
         21   -1    0    0  503  502  0.00000000000E+00  0.00000000000E+00  0.11566397394E+04  0.11566397394E+04  0.00000000000E+00 0. -1.
         21   -1    0    0  501  503 -0.00000000000E+00 -0.00000000000E+00 -0.38988024963E+02  0.38988024963E+02  0.00000000000E+00 0.  1.
          6    2    1    2  501    0 -0.97375856218E+02 -0.30753686054E+02  0.75772083429E+03  0.78394798428E+03  0.17322162906E+03 0.  0.
         24    2    3    3    0    0 -0.12785966940E+03  0.17281906802E+02  0.46234460828E+03  0.48310602255E+03  0.54608908287E+02 0.  0.
         -6    2    1    2    0  502  0.97375856218E+02  0.30753686054E+02  0.35993088011E+03  0.41167978004E+03  0.17176191736E+03 0.  0.
        -24    2    5    5    0    0 -0.14205615806E+02  0.21899017044E+02  0.11324047944E+03  0.14074238165E+03  0.79395499499E+02 0.  0.
          5    1    3    3  501    0  0.30483813180E+02 -0.48035592856E+02  0.29537622601E+03  0.30084196173E+03  0.47000000000E+01 0. -1.
        -13    1    4    4    0    0 -0.46660995565E+02  0.68707820866E+01  0.87246397770E+02  0.99178576706E+02  0.00000000000E+00 0.  1.
         14    1    4    4    0    0 -0.81198673833E+02  0.10411124715E+02  0.37509821051E+03  0.38392744585E+03  0.00000000000E+00 0. -1.
         -5    1    5    5    0  502  0.11158147202E+03  0.88546690107E+01  0.24669040067E+03  0.27093739838E+03  0.47000000000E+01 0.  1.
         13    1    6    6    0    0 -0.40191097300E+02  0.35431510419E+02  0.81624666546E+02  0.97638631809E+02  0.00000000000E+00 0. -1.
        -14    1    6    6    0    0  0.25985481494E+02 -0.13532493375E+02  0.31615812897E+02  0.43103749843E+02  0.00000000000E+00 0.  1.
</event>
<event>
12    1  0.9246030E-003  0.1897288E+03  0.7818608E-02  0.1159491E+00
         21   -1    0    0  503  502  0.00000000000E+00  0.00000000000E+00  0.52066531815E+02  0.52066531815E+02  0.00000000000E+00 0. -1.
         21   -1    0    0  501  503 -0.00000000000E+00 -0.00000000000E+00 -0.75522057336E+03  0.75522057336E+03  0.00000000000E+00 0. -1.
          6    2    1    2  501    0  0.81450559385E+02 -0.20669249311E+01 -0.47700855455E+03  0.51209430202E+03  0.16752595991E+03 0.  0.
         24    2    3    3    0    0  0.10971633760E+03 -0.10170765204E+02 -0.25348470352E+03  0.28659568024E+03  0.75772487165E+02 0.  0.
         -6    2    1    2    0  502 -0.81450559385E+02  0.20669249311E+01 -0.22614548699E+03  0.29519280315E+03  0.17134335103E+03 0.  0.
        -24    2    5    5    0    0 -0.96828503619E+01 -0.40113991862E+02 -0.50035318736E+02  0.10034230876E+03  0.76564716893E+02 0.  0.
          5    1    3    3  501    0 -0.28265778219E+02  0.81038402732E+01 -0.22352385103E+03  0.22549862178E+03  0.47000000000E+01 0. -1.
        -13    1    4    4    0    0  0.96841711064E+02  0.19101167408E+02 -0.21487793398E+03  0.23646500399E+03  0.00000000000E+00 0.  1.
         14    1    4    4    0    0  0.12874626540E+02 -0.29271932613E+02 -0.38606769542E+02  0.50130676256E+02  0.00000000000E+00 0. -1.
         -5    1    5    5    0  502 -0.71767709023E+02  0.42180916793E+02 -0.17611016825E+03  0.19485049438E+03  0.47000000000E+01 0.  1.
         13    1    6    6    0    0 -0.13987008236E+02 -0.16487625568E+02  0.18037701125E+02  0.28157358863E+02  0.00000000000E+00 0. -1.
        -14    1    6    6    0    0  0.43041578740E+01 -0.23626366294E+02 -0.68073019861E+02  0.72184949902E+02  0.00000000000E+00 0.  1.
</event>
<event>
12    1  0.9246030E-003  0.1773573E+03  0.7818608E-02  0.1170796E+00
         21   -1    0    0  501  502  0.00000000000E+00  0.00000000000E+00  0.11719455173E+03  0.11719455173E+03  0.00000000000E+00 0. -1.
         21   -1    0    0  502  503 -0.00000000000E+00 -0.00000000000E+00 -0.27379155454E+03  0.27379155454E+03  0.00000000000E+00 0. -1.
          6    2    1    2  501    0 -0.25142857180E+02  0.26327887698E+02 -0.44766364456E+02  0.18131564343E+03  0.17188954077E+03 0.  0.
         24    2    3    3    0    0  0.46118081210E+02  0.40559395649E+02 -0.34714716247E+02  0.10780521702E+03  0.81516325376E+02 0.  0.
         -6    2    1    2    0  503  0.25142857180E+02 -0.26327887698E+02 -0.11183063835E+03  0.20967046284E+03  0.17358078918E+03 0.  0.
        -24    2    5    5    0    0  0.11484010932E+02 -0.35206852959E+02 -0.14644281226E+03  0.17112837302E+03  0.80423987642E+02 0.  0.
          5    1    3    3  501    0 -0.71260938390E+02 -0.14231507950E+02 -0.10051648208E+02  0.73510426407E+02  0.47000000000E+01 0. -1.
        -13    1    4    4    0    0  0.50980532461E+01 -0.79680561894E+01 -0.42725819387E+02  0.43760435426E+02  0.00000000000E+00 0.  1.
         14    1    4    4    0    0  0.41020027964E+02  0.48527451838E+02  0.80111031397E+01  0.64044781595E+02  0.00000000000E+00 0. -1.
         -5    1    5    5    0  503  0.13658846249E+02  0.88789652604E+01  0.34612173905E+02  0.38542089816E+02  0.47000000000E+01 0.  1.
         11    1    6    6    0    0  0.11364217535E+02  0.16518136393E+02 -0.98771889036E+02  0.10078631025E+03  0.00000000000E+00 0. -1.
        -12    1    6    6    0    0  0.11979339673E+00 -0.51724989352E+02 -0.47670923221E+02  0.70342062770E+02  0.00000000000E+00 0.  1.
</event>
<event>
12    1  0.9246030E-003  0.1858579E+03  0.7818608E-02  0.1164585E+00
         21   -1    0    0  501  502  0.00000000000E+00  0.00000000000E+00  0.20191627272E+03  0.20191627272E+03  0.00000000000E+00 0.  1.
         21   -1    0    0  502  503 -0.00000000000E+00 -0.00000000000E+00 -0.16411402618E+03  0.16411402618E+03  0.00000000000E+00 0.  1.
          6    2    1    2  501    0 -0.35237000799E+02  0.17305239761E+02 -0.13488509346E+01  0.17609351083E+03  0.17165659792E+03 0.  0.
         24    2    3    3    0    0 -0.22799833088E+02  0.45101679905E+02  0.58979962875E+02  0.10835149284E+03  0.75547442454E+02 0.  0.
         -6    2    1    2    0  503  0.35237000799E+02 -0.17305239761E+02  0.39151097472E+02  0.18993678806E+03  0.18166468418E+03 0.  0.
        -24    2    5    5    0    0  0.69007462199E+00 -0.35106836414E+02  0.89726463151E+02  0.12598098641E+03  0.81162827578E+02 0.  0.
          5    1    3    3  501    0 -0.12437167710E+02 -0.27796440145E+02 -0.60328813810E+02  0.67742017988E+02  0.47000000000E+01 0. -1.
        -13    1    4    4    0    0 -0.40941922038E+02  0.27267194708E+02  0.65666029021E+02  0.82047353735E+02  0.00000000000E+00 0.  1.
         14    1    4    4    0    0  0.18142088950E+02  0.17834485198E+02 -0.66860661461E+01  0.26304139108E+02  0.00000000000E+00 0. -1.
         -5    1    5    5    0  503  0.34546926177E+02  0.17801596653E+02 -0.50575365679E+02  0.63955801654E+02  0.47000000000E+01 0.  1.
         11    1    6    6    0    0  0.14421182521E+02 -0.56462268287E+02  0.79589844511E+02  0.98643304865E+02  0.00000000000E+00 0. -1.
        -12    1    6    6    0    0 -0.13731107899E+02  0.21355431873E+02  0.10136618641E+02  0.27337681542E+02  0.00000000000E+00 0.  1.
</event>
<event>
12    1  0.9246030E-003  0.1781608E+03  0.7818608E-02  0.1169700E+00
         21   -1    0    0  503  502  0.00000000000E+00  0.00000000000E+00  0.15059272930E+03  0.15059272930E+03  0.00000000000E+00 0.  1.
         21   -1    0    0  501  503 -0.00000000000E+00 -0.00000000000E+00 -0.22847701752E+03  0.22847701752E+03  0.00000000000E+00 0.  1.
          6    2    1    2  501    0 -0.16661607301E+02 -0.42265923128E+02 -0.92489692709E+02  0.20073765402E+03  0.17227084799E+03 0.  0.
         24    2    3    3    0    0 -0.38195218130E+02 -0.41365126984E+02 -0.12646373868E+03  0.16023044937E+03  0.80689350505E+02 0.  0.
         -6    2    1    2    0  502  0.16661607301E+02  0.42265923128E+02  0.14605404496E+02  0.17833209281E+03  0.17182840297E+03 0.  0.
        -24    2    5    5    0    0  0.11177525926E+01  0.85087152882E+02 -0.23726701435E+02  0.11861015813E+03  0.79147585518E+02 0.  0.
          5    1    3    3  501    0  0.21533610829E+02 -0.90079614368E+00  0.33974045970E+02  0.40507204651E+02  0.47000000000E+01 0. -1.
        -13    1    4    4    0    0 -0.84372685231E+01 -0.60887977064E+02 -0.92306804956E+02  0.11090121502E+03  0.00000000000E+00 0.  1.
         14    1    4    4    0    0 -0.29757949607E+02  0.19522850080E+02 -0.34156933723E+02  0.49329234348E+02  0.00000000000E+00 0. -1.
         -5    1    5    5    0  502  0.15543854708E+02 -0.42821229754E+02  0.38332105931E+02  0.59721934680E+02  0.47000000000E+01 0.  1.
         11    1    6    6    0    0 -0.19560443398E+02  0.56941108764E+02  0.19270285499E+02  0.63215858109E+02  0.00000000000E+00 0. -1.
        -12    1    6    6    0    0  0.20678195991E+02  0.28146044117E+02 -0.42996986934E+02  0.55394300017E+02  0.00000000000E+00 0.  1.
</event>
<event>
12    1  0.9246030E-003  0.2052497E+03  0.7818608E-02  0.1146388E+00
         21   -1    0    0  501  502  0.00000000000E+00  0.00000000000E+00  0.10404649156E+03  0.10404649156E+03  0.00000000000E+00 0.  1.
         21   -1    0    0  502  503 -0.00000000000E+00 -0.00000000000E+00 -0.39874409812E+03  0.39874409812E+03  0.00000000000E+00 0.  1.
          6    2    1    2  501    0  0.73148946282E+02 -0.85944981193E+02 -0.12592439632E+03  0.24079949451E+03  0.17143551216E+03 0.  0.
         24    2    3    3    0    0  0.22596231285E+02 -0.23266129603E+02  0.67988413916E+01  0.85487668622E+02  0.78803647042E+02 0.  0.
         -6    2    1    2    0  503 -0.73148946282E+02  0.85944981193E+02 -0.16877321024E+03  0.26199109518E+03  0.16558269632E+03 0.  0.
        -24    2    5    5    0    0 -0.73904405527E+02  0.62978146422E+02 -0.49390349275E+02  0.14032596578E+03  0.88452597403E+02 0.  0.
          5    1    3    3  501    0  0.50552714997E+02 -0.62678851590E+02 -0.13272323771E+03  0.15531182589E+03  0.47000000000E+01 0. -1.
        -13    1    4    4    0    0  0.14654482687E+02  0.28861320307E+02  0.47836445000E+01  0.32720221995E+02  0.00000000000E+00 0.  1.
         14    1    4    4    0    0  0.79417485979E+01 -0.52127449911E+02  0.20151968916E+01  0.52767446627E+02  0.00000000000E+00 0. -1.
         -5    1    5    5    0  503  0.75545924475E+00  0.22966834771E+02 -0.11938286097E+03  0.12166512940E+03  0.47000000000E+01 0.  1.
         13    1    6    6    0    0  0.37736927834E+01 -0.13147392682E+02 -0.25552414982E+02  0.28983108926E+02  0.00000000000E+00 0. -1.
        -14    1    6    6    0    0 -0.77678098310E+02  0.76125539105E+02 -0.23837934293E+02  0.11134285685E+03  0.00000000000E+00 0.  1.
</event>
<event>
12    1  0.9246030E-003  0.2185535E+03  0.7818608E-02  0.1135163E+00
         21   -1    0    0  503  502  0.00000000000E+00  0.00000000000E+00  0.53796448976E+03  0.53796448976E+03  0.00000000000E+00 0.  1.
         21   -1    0    0  501  503 -0.00000000000E+00 -0.00000000000E+00 -0.15213252529E+03  0.15213252529E+03  0.00000000000E+00 0. -1.
          6    2    1    2  501    0  0.66912808769E+02  0.11880708051E+03 -0.30207401369E+02  0.22063115923E+03  0.17080156606E+03 0.  0.
         24    2    3    3    0    0  0.67453978485E+00  0.68309286526E+02  0.39164790903E+02  0.11213172819E+03  0.79831259479E+02 0.  0.
         -6    2    1    2    0  502 -0.66912808769E+02 -0.11880708051E+03  0.41603936584E+03  0.46946585582E+03  0.16946087896E+03 0.  0.
        -24    2    5    5    0    0 -0.69536064681E+02 -0.16468156003E+02  0.27423872837E+03  0.29450972495E+03  0.80141334538E+02 0.  0.
          5    1    3    3  501    0  0.66238268984E+02  0.50497793983E+02 -0.69372192273E+02  0.10849943104E+03  0.47000000000E+01 0. -1.
        -11    1    4    4    0    0 -0.33831560679E+02  0.61066264784E+02  0.26024419082E+02  0.74504587652E+02  0.00000000000E+00 0.  1.
         12    1    4    4    0    0  0.34506100464E+02  0.72430217422E+01  0.13140371821E+02  0.37627140534E+02  0.00000000000E+00 0. -1.
         -5    1    5    5    0  502  0.26232559123E+01 -0.10233892451E+03  0.14180063747E+03  0.17495613087E+03  0.47000000000E+01 0.  1.
         13    1    6    6    0    0  0.13140534364E+02  0.89415205059E+01  0.17731405759E+02  0.23812332572E+02  0.00000000000E+00 0. -1.
        -14    1    6    6    0    0 -0.82676599045E+02 -0.25409676509E+02  0.25650732261E+03  0.27069739238E+03  0.00000000000E+00 0.  1.
</event>
<event>
12    1  0.9246030E-003  0.1873629E+03  0.7818608E-02  0.1161045E+00
         21   -1    0    0  501  502  0.00000000000E+00  0.00000000000E+00  0.54122364533E+03  0.54122364533E+03  0.00000000000E+00 0.  1.
         21   -1    0    0  502  503 -0.00000000000E+00 -0.00000000000E+00 -0.11159765644E+03  0.11159765644E+03  0.00000000000E+00 0.  1.
          6    2    1    2  501    0 -0.41767206365E+02  0.59070934793E+02  0.32228950543E+01  0.18739065164E+03  0.17283227246E+03 0.  0.
         24    2    3    3    0    0 -0.93289046640E+02  0.30879027435E+02  0.14098566903E+02  0.12747693114E+03  0.79970230874E+02 0.  0.
         -6    2    1    2    0  503  0.41767206365E+02 -0.59070934793E+02  0.42640309384E+03  0.46543065013E+03  0.17196574306E+03 0.  0.
        -24    2    5    5    0    0 -0.16724778918E+02 -0.67781108748E+02  0.17404010036E+03  0.20618877476E+03  0.85731309152E+02 0.  0.
          5    1    3    3  501    0  0.51521840274E+02  0.28191907359E+02 -0.10875671849E+02  0.59913720498E+02  0.47000000000E+01 0. -1.
        -11    1    4    4    0    0 -0.74829928897E+02  0.13245234627E+02 -0.25677116509E+02  0.80213894129E+02  0.00000000000E+00 0.  1.
         12    1    4    4    0    0 -0.18459117742E+02  0.17633792808E+02  0.39775683413E+02  0.47263037012E+02  0.00000000000E+00 0. -1.
         -5    1    5    5    0  503  0.58491985283E+02  0.87101739549E+01  0.25236299348E+03  0.25924187538E+03  0.47000000000E+01 0.  1.
         13    1    6    6    0    0  0.13455143066E+02 -0.56790866611E+02  0.46372581641E+02  0.74543005932E+02  0.00000000000E+00 0. -1.
        -14    1    6    6    0    0 -0.30179921983E+02 -0.10990242137E+02  0.12766751872E+03  0.13164576882E+03  0.00000000000E+00 0.  1.
</event>
<event>
12    1  0.9246030E-003  0.2191562E+03  0.7818608E-02  0.1134630E+00
         21   -1    0    0  501  502  0.00000000000E+00  0.00000000000E+00  0.84326197105E+02  0.84326197105E+02  0.00000000000E+00 0.  1.
         21   -1    0    0  502  503 -0.00000000000E+00 -0.00000000000E+00 -0.57838783657E+03  0.57838783657E+03  0.00000000000E+00 0. -1.
          6    2    1    2  501    0  0.39908252335E+02 -0.12905947131E+03 -0.29119218359E+03  0.36407469615E+03  0.17178032733E+03 0.  0.
         24    2    3    3    0    0  0.78376933688E+02 -0.75586845846E+02 -0.25534367025E+03  0.28893238432E+03  0.80157456117E+02 0.  0.
         -6    2    1    2    0  503 -0.39908252335E+02  0.12905947131E+03 -0.20286945587E+03  0.29863933752E+03  0.17257004969E+03 0.  0.
        -24    2    5    5    0    0 -0.44727002666E+02  0.11129029405E+03 -0.22582109674E+03  0.26884283045E+03  0.83037734997E+02 0.  0.
          5    1    3    3  501    0 -0.38468681353E+02 -0.53472625464E+02 -0.35848513333E+02  0.75142311830E+02  0.47000000000E+01 0. -1.
        -13    1    4    4    0    0 -0.49820794193E+01 -0.42403557338E+02 -0.56796717854E+02  0.71054556147E+02  0.00000000000E+00 0.  1.
         14    1    4    4    0    0  0.83359013107E+02 -0.33183288509E+02 -0.19854695240E+03  0.21787782817E+03  0.00000000000E+00 0. -1.
         -5    1    5    5    0  503  0.48187503314E+01  0.17769177259E+02  0.22951640866E+02  0.29796507071E+02  0.47000000000E+01 0.  1.
         11    1    6    6    0    0 -0.22966323516E+02  0.83403091648E+02 -0.76795062068E+02  0.11567631249E+03  0.00000000000E+00 0. -1.
        -12    1    6    6    0    0 -0.21760679150E+02  0.27887202403E+02 -0.14902603467E+03  0.15316651796E+03  0.00000000000E+00 0.  1.
</event>
<event>
12    1  0.9246030E-003  0.1951827E+03  0.7818608E-02  0.1154192E+00
         21   -1    0    0  501  502  0.00000000000E+00  0.00000000000E+00  0.24934035706E+03  0.24934035706E+03  0.00000000000E+00 0. -1.
         21   -1    0    0  502  503 -0.00000000000E+00 -0.00000000000E+00 -0.20647760422E+03  0.20647760422E+03  0.00000000000E+00 0. -1.
          6    2    1    2  501    0 -0.67434029229E+02  0.60007698968E+02  0.13883366942E+03  0.23831690101E+03  0.17138227828E+03 0.  0.
         24    2    3    3    0    0 -0.10598067942E+03  0.33891196130E+02  0.13322069467E+03  0.19118398845E+03  0.80143910351E+02 0.  0.
         -6    2    1    2    0  503  0.67434029229E+02 -0.60007698968E+02 -0.95970916576E+02  0.21750106026E+03  0.17305496859E+03 0.  0.
        -24    2    5    5    0    0  0.38204773308E+02 -0.81404050718E+02 -0.12326991644E+03  0.17189975915E+03  0.79169632547E+02 0.  0.
          5    1    3    3  501    0  0.38546650189E+02  0.26116502838E+02  0.56129747545E+01  0.47132912565E+02  0.47000000000E+01 0. -1.
        -13    1    4    4    0    0 -0.66004003986E+02  0.38235246707E+01  0.22756002277E+02  0.69921266598E+02  0.00000000000E+00 0.  1.
         14    1    4    4    0    0 -0.39976675432E+02  0.30067671459E+02  0.11046469239E+03  0.12126272185E+03  0.00000000000E+00 0. -1.
         -5    1    5    5    0  503  0.29229255921E+02  0.21396351750E+02  0.27298999867E+02  0.45601301118E+02  0.47000000000E+01 0.  1.
         11    1    6    6    0    0  0.39013030936E+02 -0.16865234522E+02 -0.89445370894E+02  0.99029930287E+02  0.00000000000E+00 0. -1.
        -12    1    6    6    0    0 -0.80825762720E+00 -0.64538816196E+02 -0.33824545549E+02  0.72869828859E+02  0.00000000000E+00 0.  1.
</event>
<event>
12    1  0.9246030E-003  0.1831056E+03  0.7818608E-02  0.1165150E+00
         21   -1    0    0  503  502  0.00000000000E+00  0.00000000000E+00  0.18026833681E+03  0.18026833681E+03  0.00000000000E+00 0.  1.
         21   -1    0    0  501  503 -0.00000000000E+00 -0.00000000000E+00 -0.30209807991E+03  0.30209807991E+03  0.00000000000E+00 0.  1.
          6    2    1    2  501    0  0.59086401967E+02  0.74177947758E+01 -0.21144976116E+03  0.27971173557E+03  0.17315145666E+03 0.  0.
         24    2    3    3    0    0  0.10107265798E+02  0.67094370137E+02 -0.10799600186E+03  0.15054122910E+03  0.79973207490E+02 0.  0.
         -6    2    1    2    0  502 -0.59086401967E+02 -0.74177947758E+01  0.89620018056E+02  0.20265468115E+03  0.17172927991E+03 0.  0.
        -24    2    5    5    0    0 -0.60802776102E+02 -0.62398515294E+02  0.32451257032E+02  0.12318026510E+03  0.80806814906E+02 0.  0.
          5    1    3    3  501    0  0.48979136169E+02 -0.59676575361E+02 -0.10345375930E+03  0.12917050646E+03  0.47000000000E+01 0. -1.
        -13    1    4    4    0    0  0.25480275384E+02  0.26620529225E+02 -0.99921355980E+02  0.10649964503E+03  0.00000000000E+00 0.  1.
         14    1    4    4    0    0 -0.15373009586E+02  0.40473840911E+02 -0.80746458785E+01  0.44041584076E+02  0.00000000000E+00 0. -1.
         -5    1    5    5    0  502  0.17163741343E+01  0.54980720518E+02  0.57168761024E+02  0.79474416046E+02  0.47000000000E+01 0.  1.
         13    1    6    6    0    0 -0.14514274774E+02  0.11572118979E+02 -0.14988411941E+02  0.23858554072E+02  0.00000000000E+00 0. -1.
        -14    1    6    6    0    0 -0.46288501327E+02 -0.73970634273E+02  0.47439668973E+02  0.99321711031E+02  0.00000000000E+00 0.  1.
</event>
<event>
12    1  0.9246030E-003  0.2263394E+03  0.7818608E-02  0.1132229E+00
         21   -1    0    0  503  502  0.00000000000E+00  0.00000000000E+00  0.58758492647E+03  0.58758492647E+03  0.00000000000E+00 0. -1.
         21   -1    0    0  501  503 -0.00000000000E+00 -0.00000000000E+00 -0.96653460247E+02  0.96653460247E+02  0.00000000000E+00 0.  1.
          6    2    1    2  501    0  0.47078917752E+02 -0.11137141991E+03  0.10093103486E+03  0.23331724738E+03  0.17213322300E+03 0.  0.
         24    2    3    3    0    0 -0.71379069480E+00 -0.12858668884E+03  0.51763672734E+02  0.16246509171E+03  0.84737135698E+02 0.  0.
         -6    2    1    2    0  502 -0.47078917752E+02  0.11137141991E+03  0.39000043137E+03  0.45092113933E+03  0.19133614338E+03 0.  0.
        -24    2    5    5    0    0  0.53089349951E+02  0.44963622885E+02  0.16207949791E+03  0.19321254563E+03  0.78874062189E+02 0.  0.
          5    1    3    3  501    0  0.47792708446E+02  0.17215268931E+02  0.49167362121E+02  0.70852155669E+02  0.47000000000E+01 0. -1.
        -13    1    4    4    0    0 -0.40461660015E+00  0.43990657376E+01 -0.13588676497E+02  0.14288723627E+02  0.00000000000E+00 0.  1.
         14    1    4    4    0    0 -0.30917409466E+00 -0.13298575458E+03  0.65352349231E+02  0.14817636809E+03  0.00000000000E+00 0. -1.
         -5    1    5    5    0  502 -0.10016826770E+03  0.66407797024E+02  0.22792093346E+03  0.25770859370E+03  0.47000000000E+01 0.  1.
         11    1    6    6    0    0  0.61975045277E+02  0.11483776644E+02  0.66849444233E+02  0.91878351952E+02  0.00000000000E+00 0. -1.
        -12    1    6    6    0    0 -0.88856953266E+01  0.33479846241E+02  0.95230053675E+02  0.10133419368E+03  0.00000000000E+00 0.  1.
</event>
<event>
12    1  0.9246030E-003  0.4369035E+03  0.7818608E-02  0.1031707E+00
         21   -1    0    0  503  502  0.00000000000E+00  0.00000000000E+00  0.66436090419E+03  0.66436090419E+03  0.00000000000E+00 0. -1.
         21   -1    0    0  501  503 -0.00000000000E+00 -0.00000000000E+00 -0.33072057462E+03  0.33072057462E+03  0.00000000000E+00 0.  1.
          6    2    1    2  501    0 -0.35800252874E+03  0.18130861724E+03 -0.13530015531E+02  0.43703857567E+03  0.17257181125E+03 0.  0.
         24    2    3    3    0    0 -0.10916983934E+03  0.12242448822E+03 -0.35662469644E+01  0.18109636609E+03  0.76663984732E+02 0.  0.
         -6    2    1    2    0  502  0.35800252874E+03 -0.18130861724E+03  0.34717034510E+03  0.55804290314E+03  0.17275997209E+03 0.  0.
        -24    2    5    5    0    0  0.28514886046E+03 -0.18572649667E+03  0.22522198112E+03  0.41584350751E+03  0.79979233349E+02 0.  0.
          5    1    3    3  501    0 -0.24883268940E+03  0.58884129019E+02 -0.99637685668E+01  0.25594220959E+03  0.47000000000E+01 0. -1.
        -13    1    4    4    0    0 -0.57136882669E+02  0.32369219364E+02 -0.32315657633E+02  0.73189421720E+02  0.00000000000E+00 0.  1.
         14    1    4    4    0    0 -0.52032956667E+02  0.90055268857E+02  0.28749410669E+02  0.10790694437E+03  0.00000000000E+00 0. -1.
         -5    1    5    5    0  502  0.72853668272E+02  0.44178794302E+01  0.12194836398E+03  0.14219939563E+03  0.47000000000E+01 0.  1.
         11    1    6    6    0    0  0.19971579430E+03 -0.16079473964E+03  0.19402051974E+03  0.32153585938E+03  0.00000000000E+00 0. -1.
        -12    1    6    6    0    0  0.85433066165E+02 -0.24931757033E+02  0.31201461382E+02  0.94307648128E+02  0.00000000000E+00 0.  1.
</event>
<event>
12    1  0.9246030E-003  0.2059119E+03  0.7818608E-02  0.1145098E+00
         21   -1    0    0  503  502  0.00000000000E+00  0.00000000000E+00  0.10171972832E+03  0.10171972832E+03  0.00000000000E+00 0.  1.
         21   -1    0    0  501  503 -0.00000000000E+00 -0.00000000000E+00 -0.51791751795E+03  0.51791751795E+03  0.00000000000E+00 0.  1.
          6    2    1    2  501    0 -0.10669076076E+03  0.24070240602E+02 -0.34716700621E+03  0.40363924243E+03  0.17446321364E+03 0.  0.
         24    2    3    3    0    0 -0.13538908168E+03  0.32651868585E+02 -0.33202496295E+03  0.36974810146E+03  0.84123329422E+02 0.  0.
         -6    2    1    2    0  502  0.10669076076E+03 -0.24070240602E+02 -0.69030783420E+02  0.21599800383E+03  0.17299593546E+03 0.  0.
        -24    2    5    5    0    0  0.26853018623E+02  0.27437107232E+02 -0.84556668372E+02  0.11961224215E+03  0.75388187700E+02 0.  0.
          5    1    3    3  501    0  0.28698320916E+02 -0.85816279829E+01 -0.15142043263E+02  0.33891140972E+02  0.47000000000E+01 0. -1.
        -13    1    4    4    0    0 -0.40347322139E+01  0.26643399948E+02 -0.94368748960E+02  0.98140769332E+02  0.00000000000E+00 0.  1.
         14    1    4    4    0    0 -0.13135434947E+03  0.60084686374E+01 -0.23765621399E+03  0.27160733213E+03  0.00000000000E+00 0. -1.
         -5    1    5    5    0  502  0.79837742142E+02 -0.51507347834E+02  0.15525884952E+02  0.96385761680E+02  0.47000000000E+01 0.  1.
         13    1    6    6    0    0  0.37098561689E+02  0.21412575004E+01 -0.84511176441E+02  0.92320242670E+02  0.00000000000E+00 0. -1.
        -14    1    6    6    0    0 -0.10245543066E+02  0.25295849731E+02 -0.45491930299E-01  0.27291999485E+02  0.00000000000E+00 0.  1.
</event>
<event>
12    1  0.9246030E-003  0.2587477E+03  0.7818608E-02  0.1108003E+00
         21   -1    0    0  503  502  0.00000000000E+00  0.00000000000E+00  0.22874071329E+04  0.22874071329E+04  0.00000000000E+00 0.  1.
         21   -1    0    0  501  503 -0.00000000000E+00 -0.00000000000E+00 -0.36369584912E+02  0.36369584912E+02  0.00000000000E+00 0. -1.
          6    2    1    2  501    0 -0.49188454061E+01 -0.19352149314E+03  0.60808382513E+03  0.66057279335E+03  0.17063327217E+03 0.  0.
         24    2    3    3    0    0  0.20149990338E+02 -0.21158854845E+03  0.54475284413E+03  0.58994866030E+03  0.78153852482E+02 0.  0.
         -6    2    1    2    0  502  0.49188454061E+01  0.19352149314E+03  0.16429537229E+04  0.16632039245E+04  0.17168458165E+03 0.  0.
        -24    2    5    5    0    0 -0.35167337560E+02  0.32522929264E+02  0.63093103742E+03  0.63766043662E+03  0.79008707686E+02 0.  0.
          5    1    3    3  501    0 -0.25068835744E+02  0.18067055314E+02  0.63330981009E+02  0.70624133048E+02  0.47000000000E+01 0. -1.
        -13    1    4    4    0    0  0.39875490359E+02 -0.11700657522E+03  0.37216489369E+03  0.39215724075E+03  0.00000000000E+00 0.  1.
         14    1    4    4    0    0 -0.19725500021E+02 -0.94581973237E+02  0.17258795044E+03  0.19779141955E+03  0.00000000000E+00 0. -1.
         -5    1    5    5    0  502  0.40086182966E+02  0.16099856388E+03  0.10120226854E+04  0.10255434879E+04  0.47000000000E+01 0.  1.
         11    1    6    6    0    0  0.16762943431E+02 -0.14035934219E+02  0.18886150443E+03  0.19012278027E+03  0.00000000000E+00 0. -1.
        -12    1    6    6    0    0 -0.51930280991E+02  0.46558863483E+02  0.44206953299E+03  0.44753765635E+03  0.00000000000E+00 0.  1.
</event>
<event>
12    1  0.9246030E-003  0.1782505E+03  0.7818608E-02  0.1170031E+00
         21   -1    0    0  503  502  0.00000000000E+00  0.00000000000E+00  0.45750253231E+02  0.45750253231E+02  0.00000000000E+00 0.  1.
         21   -1    0    0  501  503 -0.00000000000E+00 -0.00000000000E+00 -0.71084716421E+03  0.71084716421E+03  0.00000000000E+00 0.  1.
          6    2    1    2  501    0  0.17817708265E+02 -0.42026830463E+02 -0.40484819935E+03  0.44235200757E+03  0.17230643887E+03 0.  0.
         24    2    3    3    0    0  0.61351069132E+02 -0.16254447275E+02 -0.36079012959E+03  0.37510193133E+03  0.80646019969E+02 0.  0.
         -6    2    1    2    0  502 -0.17817708265E+02  0.42026830463E+02 -0.26024871163E+03  0.31424540987E+03  0.17010896659E+03 0.  0.
        -24    2    5    5    0    0  0.38727863461E+02 -0.87783338839E+01 -0.19778661780E+03  0.21574581814E+03  0.76484019966E+02 0.  0.
          5    1    3    3  501    0 -0.43533360867E+02 -0.25772383188E+02 -0.44058069762E+02  0.67250076244E+02  0.47000000000E+01 0. -1.
        -11    1    4    4    0    0 -0.19807912286E+02 -0.66535218828E+01 -0.74940210868E+02  0.77798829988E+02  0.00000000000E+00 0.  1.
         12    1    4    4    0    0  0.81158981418E+02 -0.96009253926E+01 -0.28584991872E+03  0.29730310134E+03  0.00000000000E+00 0. -1.
         -5    1    5    5    0  502 -0.56545571726E+02  0.50805164347E+02 -0.62462093834E+02  0.98499591736E+02  0.47000000000E+01 0.  1.
         11    1    6    6    0    0  0.11102484559E+02  0.32730686565E+02 -0.10300685428E+03  0.10865070195E+03  0.00000000000E+00 0. -1.
        -12    1    6    6    0    0  0.27625378902E+02 -0.41509020449E+02 -0.94779763519E+02  0.10709511619E+03  0.00000000000E+00 0.  1.
</event>
<event>
12    1  0.9246030E-003  0.1880443E+03  0.7818608E-02  0.1160614E+00
         21   -1    0    0  503  502  0.00000000000E+00  0.00000000000E+00  0.25708577176E+03  0.25708577176E+03  0.00000000000E+00 0. -1.
         21   -1    0    0  501  503 -0.00000000000E+00 -0.00000000000E+00 -0.13960186714E+03  0.13960186714E+03  0.00000000000E+00 0. -1.
          6    2    1    2  501    0 -0.59872668152E+02 -0.51270497014E+02  0.28702188870E+02  0.19022215430E+03  0.17072566323E+03 0.  0.
         24    2    3    3    0    0 -0.10271421500E+02 -0.27578822127E+02  0.78827341117E+02  0.11568223200E+03  0.79388510273E+02 0.  0.
         -6    2    1    2    0  502  0.59872668152E+02  0.51270497014E+02  0.88781715752E+02  0.20646548460E+03  0.16891537238E+03 0.  0.
        -24    2    5    5    0    0  0.35757965813E+02  0.69829517344E+02 -0.98066592659E+00  0.11156906070E+03  0.79321497646E+02 0.  0.
          5    1    3    3  501    0 -0.49601246652E+02 -0.23691674887E+02 -0.50125152247E+02  0.74539922298E+02  0.47000000000E+01 0. -1.
        -11    1    4    4    0    0  0.31645124542E+02 -0.27983436604E+02  0.45878520174E+02  0.62364454979E+02  0.00000000000E+00 0.  1.
         12    1    4    4    0    0 -0.41916546042E+02  0.40461447710E+00  0.32948820943E+02  0.53317777021E+02  0.00000000000E+00 0. -1.
         -5    1    5    5    0  502  0.24114702339E+02 -0.18559020330E+02  0.89762381678E+02  0.94896423900E+02  0.47000000000E+01 0.  1.
         13    1    6    6    0    0  0.31728911518E+02  0.53945932259E+02  0.35232637121E+02  0.71820791919E+02  0.00000000000E+00 0. -1.
        -14    1    6    6    0    0  0.40290542948E+01  0.15883585085E+02 -0.36213303048E+02  0.39748268784E+02  0.00000000000E+00 0.  1.
</event>
<event>
12    1  0.9246030E-003  0.1929408E+03  0.7818608E-02  0.1155865E+00
         21   -1    0    0  501  502  0.00000000000E+00  0.00000000000E+00  0.25162824970E+03  0.25162824970E+03  0.00000000000E+00 0.  1.
         21   -1    0    0  502  503 -0.00000000000E+00 -0.00000000000E+00 -0.18103350248E+03  0.18103350248E+03  0.00000000000E+00 0.  1.
          6    2    1    2  501    0  0.44693069441E+02 -0.75374053906E+02  0.12794116694E+03  0.23150611013E+03  0.17189362516E+03 0.  0.
         24    2    3    3    0    0 -0.19739108452E+02 -0.93253625655E+02  0.96441417921E+02  0.15744188920E+03  0.80007063959E+02 0.  0.
         -6    2    1    2    0  503 -0.44693069441E+02  0.75374053906E+02 -0.57346419723E+02  0.20115564205E+03  0.17174475833E+03 0.  0.
        -24    2    5    5    0    0 -0.11882021735E+02 -0.27972566662E+02 -0.32712177986E+02  0.89863123432E+02  0.77984918018E+02 0.  0.
          5    1    3    3  501    0  0.64432177893E+02  0.17879571749E+02  0.31499749018E+02  0.74064220932E+02  0.47000000000E+01 0. -1.
        -13    1    4    4    0    0 -0.38063968354E+02 -0.12216404484E+02  0.20708384603E+02  0.45021588357E+02  0.00000000000E+00 0.  1.
         14    1    4    4    0    0  0.18324859902E+02 -0.81037221171E+02  0.75733033318E+02  0.11242030084E+03  0.00000000000E+00 0. -1.
         -5    1    5    5    0  503 -0.32811047706E+02  0.10334662057E+03 -0.24634241737E+02  0.11129251862E+03  0.47000000000E+01 0.  1.
         13    1    6    6    0    0 -0.26224375032E+02 -0.44066080290E+01 -0.50475365189E+02  0.57051718038E+02  0.00000000000E+00 0. -1.
        -14    1    6    6    0    0  0.14342353296E+02 -0.23565958633E+02  0.17763187203E+02  0.32811405394E+02  0.00000000000E+00 0.  1.
</event>
<event>
12    1  0.9246030E-003  0.2218365E+03  0.7818608E-02  0.1136208E+00
         21   -1    0    0  503  502  0.00000000000E+00  0.00000000000E+00  0.10640213295E+03  0.10640213295E+03  0.00000000000E+00 0.  1.
         21   -1    0    0  501  503 -0.00000000000E+00 -0.00000000000E+00 -0.44714555821E+03  0.44714555821E+03  0.00000000000E+00 0. -1.
          6    2    1    2  501    0  0.10608078110E+03 -0.20102198960E+02 -0.22655188313E+03  0.30404591144E+03  0.17164186549E+03 0.  0.
         24    2    3    3    0    0  0.52015320538E+01 -0.17358647394E+02 -0.17108621562E+03  0.18879540066E+03  0.77748514830E+02 0.  0.
         -6    2    1    2    0  502 -0.10608078110E+03  0.20102198960E+02 -0.11419154213E+03  0.24950177973E+03  0.19378905870E+03 0.  0.
        -24    2    5    5    0    0 -0.15292589295E+03  0.24614708524E+02 -0.79216210319E+02  0.19067839083E+03  0.78043757859E+02 0.  0.
          5    1    3    3  501    0  0.10087924905E+03 -0.27435515654E+01 -0.55465667512E+02  0.11525051078E+03  0.47000000000E+01 0. -1.
        -11    1    4    4    0    0  0.35225863787E+02 -0.17939127702E+02 -0.48422595877E+02  0.62509371887E+02  0.00000000000E+00 0.  1.
         12    1    4    4    0    0 -0.30024331733E+02  0.58048030795E+00 -0.12266361974E+03  0.12628602877E+03  0.00000000000E+00 0. -1.
         -5    1    5    5    0  502  0.46845111847E+02 -0.45125095641E+01 -0.34975331810E+02  0.58823388901E+02  0.47000000000E+01 0.  1.
         13    1    6    6    0    0 -0.63080047755E+02  0.12106571945E+01 -0.74624394208E+02  0.97720818286E+02  0.00000000000E+00 0. -1.
        -14    1    6    6    0    0 -0.89845845194E+02  0.23404051329E+02 -0.45918161107E+01  0.92957572539E+02  0.00000000000E+00 0.  1.
</event>
<event>
12    1  0.9246030E-003  0.1785444E+03  0.7818608E-02  0.1169879E+00
         21   -1    0    0  503  502  0.00000000000E+00  0.00000000000E+00  0.25132919415E+03  0.25132919415E+03  0.00000000000E+00 0. -1.
         21   -1    0    0  501  503 -0.00000000000E+00 -0.00000000000E+00 -0.13891216225E+03  0.13891216225E+03  0.00000000000E+00 0. -1.
          6    2    1    2  501    0  0.55024416708E+01  0.54395499367E+02 -0.60438446332E+01  0.17597264391E+03  0.16715470718E+03 0.  0.
         24    2    3    3    0    0  0.89364548746E+01 -0.27890778626E+02  0.24289798238E+02  0.88080415120E+02  0.79438085772E+02 0.  0.
         -6    2    1    2    0  502 -0.55024416708E+01 -0.54395499367E+02  0.11846087652E+03  0.21426871249E+03  0.16996751062E+03 0.  0.
        -24    2    5    5    0    0  0.39899160858E+02 -0.61241697171E+02  0.27413225769E+02  0.11219060198E+03  0.80577650226E+02 0.  0.
          5    1    3    3  501    0 -0.34340132037E+01  0.82286277994E+02 -0.30333642871E+02  0.87892228795E+02  0.47000000000E+01 0. -1.
        -13    1    4    4    0    0  0.43982516292E+02 -0.91552699903E+01  0.12863415682E+02  0.46730591383E+02  0.00000000000E+00 0.  1.
         14    1    4    4    0    0 -0.35046061418E+02 -0.18735508636E+02  0.11426382556E+02  0.41349823737E+02  0.00000000000E+00 0. -1.
         -5    1    5    5    0  502 -0.45401602529E+02  0.68461978040E+01  0.91047650755E+02  0.10207811051E+03  0.47000000000E+01 0.  1.
         13    1    6    6    0    0  0.18824041538E+02  0.51552985427E+01  0.37039648119E+02  0.41867137180E+02  0.00000000000E+00 0. -1.
        -14    1    6    6    0    0  0.21075119320E+02 -0.66396995714E+02 -0.96264223495E+01  0.70323464800E+02  0.00000000000E+00 0.  1.
</event>
<event>
12    1  0.9246030E-003  0.2134812E+03  0.7818608E-02  0.1138898E+00
         21   -1    0    0  501  502  0.00000000000E+00  0.00000000000E+00  0.91959241123E+02  0.91959241123E+02  0.00000000000E+00 0. -1.
         21   -1    0    0  502  503 -0.00000000000E+00 -0.00000000000E+00 -0.49489508509E+03  0.49489508509E+03  0.00000000000E+00 0. -1.
          6    2    1    2  501    0 -0.12341330069E+03 -0.15289743443E+02 -0.20341559244E+03  0.29487647414E+03  0.17352121688E+03 0.  0.
         24    2    3    3    0    0 -0.67168328342E+02 -0.37461790275E+02 -0.20672162011E+03  0.23414661003E+03  0.78586491857E+02 0.  0.
         -6    2    1    2    0  503  0.12341330069E+03  0.15289743443E+02 -0.19952025152E+03  0.29197785208E+03  0.17314189641E+03 0.  0.
        -24    2    5    5    0    0 -0.90828527151E-01  0.15875242365E+02 -0.36565858549E+02  0.87454413486E+02  0.77840740340E+02 0.  0.
          5    1    3    3  501    0 -0.56244972353E+02  0.22172046832E+02  0.33060276695E+01  0.60729864109E+02  0.47000000000E+01 0. -1.
        -11    1    4    4    0    0  0.30688305012E+01 -0.28922098198E+01 -0.10832918456E+03  0.10841123017E+03  0.00000000000E+00 0.  1.
         12    1    4    4    0    0 -0.70237158843E+02 -0.34569580455E+02 -0.98392435552E+02  0.12573537986E+03  0.00000000000E+00 0. -1.
         -5    1    5    5    0  503  0.12350412922E+03 -0.58549892181E+00 -0.16295439298E+03  0.20452343859E+03  0.47000000000E+01 0.  1.
         11    1    6    6    0    0  0.12674047047E+02  0.45382832739E+02 -0.18883581272E+02  0.50762413434E+02  0.00000000000E+00 0. -1.
        -12    1    6    6    0    0 -0.12764875575E+02 -0.29507590374E+02 -0.17682277278E+02  0.36692000052E+02  0.00000000000E+00 0.  1.
</event>
<event>
12    1  0.9246030E-003  0.1730239E+03  0.7818608E-02  0.1174814E+00
         21   -1    0    0  501  502  0.00000000000E+00  0.00000000000E+00  0.13018069759E+04  0.13018069759E+04  0.00000000000E+00 0. -1.
         21   -1    0    0  502  503 -0.00000000000E+00 -0.00000000000E+00 -0.27233785959E+02  0.27233785959E+02  0.00000000000E+00 0. -1.
          6    2    1    2  501    0  0.26037875059E+02 -0.83606171669E+01  0.90124836490E+03  0.91770686371E+03  0.17084906093E+03 0.  0.
         24    2    3    3    0    0  0.70707318331E+02  0.31897556899E+02  0.55541490127E+03  0.56665280191E+03  0.81195482404E+02 0.  0.
         -6    2    1    2    0  503 -0.26037875059E+02  0.83606171669E+01  0.37332482504E+03  0.41133389814E+03  0.17051768211E+03 0.  0.
        -24    2    5    5    0    0 -0.59639590555E+02 -0.31536193582E+02  0.15599599727E+03  0.18778359022E+03  0.79853073355E+02 0.  0.
          5    1    3    3  501    0 -0.44669443272E+02 -0.40258174066E+02  0.34583346363E+03  0.35105406180E+03  0.47000000000E+01 0. -1.
        -11    1    4    4    0    0  0.30570833900E+02  0.51253104124E+00  0.43272906177E+03  0.43380788313E+03  0.00000000000E+00 0.  1.
         12    1    4    4    0    0  0.40136484431E+02  0.31385025858E+02  0.12268583950E+03  0.13284491878E+03  0.00000000000E+00 0. -1.
         -5    1    5    5    0  503  0.33601715496E+02  0.39896810749E+02  0.21732882777E+03  0.22355030792E+03  0.47000000000E+01 0.  1.
         13    1    6    6    0    0 -0.39572237432E+02 -0.20856164970E+00  0.14300115568E+03  0.14837565838E+03  0.00000000000E+00 0. -1.
        -14    1    6    6    0    0 -0.20067353123E+02 -0.31327631932E+02  0.12994841585E+02  0.39407931837E+02  0.00000000000E+00 0.  1.
</event>
<event>
12    1  0.9246030E-003  0.1781491E+03  0.7818608E-02  0.1169819E+00
         21   -1    0    0  501  502  0.00000000000E+00  0.00000000000E+00  0.32416208024E+02  0.32416208024E+02  0.00000000000E+00 0. -1.
         21   -1    0    0  502  503 -0.00000000000E+00 -0.00000000000E+00 -0.10057698956E+04  0.10057698956E+04  0.00000000000E+00 0. -1.
          6    2    1    2  501    0  0.95770371649E+00  0.47368561990E+02 -0.57734899610E+03  0.60395479194E+03  0.17083567994E+03 0.  0.
         24    2    3    3    0    0 -0.44790316516E+02  0.41576892572E+02 -0.22404764586E+03  0.24762578824E+03  0.85944010482E+02 0.  0.
         -6    2    1    2    0  503 -0.95770371649E+00 -0.47368561990E+02 -0.39600469150E+03  0.43423131172E+03  0.17173356842E+03 0.  0.
        -24    2    5    5    0    0  0.24019638536E+02 -0.73242200765E+02 -0.37657233565E+03  0.39308499641E+03  0.82266198507E+02 0.  0.
          5    1    3    3  501    0  0.45748020233E+02  0.57916694175E+01 -0.35330135024E+03  0.35632900369E+03  0.47000000000E+01 0. -1.
        -13    1    4    4    0    0 -0.16857393829E+02 -0.26413218883E+02 -0.55218479321E+02  0.63489450439E+02  0.00000000000E+00 0.  1.
         14    1    4    4    0    0 -0.27932922687E+02  0.67990111456E+02 -0.16882916654E+03  0.18413633780E+03  0.00000000000E+00 0. -1.
         -5    1    5    5    0  503 -0.24977342253E+02  0.25873638775E+02 -0.19432355852E+02  0.41146315308E+02  0.47000000000E+01 0.  1.
         11    1    6    6    0    0 -0.86332350367E+00  0.11691465854E+02 -0.83936886535E+01  0.14418380995E+02  0.00000000000E+00 0. -1.
        -12    1    6    6    0    0  0.24882962040E+02 -0.84933666619E+02 -0.36817864700E+03  0.37866661542E+03  0.00000000000E+00 0.  1.
</event>
<event>
12    1  0.9246030E-003  0.2205939E+03  0.7818608E-02  0.1136937E+00
         21   -1    0    0  503  502  0.00000000000E+00  0.00000000000E+00  0.72733230415E+03  0.72733230415E+03  0.00000000000E+00 0.  1.
         21   -1    0    0  501  503 -0.00000000000E+00 -0.00000000000E+00 -0.61721957403E+02  0.61721957403E+02  0.00000000000E+00 0. -1.
          6    2    1    2  501    0  0.10579833655E+03  0.29324493161E+02  0.33884731113E+03  0.39480087104E+03  0.17028509504E+03 0.  0.
         24    2    3    3    0    0 -0.10299453806E+02  0.43026190154E+02  0.10015154761E+03  0.12897350046E+03  0.68165237056E+02 0.  0.
         -6    2    1    2    0  502 -0.10579833655E+03 -0.29324493161E+02  0.32676303561E+03  0.39425339052E+03  0.19133332322E+03 0.  0.
        -24    2    5    5    0    0 -0.10622917601E+03 -0.23923682159E+02  0.34720421771E+03  0.37259037346E+03  0.80098921311E+02 0.  0.
          5    1    3    3  501    0  0.11609779036E+03 -0.13701696994E+02  0.23869576352E+03  0.26582737058E+03  0.47000000000E+01 0. -1.
        -13    1    4    4    0    0 -0.12042812605E+02 -0.10145792260E+01  0.79298416236E+02  0.80214073105E+02  0.00000000000E+00 0.  1.
         14    1    4    4    0    0  0.17433587994E+01  0.44040769380E+02  0.20853131377E+02  0.48759427353E+02  0.00000000000E+00 0. -1.
         -5    1    5    5    0  502  0.43083945910E+00 -0.54008110018E+01 -0.20441182101E+02  0.21663017052E+02  0.47000000000E+01 0.  1.
         11    1    6    6    0    0  0.64658040464E+01  0.14575717804E+02  0.35763502887E+02  0.39157199980E+02  0.00000000000E+00 0. -1.
        -12    1    6    6    0    0 -0.11269498006E+03 -0.38499399963E+02  0.31144071483E+03  0.33343317348E+03  0.00000000000E+00 0.  1.
</event>
<event>
12    1  0.9246030E-003  0.1766230E+03  0.7818608E-02  0.1171694E+00
         21   -1    0    0  501  502  0.00000000000E+00  0.00000000000E+00  0.20674563474E+04  0.20674563474E+04  0.00000000000E+00 0.  1.
         21   -1    0    0  502  503 -0.00000000000E+00 -0.00000000000E+00 -0.24656127441E+02  0.24656127441E+02  0.00000000000E+00 0.  1.
          6    2    1    2  501    0  0.29308256978E+02  0.23498322133E+02  0.16838221187E+04  0.16930601342E+04  0.17258199684E+03 0.  0.
         24    2    3    3    0    0  0.68697439390E+02 -0.27495542142E+02  0.91012587091E+03  0.91667114942E+03  0.80508088244E+02 0.  0.
         -6    2    1    2    0  503 -0.29308256978E+02 -0.23498322133E+02  0.35897810120E+03  0.39905234055E+03  0.17019503015E+03 0.  0.
        -24    2    5    5    0    0 -0.52909615361E+02  0.22004708616E+02  0.16872168000E+03  0.20195554775E+03  0.95054738784E+02 0.  0.
          5    1    3    3  501    0 -0.39389182412E+02  0.50993864274E+02  0.77369624780E+03  0.77638898482E+03  0.47000000000E+01 0. -1.
        -13    1    4    4    0    0  0.44596032728E+02 -0.30774092209E+02  0.85119658967E+03  0.85291938960E+03  0.00000000000E+00 0.  1.
         14    1    4    4    0    0  0.24101406662E+02  0.32785500667E+01  0.58929281241E+02  0.63751759828E+02  0.00000000000E+00 0. -1.
         -5    1    5    5    0  503  0.23601358383E+02 -0.45503030749E+02  0.19025642120E+03  0.19709679280E+03  0.47000000000E+01 0.  1.
         13    1    6    6    0    0  0.75902543384E+01  0.26829630116E+02  0.12259129126E+03  0.12572217667E+03  0.00000000000E+00 0. -1.
        -14    1    6    6    0    0 -0.60499869699E+02 -0.48249214993E+01  0.46130388739E+02  0.76233371080E+02  0.00000000000E+00 0.  1.
</event>
<event>
12    1  0.9246030E-003  0.2375431E+03  0.7818608E-02  0.1123021E+00
         21   -1    0    0  503  502  0.00000000000E+00  0.00000000000E+00  0.79733133204E+02  0.79733133204E+02  0.00000000000E+00 0. -1.
         21   -1    0    0  501  503 -0.00000000000E+00 -0.00000000000E+00 -0.77814833477E+03  0.77814833477E+03  0.00000000000E+00 0.  1.
          6    2    1    2  501    0 -0.27714701253E+02  0.15768322363E+03 -0.49501361865E+03  0.54515328359E+03  0.16285427929E+03 0.  0.
         24    2    3    3    0    0 -0.35651958356E+02  0.21532593753E+02 -0.17106930519E+03  0.19363941148E+03  0.80602728061E+02 0.  0.
         -6    2    1    2    0  502  0.27714701253E+02 -0.15768322363E+03 -0.20340158292E+03  0.31272818439E+03  0.17548393002E+03 0.  0.
        -24    2    5    5    0    0  0.77953070825E+02 -0.14149296757E+03 -0.18065840921E+03  0.25506224887E+03  0.79513199270E+02 0.  0.
          5    1    3    3  501    0  0.79372571028E+01  0.13615062987E+03 -0.32394431345E+03  0.35151387211E+03  0.47000000000E+01 0. -1.
        -13    1    4    4    0    0 -0.12709731237E+02  0.40077318790E+02 -0.15382837313E+03  0.15947067796E+03  0.00000000000E+00 0.  1.
         14    1    4    4    0    0 -0.22942227119E+02 -0.18544725037E+02 -0.17240932062E+02  0.34168733519E+02  0.00000000000E+00 0. -1.
         -5    1    5    5    0  502 -0.50238369572E+02 -0.16190256053E+02 -0.22743173709E+02  0.57665935513E+02  0.47000000000E+01 0.  1.
         11    1    6    6    0    0  0.29967464993E+02 -0.12613207422E+03 -0.12813492580E+03  0.18227975289E+03  0.00000000000E+00 0. -1.
        -12    1    6    6    0    0  0.47985605832E+02 -0.15360893355E+02 -0.52523483410E+02  0.72782495981E+02  0.00000000000E+00 0.  1.
</event>
<event>
12    1  0.9246030E-003  0.2441972E+03  0.7818608E-02  0.1117058E+00
         21   -1    0    0  501  502  0.00000000000E+00  0.00000000000E+00  0.11262202301E+04  0.11262202301E+04  0.00000000000E+00 0. -1.
         21   -1    0    0  502  503 -0.00000000000E+00 -0.00000000000E+00 -0.52910325439E+02  0.52910325439E+02  0.00000000000E+00 0.  1.
          6    2    1    2  501    0  0.16165757579E+03  0.62318040990E+02  0.53338415005E+03  0.58662674961E+03  0.17209178303E+03 0.  0.
         24    2    3    3    0    0  0.18105154988E+03  0.70668064994E+02  0.52157776164E+03  0.56198268462E+03  0.77508304397E+02 0.  0.
         -6    2    1    2    0  503 -0.16165757579E+03 -0.62318040990E+02  0.53992575460E+03  0.59250380592E+03  0.17182616072E+03 0.  0.
        -24    2    5    5    0    0 -0.16937659486E+03 -0.32960377731E+02  0.52562477567E+03  0.55862071802E+03  0.77465375583E+02 0.  0.
          5    1    3    3  501    0 -0.19393974090E+02 -0.83500240047E+01  0.11806388416E+02  0.24644064992E+02  0.47000000000E+01 0. -1.
        -11    1    4    4    0    0  0.10565921845E+03  0.46834683541E+02  0.20158673362E+03  0.23236731525E+03  0.00000000000E+00 0.  1.
         12    1    4    4    0    0  0.75392331433E+02  0.23833381453E+02  0.31999102802E+03  0.32961536937E+03  0.00000000000E+00 0. -1.
         -5    1    5    5    0  503  0.77190190689E+01 -0.29357663259E+02  0.14300978927E+02  0.33883087901E+02  0.47000000000E+01 0.  1.
         13    1    6    6    0    0 -0.81344547671E+02 -0.28556429244E+02  0.36861293053E+03  0.37856029592E+03  0.00000000000E+00 0. -1.
        -14    1    6    6    0    0 -0.88032047191E+02 -0.44039484866E+01  0.15701184514E+03  0.18006042210E+03  0.00000000000E+00 0.  1.
</event>
<event>
12    1  0.9246030E-003  0.1868996E+03  0.7818608E-02  0.1161457E+00
         21   -1    0    0  503  502  0.00000000000E+00  0.00000000000E+00  0.12181083275E+03  0.12181083275E+03  0.00000000000E+00 0.  1.
         21   -1    0    0  501  503 -0.00000000000E+00 -0.00000000000E+00 -0.28589320162E+03  0.28589320162E+03  0.00000000000E+00 0.  1.
          6    2    1    2  501    0  0.69202113573E+02 -0.28834141649E+02 -0.87882670811E+02  0.20586779659E+03  0.17040494593E+03 0.  0.
         24    2    3    3    0    0  0.94602410452E+02 -0.29494734124E+02 -0.11732776407E+03  0.16669235810E+03  0.64814987638E+02 0.  0.
         -6    2    1    2    0  502 -0.69202113573E+02  0.28834141649E+02 -0.76199698066E+02  0.20183623778E+03  0.17120494341E+03 0.  0.
        -24    2    5    5    0    0  0.25793159366E+02  0.28045877237E+02 -0.52669548363E+02  0.10385419255E+03  0.80992306338E+02 0.  0.
          5    1    3    3  501    0 -0.25400296879E+02  0.66059247518E+00  0.29445093260E+02  0.39175438492E+02  0.47000000000E+01 0. -1.
        -13    1    4    4    0    0  0.42679399112E+02 -0.45756120810E+02 -0.75529871900E+02  0.98081166640E+02  0.00000000000E+00 0.  1.
         14    1    4    4    0    0  0.51923011340E+02  0.16261386686E+02 -0.41797892171E+02  0.68611191460E+02  0.00000000000E+00 0. -1.
         -5    1    5    5    0  502 -0.94995272939E+02  0.78826441170E+00 -0.23530149703E+02  0.97982045226E+02  0.47000000000E+01 0.  1.
         13    1    6    6    0    0  0.68318510947E+01  0.15215142248E+02  0.20937665839E+02  0.26768649457E+02  0.00000000000E+00 0. -1.
        -14    1    6    6    0    0  0.18961308272E+02  0.12830734989E+02 -0.73607214202E+02  0.77085543095E+02  0.00000000000E+00 0.  1.
</event>
<event>
12    1  0.9246030E-003  0.2132256E+03  0.7818608E-02  0.1140712E+00
         21   -1    0    0  503  502  0.00000000000E+00  0.00000000000E+00  0.13041066415E+03  0.13041066415E+03  0.00000000000E+00 0.  1.
         21   -1    0    0  501  503 -0.00000000000E+00 -0.00000000000E+00 -0.41248983525E+03  0.41248983525E+03  0.00000000000E+00 0.  1.
          6    2    1    2  501    0 -0.99340529652E+02 -0.46804522567E+02 -0.26102330228E+03  0.33704352632E+03  0.18277300166E+03 0.  0.
         24    2    3    3    0    0 -0.32214173965E+02  0.46224184722E+02 -0.14048338447E+03  0.17057355968E+03  0.78646867021E+02 0.  0.
         -6    2    1    2    0  502  0.99340529652E+02  0.46804522567E+02 -0.21055868811E+02  0.20585697308E+03  0.17284252830E+03 0.  0.
        -24    2    5    5    0    0  0.10935400112E+03  0.58902340085E+02  0.22351046111E+02  0.15945786681E+03  0.97465167086E+02 0.  0.
          5    1    3    3  501    0 -0.67126355687E+02 -0.93028707289E+02 -0.12053991782E+03  0.16646996665E+03  0.47000000000E+01 0. -1.
        -11    1    4    4    0    0  0.10877293947E+01 -0.14446427593E+01 -0.99302803492E+02  0.99319267664E+02  0.00000000000E+00 0.  1.
         12    1    4    4    0    0 -0.33301903359E+02  0.47668827482E+02 -0.41180580973E+02  0.71254292012E+02  0.00000000000E+00 0. -1.
         -5    1    5    5    0  502 -0.10013471473E+02 -0.12097817518E+02 -0.43406914922E+02  0.46399106270E+02  0.47000000000E+01 0.  1.
         11    1    6    6    0    0  0.33672699328E+02  0.89799427532E+01 -0.37209214811E+02  0.50980542550E+02  0.00000000000E+00 0. -1.
        -12    1    6    6    0    0  0.75681301797E+02  0.49922397331E+02  0.59560260922E+02  0.10847732426E+03  0.00000000000E+00 0.  1.
</event>
<event>
12    1  0.9246030E-003  0.1874248E+03  0.7818608E-02  0.1160824E+00
         21   -1    0    0  503  502  0.00000000000E+00  0.00000000000E+00  0.29133837062E+03  0.29133837062E+03  0.00000000000E+00 0. -1.
         21   -1    0    0  501  503 -0.00000000000E+00 -0.00000000000E+00 -0.12828318669E+03  0.12828318669E+03  0.00000000000E+00 0. -1.
          6    2    1    2  501    0 -0.69386781746E+02  0.12389177802E+02  0.13312316293E+03  0.22982171423E+03  0.17357484442E+03 0.  0.
         24    2    3    3    0    0  0.13777801652E+01  0.53429237440E+02  0.38185056887E+02  0.10441340630E+03  0.81163286988E+02 0.  0.
         -6    2    1    2    0  502  0.69386781746E+02 -0.12389177802E+02  0.29932021006E+02  0.18979984308E+03  0.17366645429E+03 0.  0.
        -24    2    5    5    0    0  0.37773308474E+02  0.57342451511E+02  0.24068530477E+02  0.11286881982E+03  0.86284974065E+02 0.  0.
          5    1    3    3  501    0 -0.70764561911E+02 -0.41040059637E+02  0.94938106042E+02  0.12540830792E+03  0.47000000000E+01 0. -1.
        -13    1    4    4    0    0 -0.20126555219E+02 -0.13798379141E+02  0.51664701672E+00  0.24407794165E+02  0.00000000000E+00 0.  1.
         14    1    4    4    0    0  0.21504335384E+02  0.67227616580E+02  0.37668409870E+02  0.80005612138E+02  0.00000000000E+00 0. -1.
         -5    1    5    5    0  502  0.31613473272E+02 -0.69731629313E+02  0.58634905295E+01  0.76931023262E+02  0.47000000000E+01 0.  1.
         11    1    6    6    0    0 -0.89542123175E+00  0.36443430860E+02 -0.27092078426E+02  0.45419226606E+02  0.00000000000E+00 0. -1.
        -12    1    6    6    0    0  0.38668729706E+02  0.20899020651E+02  0.51160608902E+02  0.67449593212E+02  0.00000000000E+00 0.  1.
</event>
<event>
12    1  0.9246030E-003  0.1835122E+03  0.7818608E-02  0.1167123E+00
         21   -1    0    0  503  502  0.00000000000E+00  0.00000000000E+00  0.21581260538E+03  0.21581260538E+03  0.00000000000E+00 0.  1.
         21   -1    0    0  501  503 -0.00000000000E+00 -0.00000000000E+00 -0.18995693889E+03  0.18995693889E+03  0.00000000000E+00 0.  1.
          6    2    1    2  501    0 -0.23298834166E+02  0.12697465621E+01 -0.83375700594E+02  0.20156448274E+03  0.18202276045E+03 0.  0.
         24    2    3    3    0    0  0.39536093377E+02  0.47373896024E+02 -0.68352018087E+02  0.12205585583E+03  0.80113949234E+02 0.  0.
         -6    2    1    2    0  502  0.23298834166E+02 -0.12697465621E+01  0.10923136708E+03  0.20420506153E+03  0.17094960565E+03 0.  0.
        -24    2    5    5    0    0 -0.52268015719E+02 -0.74490621843E+01  0.70756005039E+02  0.11905239729E+03  0.79872567609E+02 0.  0.
          5    1    3    3  501    0 -0.62834927543E+02 -0.46104149462E+02 -0.15023682507E+02  0.79508626909E+02  0.47000000000E+01 0. -1.
        -13    1    4    4    0    0  0.89904566874E+01  0.57031568234E+02 -0.69056136048E+02  0.90012099256E+02  0.00000000000E+00 0.  1.
         14    1    4    4    0    0  0.30545636689E+02 -0.96576722097E+01  0.70411796072E+00  0.32043756574E+02  0.00000000000E+00 0. -1.
         -5    1    5    5    0  502  0.75566849886E+02  0.61793156222E+01  0.38475362045E+02  0.85152664243E+02  0.47000000000E+01 0.  1.
         11    1    6    6    0    0 -0.54377900825E+01 -0.38335246924E+02  0.20890692949E+02  0.43995247125E+02  0.00000000000E+00 0. -1.
        -12    1    6    6    0    0 -0.46830225637E+02  0.30886184739E+02  0.49865312090E+02  0.75057150164E+02  0.00000000000E+00 0.  1.
</event>
<event>
12    1  0.9246030E-003  0.1867806E+03  0.7818608E-02  0.1162645E+00
         21   -1    0    0  503  502  0.00000000000E+00  0.00000000000E+00  0.12208162624E+03  0.12208162624E+03  0.00000000000E+00 0. -1.
         21   -1    0    0  501  503 -0.00000000000E+00 -0.00000000000E+00 -0.31613525326E+03  0.31613525326E+03  0.00000000000E+00 0.  1.
          6    2    1    2  501    0  0.27132957814E+02 -0.67819068259E+02 -0.17221123512E+03  0.25016346889E+03  0.16610065697E+03 0.  0.
         24    2    3    3    0    0  0.55301379486E+02 -0.98328808467E+02 -0.11798635280E+03  0.18170375746E+03  0.79804002904E+02 0.  0.
         -6    2    1    2    0  502 -0.27132957814E+02  0.67819068259E+02 -0.21842391894E+02  0.18805341061E+03  0.17190512423E+03 0.  0.
        -24    2    5    5    0    0 -0.38087580687E+02  0.68335900195E+02  0.44532267312E+02  0.12061487368E+03  0.80276807758E+02 0.  0.
          5    1    3    3  501    0 -0.28168421672E+02  0.30509740208E+02 -0.54224882325E+02  0.68459711439E+02  0.47000000000E+01 0. -1.
        -11    1    4    4    0    0 -0.13302268661E+02 -0.33289074467E+02 -0.62605129866E+02  0.72142325413E+02  0.00000000000E+00 0.  1.
         12    1    4    4    0    0  0.68603648147E+02 -0.65039734000E+02 -0.55381222931E+02  0.10956143204E+03  0.00000000000E+00 0. -1.
         -5    1    5    5    0  502  0.10954622873E+02 -0.51683193608E+00 -0.66374659206E+02  0.67438536922E+02  0.47000000000E+01 0.  1.
         13    1    6    6    0    0 -0.47597527067E+02  0.70561646857E+01  0.84069346717E+01  0.48846602682E+02  0.00000000000E+00 0. -1.
        -14    1    6    6    0    0  0.95099463805E+01  0.61279735509E+02  0.36125332640E+02  0.71768271002E+02  0.00000000000E+00 0.  1.
</event>
<event>
12    1  0.9246030E-003  0.2740108E+03  0.7818608E-02  0.1099473E+00
         21   -1    0    0  503  502  0.00000000000E+00  0.00000000000E+00  0.10192051333E+03  0.10192051333E+03  0.00000000000E+00 0.  1.
         21   -1    0    0  501  503 -0.00000000000E+00 -0.00000000000E+00 -0.94933685449E+03  0.94933685449E+03  0.00000000000E+00 0.  1.
          6    2    1    2  501    0 -0.18403616829E+03  0.10126013037E+03 -0.67958450218E+03  0.73274621586E+03  0.17595168660E+03 0.  0.
         24    2    3    3    0    0 -0.17514028366E+03  0.33064670165E+02 -0.57512115166E+03  0.60758855866E+03  0.81437866800E+02 0.  0.
         -6    2    1    2    0  502  0.18403616829E+03 -0.10126013037E+03 -0.16783183899E+03  0.31851115196E+03  0.17075978012E+03 0.  0.
        -24    2    5    5    0    0  0.72986699695E+02 -0.49219244900E+02 -0.15652892215E+03  0.19526309249E+03  0.76660155341E+02 0.  0.
          5    1    3    3  501    0 -0.88958846300E+01  0.68195460202E+02 -0.10446335051E+03  0.12515765720E+03  0.47000000000E+01 0. -1.
        -13    1    4    4    0    0 -0.14417499214E+03  0.55887354696E+02 -0.49719980813E+03  0.52068942180E+03  0.00000000000E+00 0.  1.
         14    1    4    4    0    0 -0.30965291525E+02 -0.22822684531E+02 -0.77921343534E+02  0.86899136858E+02  0.00000000000E+00 0. -1.
         -5    1    5    5    0  502  0.11104946860E+03 -0.52040885466E+02 -0.11302916835E+02  0.12324805948E+03  0.47000000000E+01 0.  1.
         11    1    6    6    0    0  0.37786185093E+02 -0.14192355015E+02 -0.13541453621E+03  0.14130221280E+03  0.00000000000E+00 0. -1.
        -12    1    6    6    0    0  0.35200514602E+02 -0.35026889885E+02 -0.21114385943E+02  0.53960879691E+02  0.00000000000E+00 0.  1.
</event>
<event>
12    1  0.9246030E-003  0.2498545E+03  0.7818608E-02  0.1113529E+00
         21   -1    0    0  501  502  0.00000000000E+00  0.00000000000E+00  0.11289214102E+04  0.11289214102E+04  0.00000000000E+00 0. -1.
         21   -1    0    0  502  503 -0.00000000000E+00 -0.00000000000E+00 -0.60803854113E+02  0.60803854113E+02  0.00000000000E+00 0. -1.
          6    2    1    2  501    0  0.25811362336E+02 -0.17932915672E+03  0.71521937366E+03  0.75733148424E+03  0.17084218358E+03 0.  0.
         24    2    3    3    0    0  0.16282089911E+02 -0.13964774164E+03  0.31019342937E+03  0.35022765561E+03  0.81687507823E+02 0.  0.
         -6    2    1    2    0  503 -0.25811362336E+02  0.17932915672E+03  0.35289818240E+03  0.43239378004E+03  0.17205255303E+03 0.  0.
        -24    2    5    5    0    0  0.23932063845E+02  0.24010328027E+02  0.13244576795E+03  0.15813167177E+03  0.79463857437E+02 0.  0.
          5    1    3    3  501    0  0.95292724242E+01 -0.39681415076E+02  0.40502594429E+03  0.40710382863E+03  0.47000000000E+01 0. -1.
        -13    1    4    4    0    0 -0.32364135440E+02 -0.40283057740E+02  0.89135991173E+02  0.10303099983E+03  0.00000000000E+00 0.  1.
         14    1    4    4    0    0  0.48646225352E+02 -0.99364683904E+02  0.22105743819E+03  0.24719665578E+03  0.00000000000E+00 0. -1.
         -5    1    5    5    0  503 -0.49743426181E+02  0.15531882869E+03  0.22045241445E+03  0.27426210827E+03  0.47000000000E+01 0.  1.
         11    1    6    6    0    0  0.49658002703E+02  0.28861460623E+02  0.70871664106E+02  0.91223318920E+02  0.00000000000E+00 0. -1.
        -12    1    6    6    0    0 -0.25725938858E+02 -0.48511325958E+01  0.61574103840E+02  0.66908352851E+02  0.00000000000E+00 0.  1.
</event>
<event>
12    1  0.9246030E-003  0.1847315E+03  0.7818608E-02  0.1163328E+00
         21   -1    0    0  501  502  0.00000000000E+00  0.00000000000E+00  0.10240372167E+04  0.10240372167E+04  0.00000000000E+00 0. -1.
         21   -1    0    0  502  503 -0.00000000000E+00 -0.00000000000E+00 -0.56207477444E+02  0.56207477444E+02  0.00000000000E+00 0. -1.
          6    2    1    2  501    0 -0.25081678996E+02 -0.62137477287E+02  0.82861011467E+03  0.84892712363E+03  0.17202436571E+03 0.  0.
         24    2    3    3    0    0 -0.16226564081E+02  0.31460280223E+02  0.30354309895E+03  0.31548882891E+03  0.78369239102E+02 0.  0.
         -6    2    1    2    0  503  0.25081678996E+02  0.62137477287E+02  0.13921962458E+03  0.23131757051E+03  0.17214981223E+03 0.  0.
        -24    2    5    5    0    0 -0.18801450289E+02  0.40839656426E+02  0.15354259927E+03  0.18026305246E+03  0.83054597839E+02 0.  0.
          5    1    3    3  501    0 -0.88551149147E+01 -0.93597757510E+02  0.52506701572E+03  0.53343829471E+03  0.47000000000E+01 0. -1.
        -11    1    4    4    0    0 -0.31473791310E+02  0.22191207833E+02  0.29133365647E+03  0.29386791018E+03  0.00000000000E+00 0.  1.
         12    1    4    4    0    0  0.15247227229E+02  0.92690723903E+01  0.12209442481E+02  0.21620918733E+02  0.00000000000E+00 0. -1.
         -5    1    5    5    0  503  0.43883129285E+02  0.21297820862E+02 -0.14322974687E+02  0.51054518048E+02  0.47000000000E+01 0.  1.
         13    1    6    6    0    0  0.21322636263E+02  0.34806000477E+02  0.31226507269E+02  0.51392676936E+02  0.00000000000E+00 0. -1.
        -14    1    6    6    0    0 -0.40124086552E+02  0.60336559489E+01  0.12231609200E+03  0.12887037552E+03  0.00000000000E+00 0.  1.
</event>
<event>
12    1  0.9246030E-003  0.2019865E+03  0.7818608E-02  0.1148269E+00
         21   -1    0    0  503  502  0.00000000000E+00  0.00000000000E+00  0.79742744351E+02  0.79742744351E+02  0.00000000000E+00 0.  1.
         21   -1    0    0  501  503 -0.00000000000E+00 -0.00000000000E+00 -0.52560939306E+03  0.52560939306E+03  0.00000000000E+00 0.  1.
          6    2    1    2  501    0 -0.10241762723E+03 -0.98935565945E+01 -0.27581564366E+03  0.34131447516E+03  0.17272535667E+03 0.  0.
         24    2    3    3    0    0 -0.10422190430E+02 -0.53076569173E+02 -0.10206728840E+03  0.13997269132E+03  0.79049849486E+02 0.  0.
         -6    2    1    2    0  502  0.10241762723E+03  0.98935565945E+01 -0.17005100505E+03  0.26403766225E+03  0.17381395209E+03 0.  0.
        -24    2    5    5    0    0  0.88488201516E+01  0.34460618176E+02 -0.13528056964E+03  0.16113122246E+03  0.79978762846E+02 0.  0.
          5    1    3    3  501    0 -0.91995436796E+02  0.43183012578E+02 -0.17374835526E+03  0.20134178384E+03  0.47000000000E+01 0. -1.
        -11    1    4    4    0    0 -0.35344154822E+02  0.12081130633E+01 -0.46237556282E+02  0.58211514567E+02  0.00000000000E+00 0.  1.
         12    1    4    4    0    0  0.24921964392E+02 -0.54284682236E+02 -0.55829732122E+02  0.81761176749E+02  0.00000000000E+00 0. -1.
         -5    1    5    5    0  502  0.93568807074E+02 -0.24567061582E+02 -0.34770435407E+02  0.10290643979E+03  0.47000000000E+01 0.  1.
         13    1    6    6    0    0  0.61256984068E+01 -0.17483364745E+02 -0.27115064387E+01  0.18722833411E+02  0.00000000000E+00 0. -1.
        -14    1    6    6    0    0  0.27231217447E+01  0.51943982921E+02 -0.13256906320E+03  0.14240838905E+03  0.00000000000E+00 0.  1.
</event>
<event>
12    1  0.9246030E-003  0.2166018E+03  0.7818608E-02  0.1136548E+00
         21   -1    0    0  501  502  0.00000000000E+00  0.00000000000E+00  0.52046363533E+02  0.52046363533E+02  0.00000000000E+00 0.  1.
         21   -1    0    0  502  503 -0.00000000000E+00 -0.00000000000E+00 -0.92408058961E+03  0.92408058961E+03  0.00000000000E+00 0. -1.
          6    2    1    2  501    0 -0.10452816114E+03 -0.78484373086E+02 -0.51678671587E+03  0.56034352282E+03  0.17271485338E+03 0.  0.
         24    2    3    3    0    0 -0.11894988863E+02 -0.23007050499E+01 -0.11090037449E+03  0.13708158501E+03  0.79659800921E+02 0.  0.
         -6    2    1    2    0  503  0.10452816114E+03  0.78484373086E+02 -0.35524751021E+03  0.41578343032E+03  0.17201492415E+03 0.  0.
        -24    2    5    5    0    0  0.10259898056E+03  0.46689602046E+01 -0.28016529435E+03  0.31037059403E+03  0.85375426676E+02 0.  0.
          5    1    3    3  501    0 -0.92633172280E+02 -0.76183668037E+02 -0.40588634138E+03  0.42326193781E+03  0.47000000000E+01 0. -1.
        -11    1    4    4    0    0 -0.21609014680E+02  0.17674071873E+02 -0.43651784322E+01  0.28255567854E+02  0.00000000000E+00 0.  1.
         12    1    4    4    0    0  0.97140258172E+01 -0.19974776923E+02 -0.10653519606E+03  0.10882601716E+03  0.00000000000E+00 0. -1.
         -5    1    5    5    0  503  0.19291805814E+01  0.73815412882E+02 -0.75082215860E+02  0.10541283629E+03  0.47000000000E+01 0.  1.
         13    1    6    6    0    0  0.91853446691E+02  0.35336343969E+02 -0.23458208618E+03  0.25439038510E+03  0.00000000000E+00 0. -1.
        -14    1    6    6    0    0  0.10745533871E+02 -0.30667383764E+02 -0.45583208163E+02  0.55980208928E+02  0.00000000000E+00 0.  1.
</event>
<event>
12    1  0.9246030E-003  0.1829609E+03  0.7818608E-02  0.1166620E+00
         21   -1    0    0  501  502  0.00000000000E+00  0.00000000000E+00  0.10971099839E+03  0.10971099839E+03  0.00000000000E+00 0. -1.
         21   -1    0    0  502  503 -0.00000000000E+00 -0.00000000000E+00 -0.29520956652E+03  0.29520956652E+03  0.00000000000E+00 0. -1.
          6    2    1    2  501    0 -0.20206965019E+02  0.32587282232E+02 -0.10837843087E+03  0.21265129763E+03  0.17889784154E+03 0.  0.
         24    2    3    3    0    0 -0.70950569374E+02  0.55854914706E+02 -0.97137743059E+02  0.15551340157E+03  0.81209126027E+02 0.  0.
         -6    2    1    2    0  503  0.20206965019E+02 -0.32587282232E+02 -0.77120137264E+02  0.19226926728E+03  0.17190027100E+03 0.  0.
        -24    2    5    5    0    0 -0.40828015142E+02  0.15788933054E+02 -0.15495928819E+02  0.92845124965E+02  0.80398235008E+02 0.  0.
          5    1    3    3  501    0  0.50743604355E+02 -0.23267632474E+02 -0.11240687814E+02  0.57137896062E+02  0.47000000000E+01 0. -1.
        -13    1    4    4    0    0 -0.55570381402E+02  0.60448900417E+01 -0.14401710866E+02  0.57723628270E+02  0.00000000000E+00 0.  1.
         14    1    4    4    0    0 -0.15380187972E+02  0.49810024664E+02 -0.82736032193E+02  0.97789773300E+02  0.00000000000E+00 0. -1.
         -5    1    5    5    0  503  0.61034980161E+02 -0.48376215286E+02 -0.61624208445E+02  0.99424142315E+02  0.47000000000E+01 0.  1.
         11    1    6    6    0    0 -0.17105865312E+02 -0.23965456124E+02 -0.32197228661E+02  0.43630439475E+02  0.00000000000E+00 0. -1.
        -12    1    6    6    0    0 -0.23722149830E+02  0.39754389179E+02  0.16701299842E+02  0.49214685490E+02  0.00000000000E+00 0.  1.
</event>
<event>
12    1  0.9246030E-003  0.1912933E+03  0.7818608E-02  0.1157721E+00
         21   -1    0    0  503  502  0.00000000000E+00  0.00000000000E+00  0.10461238280E+03  0.10461238280E+03  0.00000000000E+00 0.  1.
         21   -1    0    0  501  503 -0.00000000000E+00 -0.00000000000E+00 -0.43192905222E+03  0.43192905222E+03  0.00000000000E+00 0. -1.
          6    2    1    2  501    0 -0.78568750813E+02 -0.11890615761E+02 -0.28369641715E+03  0.34216485801E+03  0.17400775156E+03 0.  0.
         24    2    3    3    0    0 -0.27588437263E+02 -0.59676420885E+02 -0.93315935915E+02  0.13931197245E+03  0.79859656231E+02 0.  0.
         -6    2    1    2    0  502  0.78568750813E+02  0.11890615761E+02 -0.43620252270E+02  0.19437657701E+03  0.17194502591E+03 0.  0.
        -24    2    5    5    0    0  0.10534636806E+03 -0.32017078691E+02 -0.41868630839E+02  0.14270371571E+03  0.80550714696E+02 0.  0.
          5    1    3    3  501    0 -0.50980313550E+02  0.47785805124E+02 -0.19038048124E+03  0.20285288555E+03  0.47000000000E+01 0. -1.
        -11    1    4    4    0    0  0.13315312442E+01  0.56101093017E+01  0.11279138729E+02  0.12667488792E+02  0.00000000000E+00 0.  1.
         12    1    4    4    0    0 -0.28919968507E+02 -0.65286530186E+02 -0.10459507464E+03  0.12664448366E+03  0.00000000000E+00 0. -1.
         -5    1    5    5    0  502 -0.26777617248E+02  0.43907694452E+02 -0.17516214311E+01  0.51672861302E+02  0.47000000000E+01 0.  1.
         13    1    6    6    0    0  0.19509075352E+02 -0.43843183355E+02 -0.40387768155E+01  0.48157454937E+02  0.00000000000E+00 0. -1.
        -14    1    6    6    0    0  0.85837292709E+02  0.11826104664E+02 -0.37829854023E+02  0.94546260775E+02  0.00000000000E+00 0.  1.
</event>
<event>
12    1  0.9246030E-003  0.1771473E+03  0.7818608E-02  0.1171266E+00
         21   -1    0    0  503  502  0.00000000000E+00  0.00000000000E+00  0.41447855289E+02  0.41447855289E+02  0.00000000000E+00 0. -1.
         21   -1    0    0  501  503 -0.00000000000E+00 -0.00000000000E+00 -0.78058302310E+03  0.78058302310E+03  0.00000000000E+00 0. -1.
          6    2    1    2  501    0 -0.32954304693E+02  0.18619236089E+02 -0.27985650840E+03  0.32977274902E+03  0.17028722369E+03 0.  0.
         24    2    3    3    0    0  0.42194484745E+02  0.42467079093E+02 -0.15806420450E+03  0.18461243950E+03  0.74253839804E+02 0.  0.
         -6    2    1    2    0  502  0.32954304693E+02 -0.18619236089E+02 -0.45927865942E+03  0.49225812937E+03  0.17305639771E+03 0.  0.
        -24    2    5    5    0    0  0.42287150733E+02 -0.48733892978E+02 -0.44501355112E+03  0.45733567400E+03  0.83400615038E+02 0.  0.
          5    1    3    3  501    0 -0.75148789438E+02 -0.23847843004E+02 -0.12179230390E+03  0.14516030952E+03  0.47000000000E+01 0. -1.
        -13    1    4    4    0    0  0.31314973639E+01  0.43850888183E+02 -0.12788386992E+03  0.13522940085E+03  0.00000000000E+00 0.  1.
         14    1    4    4    0    0  0.39062987381E+02 -0.13838090899E+01 -0.30180334579E+02  0.49383038647E+02  0.00000000000E+00 0. -1.
         -5    1    5    5    0  502 -0.93328460396E+01  0.30114656889E+02 -0.14265108298E+02  0.34922455376E+02  0.47000000000E+01 0.  1.
         13    1    6    6    0    0  0.14050068828E+02 -0.64681722091E+02 -0.21245635857E+03  0.22252827664E+03  0.00000000000E+00 0. -1.
        -14    1    6    6    0    0  0.28237081905E+02  0.15947829114E+02 -0.23255719255E+03  0.23480739736E+03  0.00000000000E+00 0.  1.
</event>
<event>
12    1  0.9246030E-003  0.2794321E+03  0.7818608E-02  0.1096128E+00
         21   -1    0    0  503  502  0.00000000000E+00  0.00000000000E+00  0.52469551799E+03  0.52469551799E+03  0.00000000000E+00 0. -1.
         21   -1    0    0  501  503 -0.00000000000E+00 -0.00000000000E+00 -0.14836732714E+03  0.14836732714E+03  0.00000000000E+00 0.  1.
          6    2    1    2  501    0 -0.22006291905E+03 -0.21979533819E+02  0.19401097419E+03  0.33941352615E+03  0.16926457212E+03 0.  0.
         24    2    3    3    0    0 -0.68762966795E+02 -0.85006741192E+01  0.22978806628E+02  0.11061788031E+03  0.83112470953E+02 0.  0.
         -6    2    1    2    0  502  0.22006291905E+03  0.21979533819E+02  0.18231721667E+03  0.33364931898E+03  0.17079669878E+03 0.  0.
        -24    2    5    5    0    0  0.67255490531E+02  0.59434254530E+02  0.62135291437E+02  0.13561207130E+03  0.80461840791E+02 0.  0.
          5    1    3    3  501    0 -0.15129995226E+03 -0.13478859700E+02  0.17103216756E+03  0.22879564583E+03  0.47000000000E+01 0. -1.
        -13    1    4    4    0    0 -0.76594660197E+02  0.18944236623E+02  0.11000894865E+02  0.79665838097E+02  0.00000000000E+00 0.  1.
         14    1    4    4    0    0  0.78316934012E+01 -0.27444910742E+02  0.11977911763E+02  0.30952042216E+02  0.00000000000E+00 0. -1.
         -5    1    5    5    0  502  0.15280742852E+03 -0.37454720710E+02  0.12018192523E+03  0.19803724768E+03  0.47000000000E+01 0.  1.
         13    1    6    6    0    0 -0.10649824366E+02 -0.90037432905E+01  0.18355768188E+02  0.23052556866E+02  0.00000000000E+00 0. -1.
        -14    1    6    6    0    0  0.77905314897E+02  0.68437997820E+02  0.43779523249E+02  0.11255951444E+03  0.00000000000E+00 0.  1.
</event>
<event>
12    1  0.9246030E-003  0.3117343E+03  0.7818608E-02  0.1079548E+00
         21   -1    0    0  503  502  0.00000000000E+00  0.00000000000E+00  0.20806758985E+04  0.20806758985E+04  0.00000000000E+00 0. -1.
         21   -1    0    0  501  503 -0.00000000000E+00 -0.00000000000E+00 -0.64934628790E+02  0.64934628790E+02  0.00000000000E+00 0.  1.
          6    2    1    2  501    0 -0.17255572441E+03 -0.19470851740E+03  0.43915500853E+03  0.53854936729E+03  0.17173064585E+03 0.  0.
         24    2    3    3    0    0 -0.11448725253E+03 -0.20823574775E+03  0.33194467002E+03  0.41578503995E+03  0.78870006043E+02 0.  0.
         -6    2    1    2    0  502  0.17255572441E+03  0.19470851740E+03  0.15765862612E+04  0.16070611600E+04  0.17127302252E+03 0.  0.
        -24    2    5    5    0    0  0.14299644754E+03  0.67399897176E+02  0.78466958886E+03  0.80441843653E+03  0.79949529059E+02 0.  0.
          5    1    3    3  501    0 -0.58068471881E+02  0.13527230349E+02  0.10721033850E+03  0.12276432735E+03  0.47000000000E+01 0. -1.
        -13    1    4    4    0    0 -0.38182138782E+02 -0.86174752370E+02  0.19739927568E+03  0.21874742903E+03  0.00000000000E+00 0.  1.
         14    1    4    4    0    0 -0.76305113744E+02 -0.12206099538E+03  0.13454539435E+03  0.19703761092E+03  0.00000000000E+00 0. -1.
         -5    1    5    5    0  502  0.29559276868E+02  0.12730862023E+03  0.79191667233E+03  0.80264272348E+03  0.47000000000E+01 0.  1.
         13    1    6    6    0    0  0.28676672113E+02 -0.27744241812E+01  0.30463294361E+03  0.30599228632E+03  0.00000000000E+00 0. -1.
        -14    1    6    6    0    0  0.11431977543E+03  0.70174321357E+02  0.48003664524E+03  0.49842615021E+03  0.00000000000E+00 0.  1.
</event>
<event>
12    1  0.9246030E-003  0.2011336E+03  0.7818608E-02  0.1148791E+00
         21   -1    0    0  501  502  0.00000000000E+00  0.00000000000E+00  0.77457846629E+03  0.77457846629E+03  0.00000000000E+00 0. -1.
         21   -1    0    0  502  503 -0.00000000000E+00 -0.00000000000E+00 -0.52650763683E+02  0.52650763683E+02  0.00000000000E+00 0. -1.
          6    2    1    2  501    0 -0.86533544273E+02 -0.52748096929E+02  0.39824809467E+03  0.44614761836E+03  0.17371164741E+03 0.  0.
         24    2    3    3    0    0 -0.66134113408E+02 -0.51723733987E+02  0.11933572736E+03  0.16644887911E+03  0.80094618534E+02 0.  0.
         -6    2    1    2    0  503  0.86533544273E+02  0.52748096929E+02  0.32367960793E+03  0.38108161161E+03  0.17373626594E+03 0.  0.
        -24    2    5    5    0    0  0.88545242045E+02  0.54958607491E+02  0.12003546127E+03  0.17736130885E+03  0.78662656261E+02 0.  0.
          5    1    3    3  501    0 -0.20399430866E+02 -0.10243629422E+01  0.27891236732E+03  0.27969873926E+03  0.47000000000E+01 0. -1.
        -13    1    4    4    0    0 -0.84945201823E+02 -0.41825328106E+02  0.94787085837E+02  0.13397625545E+03  0.00000000000E+00 0.  1.
         14    1    4    4    0    0  0.18811088416E+02 -0.98984058813E+01  0.24548641520E+02  0.32472623652E+02  0.00000000000E+00 0. -1.
         -5    1    5    5    0  503 -0.20116977722E+01 -0.22105105622E+01  0.20364414666E+03  0.20372030275E+03  0.47000000000E+01 0.  1.
         13    1    6    6    0    0  0.99470283454E+02  0.37279102034E+02  0.11377508154E+03  0.15565615284E+03  0.00000000000E+00 0. -1.
        -14    1    6    6    0    0 -0.10925041408E+02  0.17679505458E+02  0.62603797260E+01  0.21705156008E+02  0.00000000000E+00 0.  1.
</event>
<event>
12    1  0.9746619E-003  0.1746894E+03  0.7818608E-02  0.1174576E+00
         21   -1    0    0  503  502  0.00000000000E+00  0.00000000000E+00  0.48689820288E+02  0.48689820288E+02  0.00000000000E+00 0. -1.
         21   -1    0    0  501  503 -0.00000000000E+00 -0.00000000000E+00 -0.61198537919E+03  0.61198537919E+03  0.00000000000E+00 0. -1.
          6    2    1    2  501    0  0.39001624706E+02  0.71703613640E+01 -0.32050514102E+03  0.36502044454E+03  0.17012888851E+03 0.  0.
         24    2    3    3    0    0 -0.20872033978E+02  0.48510524660E+02 -0.21245290411E+03  0.23466999381E+03  0.84527254341E+02 0.  0.
         -6    2    1    2    0  502 -0.39001624706E+02 -0.71703613640E+01 -0.24279041788E+03  0.29565475493E+03  0.16398782359E+03 0.  0.
        -24    2    5    5    0    0 -0.22504582325E+02 -0.60005092288E+02 -0.10160013942E+03  0.14392985279E+03  0.79285224767E+02 0.  0.
          5    1    3    3  501    0  0.59873658683E+02 -0.41340163296E+02 -0.10805223691E+03  0.13035045073E+03  0.47000000000E+01 0. -1.
        -11    1    4    4    0    0  0.26764528370E+02  0.24208388831E+02 -0.38888277958E+02  0.53053597722E+02  0.00000000000E+00 0.  1.
         12    1    4    4    0    0 -0.47636562347E+02  0.24302135828E+02 -0.17356462615E+03  0.18161639609E+03  0.00000000000E+00 0. -1.
         -5    1    5    5    0  502 -0.16497042380E+02  0.52834730924E+02 -0.14119027846E+03  0.15172490215E+03  0.47000000000E+01 0.  1.
         11    1    6    6    0    0  0.19243900334E+02 -0.14701295149E+02  0.10190713510E+01  0.24238281407E+02  0.00000000000E+00 0. -1.
        -12    1    6    6    0    0 -0.41748482659E+02 -0.45303797139E+02 -0.10261921077E+03  0.11969157138E+03  0.00000000000E+00 0.  1.
</event>
<event>
12    1  0.9246030E-003  0.1771331E+03  0.7818608E-02  0.1170666E+00
         21   -1    0    0  503  502  0.00000000000E+00  0.00000000000E+00  0.42081760381E+02  0.42081760381E+02  0.00000000000E+00 0. -1.
         21   -1    0    0  501  503 -0.00000000000E+00 -0.00000000000E+00 -0.79844183480E+03  0.79844183480E+03  0.00000000000E+00 0. -1.
          6    2    1    2  501    0 -0.41144543206E+02 -0.45848972121E+01 -0.48755475832E+03  0.51873478522E+03  0.17222729262E+03 0.  0.
         24    2    3    3    0    0 -0.39373035525E+02 -0.17418121954E+02 -0.95044828604E+02  0.12598299997E+03  0.70601486793E+02 0.  0.
         -6    2    1    2    0  502  0.41144543206E+02  0.45848972121E+01 -0.26880531610E+03  0.32178880996E+03  0.17198210818E+03 0.  0.
        -24    2    5    5    0    0 -0.20331475542E+02 -0.25486473862E+02 -0.22178717507E+03  0.23862401076E+03  0.81785929347E+02 0.  0.
          5    1    3    3  501    0 -0.17715076812E+01  0.12833224742E+02 -0.39250992971E+03  0.39275178525E+03  0.47000000000E+01 0. -1.
        -11    1    4    4    0    0 -0.29790054249E+02 -0.19765056795E+02 -0.10562812152E+03  0.11151414645E+03  0.00000000000E+00 0.  1.
         12    1    4    4    0    0 -0.95829812759E+01  0.23469348408E+01  0.10583292914E+02  0.14468853520E+02  0.00000000000E+00 0. -1.
         -5    1    5    5    0  502  0.61476018748E+02  0.30071371074E+02 -0.47018141029E+02  0.83164799196E+02  0.47000000000E+01 0.  1.
         13    1    6    6    0    0 -0.34428077236E+02 -0.49431385226E+02 -0.15408452417E+03  0.16544121293E+03  0.00000000000E+00 0. -1.
        -14    1    6    6    0    0  0.14096601693E+02  0.23944911364E+02 -0.67702650904E+02  0.73182797835E+02  0.00000000000E+00 0.  1.
</event>
<event>
12    1  0.9246030E-003  0.2358224E+03  0.7818608E-02  0.1122722E+00
         21   -1    0    0  501  502  0.00000000000E+00  0.00000000000E+00  0.12886439616E+03  0.12886439616E+03  0.00000000000E+00 0. -1.
         21   -1    0    0  502  503 -0.00000000000E+00 -0.00000000000E+00 -0.46277094255E+03  0.46277094255E+03  0.00000000000E+00 0.  1.
          6    2    1    2  501    0  0.94779731912E+02  0.13152681428E+03 -0.88852603571E+02  0.25200594809E+03  0.17125919612E+03 0.  0.
         24    2    3    3    0    0  0.10375851175E+03  0.11256979388E+03 -0.12238001119E+03  0.21217927146E+03  0.81273543300E+02 0.  0.
         -6    2    1    2    0  503 -0.94779731912E+02 -0.13152681428E+03 -0.24505394282E+03  0.33962939063E+03  0.17033551488E+03 0.  0.
        -24    2    5    5    0    0 -0.28830686016E+02 -0.13136672457E+03 -0.21918490414E+03  0.26863221149E+03  0.77671217738E+02 0.  0.
          5    1    3    3  501    0 -0.89787798423E+01  0.18957020405E+02  0.33527407620E+02  0.39826676635E+02  0.47000000000E+01 0. -1.
        -13    1    4    4    0    0 -0.12601215640E+02  0.41713082662E+01 -0.16284759604E+02  0.21009137146E+02  0.00000000000E+00 0.  1.
         14    1    4    4    0    0  0.11635972739E+03  0.10839848561E+03 -0.10609525159E+03  0.19117013431E+03  0.00000000000E+00 0. -1.
         -5    1    5    5    0  503 -0.65949045896E+02 -0.16008970976E+00 -0.25869038674E+02  0.70997179136E+02  0.47000000000E+01 0.  1.
         11    1    6    6    0    0  0.92702697647E+01  0.69146034100E+01 -0.21213616209E+02  0.24161273859E+02  0.00000000000E+00 0. -1.
        -12    1    6    6    0    0 -0.38100955781E+02 -0.13828132798E+03 -0.19797128794E+03  0.24447093763E+03  0.00000000000E+00 0.  1.
</event>
<event>
12    1  0.9246030E-003  0.2085333E+03  0.7818608E-02  0.1145021E+00
         21   -1    0    0  501  502  0.00000000000E+00  0.00000000000E+00  0.38286914741E+03  0.38286914741E+03  0.00000000000E+00 0. -1.
         21   -1    0    0  502  503 -0.00000000000E+00 -0.00000000000E+00 -0.11403999145E+03  0.11403999145E+03  0.00000000000E+00 0. -1.
          6    2    1    2  501    0  0.81948156435E+02 -0.52994024926E+02  0.19689581068E+03  0.28679973789E+03  0.18428853022E+03 0.  0.
         24    2    3    3    0    0 -0.26671452397E+02 -0.50781202219E+02  0.10091669142E+03  0.14175768420E+03  0.81369315774E+02 0.  0.
         -6    2    1    2    0  503 -0.81948156435E+02  0.52994024926E+02  0.71933345280E+02  0.21010940097E+03  0.17160328433E+03 0.  0.
        -24    2    5    5    0    0 -0.68357205393E+02  0.58722768746E+02  0.11329070175E+03  0.16594999212E+03  0.81139051522E+02 0.  0.
          5    1    3    3  501    0  0.10861960883E+03 -0.22128227071E+01  0.95979119253E+02  0.14504205369E+03  0.47000000000E+01 0. -1.
        -13    1    4    4    0    0  0.20263657189E+01 -0.46014736591E+02  0.10275803523E+03  0.11260850743E+03  0.00000000000E+00 0.  1.
         14    1    4    4    0    0 -0.28697818116E+02 -0.47664656280E+01 -0.18413438059E+01  0.29149176768E+02  0.00000000000E+00 0. -1.
         -5    1    5    5    0  503 -0.13590951042E+02 -0.57287438204E+01 -0.41357356473E+02  0.44159408854E+02  0.47000000000E+01 0.  1.
         11    1    6    6    0    0 -0.75169692411E+02  0.61123776658E+02  0.63958364591E+02  0.11609164970E+03  0.00000000000E+00 0. -1.
        -12    1    6    6    0    0  0.68124870176E+01 -0.24010079115E+01  0.49332337162E+02  0.49858342413E+02  0.00000000000E+00 0.  1.
</event>
<event>
12    1  0.9246030E-003  0.1774533E+03  0.7818608E-02  0.1171036E+00
         21   -1    0    0  503  502  0.00000000000E+00  0.00000000000E+00  0.41589309716E+02  0.41589309716E+02  0.00000000000E+00 0. -1.
         21   -1    0    0  501  503 -0.00000000000E+00 -0.00000000000E+00 -0.99398872391E+03  0.99398872391E+03  0.00000000000E+00 0. -1.
          6    2    1    2  501    0  0.88020688149E+01 -0.46177827399E+02 -0.73260176285E+03  0.75308790856E+03  0.16800650862E+03 0.  0.
         24    2    3    3    0    0 -0.33413834652E+02 -0.56823620379E+02 -0.28141377946E+03  0.29977984359E+03  0.79553951351E+02 0.  0.
         -6    2    1    2    0  502 -0.88020688149E+01  0.46177827399E+02 -0.21979765134E+03  0.28249012506E+03  0.17111339825E+03 0.  0.
        -24    2    5    5    0    0 -0.37497440959E+02  0.89586967805E+02 -0.14687383229E+03  0.19278086557E+03  0.78489850543E+02 0.  0.
          5    1    3    3  501    0  0.42215903467E+02  0.10645792980E+02 -0.45118798339E+03  0.45330806497E+03  0.47000000000E+01 0. -1.
        -11    1    4    4    0    0  0.22513157710E+02 -0.26710908485E+02 -0.59931160645E+02  0.69369005459E+02  0.00000000000E+00 0.  1.
         12    1    4    4    0    0 -0.55926992362E+02 -0.30112711894E+02 -0.22148261881E+03  0.23041083813E+03  0.00000000000E+00 0. -1.
         -5    1    5    5    0  502  0.28695372144E+02 -0.43409140407E+02 -0.72923819053E+02  0.89709259492E+02  0.47000000000E+01 0.  1.
         11    1    6    6    0    0 -0.51974681565E+02  0.45836541382E+02 -0.49841137470E+02  0.85360969031E+02  0.00000000000E+00 0. -1.
        -12    1    6    6    0    0  0.14477240606E+02  0.43750426423E+02 -0.97032694819E+02  0.10741989653E+03  0.00000000000E+00 0.  1.
</event>
<event>
12    1  0.9246030E-003  0.3182718E+03  0.7818608E-02  0.1076472E+00
         21   -1    0    0  503  502  0.00000000000E+00  0.00000000000E+00  0.94733128001E+03  0.94733128001E+03  0.00000000000E+00 0.  1.
         21   -1    0    0  501  503 -0.00000000000E+00 -0.00000000000E+00 -0.13332808813E+03  0.13332808813E+03  0.00000000000E+00 0. -1.
          6    2    1    2  501    0  0.14410045041E+03 -0.22447769733E+03  0.16635567284E+03  0.35912556449E+03  0.17361389570E+03 0.  0.
         24    2    3    3    0    0  0.59953708595E+02 -0.19425151789E+03  0.15949011579E+03  0.26932844898E+03  0.75977740269E+02 0.  0.
         -6    2    1    2    0  502 -0.14410045041E+03  0.22447769733E+03  0.64764751903E+03  0.72153380365E+03  0.17322974482E+03 0.  0.
        -24    2    5    5    0    0 -0.91834288060E+01  0.32694509475E+02  0.18276215612E+03  0.20083822606E+03  0.76031053033E+02 0.  0.
          5    1    3    3  501    0  0.84146741811E+02 -0.30226179433E+02  0.68655570527E+01  0.89797115511E+02  0.47000000000E+01 0. -1.
        -13    1    4    4    0    0  0.28741928976E+02 -0.23816943129E+02  0.56638446161E+02  0.67832579524E+02  0.00000000000E+00 0.  1.
         14    1    4    4    0    0  0.31211779619E+02 -0.17043457476E+03  0.10285166963E+03  0.20149586946E+03  0.00000000000E+00 0. -1.
         -5    1    5    5    0  502 -0.13491702160E+03  0.19178318785E+03  0.46488536292E+03  0.52069557758E+03  0.47000000000E+01 0.  1.
         11    1    6    6    0    0  0.28263773070E+02  0.31934448748E+02  0.69470130735E+02  0.81515329535E+02  0.00000000000E+00 0. -1.
        -12    1    6    6    0    0 -0.37447201876E+02  0.76006072782E+00  0.11329202538E+03  0.11932289653E+03  0.00000000000E+00 0.  1.
</event>
<event>
12    1  0.9246030E-003  0.1838052E+03  0.7818608E-02  0.1164600E+00
         21   -1    0    0  501  502  0.00000000000E+00  0.00000000000E+00  0.10748692224E+04  0.10748692224E+04  0.00000000000E+00 0. -1.
         21   -1    0    0  502  503 -0.00000000000E+00 -0.00000000000E+00 -0.45829953249E+02  0.45829953249E+02  0.00000000000E+00 0. -1.
          6    2    1    2  501    0 -0.24485631993E+02 -0.63104765708E+02  0.83369822718E+03  0.85371956357E+03  0.17088768707E+03 0.  0.
         24    2    3    3    0    0 -0.12647869845E+02  0.32281577781E+02  0.43073672379E+03  0.43942649055E+03  0.79746137857E+02 0.  0.
         -6    2    1    2    0  503  0.24485631993E+02  0.63104765708E+02  0.19534104199E+03  0.26697961210E+03  0.16893262847E+03 0.  0.
        -24    2    5    5    0    0  0.26755784277E+02  0.41113939325E+02  0.21608205081E+03  0.23630340824E+03  0.82107369109E+02 0.  0.
          5    1    3    3  501    0 -0.11837762148E+02 -0.95386343489E+02  0.40296150339E+03  0.41429307302E+03  0.47000000000E+01 0. -1.
        -13    1    4    4    0    0 -0.46166581478E+02  0.12803930669E+02  0.25548034671E+03  0.25993364815E+03  0.00000000000E+00 0.  1.
         14    1    4    4    0    0  0.33518711633E+02  0.19477647112E+02  0.17525637708E+03  0.17949284240E+03  0.00000000000E+00 0. -1.
         -5    1    5    5    0  503 -0.22701522847E+01  0.21990826384E+02 -0.20741008821E+02  0.30676203861E+02  0.47000000000E+01 0.  1.
         13    1    6    6    0    0  0.18362540469E+02 -0.15844093364E+02  0.18498351972E+02  0.30502577149E+02  0.00000000000E+00 0. -1.
        -14    1    6    6    0    0  0.83932438082E+01  0.56958032689E+02  0.19758369884E+03  0.20580083109E+03  0.00000000000E+00 0.  1.
</event>
<event>
12    1  0.9246030E-003  0.2358712E+03  0.7818608E-02  0.1122650E+00
         21   -1    0    0  503  502  0.00000000000E+00  0.00000000000E+00  0.29067766829E+03  0.29067766829E+03  0.00000000000E+00 0.  1.
         21   -1    0    0  501  503 -0.00000000000E+00 -0.00000000000E+00 -0.21049658342E+03  0.21049658342E+03  0.00000000000E+00 0.  1.
          6    2    1    2  501    0 -0.16169409713E+02  0.16146999741E+03 -0.36063377364E+02  0.23861222823E+03  0.17117598663E+03 0.  0.
         24    2    3    3    0    0 -0.51596185615E+02  0.15824146801E+03 -0.61313419904E+02  0.19473587353E+03  0.80375347039E+02 0.  0.
         -6    2    1    2    0  502  0.16169409713E+02 -0.16146999741E+03  0.11624446224E+03  0.26256202348E+03  0.17056386281E+03 0.  0.
        -24    2    5    5    0    0 -0.42305486505E+02 -0.92638583303E+02  0.11311801471E+03  0.17206925178E+03  0.80252606500E+02 0.  0.
          5    1    3    3  501    0  0.35426775901E+02  0.32285294004E+01  0.25250042540E+02  0.43876354693E+02  0.47000000000E+01 0. -1.
        -13    1    4    4    0    0 -0.25525871811E+02  0.63393898439E+02 -0.67657868613E+02  0.96166229397E+02  0.00000000000E+00 0.  1.
         14    1    4    4    0    0 -0.26070313804E+02  0.94847569574E+02  0.63444487097E+01  0.98569644137E+02  0.00000000000E+00 0. -1.
         -5    1    5    5    0  502  0.58474896218E+02 -0.68831414111E+02  0.31264475261E+01  0.90492771702E+02  0.47000000000E+01 0.  1.
         11    1    6    6    0    0 -0.40201559236E+02 -0.34406559682E+01  0.38229618787E+02  0.55583335912E+02  0.00000000000E+00 0. -1.
        -12    1    6    6    0    0 -0.21039272686E+01 -0.89197927335E+02  0.74888395922E+02  0.11648591586E+03  0.00000000000E+00 0.  1.
</event>
<event>
12    1  0.9246030E-003  0.1970703E+03  0.7818608E-02  0.1152377E+00
         21   -1    0    0  503  502  0.00000000000E+00  0.00000000000E+00  0.13245060735E+03  0.13245060735E+03  0.00000000000E+00 0.  1.
         21   -1    0    0  501  503 -0.00000000000E+00 -0.00000000000E+00 -0.29750677139E+03  0.29750677139E+03  0.00000000000E+00 0. -1.
          6    2    1    2  501    0  0.89072381159E+02  0.33678421334E+02 -0.11100638484E+03  0.22560947901E+03  0.17178211314E+03 0.  0.
         24    2    3    3    0    0  0.31233388281E+02  0.77259315260E+02 -0.10172481531E+03  0.15244609373E+03  0.77119045031E+02 0.  0.
         -6    2    1    2    0  502 -0.89072381159E+02 -0.33678421334E+02 -0.54049779200E+02  0.20434789973E+03  0.17253567846E+03 0.  0.
        -24    2    5    5    0    0 -0.44112913113E+02 -0.16934604295E+02 -0.10338160167E+03  0.13537378948E+03  0.73522631805E+02 0.  0.
          5    1    3    3  501    0  0.57838992879E+02 -0.43580893927E+02 -0.92815695301E+01  0.73163385280E+02  0.47000000000E+01 0. -1.
        -11    1    4    4    0    0  0.77431076493E+01 -0.25188576031E+01  0.10171358953E+02  0.13029079117E+02  0.00000000000E+00 0.  1.
         12    1    4    4    0    0  0.23490280632E+02  0.79778172863E+02 -0.11189617426E+03  0.13941701461E+03  0.00000000000E+00 0. -1.
         -5    1    5    5    0  502 -0.44959468046E+02 -0.16743817038E+02  0.49331822472E+02  0.68974110247E+02  0.47000000000E+01 0.  1.
         13    1    6    6    0    0  0.25281643100E+01 -0.34574201489E+02 -0.26067664675E+02  0.43373841945E+02  0.00000000000E+00 0. -1.
        -14    1    6    6    0    0 -0.46641077423E+02  0.17639597194E+02 -0.77313936997E+02  0.91999947534E+02  0.00000000000E+00 0.  1.
</event>
<event>
12    1  0.9246030E-003  0.1995192E+03  0.7818608E-02  0.1150217E+00
         21   -1    0    0  503  502  0.00000000000E+00  0.00000000000E+00  0.14807875316E+03  0.14807875316E+03  0.00000000000E+00 0.  1.
         21   -1    0    0  501  503 -0.00000000000E+00 -0.00000000000E+00 -0.28101720664E+03  0.28101720664E+03  0.00000000000E+00 0.  1.
          6    2    1    2  501    0  0.96843674948E+02 -0.33157641376E+02 -0.11192816830E+03  0.22847359695E+03  0.17086293655E+03 0.  0.
         24    2    3    3    0    0  0.14127071233E+02  0.50728157241E+01  0.30800886163E+01  0.81665581029E+02  0.80215164264E+02 0.  0.
         -6    2    1    2    0  502 -0.96843674948E+02  0.33157641376E+02 -0.21010285184E+02  0.20062236285E+03  0.17125937590E+03 0.  0.
        -24    2    5    5    0    0 -0.93362988089E+02  0.50981795308E+02  0.37684931037E+02  0.13900228453E+03  0.81152264788E+02 0.  0.
          5    1    3    3  501    0  0.82716603715E+02 -0.38230457100E+02 -0.11500825692E+03  0.14680801592E+03  0.47000000000E+01 0. -1.
        -11    1    4    4    0    0  0.56862856008E+01  0.24862233502E+02 -0.31750949856E+02  0.40725757395E+02  0.00000000000E+00 0.  1.
         12    1    4    4    0    0  0.84407856320E+01 -0.19789417778E+02  0.34831038472E+02  0.40939823634E+02  0.00000000000E+00 0. -1.
         -5    1    5    5    0  502 -0.34806868590E+01 -0.17824153933E+02 -0.58695216221E+02  0.61620078316E+02  0.47000000000E+01 0.  1.
         13    1    6    6    0    0  0.13943130948E+02  0.14364944901E+02  0.19071148469E+01  0.20109689945E+02  0.00000000000E+00 0. -1.
        -14    1    6    6    0    0 -0.10730611904E+03  0.36616850407E+02  0.35777816190E+02  0.11889259459E+03  0.00000000000E+00 0.  1.
</event>
<event>
12    1  0.9246030E-003  0.2154538E+03  0.7818608E-02  0.1137484E+00
         21   -1    0    0  503  502  0.00000000000E+00  0.00000000000E+00  0.47341774868E+03  0.47341774868E+03  0.00000000000E+00 0. -1.
         21   -1    0    0  501  503 -0.00000000000E+00 -0.00000000000E+00 -0.97874235297E+02  0.97874235297E+02  0.00000000000E+00 0. -1.
          6    2    1    2  501    0  0.11815866338E+03  0.51309103127E+02  0.20147452228E+03  0.29497849322E+03  0.17270273460E+03 0.  0.
         24    2    3    3    0    0  0.21970813645E+02 -0.32698627948E+02  0.11233108968E+03  0.13916436391E+03  0.72086958262E+02 0.  0.
         -6    2    1    2    0  502 -0.11815866338E+03 -0.51309103127E+02  0.17406899110E+03  0.27631349076E+03  0.17162470019E+03 0.  0.
        -24    2    5    5    0    0 -0.10825942816E+03  0.27361562958E+02  0.93811186810E+02  0.16339549525E+03  0.73680324257E+02 0.  0.
          5    1    3    3  501    0  0.96187849735E+02  0.84007731075E+02  0.89143432603E+02  0.15581412931E+03  0.47000000000E+01 0. -1.
        -13    1    4    4    0    0 -0.24818498442E+02  0.32700901818E+00  0.31601891065E+02  0.40183881329E+02  0.00000000000E+00 0.  1.
         14    1    4    4    0    0  0.46789312086E+02 -0.33025636966E+02  0.80729198615E+02  0.98980482579E+02  0.00000000000E+00 0. -1.
         -5    1    5    5    0  502 -0.98992352152E+01 -0.78670666085E+02  0.80257804289E+02  0.11291799551E+03  0.47000000000E+01 0.  1.
         11    1    6    6    0    0 -0.11760030906E+03  0.17889532311E+02  0.91072523736E+02  0.14981345947E+03  0.00000000000E+00 0. -1.
        -12    1    6    6    0    0  0.93408808979E+01  0.94720306465E+01  0.27386630747E+01  0.13582035781E+02  0.00000000000E+00 0.  1.
</event>
<event>
12    1  0.9246030E-003  0.2227559E+03  0.7818608E-02  0.1132469E+00
         21   -1    0    0  503  502  0.00000000000E+00  0.00000000000E+00  0.51155965632E+03  0.51155965632E+03  0.00000000000E+00 0. -1.
         21   -1    0    0  501  503 -0.00000000000E+00 -0.00000000000E+00 -0.16736358042E+03  0.16736358042E+03  0.00000000000E+00 0. -1.
          6    2    1    2  501    0 -0.52628788302E+02 -0.12766229340E+03 -0.49536692186E+02  0.22819743210E+03  0.17479340270E+03 0.  0.
         24    2    3    3    0    0  0.27096757720E+02 -0.24346718053E+02 -0.43827783001E+02  0.97488012232E+02  0.79095138961E+02 0.  0.
         -6    2    1    2    0  502  0.52628788302E+02  0.12766229340E+03  0.39373276809E+03  0.45072580464E+03  0.17047230798E+03 0.  0.
        -24    2    5    5    0    0  0.75153028167E+02  0.22424413993E+02  0.21634079982E+03  0.24318700574E+03  0.78649514354E+02 0.  0.
          5    1    3    3  501    0 -0.79725546022E+02 -0.10331557535E+03 -0.57089091854E+01  0.13070941987E+03  0.47000000000E+01 0. -1.
        -13    1    4    4    0    0  0.14521194381E+02 -0.40294754651E+02  0.64023363777E+01  0.43307300189E+02  0.00000000000E+00 0.  1.
         14    1    4    4    0    0  0.12575563339E+02  0.15948036597E+02 -0.50230119379E+02  0.54180712042E+02  0.00000000000E+00 0. -1.
         -5    1    5    5    0  502 -0.22524239866E+02  0.10523787941E+03  0.17739196828E+03  0.20753879891E+03  0.47000000000E+01 0.  1.
         13    1    6    6    0    0  0.44846289781E+02  0.52037596208E+02  0.13448118469E+03  0.15101089419E+03  0.00000000000E+00 0. -1.
        -14    1    6    6    0    0  0.30306738387E+02 -0.29613182215E+02  0.81859615122E+02  0.92176111550E+02  0.00000000000E+00 0.  1.
</event>
<event>
12    1  0.9246030E-003  0.1911874E+03  0.7818608E-02  0.1157455E+00
         21   -1    0    0  503  502  0.00000000000E+00  0.00000000000E+00  0.61221112667E+02  0.61221112667E+02  0.00000000000E+00 0.  1.
         21   -1    0    0  501  503 -0.00000000000E+00 -0.00000000000E+00 -0.64127612905E+03  0.64127612905E+03  0.00000000000E+00 0.  1.
          6    2    1    2  501    0  0.64679677060E+02 -0.52642255476E+02 -0.38331837649E+03  0.42835217734E+03  0.17204052543E+03 0.  0.
         24    2    3    3    0    0 -0.32159900773E+01 -0.13469463030E+02 -0.31893041078E+03  0.32680302957E+03  0.69941719969E+02 0.  0.
         -6    2    1    2    0  502 -0.64679677060E+02  0.52642255476E+02 -0.19673663989E+03  0.27414506437E+03  0.17174266552E+03 0.  0.
        -24    2    5    5    0    0  0.12850537438E+01  0.36131289198E+02 -0.18598761008E+03  0.20514079379E+03  0.78639892871E+02 0.  0.
          5    1    3    3  501    0  0.67895667137E+02 -0.39172792446E+02 -0.64387965718E+02  0.10154914777E+03  0.47000000000E+01 0. -1.
        -13    1    4    4    0    0  0.33163892636E+02 -0.66131994826E+01 -0.17090565527E+03  0.17421917571E+03  0.00000000000E+00 0.  1.
         14    1    4    4    0    0 -0.36379882713E+02 -0.68562635471E+01 -0.14802475550E+03  0.15258385386E+03  0.00000000000E+00 0. -1.
         -5    1    5    5    0  502 -0.65964730803E+02  0.16510966278E+02 -0.10749029811E+02  0.69004270587E+02  0.47000000000E+01 0.  1.
         11    1    6    6    0    0  0.19964231593E+02 -0.23309881502E+01 -0.14336592321E+03  0.14476806273E+03  0.00000000000E+00 0. -1.
        -12    1    6    6    0    0 -0.18679177849E+02  0.38462277348E+02 -0.42621686872E+02  0.60372731060E+02  0.00000000000E+00 0.  1.
</event>
<event>
12    1  0.9246030E-003  0.1816379E+03  0.7818608E-02  0.1166429E+00
         21   -1    0    0  503  502  0.00000000000E+00  0.00000000000E+00  0.11745604391E+04  0.11745604391E+04  0.00000000000E+00 0.  1.
         21   -1    0    0  501  503 -0.00000000000E+00 -0.00000000000E+00 -0.37784601694E+02  0.37784601694E+02  0.00000000000E+00 0.  1.
          6    2    1    2  501    0 -0.56979491773E+02  0.16106374036E+01  0.87652238665E+03  0.89497428189E+03  0.17157568099E+03 0.  0.
         24    2    3    3    0    0 -0.30463285086E+01  0.51745704269E+02  0.61138501327E+03  0.61976122298E+03  0.87323771294E+02 0.  0.
         -6    2    1    2    0  502  0.56979491773E+02 -0.16106374036E+01  0.26025345077E+03  0.31737075892E+03  0.17246183156E+03 0.  0.
        -24    2    5    5    0    0  0.66200339099E+02 -0.36175431602E+02  0.25352247546E+03  0.28066728427E+03  0.93858042507E+02 0.  0.
          5    1    3    3  501    0 -0.53933163264E+02 -0.50135066866E+02  0.26513737338E+03  0.27521305891E+03  0.47000000000E+01 0. -1.
        -13    1    4    4    0    0 -0.13611137968E+02  0.40531152077E+02  0.10821186739E+03  0.11635224798E+03  0.00000000000E+00 0.  1.
         14    1    4    4    0    0  0.10564809459E+02  0.11214552192E+02  0.50317314588E+03  0.50340897500E+03  0.00000000000E+00 0. -1.
         -5    1    5    5    0  502 -0.92208473264E+01  0.34564794198E+02  0.67309753084E+01  0.36703474658E+02  0.47000000000E+01 0.  1.
         11    1    6    6    0    0 -0.15126839117E+01 -0.34468338798E+02  0.25790478017E+02  0.43075553954E+02  0.00000000000E+00 0. -1.
        -12    1    6    6    0    0  0.67713023011E+02 -0.17070928036E+01  0.22773199745E+03  0.23759173031E+03  0.00000000000E+00 0.  1.
</event>
<event>
12    1  0.9246030E-003  0.1925822E+03  0.7818608E-02  0.1158311E+00
         21   -1    0    0  501  502  0.00000000000E+00  0.00000000000E+00  0.11843892037E+03  0.11843892037E+03  0.00000000000E+00 0.  1.
         21   -1    0    0  502  503 -0.00000000000E+00 -0.00000000000E+00 -0.42101224838E+03  0.42101224838E+03  0.00000000000E+00 0.  1.
          6    2    1    2  501    0 -0.23925561119E+02 -0.59651140143E+02 -0.81734130171E+01  0.19275560065E+03  0.18154125125E+03 0.  0.
         24    2    3    3    0    0 -0.52214621998E+02 -0.83338979595E+02  0.39520275518E+02  0.13227285411E+03  0.79135980985E+02 0.  0.
         -6    2    1    2    0  503  0.23925561119E+02  0.59651140143E+02 -0.29439991500E+03  0.34669556809E+03  0.17145208074E+03 0.  0.
        -24    2    5    5    0    0  0.42423077552E+02 -0.24142562680E+02 -0.18788614328E+03  0.20983499556E+03  0.79667695373E+02 0.  0.
          5    1    3    3  501    0  0.28289060880E+02  0.23687839452E+02 -0.47693688535E+02  0.60482746543E+02  0.47000000000E+01 0. -1.
        -13    1    4    4    0    0 -0.42255418401E+01 -0.12062157413E+02  0.44405038926E+02  0.46207773451E+02  0.00000000000E+00 0.  1.
         14    1    4    4    0    0 -0.47989080158E+02 -0.71276822182E+02 -0.48847634085E+01  0.86065080657E+02  0.00000000000E+00 0. -1.
         -5    1    5    5    0  503 -0.18497516433E+02  0.83793702823E+02 -0.10651377172E+03  0.13686057253E+03  0.47000000000E+01 0.  1.
         11    1    6    6    0    0  0.34440622978E+02  0.38269026677E+01 -0.21184937743E+02  0.40615308473E+02  0.00000000000E+00 0. -1.
        -12    1    6    6    0    0  0.79824545739E+01 -0.27969465347E+02 -0.16670120553E+03  0.16921968709E+03  0.00000000000E+00 0.  1.
</event>
<event>
12    1  0.9246030E-003  0.1952428E+03  0.7818608E-02  0.1153889E+00
         21   -1    0    0  501  502  0.00000000000E+00  0.00000000000E+00  0.17358695458E+03  0.17358695458E+03  0.00000000000E+00 0. -1.
         21   -1    0    0  502  503 -0.00000000000E+00 -0.00000000000E+00 -0.41390876051E+03  0.41390876051E+03  0.00000000000E+00 0. -1.
          6    2    1    2  501    0  0.89125789938E+02  0.22577207185E+02  0.81245389703E+02  0.21147241595E+03  0.17224004366E+03 0.  0.
         24    2    3    3    0    0  0.11935895061E+03  0.44488212264E+02  0.86154098617E+02  0.17352084719E+03  0.80381562436E+02 0.  0.
         -6    2    1    2    0  503 -0.89125789938E+02 -0.22577207185E+02 -0.32156719563E+03  0.37602329915E+03  0.17185727649E+03 0.  0.
        -24    2    5    5    0    0 -0.11581971393E+02 -0.62141207533E+02 -0.12502411621E+03  0.16101254131E+03  0.79362063294E+02 0.  0.
          5    1    3    3  501    0 -0.30233160673E+02 -0.21911005079E+02 -0.49087089138E+01  0.37951568756E+02  0.47000000000E+01 0. -1.
        -13    1    4    4    0    0  0.81336120902E+02  0.10964262524E+02  0.10908909232E+02  0.82793622440E+02  0.00000000000E+00 0.  1.
         14    1    4    4    0    0  0.38022829709E+02  0.33523949740E+02  0.75245189385E+02  0.90727224750E+02  0.00000000000E+00 0. -1.
         -5    1    5    5    0  503 -0.77543818545E+02  0.39564000348E+02 -0.19654307942E+03  0.21501075784E+03  0.47000000000E+01 0.  1.
         13    1    6    6    0    0 -0.17097489609E+02 -0.11133665737E+02 -0.10330372151E+03  0.10529929507E+03  0.00000000000E+00 0. -1.
        -14    1    6    6    0    0  0.55155182159E+01 -0.51007541796E+02 -0.21720394702E+02  0.55713246246E+02  0.00000000000E+00 0.  1.
</event>
<event>
12    1  0.9246030E-003  0.2095124E+03  0.7818608E-02  0.1142187E+00
         21   -1    0    0  501  502  0.00000000000E+00  0.00000000000E+00  0.45877339823E+03  0.45877339823E+03  0.00000000000E+00 0. -1.
         21   -1    0    0  502  503 -0.00000000000E+00 -0.00000000000E+00 -0.10730610182E+03  0.10730610182E+03  0.00000000000E+00 0. -1.
          6    2    1    2  501    0  0.11974898130E+03 -0.14401423225E+01  0.27145759504E+03  0.34290624061E+03  0.17191152204E+03 0.  0.
         24    2    3    3    0    0  0.35881614317E+02  0.39400196657E+02  0.65326902572E+02  0.11660197438E+03  0.80551539328E+02 0.  0.
         -6    2    1    2    0  503 -0.11974898130E+03  0.14401423225E+01  0.80009701367E+02  0.22317325944E+03  0.17047832380E+03 0.  0.
        -24    2    5    5    0    0 -0.10795991511E+03  0.46598804665E+02  0.15004412049E+02  0.14301052180E+03  0.80000531861E+02 0.  0.
          5    1    3    3  501    0  0.83867366978E+02 -0.40840338979E+02  0.20613069247E+03  0.22630426622E+03  0.47000000000E+01 0. -1.
        -13    1    4    4    0    0 -0.99034161138E+01  0.63501071570E+01 -0.14594000742E+02  0.18745302593E+02  0.00000000000E+00 0.  1.
         14    1    4    4    0    0  0.45785030431E+02  0.33050089500E+02  0.79920903315E+02  0.97856671792E+02  0.00000000000E+00 0. -1.
         -5    1    5    5    0  503 -0.11789066182E+02 -0.45158662342E+02  0.65005289317E+02  0.80162737635E+02  0.47000000000E+01 0.  1.
         13    1    6    6    0    0 -0.42508421494E+02  0.58848915276E+02 -0.68734777680E+01  0.72920541850E+02  0.00000000000E+00 0. -1.
        -14    1    6    6    0    0 -0.65451493620E+02 -0.12250110611E+02  0.21877889817E+02  0.70089979954E+02  0.00000000000E+00 0.  1.
</event>
<event>
12    1  0.9246030E-003  0.2083389E+03  0.7818608E-02  0.1143114E+00
         21   -1    0    0  501  502  0.00000000000E+00  0.00000000000E+00  0.61519277557E+03  0.61519277557E+03  0.00000000000E+00 0. -1.
         21   -1    0    0  502  503 -0.00000000000E+00 -0.00000000000E+00 -0.73992425249E+02  0.73992425249E+02  0.00000000000E+00 0. -1.
          6    2    1    2  501    0 -0.34415274086E+01 -0.11712208551E+03  0.34818291537E+03  0.40517669142E+03  0.17090167258E+03 0.  0.
         24    2    3    3    0    0 -0.30837099727E+02 -0.34831631418E+02  0.27983729409E+03  0.29465316376E+03  0.79670612438E+02 0.  0.
         -6    2    1    2    0  503  0.34415274086E+01  0.11712208551E+03  0.19301743495E+03  0.28400850940E+03  0.17226629442E+03 0.  0.
        -24    2    5    5    0    0  0.41855684902E+02  0.65517328303E+02  0.18890063814E+03  0.21937309745E+03  0.79979285616E+02 0.  0.
          5    1    3    3  501    0  0.27395572319E+02 -0.82290454090E+02  0.68345621277E+02  0.11052352765E+03  0.47000000000E+01 0. -1.
        -11    1    4    4    0    0 -0.10177323069E+02 -0.51967544129E+02  0.24509254498E+03  0.25074799930E+03  0.00000000000E+00 0.  1.
         12    1    4    4    0    0 -0.20659776658E+02  0.17135912712E+02  0.34744749108E+02  0.43905164463E+02  0.00000000000E+00 0. -1.
         -5    1    5    5    0  503 -0.38414157494E+02  0.51604757205E+02  0.41167968102E+01  0.64635411951E+02  0.47000000000E+01 0.  1.
         13    1    6    6    0    0  0.18174974256E+02  0.77162818914E+02  0.10594180340E+03  0.13231816209E+03  0.00000000000E+00 0. -1.
        -14    1    6    6    0    0  0.23680710646E+02 -0.11645490610E+02  0.82958834745E+02  0.87054935360E+02  0.00000000000E+00 0.  1.
</event>
<event>
12    1  0.9246030E-003  0.1914507E+03  0.7818608E-02  0.1157389E+00
         21   -1    0    0  501  502  0.00000000000E+00  0.00000000000E+00  0.47675457040E+03  0.47675457040E+03  0.00000000000E+00 0. -1.
         21   -1    0    0  502  503 -0.00000000000E+00 -0.00000000000E+00 -0.10625076445E+03  0.10625076445E+03  0.00000000000E+00 0. -1.
          6    2    1    2  501    0  0.49932236253E+02 -0.68451598469E+02  0.33922239736E+03  0.38901587161E+03  0.17053640062E+03 0.  0.
         24    2    3    3    0    0  0.34117183644E+02 -0.65248637997E+02  0.99296258739E+02  0.14850180374E+03  0.82290167912E+02 0.  0.
         -6    2    1    2    0  503 -0.49932236253E+02  0.68451598469E+02  0.31281408593E+02  0.19398946324E+03  0.17168149515E+03 0.  0.
        -24    2    5    5    0    0  0.38330461673E+02  0.35011854381E+02  0.53150765398E+01  0.95985071863E+02  0.80559479533E+02 0.  0.
          5    1    3    3  501    0  0.15815052610E+02 -0.32029604714E+01  0.23992613862E+03  0.24051406786E+03  0.47000000000E+01 0. -1.
        -11    1    4    4    0    0 -0.14304022463E+02 -0.23144792773E+02 -0.33871613985E+01  0.27418230313E+02  0.00000000000E+00 0.  1.
         12    1    4    4    0    0  0.48421206106E+02 -0.42103845224E+02  0.10268342014E+03  0.12108357343E+03  0.00000000000E+00 0. -1.
         -5    1    5    5    0  503 -0.88262697926E+02  0.33439744088E+02  0.25966332053E+02  0.98004391382E+02  0.47000000000E+01 0.  1.
         11    1    6    6    0    0  0.10185317364E+02 -0.15132931847E+02 -0.25025559956E+02  0.30968128248E+02  0.00000000000E+00 0. -1.
        -12    1    6    6    0    0  0.28145144309E+02  0.50144786227E+02  0.30340636496E+02  0.65016943614E+02  0.00000000000E+00 0.  1.
</event>
<event>
12    1  0.9246030E-003  0.2454189E+03  0.7818608E-02  0.1116658E+00
         21   -1    0    0  501  502  0.00000000000E+00  0.00000000000E+00  0.34817024072E+03  0.34817024072E+03  0.00000000000E+00 0. -1.
         21   -1    0    0  502  503 -0.00000000000E+00 -0.00000000000E+00 -0.20426555904E+03  0.20426555904E+03  0.00000000000E+00 0.  1.
          6    2    1    2  501    0 -0.16883234823E+03  0.34013789616E+02  0.18282396402E+03  0.30395009912E+03  0.17117173028E+03 0.  0.
         24    2    3    3    0    0 -0.56338071430E+02  0.54885699098E+01  0.12613251213E+02  0.97885965361E+02  0.78857247076E+02 0.  0.
         -6    2    1    2    0  503  0.16883234823E+03 -0.34013789616E+02 -0.38919282333E+02  0.24848570064E+03  0.17484030769E+03 0.  0.
        -24    2    5    5    0    0  0.22089961130E+02  0.19542105299E+02 -0.31865065062E+02  0.92045891025E+02  0.81161588334E+02 0.  0.
          5    1    3    3  501    0 -0.11249427680E+03  0.28525219707E+02  0.17021071280E+03  0.20606413376E+03  0.47000000000E+01 0. -1.
        -11    1    4    4    0    0 -0.13752433485E+02  0.39608922430E+02  0.22621955652E+00  0.41929075092E+02  0.00000000000E+00 0.  1.
         12    1    4    4    0    0 -0.42585637945E+02 -0.34120352520E+02  0.12387031657E+02  0.55956890269E+02  0.00000000000E+00 0. -1.
         -5    1    5    5    0  503  0.14674238710E+03 -0.53555894916E+02 -0.70542172711E+01  0.15643980961E+03  0.47000000000E+01 0.  1.
         11    1    6    6    0    0  0.13357531955E+02  0.28890130060E+02  0.20686065828E+02  0.37960197500E+02  0.00000000000E+00 0. -1.
        -12    1    6    6    0    0  0.87324291744E+01 -0.93480247605E+01 -0.52551130890E+02  0.54085693525E+02  0.00000000000E+00 0.  1.
</event>
<event>
12    1  0.9246030E-003  0.2174824E+03  0.7818608E-02  0.1135778E+00
         21   -1    0    0  501  502  0.00000000000E+00  0.00000000000E+00  0.26811654195E+03  0.26811654195E+03  0.00000000000E+00 0. -1.
         21   -1    0    0  502  503 -0.00000000000E+00 -0.00000000000E+00 -0.17707496051E+03  0.17707496051E+03  0.00000000000E+00 0.  1.
          6    2    1    2  501    0 -0.13558955244E+03 -0.10864917837E+02  0.31722019661E+02  0.21976434529E+03  0.16966881787E+03 0.  0.
         24    2    3    3    0    0 -0.12151323441E+03  0.25157522758E+02  0.70565995671E+02  0.16474886176E+03  0.82245125193E+02 0.  0.
         -6    2    1    2    0  503  0.13558955244E+03  0.10864917837E+02  0.59319561776E+02  0.22542715717E+03  0.16969389974E+03 0.  0.
        -24    2    5    5    0    0  0.10115591012E+03 -0.17142270807E+02  0.10022144707E+03  0.16488681889E+03  0.81344630984E+02 0.  0.
          5    1    3    3  501    0 -0.14076318035E+02 -0.36022440595E+02 -0.38843976010E+02  0.55015483531E+02  0.47000000000E+01 0. -1.
        -11    1    4    4    0    0 -0.38094781787E+02 -0.19100539968E+02 -0.61832578657E+01  0.43061301702E+02  0.00000000000E+00 0.  1.
         12    1    4    4    0    0 -0.83418452622E+02  0.44258062726E+02  0.76749253536E+02  0.12168756006E+03  0.00000000000E+00 0. -1.
         -5    1    5    5    0  503  0.34433642321E+02  0.28007188644E+02 -0.40901885290E+02  0.60540338284E+02  0.47000000000E+01 0.  1.
         11    1    6    6    0    0  0.25615281942E+02  0.15742273273E+02  0.71620970840E+02  0.77675770359E+02  0.00000000000E+00 0. -1.
        -12    1    6    6    0    0  0.75540628180E+02 -0.32884544080E+02  0.28600476226E+02  0.87211048529E+02  0.00000000000E+00 0.  1.
</event>
<event>
12    1  0.9246030E-003  0.1762325E+03  0.7818608E-02  0.1172001E+00
         21   -1    0    0  501  502  0.00000000000E+00  0.00000000000E+00  0.19833052700E+03  0.19833052700E+03  0.00000000000E+00 0.  1.
         21   -1    0    0  502  503 -0.00000000000E+00 -0.00000000000E+00 -0.18982853917E+03  0.18982853917E+03  0.00000000000E+00 0. -1.
          6    2    1    2  501    0 -0.20302994024E+02 -0.20413047753E+02  0.87613638976E+02  0.19680963774E+03  0.17386483166E+03 0.  0.
         24    2    3    3    0    0  0.50950279702E+02 -0.23793034392E+02  0.77643171925E+02  0.12462962985E+03  0.79636944958E+02 0.  0.
         -6    2    1    2    0  503  0.20302994024E+02  0.20413047753E+02 -0.79111651146E+02  0.19134942843E+03  0.17183435724E+03 0.  0.
        -24    2    5    5    0    0  0.15786685394E+02  0.76315244899E+02 -0.78613224533E+02  0.13506629492E+03  0.77392692881E+02 0.  0.
          5    1    3    3  501    0 -0.71253273726E+02  0.33799866385E+01  0.99704670506E+01  0.72180007894E+02  0.47000000000E+01 0. -1.
        -13    1    4    4    0    0 -0.29520332048E+01  0.17249705576E+02  0.47228169796E+02  0.50366326695E+02  0.00000000000E+00 0.  1.
         14    1    4    4    0    0  0.53902312907E+02 -0.41042739968E+02  0.30415002130E+02  0.74263303154E+02  0.00000000000E+00 0. -1.
         -5    1    5    5    0  503  0.45163086297E+01 -0.55902197145E+02 -0.49842661307E+00  0.56283133516E+02  0.47000000000E+01 0.  1.
         13    1    6    6    0    0  0.34846488419E+02  0.72911715245E+02 -0.36411419359E+02  0.88635136570E+02  0.00000000000E+00 0. -1.
        -14    1    6    6    0    0 -0.19059803025E+02  0.34035296542E+01 -0.42201805174E+02  0.46431158347E+02  0.00000000000E+00 0.  1.
</event>
<event>
12    1  0.9246030E-003  0.2744692E+03  0.7818608E-02  0.1099016E+00
         21   -1    0    0  501  502  0.00000000000E+00  0.00000000000E+00  0.48230303003E+03  0.48230303003E+03  0.00000000000E+00 0.  1.
         21   -1    0    0  502  503 -0.00000000000E+00 -0.00000000000E+00 -0.16850188427E+03  0.16850188427E+03  0.00000000000E+00 0.  1.
          6    2    1    2  501    0 -0.17139501202E+03 -0.12434136231E+03  0.24812042629E+03  0.36858640991E+03  0.17162508879E+03 0.  0.
         24    2    3    3    0    0 -0.11395969210E+03 -0.82686471656E+02  0.24927038371E+03  0.29747130398E+03  0.80805869063E+02 0.  0.
         -6    2    1    2    0  503  0.17139501202E+03  0.12434136231E+03  0.65680719469E+02  0.28221850439E+03  0.17463190654E+03 0.  0.
        -24    2    5    5    0    0  0.19923668763E+03  0.11241992135E+03  0.49486313922E+02  0.24755399190E+03  0.80626219219E+02 0.  0.
          5    1    3    3  501    0 -0.57435319919E+02 -0.41654890654E+02 -0.11499574233E+01  0.71115105932E+02  0.47000000000E+01 0. -1.
        -11    1    4    4    0    0 -0.63014793538E+02 -0.86909565898E+02  0.13650431401E+03  0.17365933489E+03  0.00000000000E+00 0.  1.
         12    1    4    4    0    0 -0.50944898564E+02  0.42230942419E+01  0.11276606970E+03  0.12381196909E+03  0.00000000000E+00 0. -1.
         -5    1    5    5    0  503 -0.27841675607E+02  0.11921440959E+02  0.16194405547E+02  0.34664512490E+02  0.47000000000E+01 0.  1.
         11    1    6    6    0    0  0.49981305983E+01  0.13847910861E+02  0.24126732718E+02  0.28263849284E+02  0.00000000000E+00 0. -1.
        -12    1    6    6    0    0  0.19423855703E+03  0.98572010491E+02  0.25359581204E+02  0.21929014261E+03  0.00000000000E+00 0.  1.
</event>
<event>
12    1  0.9246030E-003  0.1772080E+03  0.7818608E-02  0.1171103E+00
         21   -1    0    0  501  502  0.00000000000E+00  0.00000000000E+00  0.85534301090E+03  0.85534301090E+03  0.00000000000E+00 0.  1.
         21   -1    0    0  502  503 -0.00000000000E+00 -0.00000000000E+00 -0.45666647972E+02  0.45666647972E+02  0.00000000000E+00 0.  1.
          6    2    1    2  501    0 -0.27839581865E+02 -0.20404087441E+02  0.61160848941E+03  0.63676338918E+03  0.17381398213E+03 0.  0.
         24    2    3    3    0    0 -0.57602600593E+02 -0.51213582805E+02  0.27148357059E+03  0.29391923699E+03  0.82123675733E+02 0.  0.
         -6    2    1    2    0  503  0.27839581865E+02  0.20404087441E+02  0.19806787352E+03  0.26424626969E+03  0.17147547761E+03 0.  0.
        -24    2    5    5    0    0  0.13010000198E+02 -0.41586415448E+02  0.49357395792E+02  0.10238325623E+03  0.78405921854E+02 0.  0.
          5    1    3    3  501    0  0.29763018728E+02  0.30809495364E+02  0.34012491882E+03  0.34284415218E+03  0.47000000000E+01 0. -1.
        -11    1    4    4    0    0 -0.53286881276E+02 -0.60596703181E+01  0.74593149952E+02  0.91871373889E+02  0.00000000000E+00 0.  1.
         12    1    4    4    0    0 -0.43157193163E+01 -0.45153912487E+02  0.19689042064E+03  0.20204786310E+03  0.00000000000E+00 0. -1.
         -5    1    5    5    0  503  0.14829581667E+02  0.61990502889E+02  0.14871047773E+03  0.16186301346E+03  0.47000000000E+01 0.  1.
         11    1    6    6    0    0 -0.16197877063E+02  0.13087569958E+02  0.31704561187E+02  0.37931977391E+02  0.00000000000E+00 0. -1.
        -12    1    6    6    0    0  0.29207877261E+02 -0.54673985405E+02  0.17652834605E+02  0.64451278838E+02  0.00000000000E+00 0.  1.
</event>
<event>
12    1  0.9246030E-003  0.1910980E+03  0.7818608E-02  0.1157616E+00
         21   -1    0    0  501  502  0.00000000000E+00  0.00000000000E+00  0.50988144715E+03  0.50988144715E+03  0.00000000000E+00 0. -1.
         21   -1    0    0  502  503 -0.00000000000E+00 -0.00000000000E+00 -0.11402558821E+03  0.11402558821E+03  0.00000000000E+00 0. -1.
          6    2    1    2  501    0  0.81332704169E+02 -0.99841721247E+01  0.38848826985E+03  0.43266709780E+03  0.17193891139E+03 0.  0.
         24    2    3    3    0    0  0.71772740037E+02 -0.21211006797E+02  0.11744317072E+03  0.16118050423E+03  0.81148158153E+02 0.  0.
         -6    2    1    2    0  503 -0.81332704169E+02  0.99841721247E+01  0.73675890881E+01  0.19123993756E+03  0.17263759698E+03 0.  0.
        -24    2    5    5    0    0 -0.49303980055E+02  0.50717843204E+02 -0.48356043063E+02  0.11500159873E+03  0.76706445238E+02 0.  0.
          5    1    3    3  501    0  0.95599641311E+01  0.11226834672E+02  0.27104509913E+03  0.27148659357E+03  0.47000000000E+01 0. -1.
        -11    1    4    4    0    0  0.18948172524E+02  0.27239521003E+02  0.62876765214E+02  0.71095093714E+02  0.00000000000E+00 0.  1.
         12    1    4    4    0    0  0.52824567514E+02 -0.48450527800E+02  0.54566405508E+02  0.90085410512E+02  0.00000000000E+00 0. -1.
         -5    1    5    5    0  503 -0.32028724113E+02 -0.40733671080E+02  0.55723632151E+02  0.76238338833E+02  0.47000000000E+01 0.  1.
         11    1    6    6    0    0 -0.63373520097E+02  0.19741707425E+02 -0.16507715805E+02  0.68399142850E+02  0.00000000000E+00 0. -1.
        -12    1    6    6    0    0  0.14069540042E+02  0.30976135780E+02 -0.31848327258E+02  0.46602455879E+02  0.00000000000E+00 0.  1.
</event>
<event>
12    1  0.9246030E-003  0.4443130E+03  0.7818608E-02  0.1029478E+00
         21   -1    0    0  503  502  0.00000000000E+00  0.00000000000E+00  0.36381919425E+03  0.36381919425E+03  0.00000000000E+00 0. -1.
         21   -1    0    0  501  503 -0.00000000000E+00 -0.00000000000E+00 -0.56614946404E+03  0.56614946404E+03  0.00000000000E+00 0.  1.
          6    2    1    2  501    0 -0.38527151240E+03 -0.13911187483E+03 -0.48021198824E+01  0.44372648934E+03  0.17053998065E+03 0.  0.
         24    2    3    3    0    0 -0.28741060646E+03 -0.16118969634E+03  0.20138854761E+02  0.34024543151E+03  0.82306775412E+02 0.  0.
         -6    2    1    2    0  502  0.38527151240E+03  0.13911187483E+03 -0.19752814991E+03  0.48624216895E+03  0.17212735072E+03 0.  0.
        -24    2    5    5    0    0  0.27832685170E+03  0.38359930979E+02 -0.16471354418E+03  0.33562011547E+03  0.81073976046E+02 0.  0.
          5    1    3    3  501    0 -0.97860905940E+02  0.22077821507E+02 -0.24940974643E+02  0.10348105783E+03  0.47000000000E+01 0. -1.
        -13    1    4    4    0    0 -0.10626298424E+03 -0.15953725394E+02  0.78158665992E+01  0.10773778792E+03  0.00000000000E+00 0.  1.
         14    1    4    4    0    0 -0.18114762222E+03 -0.14523597095E+03  0.12322988162E+02  0.23250764359E+03  0.00000000000E+00 0. -1.
         -5    1    5    5    0  502  0.10694466070E+03  0.10075194386E+03 -0.32814605738E+02  0.15062205347E+03  0.47000000000E+01 0.  1.
         11    1    6    6    0    0  0.17407356225E+03  0.51392603551E+02 -0.71201957220E+02  0.19496800631E+03  0.00000000000E+00 0. -1.
        -12    1    6    6    0    0  0.10425328946E+03 -0.13032672572E+02 -0.93511586955E+02  0.14065210916E+03  0.00000000000E+00 0.  1.
</event>
<event>
12    1  0.9246030E-003  0.2095611E+03  0.7818608E-02  0.1142105E+00
         21   -1    0    0  503  502  0.00000000000E+00  0.00000000000E+00  0.15817591623E+03  0.15817591623E+03  0.00000000000E+00 0.  1.
         21   -1    0    0  501  503 -0.00000000000E+00 -0.00000000000E+00 -0.28852932791E+03  0.28852932791E+03  0.00000000000E+00 0.  1.
          6    2    1    2  501    0  0.82560792424E+01  0.11808876784E+03 -0.11088710419E+03  0.23624193055E+03  0.17175907527E+03 0.  0.
         24    2    3    3    0    0 -0.16999020732E+02  0.61861514882E+02 -0.13528675735E+03  0.16978324320E+03  0.80050166937E+02 0.  0.
         -6    2    1    2    0  502 -0.82560792424E+01 -0.11808876784E+03 -0.19466307487E+02  0.21046331359E+03  0.17292411430E+03 0.  0.
        -24    2    5    5    0    0  0.49824816958E+02 -0.25548494186E+02  0.61822175044E+01  0.98137761802E+02  0.80358960534E+02 0.  0.
          5    1    3    3  501    0  0.25255099975E+02  0.56227252956E+02  0.24399653161E+02  0.66458687349E+02  0.47000000000E+01 0. -1.
        -13    1    4    4    0    0  0.26218270424E+02  0.14818110486E+02 -0.15135291765E+02  0.33705358019E+02  0.00000000000E+00 0.  1.
         14    1    4    4    0    0 -0.43217291156E+02  0.47043404396E+02 -0.12015146559E+03  0.13607788518E+03  0.00000000000E+00 0. -1.
         -5    1    5    5    0  502 -0.58080896200E+02 -0.92540273652E+02 -0.25648524992E+02  0.11232555179E+03  0.47000000000E+01 0.  1.
         13    1    6    6    0    0 -0.19876758281E+02 -0.42436384226E+01  0.14228376063E+02  0.24810092144E+02  0.00000000000E+00 0. -1.
        -14    1    6    6    0    0  0.69701575239E+02 -0.21304855764E+02 -0.80461585581E+01  0.73327669658E+02  0.00000000000E+00 0.  1.
</event>
<event>
12    1  0.9246030E-003  0.2188849E+03  0.7818608E-02  0.1135334E+00
         21   -1    0    0  503  502  0.00000000000E+00  0.00000000000E+00  0.40116660822E+02  0.40116660822E+02  0.00000000000E+00 0.  1.
         21   -1    0    0  501  503 -0.00000000000E+00 -0.00000000000E+00 -0.12318344823E+04  0.12318344823E+04  0.00000000000E+00 0. -1.
          6    2    1    2  501    0  0.11718862387E+03 -0.65896228819E+02 -0.72631209896E+03  0.75764278241E+03  0.16857590015E+03 0.  0.
         24    2    3    3    0    0  0.85929140542E+02 -0.23500598109E+02 -0.23483717466E+03  0.26333090109E+03  0.79111121602E+02 0.  0.
         -6    2    1    2    0  502 -0.11718862387E+03  0.65896228819E+02 -0.46540572248E+03  0.51430836067E+03  0.17272844815E+03 0.  0.
        -24    2    5    5    0    0 -0.53849917714E+02  0.58420102536E+02 -0.42190862614E+03  0.43696644738E+03  0.81363783727E+02 0.  0.
          5    1    3    3  501    0  0.31259483331E+02 -0.42395630710E+02 -0.49147492430E+03  0.49431188132E+03  0.47000000000E+01 0. -1.
        -13    1    4    4    0    0  0.10000352157E+03 -0.27038557345E+02 -0.19295198485E+03  0.21900286840E+03  0.00000000000E+00 0.  1.
         14    1    4    4    0    0 -0.14074381028E+02  0.35379592354E+01 -0.41885189807E+02  0.44328032689E+02  0.00000000000E+00 0. -1.
         -5    1    5    5    0  502 -0.63338706158E+02  0.74761262838E+01 -0.43497096339E+02  0.77341913294E+02  0.47000000000E+01 0.  1.
         13    1    6    6    0    0 -0.20270561478E+02  0.66541269130E+02 -0.18676057385E+03  0.19929412462E+03  0.00000000000E+00 0. -1.
        -14    1    6    6    0    0 -0.33579356236E+02 -0.81211665942E+01 -0.23514805229E+03  0.23767232276E+03  0.00000000000E+00 0.  1.
</event>
<event>
12    1  0.9246030E-003  0.1861116E+03  0.7818608E-02  0.1162657E+00
         21   -1    0    0  501  502  0.00000000000E+00  0.00000000000E+00  0.18650434397E+03  0.18650434397E+03  0.00000000000E+00 0. -1.
         21   -1    0    0  502  503 -0.00000000000E+00 -0.00000000000E+00 -0.20774712223E+03  0.20774712223E+03  0.00000000000E+00 0. -1.
          6    2    1    2  501    0 -0.23069758550E+02 -0.70687772917E+02  0.57358400318E+02  0.19474988659E+03  0.17061230097E+03 0.  0.
         24    2    3    3    0    0 -0.26175457879E+02 -0.59535617900E+02 -0.20969544221E+02  0.11543171197E+03  0.93032864887E+02 0.  0.
         -6    2    1    2    0  503  0.23069758550E+02  0.70687772917E+02 -0.78601178582E+02  0.19950157960E+03  0.16761193272E+03 0.  0.
        -24    2    5    5    0    0  0.19055257935E+02  0.10573516527E+03 -0.90813054119E+02  0.16187637754E+03  0.80086970087E+02 0.  0.
          5    1    3    3  501    0  0.31056993294E+01 -0.11152155017E+02  0.78327944539E+02  0.79318174623E+02  0.47000000000E+01 0. -1.
        -13    1    4    4    0    0 -0.31369117057E+02  0.72245334881E+01 -0.34425765582E+02  0.47131186331E+02  0.00000000000E+00 0.  1.
         14    1    4    4    0    0  0.51936591773E+01 -0.66760151388E+02  0.13456221361E+02  0.68300525637E+02  0.00000000000E+00 0. -1.
         -5    1    5    5    0  503  0.40145006155E+01 -0.35047392355E+02  0.12211875537E+02  0.37625202062E+02  0.47000000000E+01 0.  1.
         13    1    6    6    0    0 -0.59115915567E+01  0.78128955020E+02 -0.96413047377E+02  0.12423588947E+03  0.00000000000E+00 0. -1.
        -14    1    6    6    0    0  0.24966849491E+02  0.27606210252E+02  0.55999932581E+01  0.37640488074E+02  0.00000000000E+00 0.  1.
</event>
<event>
12    1  0.9246030E-003  0.2376085E+03  0.7818608E-02  0.1121750E+00
         21   -1    0    0  503  502  0.00000000000E+00  0.00000000000E+00  0.13142599746E+04  0.13142599746E+04  0.00000000000E+00 0. -1.
         21   -1    0    0  501  503 -0.00000000000E+00 -0.00000000000E+00 -0.45004331590E+02  0.45004331590E+02  0.00000000000E+00 0.  1.
          6    2    1    2  501    0  0.15961727640E+03  0.11480484407E+02  0.47428537445E+03  0.52954414890E+03  0.17280310405E+03 0.  0.
         24    2    3    3    0    0  0.42185410385E+02 -0.48985635407E+02  0.17967410478E+03  0.20664434243E+03  0.78993031372E+02 0.  0.
         -6    2    1    2    0  502 -0.15961727640E+03 -0.11480484407E+02  0.79497026858E+03  0.82972015731E+03  0.17563694108E+03 0.  0.
        -24    2    5    5    0    0 -0.24559403741E+02 -0.18625187773E+02  0.47166244814E+03  0.47923233653E+03  0.79044958503E+02 0.  0.
          5    1    3    3  501    0  0.11743186601E+03  0.60466119814E+02  0.29461126967E+03  0.32289980647E+03  0.47000000000E+01 0. -1.
        -11    1    4    4    0    0  0.61060790720E+02 -0.54725737009E+02  0.13768527550E+03  0.16025155708E+03  0.00000000000E+00 0.  1.
         12    1    4    4    0    0 -0.18875380335E+02  0.57401016020E+01  0.41988829273E+02  0.46392785355E+02  0.00000000000E+00 0. -1.
         -5    1    5    5    0  502 -0.13505787266E+03  0.71447033652E+01  0.32330782045E+03  0.35048782078E+03  0.47000000000E+01 0.  1.
         13    1    6    6    0    0 -0.36736737659E+02  0.17023640693E+02  0.33620004600E+03  0.33862938911E+03  0.00000000000E+00 0. -1.
        -14    1    6    6    0    0  0.12177333918E+02 -0.35648828466E+02  0.13546240214E+03  0.14060294743E+03  0.00000000000E+00 0.  1.
</event>
<event>
12    1  0.9246030E-003  0.1762530E+03  0.7818608E-02  0.1171814E+00
         21   -1    0    0  503  502  0.00000000000E+00  0.00000000000E+00  0.38132425517E+03  0.38132425517E+03  0.00000000000E+00 0.  1.
         21   -1    0    0  501  503 -0.00000000000E+00 -0.00000000000E+00 -0.91324203604E+02  0.91324203604E+02  0.00000000000E+00 0.  1.
          6    2    1    2  501    0  0.34877054303E+02 -0.47859278185E+01  0.64466861172E+02  0.18641369141E+03  0.17133234994E+03 0.  0.
         24    2    3    3    0    0 -0.96067824799E+01  0.13927878254E+02 -0.24365963873E+02  0.85209051807E+02  0.79878697111E+02 0.  0.
         -6    2    1    2    0  502 -0.34877054303E+02  0.47859278185E+01  0.22553319040E+03  0.28623476736E+03  0.17270149986E+03 0.  0.
        -24    2    5    5    0    0 -0.78003759754E+02 -0.31777645468E+02  0.17564727766E+03  0.21068675677E+03  0.80265422459E+02 0.  0.
          5    1    3    3  501    0  0.44483836783E+02 -0.18713806072E+02  0.88832825045E+02  0.10120463961E+03  0.47000000000E+01 0. -1.
        -13    1    4    4    0    0 -0.38221918957E+02 -0.11758177620E+02 -0.24227592853E+02  0.46756241136E+02  0.00000000000E+00 0.  1.
         14    1    4    4    0    0  0.28615136477E+02  0.25686055874E+02 -0.13837102016E+00  0.38452810671E+02  0.00000000000E+00 0. -1.
         -5    1    5    5    0  502  0.43126705451E+02  0.36563573286E+02  0.49885912735E+02  0.75548010589E+02  0.47000000000E+01 0.  1.
         13    1    6    6    0    0 -0.19042077352E+02 -0.50026252663E+02  0.96109641049E+02  0.11001040754E+03  0.00000000000E+00 0. -1.
        -14    1    6    6    0    0 -0.58961682402E+02  0.18248607196E+02  0.79537636614E+02  0.10067634923E+03  0.00000000000E+00 0.  1.
</event>
<event>
12    1  0.9246030E-003  0.1832528E+03  0.7818608E-02  0.1167679E+00
         21   -1    0    0  501  502  0.00000000000E+00  0.00000000000E+00  0.17865471937E+03  0.17865471937E+03  0.00000000000E+00 0.  1.
         21   -1    0    0  502  503 -0.00000000000E+00 -0.00000000000E+00 -0.17883478903E+03  0.17883478903E+03  0.00000000000E+00 0.  1.
          6    2    1    2  501    0  0.23212801664E+02 -0.21885013409E+02  0.23640306962E+02  0.17269507739E+03  0.16806825301E+03 0.  0.
         24    2    3    3    0    0 -0.48909444723E+02 -0.37697127302E+01 -0.18056702998E+01  0.93958997341E+02  0.80116716226E+02 0.  0.
         -6    2    1    2    0  503 -0.23212801664E+02  0.21885013409E+02 -0.23820376623E+02  0.18479443101E+03  0.18045438043E+03 0.  0.
        -24    2    5    5    0    0  0.11041648725E+02  0.69381736966E+02  0.25127323869E+02  0.10832696405E+03  0.78534102814E+02 0.  0.
          5    1    3    3  501    0  0.72122246388E+02 -0.18115300679E+02  0.25445977261E+02  0.78736080049E+02  0.47000000000E+01 0. -1.
        -11    1    4    4    0    0 -0.12427239614E+01 -0.18817457961E+02 -0.30842923904E+02  0.36151445917E+02  0.00000000000E+00 0.  1.
         12    1    4    4    0    0 -0.47666720762E+02  0.15047745231E+02  0.29037253604E+02  0.57807551423E+02  0.00000000000E+00 0. -1.
         -5    1    5    5    0  503 -0.34254450389E+02 -0.47496723557E+02 -0.48947700492E+02  0.76467466962E+02  0.47000000000E+01 0.  1.
         13    1    6    6    0    0  0.33840901208E+02  0.24527400500E+02 -0.14543519731E+02  0.44252840994E+02  0.00000000000E+00 0. -1.
        -14    1    6    6    0    0 -0.22799252484E+02  0.44854336466E+02  0.39670843600E+02  0.64074123057E+02  0.00000000000E+00 0.  1.
</event>
<event>
12    1  0.9246030E-003  0.1756326E+03  0.7818608E-02  0.1172293E+00
         21   -1    0    0  501  502  0.00000000000E+00  0.00000000000E+00  0.17081580581E+03  0.17081580581E+03  0.00000000000E+00 0. -1.
         21   -1    0    0  502  503 -0.00000000000E+00 -0.00000000000E+00 -0.17978570222E+03  0.17978570222E+03  0.00000000000E+00 0. -1.
          6    2    1    2  501    0 -0.94391753049E+01 -0.25634053475E+02 -0.44315222047E+01  0.17568845683E+03  0.17349522399E+03 0.  0.
         24    2    3    3    0    0  0.50080367228E+02  0.56476237419E+01  0.35771726508E+02  0.97205907943E+02  0.75029549419E+02 0.  0.
         -6    2    1    2    0  503  0.94391753049E+01  0.25634053475E+02 -0.45383742038E+01  0.17491305121E+03  0.17270719705E+03 0.  0.
        -24    2    5    5    0    0 -0.10531736784E+02  0.61444576972E+02  0.43646394703E+02  0.11146943153E+03  0.81449818150E+02 0.  0.
          5    1    3    3  501    0 -0.59519542533E+02 -0.31281677217E+02 -0.40203248713E+02  0.78482548888E+02  0.47000000000E+01 0. -1.
        -13    1    4    4    0    0  0.29676796017E+02  0.38190529068E+02  0.62633343287E+01  0.48769438065E+02  0.00000000000E+00 0.  1.
         14    1    4    4    0    0  0.20403571211E+02 -0.32542905326E+02  0.29508392179E+02  0.48436469878E+02  0.00000000000E+00 0. -1.
         -5    1    5    5    0  503  0.19970912089E+02 -0.35810523497E+02 -0.48184768907E+02  0.63443619674E+02  0.47000000000E+01 0.  1.
         11    1    6    6    0    0 -0.23008218576E+02  0.28391666646E+02 -0.17755523761E+02  0.40629096483E+02  0.00000000000E+00 0. -1.
        -12    1    6    6    0    0  0.12476481791E+02  0.33052910325E+02  0.61401918464E+02  0.70840335049E+02  0.00000000000E+00 0.  1.
</event>
<event>
12    1  0.9246030E-003  0.2428781E+03  0.7818608E-02  0.1118096E+00
         21   -1    0    0  503  502  0.00000000000E+00  0.00000000000E+00  0.61035550386E+03  0.61035550386E+03  0.00000000000E+00 0. -1.
         21   -1    0    0  501  503 -0.00000000000E+00 -0.00000000000E+00 -0.10514915762E+03  0.10514915762E+03  0.00000000000E+00 0. -1.
          6    2    1    2  501    0  0.12273176624E+03 -0.11927505910E+03  0.14736070381E+03  0.28301966520E+03  0.17057352578E+03 0.  0.
         24    2    3    3    0    0  0.96364517211E+02 -0.13612696309E+03  0.67934403806E+02  0.19752203002E+03  0.81136914310E+02 0.  0.
         -6    2    1    2    0  502 -0.12273176624E+03  0.11927505910E+03  0.35784564244E+03  0.43248499628E+03  0.17233729148E+03 0.  0.
        -24    2    5    5    0    0 -0.26953253958E+02  0.12500143325E+03  0.16789148493E+03  0.21962122123E+03  0.60779057993E+02 0.  0.
          5    1    3    3  501    0  0.26367249024E+02  0.16851903993E+02  0.79426300005E+02  0.85497635182E+02  0.47000000000E+01 0. -1.
        -11    1    4    4    0    0  0.75738029592E+02 -0.44140760318E+02  0.51969833416E+02  0.10190936872E+03  0.00000000000E+00 0.  1.
         12    1    4    4    0    0  0.20626487619E+02 -0.91986202775E+02  0.15964570390E+02  0.95612661297E+02  0.00000000000E+00 0. -1.
         -5    1    5    5    0  502 -0.95778512278E+02 -0.57263741498E+01  0.18995415750E+03  0.21286377505E+03  0.47000000000E+01 0.  1.
         11    1    6    6    0    0 -0.25620051425E+02  0.11200012188E+03  0.17116303462E+03  0.20614848715E+03  0.00000000000E+00 0. -1.
        -12    1    6    6    0    0 -0.13332025330E+01  0.13001311370E+02 -0.32715496840E+01  0.13472734082E+02  0.00000000000E+00 0.  1.
</event>
<event>
12    1  0.9246030E-003  0.1866458E+03  0.7818608E-02  0.1162422E+00
         21   -1    0    0  503  502  0.00000000000E+00  0.00000000000E+00  0.28950204578E+03  0.28950204578E+03  0.00000000000E+00 0. -1.
         21   -1    0    0  501  503 -0.00000000000E+00 -0.00000000000E+00 -0.12415079641E+03  0.12415079641E+03  0.00000000000E+00 0. -1.
          6    2    1    2  501    0  0.47773447054E+02 -0.44919817174E+02  0.36940601199E+02  0.19026630270E+03  0.17474714792E+03 0.  0.
         24    2    3    3    0    0 -0.29301399215E+02 -0.65072354100E+02  0.18701197508E+02  0.10840408602E+03  0.79427500363E+02 0.  0.
         -6    2    1    2    0  502 -0.47773447054E+02  0.44919817174E+02  0.12841064817E+03  0.22338653950E+03  0.17062285675E+03 0.  0.
        -24    2    5    5    0    0 -0.93185237918E+01  0.76414725700E+02  0.12880309855E+03  0.17345704517E+03  0.87011856283E+02 0.  0.
          5    1    3    3  501    0  0.77074846268E+02  0.20152536926E+02  0.18239403691E+02  0.81862216674E+02  0.47000000000E+01 0. -1.
        -13    1    4    4    0    0  0.10927381389E+02 -0.23058482009E+02  0.39162800978E+02  0.46742124866E+02  0.00000000000E+00 0.  1.
         14    1    4    4    0    0 -0.40228780603E+02 -0.42013872091E+02 -0.20461603470E+02  0.61661961155E+02  0.00000000000E+00 0. -1.
         -5    1    5    5    0  502 -0.38454923262E+02 -0.31494908526E+02 -0.39245038152E+00  0.49929494324E+02  0.47000000000E+01 0.  1.
         11    1    6    6    0    0 -0.38423967819E+02  0.16186945193E+02  0.81447776572E+02  0.91499501672E+02  0.00000000000E+00 0. -1.
        -12    1    6    6    0    0  0.29105444027E+02  0.60227780507E+02  0.47355321982E+02  0.81957543502E+02  0.00000000000E+00 0.  1.
</event>
<event>
12    1  0.9246030E-003  0.2044579E+03  0.7818608E-02  0.1146214E+00
         21   -1    0    0  503  502  0.00000000000E+00  0.00000000000E+00  0.17757258308E+03  0.17757258308E+03  0.00000000000E+00 0.  1.
         21   -1    0    0  501  503 -0.00000000000E+00 -0.00000000000E+00 -0.23530865184E+03  0.23530865184E+03  0.00000000000E+00 0. -1.
          6    2    1    2  501    0 -0.94278528783E+02 -0.54093144897E+02 -0.15920469958E+02  0.20419110278E+03  0.17212215365E+03 0.  0.
         24    2    3    3    0    0 -0.12971791325E+03 -0.63285612145E+02 -0.24454293950E+02  0.16630485755E+03  0.78914431061E+02 0.  0.
         -6    2    1    2    0  502  0.94278528783E+02  0.54093144897E+02 -0.41815598800E+02  0.20869013214E+03  0.17317193086E+03 0.  0.
        -24    2    5    5    0    0 -0.30418719561E+01  0.51566732809E+02  0.15472192828E+02  0.95634286527E+02  0.78981941550E+02 0.  0.
          5    1    3    3  501    0  0.35439384470E+02  0.91924672475E+01  0.85338239921E+01  0.37886245230E+02  0.47000000000E+01 0. -1.
        -13    1    4    4    0    0 -0.97519416672E+02 -0.53234566081E+02  0.17499255656E+02  0.11247301722E+03  0.00000000000E+00 0.  1.
         14    1    4    4    0    0 -0.32198496581E+02 -0.10051046063E+02 -0.41953549606E+02  0.53831840333E+02  0.00000000000E+00 0. -1.
         -5    1    5    5    0  502  0.97320400739E+02  0.25264120886E+01 -0.57287791628E+02  0.11305584562E+03  0.47000000000E+01 0.  1.
         13    1    6    6    0    0 -0.40665651858E+02  0.28529438647E+02  0.13485255335E+02  0.51473063072E+02  0.00000000000E+00 0. -1.
        -14    1    6    6    0    0  0.37623779902E+02  0.23037294162E+02  0.19869374933E+01  0.44161223455E+02  0.00000000000E+00 0.  1.
</event>
<event>
12    1  0.9246030E-003  0.1859821E+03  0.7818608E-02  0.1162279E+00
         21   -1    0    0  501  502  0.00000000000E+00  0.00000000000E+00  0.11408087561E+03  0.11408087561E+03  0.00000000000E+00 0. -1.
         21   -1    0    0  502  503 -0.00000000000E+00 -0.00000000000E+00 -0.30649028740E+03  0.30649028740E+03  0.00000000000E+00 0.  1.
          6    2    1    2  501    0 -0.64143333461E+02  0.20868957425E+02 -0.12125671934E+03  0.22201922963E+03  0.17331897105E+03 0.  0.
         24    2    3    3    0    0  0.25874449506E+02 -0.14965209560E+02 -0.61824245493E+02  0.10825808634E+03  0.83690688207E+02 0.  0.
         -6    2    1    2    0  503  0.64143333461E+02 -0.20868957425E+02 -0.71152692445E+02  0.19855193339E+03  0.17265654925E+03 0.  0.
        -24    2    5    5    0    0  0.99006469261E+02 -0.37622454075E+02 -0.19555672963E+02  0.13389545415E+03  0.79547710783E+02 0.  0.
          5    1    3    3  501    0 -0.90017782967E+02  0.35834166985E+02 -0.59432473852E+02  0.11376114329E+03  0.47000000000E+01 0. -1.
        -11    1    4    4    0    0 -0.21281111037E+02  0.20349444132E+02 -0.26185970433E+02  0.39404195347E+02  0.00000000000E+00 0.  1.
         12    1    4    4    0    0  0.47155560543E+02 -0.35314653691E+02 -0.35638275060E+02  0.68853890992E+02  0.00000000000E+00 0. -1.
         -5    1    5    5    0  503 -0.34863135800E+02  0.16753496649E+02 -0.51597019483E+02  0.64656479237E+02  0.47000000000E+01 0.  1.
         11    1    6    6    0    0  0.10174575928E+02 -0.41291749621E+02  0.14064315846E+01  0.42550072055E+02  0.00000000000E+00 0. -1.
        -12    1    6    6    0    0  0.88831893333E+02  0.36692955469E+01 -0.20962104547E+02  0.91345382094E+02  0.00000000000E+00 0.  1.
</event>
<event>
12    1  0.9246030E-003  0.2498287E+03  0.7818608E-02  0.1113591E+00
         21   -1    0    0  501  502  0.00000000000E+00  0.00000000000E+00  0.12632964597E+04  0.12632964597E+04  0.00000000000E+00 0. -1.
         21   -1    0    0  502  503 -0.00000000000E+00 -0.00000000000E+00 -0.51904354246E+02  0.51904354246E+02  0.00000000000E+00 0.  1.
          6    2    1    2  501    0 -0.11261360401E+03 -0.14290850610E+03  0.75750758356E+03  0.79764158690E+03  0.17120075082E+03 0.  0.
         24    2    3    3    0    0 -0.73547969395E+02 -0.15153363923E+03  0.44622793155E+03  0.48376640712E+03  0.80862983739E+02 0.  0.
         -6    2    1    2    0  503  0.11261360401E+03  0.14290850610E+03  0.45388452193E+03  0.51755922708E+03  0.16956334912E+03 0.  0.
        -24    2    5    5    0    0  0.38500584293E+02  0.35355712837E+02  0.30404500883E+03  0.31872685367E+03  0.80069460060E+02 0.  0.
          5    1    3    3  501    0 -0.39065634615E+02  0.86251331296E+01  0.31127965201E+03  0.31387517978E+03  0.47000000000E+01 0. -1.
        -11    1    4    4    0    0 -0.50863911958E+02 -0.28076649143E+02  0.10227877060E+03  0.11762815429E+03  0.00000000000E+00 0.  1.
         12    1    4    4    0    0 -0.22684057437E+02 -0.12345699009E+03  0.34394916095E+03  0.36613825283E+03  0.00000000000E+00 0. -1.
         -5    1    5    5    0  503  0.74113019717E+02  0.10755279327E+03  0.14983951311E+03  0.19883237342E+03  0.47000000000E+01 0.  1.
         11    1    6    6    0    0  0.49938754874E+02  0.55001607298E+01  0.25687918447E+03  0.26174614882E+03  0.00000000000E+00 0. -1.
        -12    1    6    6    0    0 -0.11438170581E+02  0.29855552108E+02  0.47165824357E+02  0.56980704850E+02  0.00000000000E+00 0.  1.
</event>
<event>
12    1  0.9246030E-003  0.1769669E+03  0.7818608E-02  0.1171702E+00
         21   -1    0    0  503  502  0.00000000000E+00  0.00000000000E+00  0.16343920730E+03  0.16343920730E+03  0.00000000000E+00 0.  1.
         21   -1    0    0  501  503 -0.00000000000E+00 -0.00000000000E+00 -0.21998083014E+03  0.21998083014E+03  0.00000000000E+00 0.  1.
          6    2    1    2  501    0 -0.78495676249E+01  0.23857069134E+02 -0.10155595100E+03  0.20081777503E+03  0.17141584561E+03 0.  0.
         24    2    3    3    0    0  0.21027980615E+02 -0.23605224687E+02  0.76655806613E+00  0.84290662354E+02  0.78134150968E+02 0.  0.
         -6    2    1    2    0  502  0.78495676249E+01 -0.23857069134E+02  0.45014328162E+02  0.18260226241E+03  0.17517568621E+03 0.  0.
        -24    2    5    5    0    0  0.41692991085E+02 -0.72511351968E+02  0.35792291726E+02  0.12243788337E+03  0.81937448506E+02 0.  0.
          5    1    3    3  501    0 -0.28877548239E+02  0.47462293821E+02 -0.10232250907E+03  0.11652711268E+03  0.47000000000E+01 0. -1.
        -11    1    4    4    0    0  0.28943606600E+02  0.14317758190E+02  0.22980199219E+02  0.39633573126E+02  0.00000000000E+00 0.  1.
         12    1    4    4    0    0 -0.79156259855E+01 -0.37922982877E+02 -0.22213641153E+02  0.44657089228E+02  0.00000000000E+00 0. -1.
         -5    1    5    5    0  502 -0.33843423460E+02  0.48654282834E+02  0.92220364352E+01  0.60164379043E+02  0.47000000000E+01 0.  1.
         11    1    6    6    0    0  0.59436814622E+02 -0.33405335598E+02  0.40394419142E+02  0.79248725394E+02  0.00000000000E+00 0. -1.
        -12    1    6    6    0    0 -0.17743823537E+02 -0.39106016370E+02 -0.46021274154E+01  0.43189157978E+02  0.00000000000E+00 0.  1.
</event>
<event>
12    1  0.9246030E-003  0.2254035E+03  0.7818608E-02  0.1130215E+00
         21   -1    0    0  501  502  0.00000000000E+00  0.00000000000E+00  0.68482544247E+03  0.68482544247E+03  0.00000000000E+00 0.  1.
         21   -1    0    0  502  503 -0.00000000000E+00 -0.00000000000E+00 -0.77940859625E+02  0.77940859625E+02  0.00000000000E+00 0. -1.
          6    2    1    2  501    0  0.14124755535E+03 -0.33977128979E+02  0.39398274184E+03  0.45390434424E+03  0.17234104465E+03 0.  0.
         24    2    3    3    0    0  0.14981089764E+03 -0.72883625942E+02  0.30848828233E+03  0.35946685728E+03  0.79347798743E+02 0.  0.
         -6    2    1    2    0  503 -0.14124755535E+03  0.33977128979E+02  0.21290184101E+03  0.30886195785E+03  0.17018577473E+03 0.  0.
        -24    2    5    5    0    0 -0.98768787925E+02  0.83943400298E+02  0.11571230846E+03  0.19152070685E+03  0.80554794399E+02 0.  0.
          5    1    3    3  501    0 -0.85633422919E+01  0.38906496963E+02  0.85494459509E+02  0.94437486963E+02  0.47000000000E+01 0. -1.
        -13    1    4    4    0    0  0.16895287521E+02  0.49773042476E+01  0.92576924870E+02  0.94237526052E+02  0.00000000000E+00 0.  1.
         14    1    4    4    0    0  0.13291561012E+03 -0.77860930189E+02  0.21591135746E+03  0.26522933123E+03  0.00000000000E+00 0. -1.
         -5    1    5    5    0  503 -0.42478767422E+02 -0.49966271319E+02  0.97189532542E+02  0.11734125100E+03  0.47000000000E+01 0.  1.
         13    1    6    6    0    0 -0.57131283367E+02  0.13169461860E+02  0.86232100454E+02  0.10427556480E+03  0.00000000000E+00 0. -1.
        -14    1    6    6    0    0 -0.41637504558E+02  0.70773938438E+02  0.29480208011E+02  0.87245142054E+02  0.00000000000E+00 0.  1.
</event>
<event>
12    1  0.9246030E-003  0.2340481E+03  0.7818608E-02  0.1124650E+00
         21   -1    0    0  501  502  0.00000000000E+00  0.00000000000E+00  0.81773405292E+02  0.81773405292E+02  0.00000000000E+00 0. -1.
         21   -1    0    0  502  503 -0.00000000000E+00 -0.00000000000E+00 -0.80261056948E+03  0.80261056948E+03  0.00000000000E+00 0. -1.
          6    2    1    2  501    0 -0.87443501422E+02 -0.13220235274E+03 -0.16861943919E+03  0.28461489369E+03  0.16567828592E+03 0.  0.
         24    2    3    3    0    0 -0.75577585271E+02 -0.10050191440E+03 -0.19191096722E+03  0.24325908352E+03  0.80824230164E+02 0.  0.
         -6    2    1    2    0  503  0.87443501422E+02  0.13220235274E+03 -0.55221772500E+03  0.59976908109E+03  0.17220542040E+03 0.  0.
        -24    2    5    5    0    0  0.10876148503E+03  0.56022659119E+02 -0.42833187970E+03  0.45270584703E+03  0.80664650317E+02 0.  0.
          5    1    3    3  501    0 -0.11865916151E+02 -0.31700438336E+02  0.23291528028E+02  0.41355810169E+02  0.47000000000E+01 0. -1.
        -11    1    4    4    0    0 -0.54164258365E+01 -0.17013025902E+02  0.46695756748E+01  0.18454962915E+02  0.00000000000E+00 0.  1.
         12    1    4    4    0    0 -0.70161159434E+02 -0.83488888499E+02 -0.19658054289E+03  0.22480412060E+03  0.00000000000E+00 0. -1.
         -5    1    5    5    0  503 -0.21317983606E+02  0.76179693619E+02 -0.12388584530E+03  0.14706323405E+03  0.47000000000E+01 0.  1.
         13    1    6    6    0    0  0.38905442142E+02 -0.14350907320E+02 -0.74734258844E+02  0.85468072484E+02  0.00000000000E+00 0. -1.
        -14    1    6    6    0    0  0.69856042887E+02  0.70373566440E+02 -0.35359762086E+03  0.36723777455E+03  0.00000000000E+00 0.  1.
</event>
<event>
12    1  0.9246030E-003  0.2573463E+03  0.7818608E-02  0.1109094E+00
         21   -1    0    0  503  502  0.00000000000E+00  0.00000000000E+00  0.14563271872E+03  0.14563271872E+03  0.00000000000E+00 0. -1.
         21   -1    0    0  501  503 -0.00000000000E+00 -0.00000000000E+00 -0.50549303015E+03  0.50549303015E+03  0.00000000000E+00 0.  1.
          6    2    1    2  501    0 -0.17946166867E+03  0.65566968406E+02 -0.28776102131E+03  0.38604859979E+03  0.17239953059E+03 0.  0.
         24    2    3    3    0    0 -0.61186590814E+02  0.74648708600E+02 -0.84981711649E+02  0.15107411081E+03  0.79279676150E+02 0.  0.
         -6    2    1    2    0  502  0.17946166867E+03 -0.65566968406E+02 -0.72099290120E+02  0.26507714907E+03  0.16900316404E+03 0.  0.
        -24    2    5    5    0    0  0.11994471086E+03 -0.10794397406E+03 -0.64464729654E+02  0.19146699088E+03  0.80406915302E+02 0.  0.
          5    1    3    3  501    0 -0.11827507786E+03 -0.90817401940E+01 -0.20277930966E+03  0.23497448898E+03  0.47000000000E+01 0. -1.
        -13    1    4    4    0    0  0.33187260964E+01 -0.13549549062E+02 -0.25085508688E+01  0.14173815653E+02  0.00000000000E+00 0.  1.
         14    1    4    4    0    0 -0.64505316910E+02  0.88198257663E+02 -0.82473160780E+02  0.13690029515E+03  0.00000000000E+00 0. -1.
         -5    1    5    5    0  502  0.59516957815E+02  0.42377005652E+02 -0.76345604659E+01  0.73610158192E+02  0.47000000000E+01 0.  1.
         11    1    6    6    0    0  0.64137229376E+02 -0.75035858567E+02  0.18889150479E+01  0.98729591628E+02  0.00000000000E+00 0. -1.
        -12    1    6    6    0    0  0.55807481482E+02 -0.32908115491E+02 -0.66353644702E+02  0.92737399250E+02  0.00000000000E+00 0.  1.
</event>
<event>
12    1  0.9246030E-003  0.2695388E+03  0.7818608E-02  0.1101578E+00
         21   -1    0    0  503  502  0.00000000000E+00  0.00000000000E+00  0.14626329998E+03  0.14626329998E+03  0.00000000000E+00 0.  1.
         21   -1    0    0  501  503 -0.00000000000E+00 -0.00000000000E+00 -0.49786758584E+03  0.49786758584E+03  0.00000000000E+00 0. -1.
          6    2    1    2  501    0  0.12675563720E+03  0.16426334032E+03 -0.19394114052E+03  0.33186682221E+03  0.17167697913E+03 0.  0.
         24    2    3    3    0    0 -0.32708739892E+01  0.78773435384E+02 -0.84677716350E+02  0.14166691863E+03  0.81751131187E+02 0.  0.
         -6    2    1    2    0  502 -0.12675563720E+03 -0.16426334032E+03 -0.15766314535E+03  0.31226406361E+03  0.17205156637E+03 0.  0.
        -24    2    5    5    0    0 -0.14319809469E+03 -0.96836386653E+02 -0.14856952475E+03  0.24211042918E+03  0.81618479099E+02 0.  0.
          5    1    3    3  501    0  0.13002651119E+03  0.85489904931E+02 -0.10926342417E+03  0.19019990357E+03  0.47000000000E+01 0. -1.
        -11    1    4    4    0    0 -0.12805234643E+02  0.15861535815E+01  0.11978181645E+02  0.17605872684E+02  0.00000000000E+00 0.  1.
         12    1    4    4    0    0  0.95343606538E+01  0.77187281802E+02 -0.96655897995E+02  0.12406104595E+03  0.00000000000E+00 0. -1.
         -5    1    5    5    0  502  0.16442457489E+02 -0.67426953662E+02 -0.90936205915E+01  0.70153634431E+02  0.47000000000E+01 0.  1.
         13    1    6    6    0    0 -0.46883753499E+02  0.25946106207E+01 -0.13871860175E+02  0.48961687584E+02  0.00000000000E+00 0. -1.
        -14    1    6    6    0    0 -0.96314341192E+02 -0.99430997274E+02 -0.13469766458E+03  0.19314874160E+03  0.00000000000E+00 0.  1.
</event>
<event>
12    1  0.9246030E-003  0.1753904E+03  0.7818608E-02  0.1172343E+00
         21   -1    0    0  503  502  0.00000000000E+00  0.00000000000E+00  0.17695636158E+03  0.17695636158E+03  0.00000000000E+00 0.  1.
         21   -1    0    0  501  503 -0.00000000000E+00 -0.00000000000E+00 -0.22827849034E+03  0.22827849034E+03  0.00000000000E+00 0.  1.
          6    2    1    2  501    0  0.32251772415E+02 -0.10059195309E+02 -0.12461788758E+03  0.21514520584E+03  0.17209438532E+03 0.  0.
         24    2    3    3    0    0  0.50326954545E+02 -0.43205002886E+02 -0.14169656254E+03  0.17344235333E+03  0.74865609363E+02 0.  0.
         -6    2    1    2    0  502 -0.32251772415E+02  0.10059195309E+02  0.73295758810E+02  0.19008964608E+03  0.17210590069E+03 0.  0.
        -24    2    5    5    0    0 -0.14772911830E+02 -0.42210626527E+02 -0.17784738703E+02  0.83527965022E+02  0.68268939454E+02 0.  0.
          5    1    3    3  501    0 -0.18075182130E+02  0.33145807577E+02  0.17078674964E+02  0.41702852510E+02  0.47000000000E+01 0. -1.
        -11    1    4    4    0    0 -0.34647002036E+01 -0.45629131665E+02 -0.73009844953E+02  0.86165301973E+02  0.00000000000E+00 0.  1.
         12    1    4    4    0    0  0.53791654749E+02  0.24241287791E+01 -0.68686717589E+02  0.87277051360E+02  0.00000000000E+00 0. -1.
         -5    1    5    5    0  502 -0.17478860585E+02  0.52269821836E+02  0.91080497514E+02  0.10656168106E+03  0.47000000000E+01 0.  1.
         13    1    6    6    0    0 -0.39031059398E+02 -0.41390869722E+02 -0.84154708724E+01  0.57510415092E+02  0.00000000000E+00 0. -1.
        -14    1    6    6    0    0  0.24258147568E+02 -0.81975680480E+00 -0.93692678309E+01  0.26017549929E+02  0.00000000000E+00 0.  1.
</event>
<event>
12    1  0.9246030E-003  0.1848565E+03  0.7818608E-02  0.1163852E+00
         21   -1    0    0  503  502  0.00000000000E+00  0.00000000000E+00  0.13780240661E+03  0.13780240661E+03  0.00000000000E+00 0.  1.
         21   -1    0    0  501  503 -0.00000000000E+00 -0.00000000000E+00 -0.27705085937E+03  0.27705085937E+03  0.00000000000E+00 0.  1.
          6    2    1    2  501    0 -0.18841492228E+02  0.58168626052E+02  0.22878450854E+01  0.18203476751E+03  0.17144337683E+03 0.  0.
         24    2    3    3    0    0 -0.21393165200E+02  0.58207373694E+02  0.64515287864E+02  0.11957792504E+03  0.79315143061E+02 0.  0.
         -6    2    1    2    0  502  0.18841492228E+02 -0.58168626052E+02 -0.14153629785E+03  0.23281849847E+03  0.17445153692E+03 0.  0.
        -24    2    5    5    0    0 -0.31134932002E+02  0.45290511218E+01 -0.21148759604E+02  0.88098454707E+02  0.79524659032E+02 0.  0.
          5    1    3    3  501    0  0.25516729718E+01 -0.38747642356E-01 -0.62227442778E+02  0.62456842468E+02  0.47000000000E+01 0. -1.
        -11    1    4    4    0    0 -0.42240891154E+02  0.45315524950E+01  0.20923700214E+02  0.47356404890E+02  0.00000000000E+00 0.  1.
         12    1    4    4    0    0  0.20847725953E+02  0.53675821199E+02  0.43591587650E+02  0.72221520149E+02  0.00000000000E+00 0. -1.
         -5    1    5    5    0  502  0.49976424231E+02 -0.62697677173E+02 -0.12038753825E+03  0.14472004376E+03  0.47000000000E+01 0.  1.
         11    1    6    6    0    0  0.85953101281E+01 -0.23742873912E+02  0.13161197198E+02  0.28474910527E+02  0.00000000000E+00 0. -1.
        -12    1    6    6    0    0 -0.39730242130E+02  0.28271925034E+02 -0.34309956802E+02  0.59623544181E+02  0.00000000000E+00 0.  1.
</event>
<event>
12    1  0.9246030E-003  0.1837779E+03  0.7818608E-02  0.1164432E+00
         21   -1    0    0  501  502  0.00000000000E+00  0.00000000000E+00  0.35321835270E+03  0.35321835270E+03  0.00000000000E+00 0.  1.
         21   -1    0    0  502  503 -0.00000000000E+00 -0.00000000000E+00 -0.11094420357E+03  0.11094420357E+03  0.00000000000E+00 0.  1.
          6    2    1    2  501    0  0.27017685910E+02 -0.58414365660E+02  0.33151549185E+02  0.18576252826E+03  0.17107453997E+03 0.  0.
         24    2    3    3    0    0  0.75225139290E+02 -0.16498725585E+02 -0.49137643674E+01  0.11125120335E+03  0.80135233449E+02 0.  0.
         -6    2    1    2    0  503 -0.27017685910E+02  0.58414365660E+02  0.20912259995E+03  0.27840002801E+03  0.17213982782E+03 0.  0.
        -24    2    5    5    0    0  0.36542700236E+02  0.92071743859E+01  0.76950442661E+02  0.12363297880E+03  0.89126886072E+02 0.  0.
          5    1    3    3  501    0 -0.48207453379E+02 -0.41915640075E+02  0.38065313552E+02  0.74511324911E+02  0.47000000000E+01 0. -1.
        -13    1    4    4    0    0  0.52279903189E+02 -0.21071874483E+02 -0.39973237420E+02  0.69101894920E+02  0.00000000000E+00 0.  1.
         14    1    4    4    0    0  0.22945236101E+02  0.45731488977E+01  0.35059473053E+02  0.42149308432E+02  0.00000000000E+00 0. -1.
         -5    1    5    5    0  503 -0.63560386147E+02  0.49207191274E+02  0.13217215728E+03  0.15476704921E+03  0.47000000000E+01 0.  1.
         13    1    6    6    0    0  0.15349482210E+02  0.26110834608E+02 -0.10515952224E+02  0.32061932868E+02  0.00000000000E+00 0. -1.
        -14    1    6    6    0    0  0.21193218026E+02 -0.16903660222E+02  0.87466394885E+02  0.91571045934E+02  0.00000000000E+00 0.  1.
</event>
<event>
12    1  0.9246030E-003  0.1902858E+03  0.7818608E-02  0.1158448E+00
         21   -1    0    0  501  502  0.00000000000E+00  0.00000000000E+00  0.12745513011E+03  0.12745513011E+03  0.00000000000E+00 0.  1.
         21   -1    0    0  502  503 -0.00000000000E+00 -0.00000000000E+00 -0.35042006705E+03  0.35042006705E+03  0.00000000000E+00 0. -1.
          6    2    1    2  501    0 -0.69731147192E+02 -0.35404444449E+02 -0.60182076869E+01  0.18930183884E+03  0.17228772385E+03 0.  0.
         24    2    3    3    0    0 -0.75315743736E+02 -0.54455424448E+02  0.47653080657E+02  0.13188385603E+03  0.80527516291E+02 0.  0.
         -6    2    1    2    0  503  0.69731147192E+02  0.35404444449E+02 -0.21694672926E+03  0.28857335832E+03  0.17347274200E+03 0.  0.
        -24    2    5    5    0    0  0.47821863906E+02  0.50579493882E+02 -0.23396625119E+03  0.25660379551E+03  0.79120700867E+02 0.  0.
          5    1    3    3  501    0  0.55845965439E+01  0.19050979999E+02 -0.53671288344E+02  0.57417982810E+02  0.47000000000E+01 0. -1.
        -11    1    4    4    0    0 -0.47075947249E+02 -0.84716830251E+01  0.59794305908E+02  0.76572013436E+02  0.00000000000E+00 0.  1.
         12    1    4    4    0    0 -0.28239796487E+02 -0.45983741423E+02 -0.12141225252E+02  0.55311842598E+02  0.00000000000E+00 0. -1.
         -5    1    5    5    0  503  0.21909283286E+02 -0.15175049433E+02  0.17019521929E+02  0.31969562808E+02  0.47000000000E+01 0.  1.
         13    1    6    6    0    0  0.25560645279E+02  0.69949420343E+02 -0.18508529278E+03  0.19950647507E+03  0.00000000000E+00 0. -1.
        -14    1    6    6    0    0  0.22261218627E+02 -0.19369926461E+02 -0.48880958411E+02  0.57097320436E+02  0.00000000000E+00 0.  1.
</event>
<event>
12    1  0.9246030E-003  0.2455334E+03  0.7818608E-02  0.1116206E+00
         21   -1    0    0  501  502  0.00000000000E+00  0.00000000000E+00  0.12707041762E+03  0.12707041762E+03  0.00000000000E+00 0. -1.
         21   -1    0    0  502  503 -0.00000000000E+00 -0.00000000000E+00 -0.49277685748E+03  0.49277685748E+03  0.00000000000E+00 0. -1.
          6    2    1    2  501    0 -0.11719675274E+03 -0.12977340093E+03 -0.24343141679E+03  0.34555208537E+03  0.17196271277E+03 0.  0.
         24    2    3    3    0    0 -0.40394950997E+02 -0.12282250004E+03 -0.98556029510E+02  0.18136378002E+03  0.80389123448E+02 0.  0.
         -6    2    1    2    0  503  0.11719675274E+03  0.12977340093E+03 -0.12227502307E+03  0.27429518973E+03  0.17236721092E+03 0.  0.
        -24    2    5    5    0    0  0.14847066765E+03  0.66591573769E+02 -0.97287034299E+02  0.19935194040E+03  0.61631584856E+02 0.  0.
          5    1    3    3  501    0 -0.76801801742E+02 -0.69509008863E+01 -0.14487538728E+03  0.16418830535E+03  0.47000000000E+01 0. -1.
        -13    1    4    4    0    0 -0.31730150156E+02 -0.63749226656E+01 -0.37704808933E+02  0.49689985757E+02  0.00000000000E+00 0.  1.
         14    1    4    4    0    0 -0.86648008410E+01 -0.11644757738E+03 -0.60851220578E+02  0.13167379427E+03  0.00000000000E+00 0. -1.
         -5    1    5    5    0  503 -0.31273914906E+02  0.63181827160E+02 -0.24987988772E+02  0.74943249327E+02  0.47000000000E+01 0.  1.
         11    1    6    6    0    0  0.71447730714E+02  0.35251461998E+02 -0.12593197618E+02  0.80659980309E+02  0.00000000000E+00 0. -1.
        -12    1    6    6    0    0  0.77022936931E+02  0.31340111771E+02 -0.84693836681E+02  0.11869196009E+03  0.00000000000E+00 0.  1.
</event>
<event>
12    1  0.9246030E-003  0.1722947E+03  0.7818608E-02  0.1176106E+00
         21   -1    0    0  503  502  0.00000000000E+00  0.00000000000E+00  0.71310470598E+03  0.71310470598E+03  0.00000000000E+00 0.  1.
         21   -1    0    0  501  503 -0.00000000000E+00 -0.00000000000E+00 -0.41542181060E+02  0.41542181060E+02  0.00000000000E+00 0.  1.
          6    2    1    2  501    0  0.10183707103E+02  0.10063716637E+02  0.29197488917E+03  0.33778692926E+03  0.16925036895E+03 0.  0.
         24    2    3    3    0    0 -0.25903501384E+02  0.22955799286E+02  0.28663636513E+03  0.29881152355E+03  0.77006237985E+02 0.  0.
         -6    2    1    2    0  502 -0.10183707103E+02 -0.10063716637E+02  0.37958763575E+03  0.41685995778E+03  0.17169876209E+03 0.  0.
        -24    2    5    5    0    0  0.10644197902E+02  0.53984710068E+02  0.16608698441E+03  0.19293894333E+03  0.81319749093E+02 0.  0.
          5    1    3    3  501    0  0.36087208487E+02 -0.12892082650E+02  0.53385240457E+01  0.38975405712E+02  0.47000000000E+01 0. -1.
        -13    1    4    4    0    0 -0.17762210318E+02 -0.84568488239E+01  0.13747880146E+02  0.24000387828E+02  0.00000000000E+00 0.  1.
         14    1    4    4    0    0 -0.81412910661E+01  0.31412648110E+02  0.27288848498E+03  0.27481113572E+03  0.00000000000E+00 0. -1.
         -5    1    5    5    0  502 -0.20827905005E+02 -0.64048426705E+02  0.21350065134E+03  0.22392101445E+03  0.47000000000E+01 0.  1.
         11    1    6    6    0    0 -0.27103464593E+02  0.53245611247E+02  0.90431812393E+02  0.10838637185E+03  0.00000000000E+00 0. -1.
        -12    1    6    6    0    0  0.37747662495E+02  0.73909882097E+00  0.75655172019E+02  0.84552571481E+02  0.00000000000E+00 0.  1.
</event>
<event>
12    1  0.9246030E-003  0.2184980E+03  0.7818608E-02  0.1135255E+00
         21   -1    0    0  501  502  0.00000000000E+00  0.00000000000E+00  0.24604917814E+03  0.24604917814E+03  0.00000000000E+00 0.  1.
         21   -1    0    0  502  503 -0.00000000000E+00 -0.00000000000E+00 -0.22483320029E+03  0.22483320029E+03  0.00000000000E+00 0.  1.
          6    2    1    2  501    0  0.69839731151E+02 -0.11405084422E+03 -0.78189094331E+02  0.23083501244E+03  0.17113177782E+03 0.  0.
         24    2    3    3    0    0  0.78688831789E+02 -0.13645776231E+03 -0.31402902862E+02  0.17800117600E+03  0.76717815439E+02 0.  0.
         -6    2    1    2    0  503 -0.69839731151E+02  0.11405084422E+03  0.99405072185E+02  0.24004736599E+03  0.17278942800E+03 0.  0.
        -24    2    5    5    0    0  0.23526834498E+02  0.82425062103E+02  0.71057858138E+02  0.13736747400E+03  0.80456204890E+02 0.  0.
          5    1    3    3  501    0 -0.88491006381E+01  0.22406918093E+02 -0.46786191469E+02  0.52833836438E+02  0.47000000000E+01 0. -1.
        -13    1    4    4    0    0  0.36160398082E+01  0.90213440345E+01  0.39991394820E+01  0.10509686422E+02  0.00000000000E+00 0.  1.
         14    1    4    4    0    0  0.75072791981E+02 -0.14547910634E+03 -0.35402042344E+02  0.16749148958E+03  0.00000000000E+00 0. -1.
         -5    1    5    5    0  503 -0.93366565650E+02  0.31625782114E+02  0.28347214047E+02  0.10267989199E+03  0.47000000000E+01 0.  1.
         13    1    6    6    0    0  0.44111204081E+02  0.63647428758E+02  0.76639559335E+02  0.10895143674E+03  0.00000000000E+00 0. -1.
        -14    1    6    6    0    0 -0.20584369583E+02  0.18777633345E+02 -0.55817011964E+01  0.28416037257E+02  0.00000000000E+00 0.  1.
</event>
<event>
12    1  0.9246030E-003  0.2330076E+03  0.7818608E-02  0.1125693E+00
         21   -1    0    0  501  502  0.00000000000E+00  0.00000000000E+00  0.23401463220E+03  0.23401463220E+03  0.00000000000E+00 0. -1.
         21   -1    0    0  502  503 -0.00000000000E+00 -0.00000000000E+00 -0.34272715812E+03  0.34272715812E+03  0.00000000000E+00 0.  1.
          6    2    1    2  501    0  0.10424635656E+03  0.11916541322E+03  0.11376075170E+03  0.25929532865E+03  0.17095280130E+03 0.  0.
         24    2    3    3    0    0  0.28979281988E+02 -0.44030792755E+01  0.39005965230E+02  0.96369968591E+02  0.83105472931E+02 0.  0.
         -6    2    1    2    0  503 -0.10424635656E+03 -0.11916541322E+03 -0.22247327763E+03  0.31744646167E+03  0.16189563986E+03 0.  0.
        -24    2    5    5    0    0 -0.83849864382E+02 -0.11899543123E+02 -0.13636863136E+03  0.17831313033E+03  0.77632273869E+02 0.  0.
          5    1    3    3  501    0  0.75267074568E+02  0.12356849249E+03  0.74754786475E+02  0.16292536006E+03  0.47000000000E+01 0. -1.
        -11    1    4    4    0    0  0.48014906827E+02 -0.29894953351E+01 -0.50347443681E+01  0.48370621361E+02  0.00000000000E+00 0.  1.
         12    1    4    4    0    0 -0.19035624839E+02 -0.14135839404E+01  0.44040709599E+02  0.47999347230E+02  0.00000000000E+00 0. -1.
         -5    1    5    5    0  503 -0.20396492174E+02 -0.10726587009E+03 -0.86104646262E+02  0.13913333133E+03  0.47000000000E+01 0.  1.
         13    1    6    6    0    0 -0.40508404094E+02  0.57785208740E+01 -0.80220039023E+01  0.41697417814E+02  0.00000000000E+00 0. -1.
        -14    1    6    6    0    0 -0.43341460288E+02 -0.17678063997E+02 -0.12834662746E+03  0.13661571252E+03  0.00000000000E+00 0.  1.
</event>
<event>
12    1  0.9246030E-003  0.1889590E+03  0.7818608E-02  0.1159425E+00
         21   -1    0    0  503  502  0.00000000000E+00  0.00000000000E+00  0.43718597048E+03  0.43718597048E+03  0.00000000000E+00 0.  1.
         21   -1    0    0  501  503 -0.00000000000E+00 -0.00000000000E+00 -0.89207998276E+02  0.89207998276E+02  0.00000000000E+00 0. -1.
          6    2    1    2  501    0  0.52802282778E+02  0.58742687439E+02  0.97318797459E+02  0.21254750120E+03  0.17165869490E+03 0.  0.
         24    2    3    3    0    0 -0.27502387630E+02 -0.75474118333E+01  0.42743903374E+02  0.94888135171E+02  0.79770747583E+02 0.  0.
         -6    2    1    2    0  502 -0.52802282778E+02 -0.58742687439E+02  0.25065917474E+03  0.31384646755E+03  0.17155406995E+03 0.  0.
        -24    2    5    5    0    0 -0.19473531321E+01  0.24136834125E+02  0.12833984097E+03  0.15751557368E+03  0.88054881891E+02 0.  0.
          5    1    3    3  501    0  0.80304670409E+02  0.66290099272E+02  0.54574894085E+02  0.11765936603E+03  0.47000000000E+01 0. -1.
        -11    1    4    4    0    0 -0.16989751225E+02 -0.76717918549E+00  0.66175726539E+02  0.68326180880E+02  0.00000000000E+00 0.  1.
         12    1    4    4    0    0 -0.10512636405E+02 -0.67802326478E+01 -0.23431823165E+02  0.26561954292E+02  0.00000000000E+00 0. -1.
         -5    1    5    5    0  502 -0.50854929646E+02 -0.82879521564E+02  0.12231933377E+03  0.15633089387E+03  0.47000000000E+01 0.  1.
         11    1    6    6    0    0  0.40996359126E+02  0.11994636445E+01  0.44139242655E+02  0.60252907953E+02  0.00000000000E+00 0. -1.
        -12    1    6    6    0    0 -0.42943712258E+02  0.22937370481E+02  0.84200598320E+02  0.97262665728E+02  0.00000000000E+00 0.  1.
</event>
<event>
12    1  0.9246030E-003  0.2342164E+03  0.7818608E-02  0.1123879E+00
         21   -1    0    0  501  502  0.00000000000E+00  0.00000000000E+00  0.17304359449E+03  0.17304359449E+03  0.00000000000E+00 0.  1.
         21   -1    0    0  502  503 -0.00000000000E+00 -0.00000000000E+00 -0.32216138365E+03  0.32216138365E+03  0.00000000000E+00 0.  1.
          6    2    1    2  501    0  0.48646437469E+02  0.15068999160E+03 -0.39229125865E+02  0.23649114785E+03  0.17121679020E+03 0.  0.
         24    2    3    3    0    0  0.34847219139E+02  0.16405244695E+03 -0.71303515286E+02  0.19881051494E+03  0.79460024711E+02 0.  0.
         -6    2    1    2    0  503 -0.48646437469E+02 -0.15068999160E+03 -0.10988866329E+03  0.25871383030E+03  0.17257861461E+03 0.  0.
        -24    2    5    5    0    0 -0.55518060954E+02 -0.14989729761E+03 -0.33784306570E+02  0.18215136766E+03  0.80537484722E+02 0.  0.
          5    1    3    3  501    0  0.13799218330E+02 -0.13362455351E+02  0.32074389421E+02  0.37680632907E+02  0.47000000000E+01 0. -1.
        -11    1    4    4    0    0  0.43960821002E+02  0.59146901688E+02 -0.39271041527E+01  0.73799267676E+02  0.00000000000E+00 0.  1.
         12    1    4    4    0    0 -0.91136018627E+01  0.10490554526E+03 -0.67376411134E+02  0.12501124726E+03  0.00000000000E+00 0. -1.
         -5    1    5    5    0  503  0.68716234848E+01 -0.79269398112E+00 -0.76104356721E+02  0.76562462637E+02  0.47000000000E+01 0.  1.
         13    1    6    6    0    0 -0.24982931448E+02 -0.10121174966E+03 -0.58558042595E+02  0.11957010281E+03  0.00000000000E+00 0. -1.
        -14    1    6    6    0    0 -0.30535129506E+02 -0.48685547951E+02  0.24773736026E+02  0.62581264848E+02  0.00000000000E+00 0.  1.
</event>
<event>
12    1  0.9246030E-003  0.2211611E+03  0.7818608E-02  0.1134185E+00
         21   -1    0    0  501  502  0.00000000000E+00  0.00000000000E+00  0.17370075814E+04  0.17370075814E+04  0.00000000000E+00 0.  1.
         21   -1    0    0  502  503 -0.00000000000E+00 -0.00000000000E+00 -0.38516453340E+02  0.38516453340E+02  0.00000000000E+00 0. -1.
          6    2    1    2  501    0  0.12005804361E+03 -0.67840147148E+02  0.13352441614E+04  0.13534360686E+04  0.17290460353E+03 0.  0.
         24    2    3    3    0    0  0.13461508110E+02 -0.30082313705E+02  0.32520347671E+03  0.33707355944E+03  0.82311149971E+02 0.  0.
         -6    2    1    2    0  503 -0.12005804361E+03  0.67840147148E+02  0.36324696669E+03  0.42208796614E+03  0.16490504222E+03 0.  0.
        -24    2    5    5    0    0 -0.87908909475E+01  0.47372762237E+02  0.10770387124E+03  0.14258187186E+03  0.80050033965E+02 0.  0.
          5    1    3    3  501    0  0.10659653550E+03 -0.37757833443E+02  0.10100406847E+04  0.10163625092E+04  0.47000000000E+01 0. -1.
        -13    1    4    4    0    0  0.10134026667E+01  0.24456047721E+02  0.17662340297E+03  0.17831138980E+03  0.00000000000E+00 0.  1.
         14    1    4    4    0    0  0.12448105443E+02 -0.54538361426E+02  0.14858007375E+03  0.15876216965E+03  0.00000000000E+00 0. -1.
         -5    1    5    5    0  503 -0.11126715266E+03  0.20467384911E+02  0.25554309545E+03  0.27950609428E+03  0.47000000000E+01 0.  1.
         11    1    6    6    0    0  0.34531494445E+00  0.33430573672E+02  0.11823103574E+03  0.12286700253E+03  0.00000000000E+00 0. -1.
        -12    1    6    6    0    0 -0.91362058920E+01  0.13942188565E+02 -0.10527164505E+02  0.19714869328E+02  0.00000000000E+00 0.  1.
</event>
<event>
12    1  0.9246030E-003  0.1797431E+03  0.7818608E-02  0.1168461E+00
         21   -1    0    0  501  502  0.00000000000E+00  0.00000000000E+00  0.54593309621E+02  0.54593309621E+02  0.00000000000E+00 0.  1.
         21   -1    0    0  502  503 -0.00000000000E+00 -0.00000000000E+00 -0.83637688899E+03  0.83637688899E+03  0.00000000000E+00 0.  1.
          6    2    1    2  501    0 -0.97492620133E+01 -0.51707480520E+02 -0.14599543528E+03  0.23026289362E+03  0.17011061521E+03 0.  0.
         24    2    3    3    0    0 -0.13469110302E+02  0.16801553174E+01 -0.15695977690E+03  0.17543239373E+03  0.77174564155E+02 0.  0.
         -6    2    1    2    0  503  0.97492620133E+01  0.51707480520E+02 -0.63578814409E+03  0.66070730499E+03  0.17186874948E+03 0.  0.
        -24    2    5    5    0    0  0.50865230881E+01  0.47818330471E+02 -0.16325946435E+03  0.18811624520E+03  0.80134908493E+02 0.  0.
          5    1    3    3  501    0  0.37198482884E+01 -0.53387635837E+02  0.10964341615E+02  0.54830499894E+02  0.47000000000E+01 0. -1.
        -11    1    4    4    0    0  0.60432074439E+01 -0.34707147082E+02 -0.53708253065E+02  0.64231478747E+02  0.00000000000E+00 0.  1.
         12    1    4    4    0    0 -0.19512317746E+02  0.36387302399E+02 -0.10325152383E+03  0.11120091498E+03  0.00000000000E+00 0. -1.
         -5    1    5    5    0  503  0.46627389252E+01  0.38891500485E+01 -0.47252867974E+03  0.47259105979E+03  0.47000000000E+01 0.  1.
         13    1    6    6    0    0  0.30692679965E+02  0.12649410656E+02 -0.12765391094E+03  0.13189984523E+03  0.00000000000E+00 0. -1.
        -14    1    6    6    0    0 -0.25606156877E+02  0.35168919815E+02 -0.35605553409E+02  0.56216399961E+02  0.00000000000E+00 0.  1.
</event>
<event>
12    1  0.9246030E-003  0.1802007E+03  0.7818608E-02  0.1167705E+00
         21   -1    0    0  501  502  0.00000000000E+00  0.00000000000E+00  0.27222274684E+03  0.27222274684E+03  0.00000000000E+00 0. -1.
         21   -1    0    0  502  503 -0.00000000000E+00 -0.00000000000E+00 -0.12331103728E+03  0.12331103728E+03  0.00000000000E+00 0. -1.
          6    2    1    2  501    0 -0.51070905617E+02  0.37759268226E+01  0.11141354617E+03  0.21186141691E+03  0.17277090809E+03 0.  0.
         24    2    3    3    0    0  0.10468878295E+02  0.48043444977E+02  0.93084338611E+02  0.13372814604E+03  0.82466677694E+02 0.  0.
         -6    2    1    2    0  503  0.51070905617E+02 -0.37759268226E+01  0.37498163386E+02  0.18367236721E+03  0.17235698766E+03 0.  0.
        -24    2    5    5    0    0 -0.15152757721E+02 -0.44023215237E+01  0.74828685947E+02  0.10750397567E+03  0.75556508936E+02 0.  0.
          5    1    3    3  501    0 -0.61539783911E+02 -0.44267518154E+02  0.18329207557E+02  0.78133270871E+02  0.47000000000E+01 0. -1.
        -13    1    4    4    0    0 -0.11303942465E+02  0.60335106409E+02  0.35406286392E+02  0.70864019761E+02  0.00000000000E+00 0.  1.
         14    1    4    4    0    0  0.21772820760E+02 -0.12291661433E+02  0.57678052219E+02  0.62864126275E+02  0.00000000000E+00 0. -1.
         -5    1    5    5    0  503  0.66223663337E+02  0.62639470104E+00 -0.37330522560E+02  0.76168391546E+02  0.47000000000E+01 0.  1.
         11    1    6    6    0    0 -0.36837234618E+02  0.21644827356E+02  0.35193205242E+02  0.55353790302E+02  0.00000000000E+00 0. -1.
        -12    1    6    6    0    0  0.21684476897E+02 -0.26047148879E+02  0.39635480704E+02  0.52150185366E+02  0.00000000000E+00 0.  1.
</event>
<event>
12    1  0.9246030E-003  0.1971258E+03  0.7818608E-02  0.1152470E+00
         21   -1    0    0  501  502  0.00000000000E+00  0.00000000000E+00  0.40987558734E+02  0.40987558734E+02  0.00000000000E+00 0.  1.
         21   -1    0    0  502  503 -0.00000000000E+00 -0.00000000000E+00 -0.94898358192E+03  0.94898358192E+03  0.00000000000E+00 0. -1.
          6    2    1    2  501    0 -0.83126535367E+02 -0.50133889574E+02 -0.40932248441E+03  0.45374928311E+03  0.17005907185E+03 0.  0.
         24    2    3    3    0    0  0.82946944168E+01 -0.41660114216E+01 -0.10316843179E+03  0.13091297628E+03  0.80052010801E+02 0.  0.
         -6    2    1    2    0  503  0.83126535367E+02  0.50133889574E+02 -0.49867353878E+03  0.53622185754E+03  0.17156676385E+03 0.  0.
        -24    2    5    5    0    0  0.26980417861E+02 -0.36498550131E+02 -0.19203060610E+03  0.21263331590E+03  0.79228064730E+02 0.  0.
          5    1    3    3  501    0 -0.91421229783E+02 -0.45967878152E+02 -0.30615405262E+03  0.32283630684E+03  0.47000000000E+01 0. -1.
        -13    1    4    4    0    0 -0.22926550763E+02 -0.31472177559E+02 -0.54249832563E+02  0.66777009692E+02  0.00000000000E+00 0.  1.
         14    1    4    4    0    0  0.31221245180E+02  0.27306166137E+02 -0.48918599224E+02  0.64135966585E+02  0.00000000000E+00 0. -1.
         -5    1    5    5    0  503  0.56146117506E+02  0.86632439705E+02 -0.30664293268E+03  0.32358854165E+03  0.47000000000E+01 0.  1.
         11    1    6    6    0    0  0.38264690767E+02  0.46761463354E+00 -0.15296545117E+03  0.15767953093E+03  0.00000000000E+00 0. -1.
        -12    1    6    6    0    0 -0.11284272906E+02 -0.36966164765E+02 -0.39065154929E+02  0.54953784966E+02  0.00000000000E+00 0.  1.
</event>
<event>
12    1  0.9246030E-003  0.1838148E+03  0.7818608E-02  0.1167358E+00
         21   -1    0    0  501  502  0.00000000000E+00  0.00000000000E+00  0.30656314391E+02  0.30656314391E+02  0.00000000000E+00 0.  1.
         21   -1    0    0  502  503 -0.00000000000E+00 -0.00000000000E+00 -0.10441044046E+04  0.10441044046E+04  0.00000000000E+00 0.  1.
          6    2    1    2  501    0  0.45271900814E+02 -0.51704145223E+02 -0.41625580569E+03  0.44991954005E+03  0.15631965043E+03 0.  0.
         24    2    3    3    0    0  0.79220303360E+02 -0.13116376129E+02 -0.23011240815E+03  0.25675390022E+03  0.80764776425E+02 0.  0.
         -6    2    1    2    0  503 -0.45271900814E+02  0.51704145223E+02 -0.59719228449E+03  0.62484117892E+03  0.17048463443E+03 0.  0.
        -24    2    5    5    0    0  0.22016320242E+02  0.30463210079E+01 -0.43215083925E+03  0.44002760474E+03  0.79849525013E+02 0.  0.
          5    1    3    3  501    0 -0.33948402545E+02 -0.38587769094E+02 -0.18614339754E+03  0.19316563982E+03  0.47000000000E+01 0. -1.
        -11    1    4    4    0    0  0.30989057783E+02 -0.13546667542E+02 -0.16253859757E+02  0.37523617373E+02  0.00000000000E+00 0.  1.
         12    1    4    4    0    0  0.48231245577E+02  0.43029141241E+00 -0.21385854839E+03  0.21923028285E+03  0.00000000000E+00 0. -1.
         -5    1    5    5    0  503 -0.67288221056E+02  0.48657824215E+02 -0.16504144525E+03  0.18481357418E+03  0.47000000000E+01 0.  1.
         11    1    6    6    0    0 -0.13700065784E+02 -0.29903339194E+02 -0.13630698370E+03  0.14021945408E+03  0.00000000000E+00 0. -1.
        -12    1    6    6    0    0  0.35716386025E+02  0.32949660202E+02 -0.29584385555E+03  0.29980815066E+03  0.00000000000E+00 0.  1.
</event>
<event>
12    1  0.9246030E-003  0.2423534E+03  0.7818608E-02  0.1118264E+00
         21   -1    0    0  501  502  0.00000000000E+00  0.00000000000E+00  0.74251235218E+02  0.74251235218E+02  0.00000000000E+00 0. -1.
         21   -1    0    0  502  503 -0.00000000000E+00 -0.00000000000E+00 -0.79045177023E+03  0.79045177023E+03  0.00000000000E+00 0. -1.
          6    2    1    2  501    0 -0.11561044620E+03 -0.12660950492E+03 -0.35913992327E+03  0.43326279110E+03  0.17128753503E+03 0.  0.
         24    2    3    3    0    0 -0.79232509520E+02 -0.30900306222E+02 -0.26185284896E+03  0.29194587838E+03  0.97122921629E+02 0.  0.
         -6    2    1    2    0  503  0.11561044620E+03  0.12660950492E+03 -0.35706061174E+03  0.43144021434E+03  0.17103402028E+03 0.  0.
        -24    2    5    5    0    0  0.68403922489E+01  0.48957486049E+02 -0.22422456511E+03  0.24295078240E+03  0.79402774911E+02 0.  0.
          5    1    3    3  501    0 -0.36377936681E+02 -0.95709198698E+02 -0.97287074316E+02  0.14131691272E+03  0.47000000000E+01 0. -1.
        -11    1    4    4    0    0  0.17029230879E+02 -0.44380470375E+01 -0.83201100475E+01  0.19465744195E+02  0.00000000000E+00 0.  1.
         12    1    4    4    0    0 -0.96261740400E+02 -0.26462259185E+02 -0.25353273891E+03  0.27248013418E+03  0.00000000000E+00 0. -1.
         -5    1    5    5    0  503  0.10877005395E+03  0.77652018872E+02 -0.13283604663E+03  0.18848943195E+03  0.47000000000E+01 0.  1.
         11    1    6    6    0    0  0.38803522927E+00 -0.44038182292E+01  0.54802578790E+01  0.70411229754E+01  0.00000000000E+00 0. -1.
        -12    1    6    6    0    0  0.64523570196E+01  0.53361304278E+02 -0.22970482299E+03  0.23590965942E+03  0.00000000000E+00 0.  1.
</event>
<event>
12    1  0.9246030E-003  0.2239710E+03  0.7818608E-02  0.1131231E+00
         21   -1    0    0  501  502  0.00000000000E+00  0.00000000000E+00  0.52388959779E+02  0.52388959779E+02  0.00000000000E+00 0. -1.
         21   -1    0    0  502  503 -0.00000000000E+00 -0.00000000000E+00 -0.21075994138E+04  0.21075994138E+04  0.00000000000E+00 0.  1.
          6    2    1    2  501    0 -0.14246024027E+03 -0.15259917756E+01 -0.22914926715E+03  0.32042530305E+03  0.17281706945E+03 0.  0.
         24    2    3    3    0    0 -0.45643531582E+02 -0.22681543827E+02 -0.19447953113E+03  0.21532957022E+03  0.77115182520E+02 0.  0.
         -6    2    1    2    0  503  0.14246024027E+03  0.15259917756E+01 -0.18260611869E+04  0.18395630705E+04  0.17086715170E+03 0.  0.
        -24    2    5    5    0    0  0.85494285372E+02 -0.53930087757E+02 -0.14062459383E+04  0.14122605668E+04  0.82064257111E+02 0.  0.
          5    1    3    3  501    0 -0.96816708692E+02  0.21155552051E+02 -0.34669736014E+02  0.10509573283E+03  0.47000000000E+01 0. -1.
        -13    1    4    4    0    0 -0.41550277481E+02  0.22345990044E+02 -0.10267900999E+03  0.11299888460E+03  0.00000000000E+00 0.  1.
         14    1    4    4    0    0 -0.40932541010E+01 -0.45027533871E+02 -0.91800521144E+02  0.10233068561E+03  0.00000000000E+00 0. -1.
         -5    1    5    5    0  503  0.56965954902E+02  0.55456079532E+02 -0.41981524858E+03  0.42730250376E+03  0.47000000000E+01 0.  1.
         13    1    6    6    0    0  0.96695002255E+02 -0.50627754577E+02 -0.13660306530E+04  0.13703841935E+04  0.00000000000E+00 0. -1.
        -14    1    6    6    0    0 -0.11200716883E+02 -0.33023331796E+01 -0.40215285328E+02  0.41876373257E+02  0.00000000000E+00 0.  1.
</event>
<event>
12    1  0.9246030E-003  0.2413328E+03  0.7818608E-02  0.1119109E+00
         21   -1    0    0  503  502  0.00000000000E+00  0.00000000000E+00  0.79333828602E+02  0.79333828602E+02  0.00000000000E+00 0. -1.
         21   -1    0    0  501  503 -0.00000000000E+00 -0.00000000000E+00 -0.75949481273E+03  0.75949481273E+03  0.00000000000E+00 0. -1.
          6    2    1    2  501    0  0.14292781749E+03 -0.91689314712E+02 -0.25724684998E+03  0.35190167652E+03  0.16977501779E+03 0.  0.
         24    2    3    3    0    0  0.14539934193E+03 -0.18798780665E+02 -0.18222210041E+03  0.24716418832E+03  0.79942975430E+02 0.  0.
         -6    2    1    2    0  502 -0.14292781749E+03  0.91689314712E+02 -0.42291413415E+03  0.48692696482E+03  0.17148239781E+03 0.  0.
        -24    2    5    5    0    0 -0.10469322738E+03  0.82465299879E+02 -0.17126510575E+03  0.23217946272E+03  0.82549190895E+02 0.  0.
          5    1    3    3  501    0 -0.24715244346E+01 -0.72890534047E+02 -0.75024749568E+02  0.10473748820E+03  0.47000000000E+01 0. -1.
        -13    1    4    4    0    0 -0.30977801153E+01 -0.16433597111E+02 -0.89992078046E+01  0.18990658145E+02  0.00000000000E+00 0.  1.
         14    1    4    4    0    0  0.14849712204E+03 -0.23651835534E+01 -0.17322289261E+03  0.22817353017E+03  0.00000000000E+00 0. -1.
         -5    1    5    5    0  502 -0.38234590107E+02  0.92240148328E+01 -0.25164902840E+03  0.25474750210E+03  0.47000000000E+01 0.  1.
         13    1    6    6    0    0 -0.11413294882E+03  0.81698831062E+02 -0.13517513133E+03  0.19486750661E+03  0.00000000000E+00 0. -1.
        -14    1    6    6    0    0  0.94397214309E+01  0.76646881646E+00 -0.36089974423E+02  0.37311956113E+02  0.00000000000E+00 0.  1.
</event>
<event>
12    1  0.9246030E-003  0.1782420E+03  0.7818608E-02  0.1170127E+00
         21   -1    0    0  503  502  0.00000000000E+00  0.00000000000E+00  0.60356456837E+03  0.60356456837E+03  0.00000000000E+00 0.  1.
         21   -1    0    0  501  503 -0.00000000000E+00 -0.00000000000E+00 -0.64151932542E+02  0.64151932542E+02  0.00000000000E+00 0.  1.
          6    2    1    2  501    0 -0.38097572389E+02 -0.12177769581E+02  0.12233320818E+03  0.21414680305E+03  0.17115407193E+03 0.  0.
         24    2    3    3    0    0  0.67163606679E+01  0.36562286972E+02  0.17358036015E+02  0.89946326077E+02  0.80044549041E+02 0.  0.
         -6    2    1    2    0  502  0.38097572389E+02  0.12177769581E+02  0.41707942765E+03  0.45356969786E+03  0.17369657094E+03 0.  0.
        -24    2    5    5    0    0 -0.19868375041E+02  0.34632782632E+02  0.11895538929E+03  0.14899735683E+03  0.80347033191E+02 0.  0.
          5    1    3    3  501    0 -0.44813933057E+02 -0.48740056553E+02  0.10497517216E+03  0.12420047697E+03  0.47000000000E+01 0. -1.
        -11    1    4    4    0    0 -0.20286824137E+02 -0.18092612121E+02  0.32767587534E+01  0.27379463012E+02  0.00000000000E+00 0.  1.
         12    1    4    4    0    0  0.27003184805E+02  0.54654899093E+02  0.14081277261E+02  0.62566863065E+02  0.00000000000E+00 0. -1.
         -5    1    5    5    0  502  0.57965947431E+02 -0.22455013051E+02  0.29812403836E+03  0.30457234103E+03  0.47000000000E+01 0.  1.
         11    1    6    6    0    0 -0.25134193914E+02  0.57806845633E+02  0.67708753708E+02  0.92508564114E+02  0.00000000000E+00 0. -1.
        -12    1    6    6    0    0  0.52658188726E+01 -0.23174063002E+02  0.51246635580E+02  0.56488792717E+02  0.00000000000E+00 0.  1.
</event>
<event>
12    1  0.9246030E-003  0.2545046E+03  0.7818608E-02  0.1110700E+00
         21   -1    0    0  501  502  0.00000000000E+00  0.00000000000E+00  0.94637945676E+02  0.94637945676E+02  0.00000000000E+00 0.  1.
         21   -1    0    0  502  503 -0.00000000000E+00 -0.00000000000E+00 -0.69752623155E+03  0.69752623155E+03  0.00000000000E+00 0.  1.
          6    2    1    2  501    0 -0.15352838432E+03  0.10599288970E+03 -0.23929948487E+03  0.34835184757E+03  0.17111197733E+03 0.  0.
         24    2    3    3    0    0 -0.88422131742E+02  0.10602541916E+03 -0.23362299350E+03  0.28282980748E+03  0.79706549404E+02 0.  0.
         -6    2    1    2    0  503  0.15352838432E+03 -0.10599288970E+03 -0.36358880100E+03  0.44381232966E+03  0.17311011029E+03 0.  0.
        -24    2    5    5    0    0  0.15848081481E+03 -0.35781082550E+02 -0.22723342227E+03  0.29029000639E+03  0.78973445442E+02 0.  0.
          5    1    3    3  501    0 -0.65106252580E+02 -0.32529464397E-01 -0.56764913774E+01  0.65522040090E+02  0.47000000000E+01 0. -1.
        -13    1    4    4    0    0 -0.51320743480E+01  0.65531588364E+02 -0.81122306212E+02  0.10441051588E+03  0.00000000000E+00 0.  1.
         14    1    4    4    0    0 -0.83290057394E+02  0.40493830799E+02 -0.15250068728E+03  0.17841929160E+03  0.00000000000E+00 0. -1.
         -5    1    5    5    0  503 -0.49524304911E+01 -0.70211807149E+02 -0.13635537874E+03  0.15352232327E+03  0.47000000000E+01 0.  1.
         11    1    6    6    0    0  0.14945161055E+03 -0.26265003105E+02 -0.23123275858E+03  0.27657588999E+03  0.00000000000E+00 0. -1.
        -12    1    6    6    0    0  0.90292042654E+01 -0.95160794451E+01  0.39993363172E+01  0.13714116401E+02  0.00000000000E+00 0.  1.
</event>
<event>
12    1  0.9246030E-003  0.2611403E+03  0.7818608E-02  0.1106979E+00
         21   -1    0    0  501  502  0.00000000000E+00  0.00000000000E+00  0.20325571388E+04  0.20325571388E+04  0.00000000000E+00 0. -1.
         21   -1    0    0  502  503 -0.00000000000E+00 -0.00000000000E+00 -0.37281993212E+02  0.37281993212E+02  0.00000000000E+00 0.  1.
          6    2    1    2  501    0  0.10647219693E+03  0.16515835715E+03  0.13379759514E+04  0.13625651525E+04  0.16670493881E+03 0.  0.
         24    2    3    3    0    0  0.69823096464E+02  0.20062949348E+02  0.58035575837E+03  0.59029170299E+03  0.79710109829E+02 0.  0.
         -6    2    1    2    0  503 -0.10647219693E+03 -0.16515835715E+03  0.65729919420E+03  0.70727397953E+03  0.17199023160E+03 0.  0.
        -24    2    5    5    0    0 -0.14388219075E+03 -0.13796660943E+03  0.53459037181E+03  0.57605491127E+03  0.79470277666E+02 0.  0.
          5    1    3    3  501    0  0.36649100464E+02  0.14509540780E+03  0.75762019302E+03  0.77227344950E+03  0.47000000000E+01 0. -1.
        -13    1    4    4    0    0  0.12414535980E+02  0.43742822336E+02  0.26648988315E+03  0.27034128991E+03  0.00000000000E+00 0.  1.
         14    1    4    4    0    0  0.57408560484E+02 -0.23679872988E+02  0.31386587522E+03  0.31995041308E+03  0.00000000000E+00 0. -1.
         -5    1    5    5    0  503  0.37409993825E+02 -0.27191747714E+02  0.12270882240E+03  0.13121906826E+03  0.47000000000E+01 0.  1.
         13    1    6    6    0    0 -0.79286408999E+02 -0.76527059062E+02  0.39778938888E+03  0.41277006108E+03  0.00000000000E+00 0. -1.
        -14    1    6    6    0    0 -0.64595781753E+02 -0.61439550371E+02  0.13680098293E+03  0.16328485019E+03  0.00000000000E+00 0.  1.
</event>
<event>
12    1  0.9246030E-003  0.1872224E+03  0.7818608E-02  0.1162120E+00
         21   -1    0    0  503  502  0.00000000000E+00  0.00000000000E+00  0.65807635569E+03  0.65807635569E+03  0.00000000000E+00 0.  1.
         21   -1    0    0  501  503 -0.00000000000E+00 -0.00000000000E+00 -0.72249974799E+02  0.72249974799E+02  0.00000000000E+00 0.  1.
          6    2    1    2  501    0  0.74320436210E+02 -0.41525017000E+01  0.10186240138E+03  0.21313883633E+03  0.17178895258E+03 0.  0.
         24    2    3    3    0    0  0.10225026654E+03  0.31247179892E+02  0.99140728666E+02  0.16772176486E+03  0.82886688124E+02 0.  0.
         -6    2    1    2    0  502 -0.74320436210E+02  0.41525017000E+01  0.48396397951E+03  0.51718749416E+03  0.16649624663E+03 0.  0.
        -24    2    5    5    0    0 -0.18129245382E+02 -0.13761937293E+02  0.42736543470E+03  0.43531037693E+03  0.79598046661E+02 0.  0.
          5    1    3    3  501    0 -0.27929830329E+02 -0.35399681592E+02  0.27216727184E+01  0.45417071475E+02  0.47000000000E+01 0. -1.
        -13    1    4    4    0    0  0.49406939091E+02 -0.27061615662E+02  0.46515691191E+02  0.73055363934E+02  0.00000000000E+00 0.  1.
         14    1    4    4    0    0  0.52843327448E+02  0.58308795554E+02  0.52625037475E+02  0.94666400924E+02  0.00000000000E+00 0. -1.
         -5    1    5    5    0  502 -0.56191190827E+02  0.17914438993E+02  0.56598544814E+02  0.81877117231E+02  0.47000000000E+01 0.  1.
         13    1    6    6    0    0  0.24695139742E+02  0.18700125813E+01  0.27904764752E+03  0.28014449211E+03  0.00000000000E+00 0. -1.
        -14    1    6    6    0    0 -0.42824385125E+02 -0.15631949875E+02  0.14831778718E+03  0.15516588482E+03  0.00000000000E+00 0.  1.
</event>
<event>
12    1  0.9246030E-003  0.2030078E+03  0.7818608E-02  0.1147406E+00
         21   -1    0    0  501  502  0.00000000000E+00  0.00000000000E+00  0.53980803822E+02  0.53980803822E+02  0.00000000000E+00 0. -1.
         21   -1    0    0  502  503 -0.00000000000E+00 -0.00000000000E+00 -0.90523270318E+03  0.90523270318E+03  0.00000000000E+00 0.  1.
          6    2    1    2  501    0 -0.34015034995E+02 -0.10119590972E+03 -0.23288917172E+03  0.30837972112E+03  0.17164804498E+03 0.  0.
         24    2    3    3    0    0  0.68851149762E+01  0.99315902929E+01 -0.11900648561E+03  0.14402188066E+03  0.80210455664E+02 0.  0.
         -6    2    1    2    0  503  0.34015034995E+02  0.10119590972E+03 -0.61836272764E+03  0.65083378588E+03  0.17266881351E+03 0.  0.
        -24    2    5    5    0    0 -0.23193816374E+02  0.85393653234E+01 -0.37471288519E+03  0.38391540206E+03  0.79814884166E+02 0.  0.
          5    1    3    3  501    0 -0.40900149971E+02 -0.11112750001E+03 -0.11388268611E+03  0.16435784046E+03  0.47000000000E+01 0. -1.
        -11    1    4    4    0    0  0.21484012502E+02  0.90986421559E+01  0.78183326413E+00  0.23344364320E+02  0.00000000000E+00 0.  1.
         12    1    4    4    0    0 -0.14598897526E+02  0.83294813702E+00 -0.11978831887E+03  0.12067751634E+03  0.00000000000E+00 0. -1.
         -5    1    5    5    0  503  0.57208851369E+02  0.92656544393E+02 -0.24364984245E+03  0.26691838382E+03  0.47000000000E+01 0.  1.
         13    1    6    6    0    0 -0.62529671710E+01 -0.30811504259E+02 -0.77559414204E+02  0.83689372831E+02  0.00000000000E+00 0. -1.
        -14    1    6    6    0    0 -0.16940849203E+02  0.39350869583E+02 -0.29715347098E+03  0.30022602923E+03  0.00000000000E+00 0.  1.
</event>
<event>
12    1  0.9246030E-003  0.3170792E+03  0.7818608E-02  0.1077361E+00
         21   -1    0    0  501  502  0.00000000000E+00  0.00000000000E+00  0.14026285379E+04  0.14026285379E+04  0.00000000000E+00 0. -1.
         21   -1    0    0  502  503 -0.00000000000E+00 -0.00000000000E+00 -0.71063595335E+02  0.71063595335E+02  0.00000000000E+00 0.  1.
          6    2    1    2  501    0  0.26594945881E+03 -0.20490866652E+02  0.63810089294E+03  0.71117552295E+03  0.16567704917E+03 0.  0.
         24    2    3    3    0    0  0.18616123915E+03 -0.61943144102E+02  0.34096614990E+03  0.40069911995E+03  0.76216200950E+02 0.  0.
         -6    2    1    2    0  503 -0.26594945881E+03  0.20490866652E+02  0.69346404966E+03  0.76251661032E+03  0.17143570975E+03 0.  0.
        -24    2    5    5    0    0 -0.42242193178E+02  0.80424925650E+01  0.16224995146E+03  0.18596616947E+03  0.80058009387E+02 0.  0.
          5    1    3    3  501    0  0.79788219664E+02  0.41452277450E+02  0.29713474304E+03  0.31047640300E+03  0.47000000000E+01 0. -1.
        -11    1    4    4    0    0  0.13662504608E+03 -0.91723547007E+01  0.20240648891E+03  0.24437455281E+03  0.00000000000E+00 0.  1.
         12    1    4    4    0    0  0.49536193064E+02 -0.52770789402E+02  0.13855966099E+03  0.15632456714E+03  0.00000000000E+00 0. -1.
         -5    1    5    5    0  503 -0.22370726563E+03  0.12448374087E+02  0.53121409820E+03  0.57655044084E+03  0.47000000000E+01 0.  1.
         13    1    6    6    0    0  0.77589364575E+01 -0.27882352432E+02  0.59886839150E+02  0.66513608950E+02  0.00000000000E+00 0. -1.
        -14    1    6    6    0    0 -0.50001129635E+02  0.35924844997E+02  0.10236311231E+03  0.11945256052E+03  0.00000000000E+00 0.  1.
</event>
<event>
12    1  0.9246030E-003  0.1914103E+03  0.7818608E-02  0.1157669E+00
         21   -1    0    0  501  502  0.00000000000E+00  0.00000000000E+00  0.62566011313E+03  0.62566011313E+03  0.00000000000E+00 0.  1.
         21   -1    0    0  502  503 -0.00000000000E+00 -0.00000000000E+00 -0.68457630179E+02  0.68457630179E+02  0.00000000000E+00 0.  1.
          6    2    1    2  501    0  0.18962652192E+02  0.78069537438E+02  0.14111075496E+03  0.23611095338E+03  0.17141091647E+03 0.  0.
         24    2    3    3    0    0  0.27376507043E+02  0.42439116534E+02  0.16640608511E+03  0.19136429345E+03  0.79867113986E+02 0.  0.
         -6    2    1    2    0  503 -0.18962652192E+02 -0.78069537438E+02  0.41609172799E+03  0.45800678994E+03  0.17373387312E+03 0.  0.
        -24    2    5    5    0    0  0.16453202028E+02 -0.22230652736E+02  0.81240063452E+02  0.11665654309E+03  0.79018297616E+02 0.  0.
          5    1    3    3  501    0 -0.84138548515E+01  0.35630420904E+02 -0.25295330149E+02  0.44746659926E+02  0.47000000000E+01 0. -1.
        -11    1    4    4    0    0  0.33350318841E+02  0.34600611424E+02  0.34663829430E+02  0.59253920954E+02  0.00000000000E+00 0.  1.
         12    1    4    4    0    0 -0.59738117972E+01  0.78385051100E+01  0.13174225568E+03  0.13211037250E+03  0.00000000000E+00 0. -1.
         -5    1    5    5    0  503 -0.35415854220E+02 -0.55838884702E+02  0.33485166454E+03  0.34135024685E+03  0.47000000000E+01 0.  1.
         13    1    6    6    0    0 -0.28815263334E+01  0.26767474973E+02  0.45939433543E+02  0.53246900987E+02  0.00000000000E+00 0. -1.
        -14    1    6    6    0    0  0.19334728361E+02 -0.48998127709E+02  0.35300629909E+02  0.63409642104E+02  0.00000000000E+00 0.  1.
</event>
<event>
12    1  0.9246030E-003  0.2113602E+03  0.7818608E-02  0.1140590E+00
         21   -1    0    0  503  502  0.00000000000E+00  0.00000000000E+00  0.15910531066E+04  0.15910531066E+04  0.00000000000E+00 0.  1.
         21   -1    0    0  501  503 -0.00000000000E+00 -0.00000000000E+00 -0.28175367014E+02  0.28175367014E+02  0.00000000000E+00 0. -1.
          6    2    1    2  501    0 -0.45869602453E+01 -0.12235603209E+03  0.84208562855E+03  0.86808641960E+03  0.17167931528E+03 0.  0.
         24    2    3    3    0    0  0.46727673754E+02 -0.12557211595E+03  0.69056905340E+03  0.70801488121E+03  0.80297090245E+02 0.  0.
         -6    2    1    2    0  502  0.45869602453E+01  0.12235603209E+03  0.72079211108E+03  0.75114205406E+03  0.17228197580E+03 0.  0.
        -24    2    5    5    0    0 -0.39441550258E+02  0.74397648225E+02  0.62104150735E+03  0.63193303902E+03  0.80970155095E+02 0.  0.
          5    1    3    3  501    0 -0.51314634000E+02  0.32160838654E+01  0.15151657515E+03  0.16007153839E+03  0.47000000000E+01 0. -1.
        -13    1    4    4    0    0  0.28829582677E+02 -0.76839671255E+02  0.58101327718E+03  0.58678097122E+03  0.00000000000E+00 0.  1.
         14    1    4    4    0    0  0.17898091077E+02 -0.48732444697E+02  0.10955577621E+03  0.12123390999E+03  0.00000000000E+00 0. -1.
         -5    1    5    5    0  502  0.44028510503E+02  0.47958383861E+02  0.99750603734E+02  0.11920901503E+03  0.47000000000E+01 0.  1.
         13    1    6    6    0    0 -0.41820716574E+02  0.76659870778E+02  0.34526831734E+03  0.35614030814E+03  0.00000000000E+00 0. -1.
        -14    1    6    6    0    0  0.23791663168E+01 -0.22622225532E+01  0.27577319000E+03  0.27579273088E+03  0.00000000000E+00 0.  1.
</event>
<event>
12    1  0.9246030E-003  0.1793363E+03  0.7818608E-02  0.1169334E+00
         21   -1    0    0  501  502  0.00000000000E+00  0.00000000000E+00  0.13926685451E+04  0.13926685451E+04  0.00000000000E+00 0.  1.
         21   -1    0    0  502  503 -0.00000000000E+00 -0.00000000000E+00 -0.23161078795E+02  0.23161078795E+02  0.00000000000E+00 0. -1.
          6    2    1    2  501    0 -0.32342742777E+02  0.24358022668E+02  0.57087814408E+03  0.59731248062E+03  0.17099993522E+03 0.  0.
         24    2    3    3    0    0 -0.66040127547E+02 -0.54463018655E+01  0.21454505709E+03  0.23812009431E+03  0.79250470939E+02 0.  0.
         -6    2    1    2    0  503  0.32342742777E+02 -0.24358022668E+02  0.79862932225E+03  0.81851714329E+03  0.17470590496E+03 0.  0.
        -24    2    5    5    0    0 -0.19986292060E+02 -0.51269602032E+02  0.27781254417E+03  0.29436566965E+03  0.80270254814E+02 0.  0.
          5    1    3    3  501    0  0.33697384769E+02  0.29804324534E+02  0.35633308699E+03  0.35919238631E+03  0.47000000000E+01 0. -1.
        -13    1    4    4    0    0 -0.46980493148E+02  0.22458141281E+02  0.18820176349E+03  0.19527272883E+03  0.00000000000E+00 0.  1.
         14    1    4    4    0    0 -0.19059634399E+02 -0.27904443146E+02  0.26343293598E+02  0.42847365477E+02  0.00000000000E+00 0. -1.
         -5    1    5    5    0  503  0.52329034837E+02  0.26911579364E+02  0.52081677808E+03  0.52415147364E+03  0.47000000000E+01 0.  1.
         11    1    6    6    0    0  0.12265717313E+02  0.14977597833E+02  0.28962411192E+02  0.34836726599E+02  0.00000000000E+00 0. -1.
        -12    1    6    6    0    0 -0.32252009373E+02 -0.66247199865E+02  0.24885013298E+03  0.25952894305E+03  0.00000000000E+00 0.  1.
</event>
<event>
12    1  0.9246030E-003  0.2974120E+03  0.7818608E-02  0.1086626E+00
         21   -1    0    0  503  502  0.00000000000E+00  0.00000000000E+00  0.13816875303E+04  0.13816875303E+04  0.00000000000E+00 0. -1.
         21   -1    0    0  501  503 -0.00000000000E+00 -0.00000000000E+00 -0.76031824580E+02  0.76031824580E+02  0.00000000000E+00 0. -1.
          6    2    1    2  501    0 -0.17109630742E+03  0.17206244432E+03  0.36200600068E+03  0.46851067720E+03  0.17197232035E+03 0.  0.
         24    2    3    3    0    0 -0.49039002828E+02  0.51536199450E+02  0.63204086430E+02  0.12393958836E+03  0.79406935270E+02 0.  0.
         -6    2    1    2    0  502  0.17109630742E+03 -0.17206244432E+03  0.94364970501E+03  0.98920867764E+03  0.17082040572E+03 0.  0.
        -24    2    5    5    0    0  0.40738530010E+02 -0.35152967626E+02  0.45787527209E+03  0.46792541049E+03  0.80056642637E+02 0.  0.
          5    1    3    3  501    0 -0.12205730459E+03  0.12052624487E+03  0.29880191425E+03  0.34457108885E+03  0.47000000000E+01 0. -1.
        -11    1    4    4    0    0  0.22344154655E+01  0.16035858454E+02  0.59281354225E+02  0.61452586012E+02  0.00000000000E+00 0.  1.
         12    1    4    4    0    0 -0.51273418294E+02  0.35500340995E+02  0.39227322049E+01  0.62487002347E+02  0.00000000000E+00 0. -1.
         -5    1    5    5    0  502  0.13035777741E+03 -0.13690947669E+03  0.48577443291E+03  0.52128326715E+03  0.47000000000E+01 0.  1.
         13    1    6    6    0    0  0.58937504292E+02 -0.25669856500E+02  0.41959976056E+03  0.42449561836E+03  0.00000000000E+00 0. -1.
        -14    1    6    6    0    0 -0.18198974282E+02 -0.94831111264E+01  0.38275511530E+02  0.43429792130E+02  0.00000000000E+00 0.  1.
</event>
<event>
12    1  0.9246030E-003  0.2861481E+03  0.7818608E-02  0.1092444E+00
         21   -1    0    0  503  502  0.00000000000E+00  0.00000000000E+00  0.42573461010E+03  0.42573461010E+03  0.00000000000E+00 0.  1.
         21   -1    0    0  501  503 -0.00000000000E+00 -0.00000000000E+00 -0.20349576691E+03  0.20349576691E+03  0.00000000000E+00 0. -1.
          6    2    1    2  501    0 -0.75710277420E+01  0.22829653505E+03  0.18601558614E+03  0.34129537621E+03  0.17234879506E+03 0.  0.
         24    2    3    3    0    0 -0.58542618590E+02  0.10371732094E+03  0.13793964060E+03  0.19828673940E+03  0.78139399277E+02 0.  0.
         -6    2    1    2    0  502  0.75710277420E+01 -0.22829653505E+03  0.36223257048E+02  0.28793500080E+03  0.17151621485E+03 0.  0.
        -24    2    5    5    0    0 -0.17982294836E+02 -0.18965971514E+03 -0.28063804179E+02  0.20855809995E+03  0.80092031274E+02 0.  0.
          5    1    3    3  501    0  0.50971590848E+02  0.12457921411E+03  0.48075945539E+02  0.14300863681E+03  0.47000000000E+01 0. -1.
        -11    1    4    4    0    0 -0.60474341920E+01  0.20557259051E+02  0.82826357377E+02  0.85553362508E+02  0.00000000000E+00 0.  1.
         12    1    4    4    0    0 -0.52495184398E+02  0.83160061887E+02  0.55113283221E+02  0.11273337689E+03  0.00000000000E+00 0. -1.
         -5    1    5    5    0  502  0.25553322578E+02 -0.38636819912E+02  0.64287061226E+02  0.79376900852E+02  0.47000000000E+01 0.  1.
         13    1    6    6    0    0  0.25094091640E+02 -0.12493299392E+03 -0.52776136190E+01  0.12753752236E+03  0.00000000000E+00 0. -1.
        -14    1    6    6    0    0 -0.43076386475E+02 -0.64726721220E+02 -0.22786190560E+02  0.81020577583E+02  0.00000000000E+00 0.  1.
</event>
<event>
12    1  0.9246030E-003  0.1758812E+03  0.7818608E-02  0.1172052E+00
         21   -1    0    0  503  502  0.00000000000E+00  0.00000000000E+00  0.51578994272E+03  0.51578994272E+03  0.00000000000E+00 0.  1.
         21   -1    0    0  501  503 -0.00000000000E+00 -0.00000000000E+00 -0.60078726641E+02  0.60078726641E+02  0.00000000000E+00 0.  1.
          6    2    1    2  501    0  0.21394948012E+02  0.31443232821E+02  0.20550193064E+03  0.27049074472E+03  0.17172005938E+03 0.  0.
         24    2    3    3    0    0  0.13122090699E+02  0.50753284345E+02  0.22507768160E+03  0.24139403901E+03  0.69735458548E+02 0.  0.
         -6    2    1    2    0  502 -0.21394948012E+02 -0.31443232821E+02  0.25020928544E+03  0.30537792464E+03  0.17089344530E+03 0.  0.
        -24    2    5    5    0    0  0.15155480570E+02 -0.35283262092E+02  0.50098475779E+02  0.10186599428E+03  0.79951399868E+02 0.  0.
          5    1    3    3  501    0  0.82728573132E+01 -0.19310051524E+02 -0.19575750957E+02  0.29096705716E+02  0.47000000000E+01 0. -1.
        -13    1    4    4    0    0  0.17559513486E+02 -0.11066942456E+02  0.28363534767E+02  0.35146889388E+02  0.00000000000E+00 0.  1.
         14    1    4    4    0    0 -0.44374227879E+01  0.61820226801E+02  0.19671414683E+03  0.20624714962E+03  0.00000000000E+00 0. -1.
         -5    1    5    5    0  502 -0.36550428582E+02  0.38400292707E+01  0.20011080966E+03  0.20351193035E+03  0.47000000000E+01 0.  1.
         11    1    6    6    0    0  0.62268601043E+01 -0.38514549992E+01  0.65383598858E+02  0.65792267722E+02  0.00000000000E+00 0. -1.
        -12    1    6    6    0    0  0.89286204655E+01 -0.31431807093E+02 -0.15285123079E+02  0.36073726562E+02  0.00000000000E+00 0.  1.
</event>
<event>
12    1  0.9246030E-003  0.3519398E+03  0.7818608E-02  0.1061899E+00
         21   -1    0    0  501  502  0.00000000000E+00  0.00000000000E+00  0.53749002582E+03  0.53749002582E+03  0.00000000000E+00 0. -1.
         21   -1    0    0  502  503 -0.00000000000E+00 -0.00000000000E+00 -0.24154323026E+03  0.24154323026E+03  0.00000000000E+00 0.  1.
          6    2    1    2  501    0 -0.17740631597E+03  0.25008481571E+03  0.23346881138E+03  0.42233793460E+03  0.17276061219E+03 0.  0.
         24    2    3    3    0    0 -0.18259135782E+03  0.14408816242E+03  0.16407987778E+03  0.29545574802E+03  0.79188952771E+02 0.  0.
         -6    2    1    2    0  503  0.17740631597E+03 -0.25008481571E+03  0.62477984180E+02  0.35669532148E+03  0.17120933931E+03 0.  0.
        -24    2    5    5    0    0  0.19274759812E+03 -0.25091867484E+03  0.39131350588E+02  0.32835444007E+03  0.78571990885E+02 0.  0.
          5    1    3    3  501    0  0.51850418558E+01  0.10599665328E+03  0.69388933599E+02  0.12688218659E+03  0.47000000000E+01 0. -1.
        -11    1    4    4    0    0 -0.60355946888E+02  0.33085844874E+02  0.98819079308E+01  0.69535354749E+02  0.00000000000E+00 0.  1.
         12    1    4    4    0    0 -0.12223541093E+03  0.11100231755E+03  0.15419796985E+03  0.22592039327E+03  0.00000000000E+00 0. -1.
         -5    1    5    5    0  503 -0.15341282151E+02  0.83385913243E+00  0.23346633592E+02  0.28340881411E+02  0.47000000000E+01 0.  1.
         11    1    6    6    0    0  0.56744938805E+02 -0.55761649193E+02  0.43034486293E+02  0.90450630795E+02  0.00000000000E+00 0. -1.
        -12    1    6    6    0    0  0.13600265931E+03 -0.19515702565E+03 -0.39031357053E+01  0.23790380927E+03  0.00000000000E+00 0.  1.
</event>
<event>
12    1  0.9246030E-003  0.1985234E+03  0.7818608E-02  0.1151122E+00
         21   -1    0    0  501  502  0.00000000000E+00  0.00000000000E+00  0.81708202452E+02  0.81708202452E+02  0.00000000000E+00 0. -1.
         21   -1    0    0  502  503 -0.00000000000E+00 -0.00000000000E+00 -0.49249817933E+03  0.49249817933E+03  0.00000000000E+00 0.  1.
          6    2    1    2  501    0  0.84583117473E+02 -0.51957451943E+02 -0.24985049235E+03  0.31911877962E+03  0.17192337364E+03 0.  0.
         24    2    3    3    0    0  0.10364726686E+03 -0.23995258676E+02 -0.25165208646E+03  0.28490384450E+03  0.80764470069E+02 0.  0.
         -6    2    1    2    0  503 -0.84583117473E+02  0.51957451943E+02 -0.16093948453E+03  0.25508760216E+03  0.17121415398E+03 0.  0.
        -24    2    5    5    0    0 -0.66151224259E+02 -0.21033296749E+02 -0.41144514827E+02  0.11352380436E+03  0.79852357593E+02 0.  0.
          5    1    3    3  501    0 -0.19064149384E+02 -0.27962193267E+02  0.18015941077E+01  0.34214935122E+02  0.47000000000E+01 0. -1.
        -13    1    4    4    0    0  0.14311551138E+01 -0.30884300021E+02 -0.65232446029E+02  0.72188366152E+02  0.00000000000E+00 0.  1.
         14    1    4    4    0    0  0.10221611174E+03  0.68890413453E+01 -0.18641964043E+03  0.21271547835E+03  0.00000000000E+00 0. -1.
         -5    1    5    5    0  503 -0.18431893214E+02  0.72990748692E+02 -0.11979496970E+03  0.14156379780E+03  0.47000000000E+01 0.  1.
         13    1    6    6    0    0 -0.39527187568E+02  0.14208159560E+02 -0.53159363746E+02  0.67750928473E+02  0.00000000000E+00 0. -1.
        -14    1    6    6    0    0 -0.26624036691E+02 -0.35241456309E+02  0.12014848919E+02  0.45772875888E+02  0.00000000000E+00 0.  1.
</event>
<event>
12    1  0.9246030E-003  0.2242459E+03  0.7818608E-02  0.1131100E+00
         21   -1    0    0  503  502  0.00000000000E+00  0.00000000000E+00  0.82225190952E+03  0.82225190952E+03  0.00000000000E+00 0.  1.
         21   -1    0    0  501  503 -0.00000000000E+00 -0.00000000000E+00 -0.60941874929E+02  0.60941874929E+02  0.00000000000E+00 0.  1.
          6    2    1    2  501    0 -0.14308410627E+03  0.64028612544E+01  0.35143290335E+03  0.41688283577E+03  0.17254609559E+03 0.  0.
         24    2    3    3    0    0 -0.31517199484E+02  0.21908219076E+02  0.72059350191E+02  0.11562005510E+03  0.81866618751E+02 0.  0.
         -6    2    1    2    0  502  0.14308410627E+03 -0.64028612544E+01  0.40987713124E+03  0.46631094868E+03  0.17009579666E+03 0.  0.
        -24    2    5    5    0    0  0.12575996742E+03  0.30606881221E+02  0.19110395992E+03  0.24370448580E+03  0.78222773654E+02 0.  0.
          5    1    3    3  501    0 -0.11156690679E+03 -0.15505357822E+02  0.27937355316E+03  0.30126278067E+03  0.47000000000E+01 0. -1.
        -13    1    4    4    0    0 -0.56467573253E+02  0.40105862726E+00  0.36986490099E+02  0.67503689728E+02  0.00000000000E+00 0.  1.
         14    1    4    4    0    0  0.24950373769E+02  0.21507160449E+02  0.35072860093E+02  0.48116365375E+02  0.00000000000E+00 0. -1.
         -5    1    5    5    0  502  0.17324138851E+02 -0.37009742475E+02  0.21877317132E+03  0.22260646288E+03  0.47000000000E+01 0.  1.
         13    1    6    6    0    0  0.67483260990E+02  0.15853788680E+01  0.38301900244E+02  0.77611465018E+02  0.00000000000E+00 0. -1.
        -14    1    6    6    0    0  0.58276706432E+02  0.29021502353E+02  0.15280205967E+03  0.16609302078E+03  0.00000000000E+00 0.  1.
</event>
<event>
12    1  0.9246030E-003  0.1882603E+03  0.7818608E-02  0.1160494E+00
         21   -1    0    0  503  502  0.00000000000E+00  0.00000000000E+00  0.50077878525E+02  0.50077878525E+02  0.00000000000E+00 0. -1.
         21   -1    0    0  501  503 -0.00000000000E+00 -0.00000000000E+00 -0.92714734840E+03  0.92714734840E+03  0.00000000000E+00 0.  1.
          6    2    1    2  501    0 -0.67921549964E+02 -0.25068665122E+02 -0.67846356448E+03  0.70357170496E+03  0.17163496374E+03 0.  0.
         24    2    3    3    0    0 -0.23858169744E+02  0.44872803452E+02 -0.46798865545E+03  0.47739662271E+03  0.79444150114E+02 0.  0.
         -6    2    1    2    0  502  0.67921549964E+02  0.25068665122E+02 -0.19860590540E+03  0.27365352196E+03  0.17378195966E+03 0.  0.
        -24    2    5    5    0    0  0.77369822094E+02  0.79577693833E+01 -0.37455074597E+02  0.11125360550E+03  0.70178819167E+02 0.  0.
          5    1    3    3  501    0 -0.44063380220E+02 -0.69941468574E+02 -0.21047490902E+03  0.22617508225E+03  0.47000000000E+01 0. -1.
        -13    1    4    4    0    0 -0.19792839031E+02 -0.16554859417E+02 -0.68623212269E+02  0.73314153540E+02  0.00000000000E+00 0.  1.
         14    1    4    4    0    0 -0.40653307130E+01  0.61427662869E+02 -0.39936544318E+03  0.40408246917E+03  0.00000000000E+00 0. -1.
         -5    1    5    5    0  502 -0.94482721303E+01  0.17110895739E+02 -0.16115083080E+03  0.16239991646E+03  0.47000000000E+01 0.  1.
         13    1    6    6    0    0  0.38404091675E+02  0.38502581077E+02 -0.26725768864E+02  0.60593644290E+02  0.00000000000E+00 0. -1.
        -14    1    6    6    0    0  0.38965730419E+02 -0.30544811694E+02 -0.10729305733E+02  0.50659961212E+02  0.00000000000E+00 0.  1.
</event>
<event>
12    1  0.9246030E-003  0.2031415E+03  0.7818608E-02  0.1147931E+00
         21   -1    0    0  501  502  0.00000000000E+00  0.00000000000E+00  0.28796989392E+03  0.28796989392E+03  0.00000000000E+00 0. -1.
         21   -1    0    0  502  503 -0.00000000000E+00 -0.00000000000E+00 -0.14066443229E+03  0.14066443229E+03  0.00000000000E+00 0. -1.
          6    2    1    2  501    0  0.10845377192E+03 -0.21198258082E+02  0.67101781308E+02  0.21023307998E+03  0.16578212230E+03 0.  0.
         24    2    3    3    0    0  0.12066202755E+03  0.15095101728E+01  0.94522008454E+02  0.17230363099E+03  0.78692615000E+02 0.  0.
         -6    2    1    2    0  503 -0.10845377192E+03  0.21198258082E+02  0.80203680328E+02  0.21840124622E+03  0.17045494192E+03 0.  0.
        -24    2    5    5    0    0 -0.93035939944E+02 -0.11361118370E+02 -0.10620742071E+02  0.12058004074E+03  0.75113147526E+02 0.  0.
          5    1    3    3  501    0 -0.12208255625E+02 -0.22707768255E+02 -0.27420227146E+02  0.37929448998E+02  0.47000000000E+01 0. -1.
        -13    1    4    4    0    0 -0.10654682575E+01  0.20688608741E+02  0.11211166892E+02  0.23555127198E+02  0.00000000000E+00 0.  1.
         14    1    4    4    0    0  0.12172749581E+03 -0.19179098568E+02  0.83310841563E+02  0.14874850379E+03  0.00000000000E+00 0. -1.
         -5    1    5    5    0  503 -0.15417831980E+02  0.32559376452E+02  0.90824422399E+02  0.97821205482E+02  0.47000000000E+01 0.  1.
         11    1    6    6    0    0 -0.10097790068E+03 -0.38266328902E+00  0.34609250080E+01  0.10103791793E+03  0.00000000000E+00 0. -1.
        -12    1    6    6    0    0  0.79419607384E+01 -0.10978455081E+02 -0.14081667079E+02  0.19542122813E+02  0.00000000000E+00 0.  1.
</event>
<event>
12    1  0.9246030E-003  0.2800463E+03  0.7818608E-02  0.1096930E+00
         21   -1    0    0  501  502  0.00000000000E+00  0.00000000000E+00  0.63185930799E+03  0.63185930799E+03  0.00000000000E+00 0. -1.
         21   -1    0    0  502  503 -0.00000000000E+00 -0.00000000000E+00 -0.12169195873E+03  0.12169195873E+03  0.00000000000E+00 0.  1.
          6    2    1    2  501    0 -0.75619800763E+02 -0.19485029287E+03  0.29384286754E+03  0.39968377392E+03  0.17239053754E+03 0.  0.
         24    2    3    3    0    0 -0.72507160860E+02 -0.18921301914E+03  0.17111068150E+03  0.27669293332E+03  0.78874958249E+02 0.  0.
         -6    2    1    2    0  503  0.75619800763E+02  0.19485029287E+03  0.21632448172E+03  0.35386749279E+03  0.18638919003E+03 0.  0.
        -24    2    5    5    0    0 -0.26277832977E+02  0.13979905451E+03  0.14232242755E+03  0.21634600127E+03  0.79470867216E+02 0.  0.
          5    1    3    3  501    0 -0.31126399029E+01 -0.56372737367E+01  0.12273218604E+03  0.12299084060E+03  0.47000000000E+01 0. -1.
        -11    1    4    4    0    0 -0.55624918133E+02 -0.43352160375E+02  0.59097483046E+02  0.92011161436E+02  0.00000000000E+00 0.  1.
         12    1    4    4    0    0 -0.16882242727E+02 -0.14586085876E+03  0.11201319846E+03  0.18468177189E+03  0.00000000000E+00 0. -1.
         -5    1    5    5    0  503  0.10189763374E+03  0.55051238360E+02  0.74002054172E+02  0.13752149151E+03  0.47000000000E+01 0.  1.
         13    1    6    6    0    0 -0.26059806811E+02  0.12236000162E+03  0.72960649587E+02  0.14482520470E+03  0.00000000000E+00 0. -1.
        -14    1    6    6    0    0 -0.21802616543E+00  0.17439052892E+02  0.69361777960E+02  0.71520796576E+02  0.00000000000E+00 0.  1.
</event>
<event>
12    1  0.9246030E-003  0.1838600E+03  0.7818608E-02  0.1164155E+00
         21   -1    0    0  501  502  0.00000000000E+00  0.00000000000E+00  0.19169802552E+02  0.19169802552E+02  0.00000000000E+00 0. -1.
         21   -1    0    0  502  503 -0.00000000000E+00 -0.00000000000E+00 -0.18236019976E+04  0.18236019976E+04  0.00000000000E+00 0.  1.
          6    2    1    2  501    0  0.30994901023E+02  0.54458469073E+02 -0.10712876388E+04  0.10869242921E+04  0.17268700859E+03 0.  0.
         24    2    3    3    0    0  0.23279458879E+02  0.85210004203E+02 -0.64910686284E+03  0.66352863487E+03  0.10548863389E+03 0.  0.
         -6    2    1    2    0  503 -0.30994901023E+02 -0.54458469073E+02 -0.73314455623E+03  0.75584750805E+03  0.17285284595E+03 0.  0.
        -24    2    5    5    0    0 -0.70170739914E+02  0.68388999386E+01 -0.51157347395E+03  0.52259239385E+03  0.80154148751E+02 0.  0.
          5    1    3    3  501    0  0.77154421444E+01 -0.30751535130E+02 -0.42218077599E+03  0.42339565725E+03  0.47000000000E+01 0. -1.
        -11    1    4    4    0    0  0.86969626611E+01  0.32434722449E+02 -0.54382148655E+03  0.54485728188E+03  0.00000000000E+00 0.  1.
         12    1    4    4    0    0  0.14582496218E+02  0.52775281755E+02 -0.10528537629E+03  0.11867135299E+03  0.00000000000E+00 0. -1.
         -5    1    5    5    0  503  0.39175838891E+02 -0.61297369012E+02 -0.22157108227E+03  0.23325511420E+03  0.47000000000E+01 0.  1.
         13    1    6    6    0    0 -0.63869404521E+02 -0.29138572078E+02 -0.33145433330E+03  0.33880721993E+03  0.00000000000E+00 0. -1.
        -14    1    6    6    0    0 -0.63013353937E+01  0.35977472016E+02 -0.18011914065E+03  0.18378517391E+03  0.00000000000E+00 0.  1.
</event>
<event>
12    1  0.9246030E-003  0.1942071E+03  0.7818608E-02  0.1154954E+00
         21   -1    0    0  503  502  0.00000000000E+00  0.00000000000E+00  0.69297269787E+03  0.69297269787E+03  0.00000000000E+00 0.  1.
         21   -1    0    0  501  503 -0.00000000000E+00 -0.00000000000E+00 -0.74874288504E+02  0.74874288504E+02  0.00000000000E+00 0. -1.
          6    2    1    2  501    0 -0.61035372686E+02  0.65315512441E+02  0.10757887792E+03  0.22201262217E+03  0.17240927047E+03 0.  0.
         24    2    3    3    0    0 -0.23766513361E+02  0.63650144016E+01  0.12506128966E+03  0.14995810244E+03  0.79004719787E+02 0.  0.
         -6    2    1    2    0  502  0.61035372686E+02 -0.65315512441E+02  0.51051953144E+03  0.54583436420E+03  0.17121193964E+03 0.  0.
        -24    2    5    5    0    0  0.17238218575E+02  0.23442667237E+00  0.10781723224E+03  0.13546109873E+03  0.80174450838E+02 0.  0.
          5    1    3    3  501    0 -0.37268859325E+02  0.58950498039E+02 -0.17482411739E+02  0.72054519738E+02  0.47000000000E+01 0. -1.
        -13    1    4    4    0    0  0.18697052625E+02  0.26426387914E+02  0.72931527052E+02  0.79793116201E+02  0.00000000000E+00 0.  1.
         14    1    4    4    0    0 -0.42463565986E+02 -0.20061373513E+02  0.52129762611E+02  0.70164986235E+02  0.00000000000E+00 0. -1.
         -5    1    5    5    0  502  0.43797154111E+02 -0.65549939113E+02  0.40270229920E+03  0.41037326547E+03  0.47000000000E+01 0.  1.
         13    1    6    6    0    0 -0.52465541602E+01  0.20663321818E+02  0.10240850878E+03  0.10460402416E+03  0.00000000000E+00 0. -1.
        -14    1    6    6    0    0  0.22484772735E+02 -0.20428895146E+02  0.54087234540E+01  0.30857074574E+02  0.00000000000E+00 0.  1.
</event>
<event>
12    1  0.9246030E-003  0.1735519E+03  0.7818608E-02  0.1174276E+00
         21   -1    0    0  501  502  0.00000000000E+00  0.00000000000E+00  0.30252287000E+03  0.30252287000E+03  0.00000000000E+00 0.  1.
         21   -1    0    0  502  503 -0.00000000000E+00 -0.00000000000E+00 -0.10697747132E+03  0.10697747132E+03  0.00000000000E+00 0.  1.
          6    2    1    2  501    0 -0.29969516210E+01  0.28992463201E+02  0.15243412046E+03  0.23099012018E+03  0.17108690744E+03 0.  0.
         24    2    3    3    0    0 -0.18469323653E+02 -0.50259478314E+01  0.75797058520E+01  0.81318686641E+02  0.78669567105E+02 0.  0.
         -6    2    1    2    0  503  0.29969516210E+01 -0.28992463201E+02  0.43111278213E+02  0.17851022113E+03  0.17075647015E+03 0.  0.
        -24    2    5    5    0    0  0.66308724187E+02 -0.30227450362E+02  0.40774417061E+02  0.11496923705E+03  0.79024216046E+02 0.  0.
          5    1    3    3  501    0  0.15472372032E+02  0.34018411032E+02  0.14485441461E+03  0.14967143354E+03  0.47000000000E+01 0. -1.
        -13    1    4    4    0    0 -0.36256130244E+01  0.38115879622E+01  0.42253490974E+02  0.42579699060E+02  0.00000000000E+00 0.  1.
         14    1    4    4    0    0 -0.14843710629E+02 -0.88375357936E+01 -0.34673785122E+02  0.38738987581E+02  0.00000000000E+00 0. -1.
         -5    1    5    5    0  503 -0.63311772566E+02  0.12349871616E+01  0.23368611520E+01  0.63540984087E+02  0.47000000000E+01 0.  1.
         11    1    6    6    0    0 -0.47771686887E+01 -0.26571041986E+02  0.34076838151E+02  0.43474964189E+02  0.00000000000E+00 0. -1.
        -12    1    6    6    0    0  0.71085892875E+02 -0.36564083762E+01  0.66975789096E+01  0.71494272857E+02  0.00000000000E+00 0.  1.
</event>
<event>
12    1  0.9246030E-003  0.1954843E+03  0.7818608E-02  0.1153696E+00
         21   -1    0    0  503  502  0.00000000000E+00  0.00000000000E+00  0.11247897291E+03  0.11247897291E+03  0.00000000000E+00 0.  1.
         21   -1    0    0  501  503 -0.00000000000E+00 -0.00000000000E+00 -0.36427893468E+03  0.36427893468E+03  0.00000000000E+00 0.  1.
          6    2    1    2  501    0  0.92958344254E+02 -0.76294868288E+01 -0.63013255947E+02  0.20499600972E+03  0.17132784578E+03 0.  0.
         24    2    3    3    0    0 -0.18194439009E+02  0.59323065280E+01 -0.12451645755E+02  0.82043051676E+02  0.78802214275E+02 0.  0.
         -6    2    1    2    0  502 -0.92958344254E+02  0.76294868288E+01 -0.18878670582E+03  0.27176189788E+03  0.17179827126E+03 0.  0.
        -24    2    5    5    0    0 -0.86625448422E+02 -0.54537895188E+02 -0.10651955354E+03  0.16834592570E+03  0.80719174231E+02 0.  0.
          5    1    3    3  501    0  0.11115278326E+03 -0.13561793357E+02 -0.50561610191E+02  0.12295295804E+03  0.47000000000E+01 0. -1.
        -11    1    4    4    0    0  0.25141740111E+02  0.11397777752E+02  0.14027490387E+02  0.30964284588E+02  0.00000000000E+00 0.  1.
         12    1    4    4    0    0 -0.43336179120E+02 -0.54654712240E+01 -0.26479136142E+02  0.51078767088E+02  0.00000000000E+00 0. -1.
         -5    1    5    5    0  502 -0.63328958317E+01  0.62167382016E+02 -0.82267152288E+02  0.10341597218E+03  0.47000000000E+01 0.  1.
         13    1    6    6    0    0  0.11388266130E+02 -0.16180986775E+01  0.32572550814E+01  0.11954938705E+02  0.00000000000E+00 0. -1.
        -14    1    6    6    0    0 -0.98013714552E+02 -0.52919796510E+02 -0.10977680862E+03  0.15639098700E+03  0.00000000000E+00 0.  1.
</event>
<event>
12    1  0.9246030E-003  0.2072809E+03  0.7818608E-02  0.1143775E+00
         21   -1    0    0  501  502  0.00000000000E+00  0.00000000000E+00  0.24505709741E+03  0.24505709741E+03  0.00000000000E+00 0.  1.
         21   -1    0    0  502  503 -0.00000000000E+00 -0.00000000000E+00 -0.39517332780E+03  0.39517332780E+03  0.00000000000E+00 0.  1.
          6    2    1    2  501    0 -0.39720766720E+01 -0.11565389266E+03  0.16380770035E+03  0.26404748281E+03  0.17174548090E+03 0.  0.
         24    2    3    3    0    0 -0.57515348185E+02 -0.93646343918E+02  0.15274923338E+03  0.20492393575E+03  0.81140853697E+02 0.  0.
         -6    2    1    2    0  503  0.39720766720E+01  0.11565389266E+03 -0.31392393074E+03  0.37618294239E+03  0.17197026364E+03 0.  0.
        -24    2    5    5    0    0 -0.59633141254E+01  0.11978393562E+03 -0.13743968298E+03  0.19930855489E+03  0.80314888080E+02 0.  0.
          5    1    3    3  501    0  0.53543271513E+02 -0.22007548740E+02  0.11058466964E+02  0.59123547064E+02  0.47000000000E+01 0. -1.
        -11    1    4    4    0    0 -0.50508165407E+02 -0.32082109075E+02  0.12170836519E+03  0.13562176320E+03  0.00000000000E+00 0.  1.
         12    1    4    4    0    0 -0.70071827775E+01 -0.61564234842E+02  0.31040868188E+02  0.69302172549E+02  0.00000000000E+00 0. -1.
         -5    1    5    5    0  503  0.99353907973E+01 -0.41300429640E+01 -0.17648424777E+03  0.17687438750E+03  0.47000000000E+01 0.  1.
         11    1    6    6    0    0 -0.27816740331E+02  0.64922109470E+02 -0.11728413304E+03  0.13690952927E+03  0.00000000000E+00 0. -1.
        -12    1    6    6    0    0  0.21853426206E+02  0.54861826152E+02 -0.20155549936E+02  0.62399025625E+02  0.00000000000E+00 0.  1.
</event>
<event>
12    1  0.9246030E-003  0.2172988E+03  0.7818608E-02  0.1136147E+00
         21   -1    0    0  503  502  0.00000000000E+00  0.00000000000E+00  0.19829541031E+03  0.19829541031E+03  0.00000000000E+00 0. -1.
         21   -1    0    0  501  503 -0.00000000000E+00 -0.00000000000E+00 -0.27510071535E+03  0.27510071535E+03  0.00000000000E+00 0.  1.
          6    2    1    2  501    0 -0.95201236011E+02  0.88445634640E+02  0.50036464256E+02  0.22178608301E+03  0.17262535513E+03 0.  0.
         24    2    3    3    0    0 -0.50034255939E+02  0.82783746775E+02 -0.30788156040E+02  0.12890539444E+03  0.79448817897E+02 0.  0.
         -6    2    1    2    0  502  0.95201236011E+02 -0.88445634640E+02 -0.12684176929E+03  0.25161004265E+03  0.17416335292E+03 0.  0.
        -24    2    5    5    0    0  0.87034699430E+02 -0.12669929410E+03 -0.12189278793E+03  0.21190340343E+03  0.80108992028E+02 0.  0.
          5    1    3    3  501    0 -0.45166980072E+02  0.56618878654E+01  0.80824620296E+02  0.92880688569E+02  0.47000000000E+01 0. -1.
        -13    1    4    4    0    0 -0.31930873095E+02  0.95714690057E+02 -0.15923543743E+02  0.10214911549E+03  0.00000000000E+00 0.  1.
         14    1    4    4    0    0 -0.18103382844E+02 -0.12930943282E+02 -0.14864612297E+02  0.26756278951E+02  0.00000000000E+00 0. -1.
         -5    1    5    5    0  502  0.81665365810E+01  0.38253659464E+02 -0.49489813650E+01  0.39706639226E+02  0.47000000000E+01 0.  1.
         11    1    6    6    0    0  0.83592158847E+02 -0.10019823976E+03 -0.12978155174E+03  0.18403963552E+03  0.00000000000E+00 0. -1.
        -12    1    6    6    0    0  0.34425405826E+01 -0.26501054347E+02  0.78887638154E+01  0.27863767902E+02  0.00000000000E+00 0.  1.
</event>
<event>
12    1  0.9246030E-003  0.2769847E+03  0.7818608E-02  0.1097460E+00
         21   -1    0    0  501  502  0.00000000000E+00  0.00000000000E+00  0.17127911782E+03  0.17127911782E+03  0.00000000000E+00 0. -1.
         21   -1    0    0  502  503 -0.00000000000E+00 -0.00000000000E+00 -0.57166186382E+03  0.57166186382E+03  0.00000000000E+00 0. -1.
          6    2    1    2  501    0  0.97256199384E+02  0.19353007928E+03 -0.26686693359E+02  0.27826728674E+03  0.17264948121E+03 0.  0.
         24    2    3    3    0    0  0.40595265551E+02  0.14045604437E+03  0.45462996557E+02  0.17217778509E+03  0.78755505446E+02 0.  0.
         -6    2    1    2    0  503 -0.97256199384E+02 -0.19353007928E+03 -0.37369605264E+03  0.46467369490E+03  0.17134830920E+03 0.  0.
        -24    2    5    5    0    0 -0.26743149052E+02 -0.15956109868E+03 -0.32568532911E+03  0.37273294504E+03  0.81755577737E+02 0.  0.
          5    1    3    3  501    0  0.56660933832E+02  0.53074034911E+02 -0.72149689917E+02  0.10608950165E+03  0.47000000000E+01 0. -1.
        -11    1    4    4    0    0  0.32609373670E+01  0.29633870896E+02 -0.22109901474E+02  0.37116677652E+02  0.00000000000E+00 0.  1.
         12    1    4    4    0    0  0.37334328184E+02  0.11082217348E+03  0.67572898031E+02  0.13506110744E+03  0.00000000000E+00 0. -1.
         -5    1    5    5    0  503 -0.70513050332E+02 -0.33968980603E+02 -0.48010723535E+02  0.91940749859E+02  0.47000000000E+01 0.  1.
         11    1    6    6    0    0 -0.22142182530E+02 -0.65980702120E+02 -0.22354699161E+03  0.23413027732E+03  0.00000000000E+00 0. -1.
        -12    1    6    6    0    0 -0.46009665220E+01 -0.93580396559E+02 -0.10213833749E+03  0.13860266772E+03  0.00000000000E+00 0.  1.
</event>
<event>
12    1  0.9246030E-003  0.2215489E+03  0.7818608E-02  0.1132868E+00
         21   -1    0    0  503  502  0.00000000000E+00  0.00000000000E+00  0.10225642197E+04  0.10225642197E+04  0.00000000000E+00 0.  1.
         21   -1    0    0  501  503 -0.00000000000E+00 -0.00000000000E+00 -0.48566367495E+02  0.48566367495E+02  0.00000000000E+00 0.  1.
          6    2    1    2  501    0  0.90898964942E+02  0.10434215087E+03  0.55155718621E+03  0.59411902790E+03  0.17208190891E+03 0.  0.
         24    2    3    3    0    0  0.44048317054E+02  0.43572484825E+01  0.37689277078E+03  0.38742671568E+03  0.78051646409E+02 0.  0.
         -6    2    1    2    0  502 -0.90898964942E+02 -0.10434215087E+03  0.42244066604E+03  0.47701155934E+03  0.17301446514E+03 0.  0.
        -24    2    5    5    0    0 -0.33354812363E+02 -0.69433295441E+02  0.39284001109E+03  0.40333492494E+03  0.49216474283E+02 0.  0.
          5    1    3    3  501    0  0.46850647887E+02  0.99984902385E+02  0.17466441544E+03  0.20669231222E+03  0.47000000000E+01 0. -1.
        -13    1    4    4    0    0 -0.20806113214E+02  0.14145318549E+01  0.14951425916E+03  0.15096161412E+03  0.00000000000E+00 0.  1.
         14    1    4    4    0    0  0.64854430268E+02  0.29427166276E+01  0.22737851162E+03  0.23646510155E+03  0.00000000000E+00 0. -1.
         -5    1    5    5    0  502 -0.57544152579E+02 -0.34908855426E+02  0.29600654950E+02  0.73676634401E+02  0.47000000000E+01 0.  1.
         11    1    6    6    0    0 -0.15827697904E+02 -0.33355616783E+02  0.29915645022E+03  0.30142610189E+03  0.00000000000E+00 0. -1.
        -12    1    6    6    0    0 -0.17527114459E+02 -0.36077678659E+02  0.93683560872E+02  0.10190882305E+03  0.00000000000E+00 0.  1.
</event>
<event>
12    1  0.9246030E-003  0.2024597E+03  0.7818608E-02  0.1148307E+00
         21   -1    0    0  503  502  0.00000000000E+00  0.00000000000E+00  0.10853441516E+04  0.10853441516E+04  0.00000000000E+00 0. -1.
         21   -1    0    0  501  503 -0.00000000000E+00 -0.00000000000E+00 -0.41990305648E+02  0.41990305648E+02  0.00000000000E+00 0. -1.
          6    2    1    2  501    0  0.86498322329E+02 -0.43295329417E+02  0.32804772146E+03  0.38392825264E+03  0.17443953194E+03 0.  0.
         24    2    3    3    0    0  0.17983595415E+02 -0.67681678868E+02  0.10375290147E+03  0.14809098222E+03  0.79133147882E+02 0.  0.
         -6    2    1    2    0  502 -0.86498322329E+02  0.43295329417E+02  0.71530612445E+03  0.74340620457E+03  0.17785805576E+03 0.  0.
        -24    2    5    5    0    0 -0.52997183103E+02  0.89301734356E+02  0.36109147282E+03  0.38461793127E+03  0.82221652480E+02 0.  0.
          5    1    3    3  501    0  0.68514726914E+02  0.24386349451E+02  0.22429481999E+03  0.23583727041E+03  0.47000000000E+01 0. -1.
        -11    1    4    4    0    0  0.39822411262E+02 -0.10612129401E+02  0.24246308182E+02  0.47815532933E+02  0.00000000000E+00 0.  1.
         12    1    4    4    0    0 -0.21838815848E+02 -0.57069549467E+02  0.79506593290E+02  0.10027544929E+03  0.00000000000E+00 0. -1.
         -5    1    5    5    0  502 -0.33501139226E+02 -0.46006404939E+02  0.35421465163E+03  0.35878827330E+03  0.47000000000E+01 0.  1.
         11    1    6    6    0    0 -0.21728196343E+02  0.52466780912E+02  0.72920812419E+02  0.92424685552E+02  0.00000000000E+00 0. -1.
        -12    1    6    6    0    0 -0.31268986760E+02  0.36834953445E+02  0.28817066040E+03  0.29219324572E+03  0.00000000000E+00 0.  1.
</event>
<event>
12    1  0.9246030E-003  0.2151060E+03  0.7818608E-02  0.1137609E+00
         21   -1    0    0  501  502  0.00000000000E+00  0.00000000000E+00  0.52718130421E+03  0.52718130421E+03  0.00000000000E+00 0. -1.
         21   -1    0    0  502  503 -0.00000000000E+00 -0.00000000000E+00 -0.89694999852E+02  0.89694999852E+02  0.00000000000E+00 0. -1.
          6    2    1    2  501    0 -0.11481629239E+03  0.59959149024E+02  0.17290837257E+03  0.27588936486E+03  0.17158017306E+03 0.  0.
         24    2    3    3    0    0 -0.56925635702E+02  0.86321772543E+02  0.16604923192E+03  0.21173756160E+03  0.81046105129E+02 0.  0.
         -6    2    1    2    0  503  0.11481629239E+03 -0.59959149024E+02  0.26457793179E+03  0.34098693920E+03  0.17173447576E+03 0.  0.
        -24    2    5    5    0    0  0.85593838610E+02 -0.60917737492E+02  0.28133276906E+03  0.30696216486E+03  0.63563887234E+02 0.  0.
          5    1    3    3  501    0 -0.57890656693E+02 -0.26362623519E+02  0.68591406492E+01  0.64151803260E+02  0.47000000000E+01 0. -1.
        -11    1    4    4    0    0 -0.40834603079E+01  0.71834165821E+02  0.65845890104E+02  0.97532062784E+02  0.00000000000E+00 0.  1.
         12    1    4    4    0    0 -0.52842175394E+02  0.14487606721E+02  0.10020334182E+03  0.11420549882E+03  0.00000000000E+00 0. -1.
         -5    1    5    5    0  503  0.29222453785E+02  0.95858846777E+00 -0.16754837269E+02  0.34024774341E+02  0.47000000000E+01 0.  1.
         11    1    6    6    0    0  0.82346514033E+02 -0.24059582979E+02  0.19605383029E+03  0.21400214083E+03  0.00000000000E+00 0. -1.
        -12    1    6    6    0    0  0.32473245768E+01 -0.36858154513E+02  0.85278938761E+02  0.92960024028E+02  0.00000000000E+00 0.  1.
</event>
<event>
12    1  0.9246030E-003  0.2018826E+03  0.7818608E-02  0.1148767E+00
         21   -1    0    0  501  502  0.00000000000E+00  0.00000000000E+00  0.16609436326E+03  0.16609436326E+03  0.00000000000E+00 0. -1.
         21   -1    0    0  502  503 -0.00000000000E+00 -0.00000000000E+00 -0.27148055773E+03  0.27148055773E+03  0.00000000000E+00 0. -1.
          6    2    1    2  501    0 -0.27056719104E+02 -0.98654667830E+02  0.19206931083E+02  0.20279418954E+03  0.17404530323E+03 0.  0.
         24    2    3    3    0    0  0.55766280105E+01 -0.19860414673E+02  0.67700683470E+02  0.10457400987E+03  0.76985752877E+02 0.  0.
         -6    2    1    2    0  503  0.27056719104E+02  0.98654667830E+02 -0.12459312555E+03  0.23478073145E+03  0.17068607264E+03 0.  0.
        -24    2    5    5    0    0  0.29500008110E+02  0.10060930855E+03 -0.15666295525E+03  0.20221765022E+03  0.73186153524E+02 0.  0.
          5    1    3    3  501    0 -0.32633347114E+02 -0.78794253157E+02 -0.48493752387E+02  0.98220179673E+02  0.47000000000E+01 0. -1.
        -13    1    4    4    0    0 -0.64224997372E+00  0.16085572035E+02 -0.98492206063E+01  0.18872341118E+02  0.00000000000E+00 0.  1.
         14    1    4    4    0    0  0.62188779842E+01 -0.35945986708E+02  0.77549904077E+02  0.85701668747E+02  0.00000000000E+00 0. -1.
         -5    1    5    5    0  503 -0.24432890067E+01 -0.19546407233E+01  0.32069829707E+02  0.32563081227E+02  0.47000000000E+01 0.  1.
         13    1    6    6    0    0 -0.14713636677E+02 -0.90256794031E+00 -0.33510628375E+02  0.36609670133E+02  0.00000000000E+00 0. -1.
        -14    1    6    6    0    0  0.44213644787E+02  0.10151187649E+03 -0.12315232688E+03  0.16560798009E+03  0.00000000000E+00 0.  1.
</event>
<event>
12    1  0.9246030E-003  0.2194375E+03  0.7818608E-02  0.1135437E+00
         21   -1    0    0  501  502  0.00000000000E+00  0.00000000000E+00  0.29215781738E+03  0.29215781738E+03  0.00000000000E+00 0. -1.
         21   -1    0    0  502  503 -0.00000000000E+00 -0.00000000000E+00 -0.20784380922E+03  0.20784380922E+03  0.00000000000E+00 0. -1.
          6    2    1    2  501    0  0.12358848742E+03 -0.24199487190E+02  0.16119234373E+03  0.26748694812E+03  0.17235592922E+03 0.  0.
         24    2    3    3    0    0  0.72182945604E+01 -0.47938312523E+02  0.84718656477E+02  0.12615093553E+03  0.79916344982E+02 0.  0.
         -6    2    1    2    0  503 -0.12358848742E+03  0.24199487190E+02 -0.76878335571E+02  0.23251467847E+03  0.17970272069E+03 0.  0.
        -24    2    5    5    0    0 -0.12328354923E+03  0.20343300193E+02  0.29772672801E+01  0.15242741062E+03  0.87250031597E+02 0.  0.
          5    1    3    3  501    0  0.11637019286E+03  0.23738825333E+02  0.76473687253E+02  0.14133601260E+03  0.47000000000E+01 0. -1.
        -11    1    4    4    0    0  0.32540092398E+02 -0.36739323964E+02  0.15289101326E+02  0.51404203699E+02  0.00000000000E+00 0.  1.
         12    1    4    4    0    0 -0.25321797838E+02 -0.11198988559E+02  0.69429555151E+02  0.74746731828E+02  0.00000000000E+00 0. -1.
         -5    1    5    5    0  503 -0.30493818817E+00  0.38561869968E+01 -0.79855602851E+02  0.80087267853E+02  0.47000000000E+01 0.  1.
         13    1    6    6    0    0 -0.21423949728E+02  0.99106298160E+01 -0.35847414909E+02  0.42921362524E+02  0.00000000000E+00 0. -1.
        -14    1    6    6    0    0 -0.10185959951E+03  0.10432670377E+02  0.38824682189E+02  0.10950604810E+03  0.00000000000E+00 0.  1.
</event>
<event>
12    1  0.9246030E-003  0.2052210E+03  0.7818608E-02  0.1145736E+00
         21   -1    0    0  501  502  0.00000000000E+00  0.00000000000E+00  0.94912460670E+03  0.94912460670E+03  0.00000000000E+00 0.  1.
         21   -1    0    0  502  503 -0.00000000000E+00 -0.00000000000E+00 -0.63109073145E+02  0.63109073145E+02  0.00000000000E+00 0.  1.
          6    2    1    2  501    0 -0.69113792328E+02  0.85045120255E+02  0.72252588810E+03  0.75110539729E+03  0.17351158486E+03 0.  0.
         24    2    3    3    0    0  0.26364425079E+02  0.19986529254E+02  0.26761784068E+03  0.28173120555E+03  0.81600363142E+02 0.  0.
         -6    2    1    2    0  503  0.69113792328E+02 -0.85045120255E+02  0.16348964545E+03  0.26112828256E+03  0.17160922765E+03 0.  0.
        -24    2    5    5    0    0  0.70920341023E+02 -0.68332134992E+02  0.34003277285E+02  0.13047072619E+03  0.78532872634E+02 0.  0.
          5    1    3    3  501    0 -0.95478217407E+02  0.65058591001E+02  0.45490804742E+03  0.46937419174E+03  0.47000000000E+01 0. -1.
        -13    1    4    4    0    0  0.28099312358E+00  0.15447393316E+02  0.24872887994E+03  0.24920825956E+03  0.00000000000E+00 0.  1.
         14    1    4    4    0    0  0.26083431955E+02  0.45391359378E+01  0.18888960746E+02  0.32522945987E+02  0.00000000000E+00 0. -1.
         -5    1    5    5    0  503 -0.18065486950E+01 -0.16712985262E+02  0.12948636817E+03  0.13065755637E+03  0.47000000000E+01 0.  1.
         13    1    6    6    0    0  0.59713706944E-01  0.15076219708E+02  0.10926329581E+02  0.18619362087E+02  0.00000000000E+00 0. -1.
        -14    1    6    6    0    0  0.70860627316E+02 -0.83408354700E+02  0.23076947704E+02  0.11185136411E+03  0.00000000000E+00 0.  1.
</event>
<event>
12    1  0.9246030E-003  0.1786703E+03  0.7818608E-02  0.1169697E+00
         21   -1    0    0  503  502  0.00000000000E+00  0.00000000000E+00  0.98881493169E+02  0.98881493169E+02  0.00000000000E+00 0.  1.
         21   -1    0    0  501  503 -0.00000000000E+00 -0.00000000000E+00 -0.44150819357E+03  0.44150819357E+03  0.00000000000E+00 0.  1.
          6    2    1    2  501    0 -0.87049636684E+01 -0.41544059238E+02 -0.31311031890E+03  0.35929772110E+03  0.17104120947E+03 0.  0.
         24    2    3    3    0    0  0.24441962471E+02 -0.30895818911E+01 -0.66111519733E+02  0.10709153099E+03  0.80566171080E+02 0.  0.
         -6    2    1    2    0  502  0.87049636684E+01  0.41544059238E+02 -0.29516381505E+02  0.18109196564E+03  0.17355517276E+03 0.  0.
        -24    2    5    5    0    0  0.36826643057E+02  0.60982547816E+02  0.37790902191E+02  0.10545438154E+03  0.67951464450E+02 0.  0.
          5    1    3    3  501    0 -0.33146926139E+02 -0.38454477347E+02 -0.24699879917E+03  0.25220619011E+03  0.47000000000E+01 0. -1.
        -13    1    4    4    0    0  0.20830627022E+02  0.28098667934E+02 -0.67110807856E+02  0.75678997700E+02  0.00000000000E+00 0.  1.
         14    1    4    4    0    0  0.36113354487E+01 -0.31188249825E+02  0.99928812382E+00  0.31412533288E+02  0.00000000000E+00 0. -1.
         -5    1    5    5    0  502 -0.28121679389E+02 -0.19438488578E+02 -0.67307283697E+02  0.75637584100E+02  0.47000000000E+01 0.  1.
         13    1    6    6    0    0 -0.82009580198E+01  0.28891486103E+01 -0.13336345512E+02  0.15920458654E+02  0.00000000000E+00 0. -1.
        -14    1    6    6    0    0  0.45027601077E+02  0.58093399206E+02  0.51127247703E+02  0.89533922888E+02  0.00000000000E+00 0.  1.
</event>
<event>
12    1  0.9246030E-003  0.2344181E+03  0.7818608E-02  0.1124170E+00
         21   -1    0    0  503  502  0.00000000000E+00  0.00000000000E+00  0.17471000521E+03  0.17471000521E+03  0.00000000000E+00 0. -1.
         21   -1    0    0  501  503 -0.00000000000E+00 -0.00000000000E+00 -0.30993290469E+03  0.30993290469E+03  0.00000000000E+00 0. -1.
          6    2    1    2  501    0  0.12645873531E+03  0.86799406127E+02 -0.71081993362E+02  0.24495811829E+03  0.17727346472E+03 0.  0.
         24    2    3    3    0    0  0.14536162001E+03  0.11242207928E+03 -0.73392474386E+02  0.21268942213E+03  0.77984681247E+02 0.  0.
         -6    2    1    2    0  502 -0.12645873531E+03 -0.86799406127E+02 -0.64140906116E+02  0.23968479162E+03  0.17265223675E+03 0.  0.
        -24    2    5    5    0    0 -0.89655658927E+02  0.26925791291E+01 -0.74584791491E+02  0.14224534069E+03  0.81396920489E+02 0.  0.
          5    1    3    3  501    0 -0.18902884697E+02 -0.25622673151E+02  0.23104810240E+01  0.32268696159E+02  0.47000000000E+01 0. -1.
        -13    1    4    4    0    0  0.11427211653E+03  0.40649251899E+02 -0.48234775137E+02  0.13052613466E+03  0.00000000000E+00 0.  1.
         14    1    4    4    0    0  0.31089503473E+02  0.71772827379E+02 -0.25157699250E+02  0.82163287469E+02  0.00000000000E+00 0. -1.
         -5    1    5    5    0  502 -0.36803076381E+02 -0.89491985256E+02  0.10443885375E+02  0.97439450932E+02  0.47000000000E+01 0.  1.
         13    1    6    6    0    0 -0.61326549218E+02 -0.20381268673E+02 -0.82563112958E+02  0.10484755301E+03  0.00000000000E+00 0. -1.
        -14    1    6    6    0    0 -0.28329109709E+02  0.23073847802E+02  0.79783214672E+01  0.37397787672E+02  0.00000000000E+00 0.  1.
</event>
<event>
12    1  0.9246030E-003  0.2158240E+03  0.7818608E-02  0.1137188E+00
         21   -1    0    0  503  502  0.00000000000E+00  0.00000000000E+00  0.85659285848E+02  0.85659285848E+02  0.00000000000E+00 0.  1.
         21   -1    0    0  501  503 -0.00000000000E+00 -0.00000000000E+00 -0.54746488684E+03  0.54746488684E+03  0.00000000000E+00 0.  1.
          6    2    1    2  501    0  0.89757013725E+02  0.92773990906E+02 -0.26275440837E+03  0.33952344897E+03  0.17196789927E+03 0.  0.
         24    2    3    3    0    0  0.52520407852E+02  0.13965939878E+00 -0.61264339263E+02  0.11460563700E+03  0.81380095982E+02 0.  0.
         -6    2    1    2    0  502 -0.89757013725E+02 -0.92773990906E+02 -0.19905119263E+03  0.29360072372E+03  0.17296436854E+03 0.  0.
        -24    2    5    5    0    0 -0.72079607811E+02 -0.11218248496E+03 -0.21307408231E+03  0.26346914965E+03  0.78962323107E+02 0.  0.
          5    1    3    3  501    0  0.37236605873E+02  0.92634331507E+02 -0.20149006910E+03  0.22491781196E+03  0.47000000000E+01 0. -1.
        -13    1    4    4    0    0  0.57067625088E+02 -0.11119869904E+02 -0.75886482267E+02  0.95598763228E+02  0.00000000000E+00 0.  1.
         14    1    4    4    0    0 -0.45472172358E+01  0.11259529303E+02  0.14622143004E+02  0.19006873776E+02  0.00000000000E+00 0. -1.
         -5    1    5    5    0  502 -0.17677405913E+02  0.19408494051E+02  0.14022889684E+02  0.30131574075E+02  0.47000000000E+01 0.  1.
         11    1    6    6    0    0  0.89541529350E+01  0.62396477533E+01 -0.99180659745E+01  0.14747138419E+02  0.00000000000E+00 0. -1.
        -12    1    6    6    0    0 -0.81033760746E+02 -0.11842213271E+03 -0.20315601634E+03  0.24872201123E+03  0.00000000000E+00 0.  1.
</event>
<event>
12    1  0.9246030E-003  0.2614727E+03  0.7818608E-02  0.1106330E+00
         21   -1    0    0  501  502  0.00000000000E+00  0.00000000000E+00  0.21283418194E+03  0.21283418194E+03  0.00000000000E+00 0.  1.
         21   -1    0    0  502  503 -0.00000000000E+00 -0.00000000000E+00 -0.32540091877E+03  0.32540091877E+03  0.00000000000E+00 0. -1.
          6    2    1    2  501    0 -0.19636310641E+03 -0.21222486153E+02 -0.23856012796E+02  0.26255868201E+03  0.17134494061E+03 0.  0.
         24    2    3    3    0    0 -0.10740949265E+03  0.47160120130E+02  0.18528373049E+02  0.14252763433E+03  0.78803235324E+02 0.  0.
         -6    2    1    2    0  503  0.19636310641E+03  0.21222486153E+02 -0.88710724033E+02  0.27567641870E+03  0.17064299515E+03 0.  0.
        -24    2    5    5    0    0  0.23835407590E+02  0.16763813791E+02 -0.50176648057E+02  0.98779127512E+02  0.79940402263E+02 0.  0.
          5    1    3    3  501    0 -0.88953613755E+02 -0.68382606283E+02 -0.42384385845E+02  0.12003104767E+03  0.47000000000E+01 0. -1.
        -13    1    4    4    0    0 -0.10224050860E+03  0.14806808576E+02  0.30387750118E+02  0.10768369671E+03  0.00000000000E+00 0.  1.
         14    1    4    4    0    0 -0.51689840512E+01  0.32353311554E+02 -0.11859377069E+02  0.34843937624E+02  0.00000000000E+00 0. -1.
         -5    1    5    5    0  503  0.17252769882E+03  0.44586723624E+01 -0.38534075976E+02  0.17689729119E+03  0.47000000000E+01 0.  1.
         11    1    6    6    0    0  0.33338474779E+02 -0.23655913843E+02 -0.37215051384E+02  0.55281246457E+02  0.00000000000E+00 0. -1.
        -12    1    6    6    0    0 -0.95030671891E+01  0.40419727633E+02 -0.12961596672E+02  0.43497881055E+02  0.00000000000E+00 0.  1.
</event>
<event>
12    1  0.9246030E-003  0.1753336E+03  0.7818608E-02  0.1172437E+00
         21   -1    0    0  503  502  0.00000000000E+00  0.00000000000E+00  0.25423956845E+02  0.25423956845E+02  0.00000000000E+00 0.  1.
         21   -1    0    0  501  503 -0.00000000000E+00 -0.00000000000E+00 -0.18287014890E+04  0.18287014890E+04  0.00000000000E+00 0.  1.
          6    2    1    2  501    0  0.22884243674E+02 -0.22775375488E+02 -0.14414419190E+04  0.14520472422E+04  0.17217427671E+03 0.  0.
         24    2    3    3    0    0  0.45102159783E+02  0.42542717915E+02 -0.98367432156E+03  0.98908574020E+03  0.82651938298E+02 0.  0.
         -6    2    1    2    0  502 -0.22884243674E+02  0.22775375488E+02 -0.36183561319E+03  0.40207820362E+03  0.17233532580E+03 0.  0.
        -24    2    5    5    0    0 -0.77955157126E+02  0.39514099080E+02 -0.22598016521E+03  0.25445780150E+03  0.77739096524E+02 0.  0.
          5    1    3    3  501    0 -0.22217916109E+02 -0.65318093403E+02 -0.45776759740E+03  0.46296150202E+03  0.47000000000E+01 0. -1.
        -13    1    4    4    0    0  0.54440276420E+02  0.69136042625E+01 -0.79236164922E+03  0.79425973383E+03  0.00000000000E+00 0.  1.
         14    1    4    4    0    0 -0.93381166376E+01  0.35629113653E+02 -0.19131267234E+03  0.19482600637E+03  0.00000000000E+00 0. -1.
         -5    1    5    5    0  502  0.55070913452E+02 -0.16738723593E+02 -0.13585544799E+03  0.14762040212E+03  0.47000000000E+01 0.  1.
         13    1    6    6    0    0  0.65369791057E+01  0.11793734521E+02 -0.22068431984E+01  0.13663616896E+02  0.00000000000E+00 0. -1.
        -14    1    6    6    0    0 -0.84492136232E+02  0.27720364560E+02 -0.22377332201E+03  0.24079418460E+03  0.00000000000E+00 0.  1.
</event>
<event>
12    1  0.9246030E-003  0.1941044E+03  0.7818608E-02  0.1154844E+00
         21   -1    0    0  503  502  0.00000000000E+00  0.00000000000E+00  0.10254794517E+04  0.10254794517E+04  0.00000000000E+00 0. -1.
         21   -1    0    0  501  503 -0.00000000000E+00 -0.00000000000E+00 -0.38970631366E+02  0.38970631366E+02  0.00000000000E+00 0.  1.
          6    2    1    2  501    0  0.22462948315E+02  0.87066476192E+02  0.36493449899E+03  0.41327335003E+03  0.17185027777E+03 0.  0.
         24    2    3    3    0    0  0.54361497024E+02  0.57173686225E+02  0.12049831763E+03  0.16491426915E+03  0.80329750783E+02 0.  0.
         -6    2    1    2    0  502 -0.22462948315E+02 -0.87066476192E+02  0.62157432134E+03  0.65117673303E+03  0.17202135148E+03 0.  0.
        -24    2    5    5    0    0 -0.69281140244E+02 -0.99432155353E+02  0.47469354290E+03  0.49644824117E+03  0.80251271527E+02 0.  0.
          5    1    3    3  501    0 -0.31898548709E+02  0.29892789967E+02  0.24443618135E+03  0.24835908088E+03  0.47000000000E+01 0. -1.
        -11    1    4    4    0    0  0.71633432356E+02  0.34263107395E+02  0.10689524787E+03  0.13316119245E+03  0.00000000000E+00 0.  1.
         12    1    4    4    0    0 -0.17271935331E+02  0.22910578830E+02  0.13603069766E+02  0.31753076693E+02  0.00000000000E+00 0. -1.
         -5    1    5    5    0  502  0.46818191929E+02  0.12365679161E+02  0.14688077845E+03  0.15472849186E+03  0.47000000000E+01 0.  1.
         13    1    6    6    0    0 -0.57464895114E+02 -0.96110024913E+02  0.47024286557E+03  0.48339187382E+03  0.00000000000E+00 0. -1.
        -14    1    6    6    0    0 -0.11816245130E+02 -0.33221304400E+01  0.44506773267E+01  0.13056367347E+02  0.00000000000E+00 0.  1.
</event>
<event>
12    1  0.9246030E-003  0.2190129E+03  0.7818608E-02  0.1135063E+00
         21   -1    0    0  503  502  0.00000000000E+00  0.00000000000E+00  0.15365819834E+03  0.15365819834E+03  0.00000000000E+00 0. -1.
         21   -1    0    0  501  503 -0.00000000000E+00 -0.00000000000E+00 -0.42416768677E+03  0.42416768677E+03  0.00000000000E+00 0. -1.
          6    2    1    2  501    0  0.55883128773E+02 -0.12368316336E+03 -0.28537471763E+03  0.35830911935E+03  0.16889714790E+03 0.  0.
         24    2    3    3    0    0 -0.12513659130E+02 -0.80038259005E+01 -0.11640323729E+03  0.14236171631E+03  0.80600817156E+02 0.  0.
         -6    2    1    2    0  502 -0.55883128773E+02  0.12368316336E+03  0.14865229195E+02  0.21951676575E+03  0.17189004168E+03 0.  0.
        -24    2    5    5    0    0  0.69998863548E+01  0.86944208041E+02  0.60723195950E+02  0.13332472700E+03  0.80497717871E+02 0.  0.
          5    1    3    3  501    0  0.68396787903E+02 -0.11567933746E+03 -0.16897148034E+03  0.21594740304E+03  0.47000000000E+01 0. -1.
        -11    1    4    4    0    0  0.24595836169E+02 -0.92791268262E+00 -0.55270395010E+01  0.25226262990E+02  0.00000000000E+00 0.  1.
         12    1    4    4    0    0 -0.37109495299E+02 -0.70759132179E+01 -0.11087619779E+03  0.11713545332E+03  0.00000000000E+00 0. -1.
         -5    1    5    5    0  502 -0.62883015128E+02  0.36738955321E+02 -0.45857966755E+02  0.86192038754E+02  0.47000000000E+01 0.  1.
         11    1    6    6    0    0 -0.18580625055E+02  0.55857389385E+02  0.70550608934E+02  0.91884035596E+02  0.00000000000E+00 0. -1.
        -12    1    6    6    0    0  0.25580511410E+02  0.31086818656E+02 -0.98274129842E+01  0.41440691405E+02  0.00000000000E+00 0.  1.
</event>
<event>
12    1  0.9246030E-003  0.2239201E+03  0.7818608E-02  0.1131594E+00
         21   -1    0    0  501  502  0.00000000000E+00  0.00000000000E+00  0.59011276744E+02  0.59011276744E+02  0.00000000000E+00 0.  1.
         21   -1    0    0  502  503 -0.00000000000E+00 -0.00000000000E+00 -0.84301534242E+03  0.84301534242E+03  0.00000000000E+00 0.  1.
          6    2    1    2  501    0  0.13664246819E+03 -0.11090491337E+02 -0.43198632194E+03  0.48657206329E+03  0.17704809324E+03 0.  0.
         24    2    3    3    0    0  0.12542625239E+03 -0.30463425014E+02 -0.19390093999E+03  0.24739043114E+03  0.83334781703E+02 0.  0.
         -6    2    1    2    0  503 -0.13664246819E+03  0.11090491337E+02 -0.35201774374E+03  0.41545455588E+03  0.17289254750E+03 0.  0.
        -24    2    5    5    0    0 -0.36564721506E+02  0.91429936035E+01 -0.59209899247E+02  0.10597455341E+03  0.79399122233E+02 0.  0.
          5    1    3    3  501    0  0.11216215798E+02  0.19372933677E+02 -0.23808538195E+03  0.23918163214E+03  0.47000000000E+01 0. -1.
        -13    1    4    4    0    0  0.97574055318E+02 -0.27170188918E+02 -0.19454993015E+03  0.21933670636E+03  0.00000000000E+00 0.  1.
         14    1    4    4    0    0  0.27852197073E+02 -0.32932360964E+01  0.64899016429E+00  0.28053724780E+02  0.00000000000E+00 0. -1.
         -5    1    5    5    0  503 -0.10007774668E+03  0.19474977339E+01 -0.29280784450E+03  0.30948000247E+03  0.47000000000E+01 0.  1.
         13    1    6    6    0    0 -0.43810149836E+02  0.26075635579E+02 -0.68464942430E+02  0.85362265325E+02  0.00000000000E+00 0. -1.
        -14    1    6    6    0    0  0.72454283291E+01 -0.16932641975E+02  0.92550431827E+01  0.20612288089E+02  0.00000000000E+00 0.  1.
</event>
<event>
12    1  0.9246030E-003  0.2046284E+03  0.7818608E-02  0.1147974E+00
         21   -1    0    0  501  502  0.00000000000E+00  0.00000000000E+00  0.47231921771E+03  0.47231921771E+03  0.00000000000E+00 0. -1.
         21   -1    0    0  502  503 -0.00000000000E+00 -0.00000000000E+00 -0.10414283553E+03  0.10414283553E+03  0.00000000000E+00 0. -1.
          6    2    1    2  501    0  0.98507249351E+02 -0.51167215744E+02  0.30580550991E+03  0.36253939559E+03  0.15998762865E+03 0.  0.
         24    2    3    3    0    0  0.10551893226E+03  0.66072456290E+01  0.19720147698E+03  0.23923498345E+03  0.84658455115E+02 0.  0.
         -6    2    1    2    0  503 -0.98507249351E+02  0.51167215744E+02  0.62370872268E+02  0.21392265765E+03  0.17190408840E+03 0.  0.
        -24    2    5    5    0    0 -0.90810593303E+02  0.96171389246E+01 -0.53185457514E+01  0.13398771717E+03  0.97904893680E+02 0.  0.
          5    1    3    3  501    0 -0.70116829128E+01 -0.57774461373E+02  0.10860403293E+03  0.12330441214E+03  0.47000000000E+01 0. -1.
        -11    1    4    4    0    0 -0.46386540760E+01  0.19833004996E+02  0.56453641169E+02  0.60015654625E+02  0.00000000000E+00 0.  1.
         12    1    4    4    0    0  0.11015758634E+03 -0.13225759367E+02  0.14074783581E+03  0.17921932882E+03  0.00000000000E+00 0. -1.
         -5    1    5    5    0  503 -0.76966560482E+01  0.41550076819E+02  0.67689418019E+02  0.79934940482E+02  0.47000000000E+01 0.  1.
         13    1    6    6    0    0 -0.73909144383E+02  0.28026128304E+02 -0.42071151392E+02  0.89543326220E+02  0.00000000000E+00 0. -1.
        -14    1    6    6    0    0 -0.16901448920E+02 -0.18408989379E+02  0.36752605641E+02  0.44444390950E+02  0.00000000000E+00 0.  1.
</event>
<event>
12    1  0.9246030E-003  0.2003311E+03  0.7818608E-02  0.1149679E+00
         21   -1    0    0  501  502  0.00000000000E+00  0.00000000000E+00  0.30570481745E+02  0.30570481745E+02  0.00000000000E+00 0.  1.
         21   -1    0    0  502  503 -0.00000000000E+00 -0.00000000000E+00 -0.13261636610E+04  0.13261636610E+04  0.00000000000E+00 0.  1.
          6    2    1    2  501    0 -0.96995762947E+02 -0.34071240541E+02 -0.56250859376E+03  0.59676995634E+03  0.17073205696E+03 0.  0.
         24    2    3    3    0    0 -0.78090765733E+02 -0.33669686655E+02 -0.19653953694E+03  0.23028257495E+03  0.84678564318E+02 0.  0.
         -6    2    1    2    0  503  0.96995762947E+02  0.34071240541E+02 -0.73308458554E+03  0.75996418645E+03  0.17194047711E+03 0.  0.
        -24    2    5    5    0    0  0.54748754487E+02  0.88518950907E+02 -0.49499702573E+03  0.51205868222E+03  0.79680661231E+02 0.  0.
          5    1    3    3  501    0 -0.18904997214E+02 -0.40155388601E+00 -0.36596905682E+03  0.36648738138E+03  0.47000000000E+01 0. -1.
        -11    1    4    4    0    0 -0.37966094265E+02  0.27113567217E+02 -0.66446227022E+02  0.81189105959E+02  0.00000000000E+00 0.  1.
         12    1    4    4    0    0 -0.40124671468E+02 -0.60783253872E+02 -0.13009330992E+03  0.14909346899E+03  0.00000000000E+00 0. -1.
         -5    1    5    5    0  503  0.42247008460E+02 -0.54447710366E+02 -0.23808755981E+03  0.24790550423E+03  0.47000000000E+01 0.  1.
         11    1    6    6    0    0 -0.34806900558E+00 -0.14031908036E+02 -0.39470647035E+02  0.41892094392E+02  0.00000000000E+00 0. -1.
        -12    1    6    6    0    0  0.55096823493E+02  0.10255085894E+03 -0.45552637869E+03  0.47016658783E+03  0.00000000000E+00 0.  1.
</event>
<event>
12    1  0.9246030E-003  0.2082588E+03  0.7818608E-02  0.1143065E+00
         21   -1    0    0  501  502  0.00000000000E+00  0.00000000000E+00  0.11760846826E+03  0.11760846826E+03  0.00000000000E+00 0. -1.
         21   -1    0    0  502  503 -0.00000000000E+00 -0.00000000000E+00 -0.59746941610E+03  0.59746941610E+03  0.00000000000E+00 0. -1.
          6    2    1    2  501    0 -0.94168087895E+02 -0.69370598053E+02 -0.18449040623E+02  0.20907437974E+03  0.17231314666E+03 0.  0.
         24    2    3    3    0    0 -0.10912570341E+03 -0.13508187498E+02  0.21740662648E+02  0.13849363574E+03  0.81344578507E+02 0.  0.
         -6    2    1    2    0  503  0.94168087895E+02  0.69370598053E+02 -0.46141190722E+03  0.50600350462E+03  0.17163533994E+03 0.  0.
        -24    2    5    5    0    0  0.59874061500E+02  0.68534304219E+01 -0.11408129653E+03  0.15139792145E+03  0.79214365192E+02 0.  0.
          5    1    3    3  501    0  0.14957615517E+02 -0.55862410555E+02 -0.40189703271E+02  0.70580744002E+02  0.47000000000E+01 0. -1.
        -13    1    4    4    0    0 -0.44884748609E+01 -0.15092795875E+01  0.32297620461E+02  0.32642926017E+02  0.00000000000E+00 0.  1.
         14    1    4    4    0    0 -0.10463722855E+03 -0.11998907911E+02 -0.10556957813E+02  0.10585070972E+03  0.00000000000E+00 0. -1.
         -5    1    5    5    0  503  0.34294026395E+02  0.62517167631E+02 -0.34733061069E+03  0.35460558317E+03  0.47000000000E+01 0.  1.
         11    1    6    6    0    0  0.52030123512E+02  0.33800027721E+02 -0.10488900815E+03  0.12186582646E+03  0.00000000000E+00 0. -1.
        -12    1    6    6    0    0  0.78439379883E+01 -0.26946597299E+02 -0.91922883769E+01  0.29532094995E+02  0.00000000000E+00 0.  1.
</event>
<event>
12    1  0.9246030E-003  0.1848820E+03  0.7818608E-02  0.1166404E+00
         21   -1    0    0  501  502  0.00000000000E+00  0.00000000000E+00  0.30761087103E+03  0.30761087103E+03  0.00000000000E+00 0.  1.
         21   -1    0    0  502  503 -0.00000000000E+00 -0.00000000000E+00 -0.12222136703E+03  0.12222136703E+03  0.00000000000E+00 0.  1.
          6    2    1    2  501    0 -0.37492262682E+02  0.43301133474E+02  0.17439250995E+03  0.24462347520E+03  0.16170107968E+03 0.  0.
         24    2    3    3    0    0 -0.22180202740E+02  0.29159196097E+01  0.23053351354E+02  0.87171718766E+02  0.81036951839E+02 0.  0.
         -6    2    1    2    0  503  0.37492262682E+02 -0.43301133474E+02  0.10996994057E+02  0.18520876287E+03  0.17578593244E+03 0.  0.
        -24    2    5    5    0    0  0.98914833755E+01 -0.87777869607E+02 -0.25518171242E+02  0.12121321324E+03  0.78985252826E+02 0.  0.
          5    1    3    3  501    0 -0.15312059942E+02  0.40385213865E+02  0.15133915859E+03  0.15745175643E+03  0.47000000000E+01 0. -1.
        -11    1    4    4    0    0 -0.30021677493E+02 -0.28373842096E+02  0.33585249418E+02  0.53238566972E+02  0.00000000000E+00 0.  1.
         12    1    4    4    0    0  0.78414747528E+01  0.31289761706E+02 -0.10531898064E+02  0.33933151795E+02  0.00000000000E+00 0. -1.
         -5    1    5    5    0  503  0.27600779306E+02  0.44476736132E+02  0.36515165298E+02  0.63995549627E+02  0.47000000000E+01 0.  1.
         13    1    6    6    0    0  0.12970081113E+02  0.11721798272E+02  0.28266876272E+01  0.17709142322E+02  0.00000000000E+00 0. -1.
        -14    1    6    6    0    0 -0.30785977376E+01 -0.99499667879E+02 -0.28344858869E+02  0.10350407092E+03  0.00000000000E+00 0.  1.
</event>
<event>
12    1  0.9246030E-003  0.1758213E+03  0.7818608E-02  0.1171947E+00
         21   -1    0    0  503  502  0.00000000000E+00  0.00000000000E+00  0.14058233271E+03  0.14058233271E+03  0.00000000000E+00 0. -1.
         21   -1    0    0  501  503 -0.00000000000E+00 -0.00000000000E+00 -0.35296621458E+03  0.35296621458E+03  0.00000000000E+00 0. -1.
          6    2    1    2  501    0 -0.36966580511E+02  0.73587937362E+01 -0.25784809001E+03  0.31208776610E+03  0.17173367843E+03 0.  0.
         24    2    3    3    0    0  0.33178352923E+02  0.41596777773E+02 -0.11331719497E+03  0.14775937275E+03  0.78491722730E+02 0.  0.
         -6    2    1    2    0  502  0.36966580511E+02 -0.73587937362E+01  0.45464208139E+02  0.18146078120E+03  0.17158187833E+03 0.  0.
        -24    2    5    5    0    0  0.37743690304E+02  0.20851995033E+02  0.88448372124E+02  0.12982570731E+03  0.84688888833E+02 0.  0.
          5    1    3    3  501    0 -0.70144933434E+02 -0.34237984036E+02 -0.14453089504E+03  0.16432839334E+03  0.47000000000E+01 0. -1.
        -13    1    4    4    0    0  0.10656401835E+02 -0.33229173875E+01  0.97548661016E+01  0.14824240038E+02  0.00000000000E+00 0.  1.
         14    1    4    4    0    0  0.22521951088E+02  0.44919695160E+02 -0.12307206107E+03  0.13293513272E+03  0.00000000000E+00 0. -1.
         -5    1    5    5    0  502 -0.77710979246E+00 -0.28210788769E+02 -0.42984163985E+02  0.51635073895E+02  0.47000000000E+01 0.  1.
         13    1    6    6    0    0 -0.14721866215E+02 -0.13018615701E+02  0.56210088101E+02  0.59546550731E+02  0.00000000000E+00 0. -1.
        -14    1    6    6    0    0  0.52465556518E+02  0.33870610734E+02  0.32238284023E+02  0.70279156576E+02  0.00000000000E+00 0.  1.
</event>
<event>
12    1  0.9246030E-003  0.2096750E+03  0.7818608E-02  0.1141999E+00
         21   -1    0    0  501  502  0.00000000000E+00  0.00000000000E+00  0.49957799402E+03  0.49957799402E+03  0.00000000000E+00 0.  1.
         21   -1    0    0  502  503 -0.00000000000E+00 -0.00000000000E+00 -0.94949586501E+02  0.94949586501E+02  0.00000000000E+00 0. -1.
          6    2    1    2  501    0  0.96283322407E+02 -0.70746028958E+02  0.12018655567E+03  0.24167835307E+03  0.17230246485E+03 0.  0.
         24    2    3    3    0    0  0.27515227217E+02 -0.50467420319E+02  0.13487787960E+03  0.16834215544E+03  0.82722370913E+02 0.  0.
         -6    2    1    2    0  503 -0.96283322407E+02  0.70746028958E+02  0.28444185185E+03  0.35284922744E+03  0.17123063815E+03 0.  0.
        -24    2    5    5    0    0 -0.33465558141E+02  0.42441921914E+02  0.50517453557E+02  0.10894369635E+03  0.79971592103E+02 0.  0.
          5    1    3    3  501    0  0.68768095190E+02 -0.20278608639E+02 -0.14691323932E+02  0.73336197633E+02  0.47000000000E+01 0. -1.
        -13    1    4    4    0    0 -0.24736665038E+02  0.11942883807E+01  0.19358614170E+02  0.31433817212E+02  0.00000000000E+00 0.  1.
         14    1    4    4    0    0  0.52251892255E+02 -0.51661708700E+02  0.11551926543E+03  0.13690833823E+03  0.00000000000E+00 0. -1.
         -5    1    5    5    0  503 -0.62817764267E+02  0.28304107045E+02  0.23392439829E+03  0.24390553109E+03  0.47000000000E+01 0.  1.
         11    1    6    6    0    0  0.11647819393E+00  0.57148012857E+02  0.43003472770E+02  0.71520679604E+02  0.00000000000E+00 0. -1.
        -12    1    6    6    0    0 -0.33582036335E+02 -0.14706090944E+02  0.75139807871E+01  0.37423016748E+02  0.00000000000E+00 0.  1.
</event>
<event>
12    1  0.9246030E-003  0.1759320E+03  0.7818608E-02  0.1171926E+00
         21   -1    0    0  503  502  0.00000000000E+00  0.00000000000E+00  0.21716005818E+03  0.21716005818E+03  0.00000000000E+00 0. -1.
         21   -1    0    0  501  503 -0.00000000000E+00 -0.00000000000E+00 -0.14360608696E+03  0.14360608696E+03  0.00000000000E+00 0. -1.
          6    2    1    2  501    0  0.27621895587E+02 -0.25400123068E+02  0.18364606285E+02  0.17638086442E+03  0.17136165032E+03 0.  0.
         24    2    3    3    0    0  0.63208278207E+02  0.14117084519E+02 -0.26700664072E+02  0.10651693298E+03  0.80239348456E+02 0.  0.
         -6    2    1    2    0  502 -0.27621895587E+02  0.25400123068E+02  0.55189364929E+02  0.18438528072E+03  0.17188347907E+03 0.  0.
        -24    2    5    5    0    0  0.38120413770E+02  0.52541823910E+01  0.71192565797E+02  0.11363146384E+03  0.79768137567E+02 0.  0.
          5    1    3    3  501    0 -0.35586382620E+02 -0.39517207587E+02  0.45065270357E+02  0.69863931437E+02  0.47000000000E+01 0. -1.
        -11    1    4    4    0    0  0.54086965608E+02 -0.26849167046E+01 -0.51817958829E+02  0.74951380799E+02  0.00000000000E+00 0.  1.
         12    1    4    4    0    0  0.91213125991E+01  0.16802001223E+02  0.25117294758E+02  0.31565552182E+02  0.00000000000E+00 0. -1.
         -5    1    5    5    0  502 -0.65742309356E+02  0.20145940677E+02 -0.16003200869E+02  0.70753816881E+02  0.47000000000E+01 0.  1.
         11    1    6    6    0    0  0.42364424381E+02 -0.63834572851E+01  0.15235186277E+01  0.42869733951E+02  0.00000000000E+00 0. -1.
        -12    1    6    6    0    0 -0.42440106110E+01  0.11637639676E+02  0.69669047170E+02  0.70761729889E+02  0.00000000000E+00 0.  1.
</event>
<event>
12    1  0.9246030E-003  0.1827303E+03  0.7818608E-02  0.1166114E+00
         21   -1    0    0  503  502  0.00000000000E+00  0.00000000000E+00  0.29333928183E+03  0.29333928183E+03  0.00000000000E+00 0.  1.
         21   -1    0    0  501  503 -0.00000000000E+00 -0.00000000000E+00 -0.14603587577E+03  0.14603587577E+03  0.00000000000E+00 0.  1.
          6    2    1    2  501    0 -0.42212367165E+02 -0.23125552785E+02 -0.32680461131E+02  0.18562967909E+03  0.17627731018E+03 0.  0.
         24    2    3    3    0    0 -0.56248070072E+02  0.32227563467E+02 -0.51041032945E+02  0.12546183857E+03  0.94514679601E+02 0.  0.
         -6    2    1    2    0  502  0.42212367165E+02  0.23125552785E+02  0.17998386720E+03  0.25374547851E+03  0.17226694483E+03 0.  0.
        -24    2    5    5    0    0 -0.10806600838E+02 -0.34317408635E+01  0.17849977857E+03  0.19424259343E+03  0.75759188775E+02 0.  0.
          5    1    3    3  501    0  0.14035702907E+02 -0.55353116253E+02  0.18360571814E+02  0.60167840516E+02  0.47000000000E+01 0. -1.
        -13    1    4    4    0    0  0.23939453462E+02  0.32124276078E+01 -0.28299688561E+02  0.37206041121E+02  0.00000000000E+00 0.  1.
         14    1    4    4    0    0 -0.80187523534E+02  0.29015135860E+02 -0.22741344384E+02  0.88255797452E+02  0.00000000000E+00 0. -1.
         -5    1    5    5    0  502  0.53018968003E+02  0.26557293649E+02  0.14840886222E+01  0.59502885082E+02  0.47000000000E+01 0.  1.
         13    1    6    6    0    0 -0.26878117931E+02  0.16234074802E+02  0.29467525882E+02  0.43061740441E+02  0.00000000000E+00 0. -1.
        -14    1    6    6    0    0  0.16071517093E+02 -0.19665815666E+02  0.14903225269E+03  0.15118085299E+03  0.00000000000E+00 0.  1.
</event>
<event>
12    1  0.9246030E-003  0.2033541E+03  0.7818608E-02  0.1146971E+00
         21   -1    0    0  503  502  0.00000000000E+00  0.00000000000E+00  0.17787825166E+03  0.17787825166E+03  0.00000000000E+00 0. -1.
         21   -1    0    0  501  503 -0.00000000000E+00 -0.00000000000E+00 -0.23704584677E+03  0.23704584677E+03  0.00000000000E+00 0.  1.
          6    2    1    2  501    0 -0.40403781743E+02  0.10131075921E+03 -0.58935057394E+02  0.21172207045E+03  0.17162913102E+03 0.  0.
         24    2    3    3    0    0 -0.41113140951E+02  0.80431685621E+02 -0.10585830755E+03  0.16014377744E+03  0.79249616827E+02 0.  0.
         -6    2    1    2    0  502  0.40403781743E+02 -0.10131075921E+03 -0.23253771427E+00  0.20320202799E+03  0.17144875209E+03 0.  0.
        -24    2    5    5    0    0  0.24868152944E+02 -0.67750864386E+02 -0.66030204898E+02  0.12757765818E+03  0.81899122405E+02 0.  0.
          5    1    3    3  501    0  0.70935920740E+00  0.20879073585E+02  0.46923250151E+02  0.51578293002E+02  0.47000000000E+01 0. -1.
        -11    1    4    4    0    0 -0.26410039795E+02  0.91212903922E+02 -0.64073175748E+02  0.11455416140E+03  0.00000000000E+00 0.  1.
         12    1    4    4    0    0 -0.14703101156E+02 -0.10781218301E+02 -0.41785131797E+02  0.45589616043E+02  0.00000000000E+00 0. -1.
         -5    1    5    5    0  502  0.15535628800E+02 -0.33559894820E+02  0.65797667184E+02  0.75624369812E+02  0.47000000000E+01 0.  1.
         13    1    6    6    0    0  0.30750047026E+02 -0.39060090217E+02  0.57589364231E+01  0.50044194354E+02  0.00000000000E+00 0. -1.
        -14    1    6    6    0    0 -0.58818940824E+01 -0.28690774169E+02 -0.71789141322E+02  0.77533463821E+02  0.00000000000E+00 0.  1.
</event>
<event>
12    1  0.9246030E-003  0.1971811E+03  0.7818608E-02  0.1152170E+00
         21   -1    0    0  501  502  0.00000000000E+00  0.00000000000E+00  0.29235659374E+02  0.29235659374E+02  0.00000000000E+00 0. -1.
         21   -1    0    0  502  503 -0.00000000000E+00 -0.00000000000E+00 -0.13325578876E+04  0.13325578876E+04  0.00000000000E+00 0.  1.
          6    2    1    2  501    0 -0.69230021502E+02 -0.65849599262E+02 -0.61631941603E+03  0.64709350155E+03  0.17248597502E+03 0.  0.
         24    2    3    3    0    0 -0.10456779809E+03 -0.40426336524E+02 -0.55429967285E+03  0.57117486559E+03  0.80149152720E+02 0.  0.
         -6    2    1    2    0  503  0.69230021502E+02  0.65849599262E+02 -0.68700281223E+03  0.71470004546E+03  0.17232041481E+03 0.  0.
        -24    2    5    5    0    0  0.33450363864E+02  0.13789149049E+02 -0.15701005867E+03  0.18093522533E+03  0.82318465529E+02 0.  0.
          5    1    3    3  501    0  0.35337776585E+02 -0.25423262738E+02 -0.62019743181E+02  0.75918635963E+02  0.47000000000E+01 0. -1.
        -11    1    4    4    0    0 -0.92289940350E+02 -0.55692511744E+02 -0.52484690065E+03  0.53580160328E+03  0.00000000000E+00 0.  1.
         12    1    4    4    0    0 -0.12277857736E+02  0.15266175220E+02 -0.29452772197E+02  0.35373262311E+02  0.00000000000E+00 0. -1.
         -5    1    5    5    0  503  0.35779657638E+02  0.52060450213E+02 -0.52999275357E+03  0.53376482013E+03  0.47000000000E+01 0.  1.
         11    1    6    6    0    0  0.58071180759E+02  0.10196530719E+02 -0.13650282887E+03  0.14869180732E+03  0.00000000000E+00 0. -1.
        -12    1    6    6    0    0 -0.24620816895E+02  0.35926183304E+01 -0.20507229797E+02  0.32243418010E+02  0.00000000000E+00 0.  1.
</event>
<event>
12    1  0.9246030E-003  0.2020425E+03  0.7818608E-02  0.1150335E+00
         21   -1    0    0  503  502  0.00000000000E+00  0.00000000000E+00  0.18847302168E+04  0.18847302168E+04  0.00000000000E+00 0. -1.
         21   -1    0    0  501  503 -0.00000000000E+00 -0.00000000000E+00 -0.20777811671E+02  0.20777811671E+02  0.00000000000E+00 0. -1.
          6    2    1    2  501    0 -0.64321548209E+02 -0.47556362769E+02  0.80070266008E+03  0.82323208842E+03  0.17374536642E+03 0.  0.
         24    2    3    3    0    0 -0.19867180916E+02 -0.53700934006E+02  0.23107269679E+03  0.25181776274E+03  0.82092016891E+02 0.  0.
         -6    2    1    2    0  502  0.64321548209E+02  0.47556362769E+02  0.10632497450E+04  0.10822759400E+04  0.18553253312E+03 0.  0.
        -24    2    5    5    0    0  0.30781284233E+02  0.49569079874E+02  0.10300761646E+04  0.10348251574E+04  0.80010125814E+02 0.  0.
          5    1    3    3  501    0 -0.44454367293E+02  0.61445712375E+01  0.56962996329E+03  0.57141432569E+03  0.47000000000E+01 0. -1.
        -13    1    4    4    0    0  0.22911501582E+02 -0.46119236722E+02  0.16407565488E+03  0.17196726847E+03  0.00000000000E+00 0.  1.
         14    1    4    4    0    0 -0.42778682498E+02 -0.75816972845E+01  0.66997041905E+02  0.79850494263E+02  0.00000000000E+00 0. -1.
         -5    1    5    5    0  502  0.33540263976E+02 -0.20127171049E+01  0.33173580365E+02  0.47450782627E+02  0.47000000000E+01 0.  1.
         11    1    6    6    0    0 -0.33017596292E+01  0.35355158793E+02  0.15687863099E+03  0.16084711291E+03  0.00000000000E+00 0. -1.
        -12    1    6    6    0    0  0.34083043862E+02  0.14213921081E+02  0.87319753365E+03  0.87397804446E+03  0.00000000000E+00 0.  1.
</event>
<event>
12    1  0.9246030E-003  0.1920646E+03  0.7818608E-02  0.1156880E+00
         21   -1    0    0  501  502  0.00000000000E+00  0.00000000000E+00  0.16002209511E+04  0.16002209511E+04  0.00000000000E+00 0.  1.
         21   -1    0    0  502  503 -0.00000000000E+00 -0.00000000000E+00 -0.30600071146E+02  0.30600071146E+02  0.00000000000E+00 0.  1.
          6    2    1    2  501    0  0.80954501853E+02 -0.33011730160E+01  0.37784482496E+03  0.42385791990E+03  0.17413872459E+03 0.  0.
         24    2    3    3    0    0  0.75333108787E+02  0.45723907313E+02  0.14995297930E+03  0.19063733359E+03  0.78044499989E+02 0.  0.
         -6    2    1    2    0  503 -0.80954501853E+02  0.33011730160E+01  0.11917760550E+04  0.12069631023E+04  0.17281561285E+03 0.  0.
        -24    2    5    5    0    0 -0.69081227446E+02 -0.60151461089E+02  0.89015795869E+03  0.89847845534E+03  0.80572507897E+02 0.  0.
          5    1    3    3  501    0  0.56213930659E+01 -0.49025080329E+02  0.22789184566E+03  0.23322058631E+03  0.47000000000E+01 0. -1.
        -11    1    4    4    0    0  0.36466550403E+02 -0.18048961724E+02  0.71869885758E+02  0.82588466486E+02  0.00000000000E+00 0.  1.
         12    1    4    4    0    0  0.38866558384E+02  0.63772869037E+02  0.78083093540E+02  0.10804886710E+03  0.00000000000E+00 0. -1.
         -5    1    5    5    0  503 -0.11873274408E+02  0.63452634105E+02  0.30161809627E+03  0.30848464697E+03  0.47000000000E+01 0.  1.
         11    1    6    6    0    0 -0.87298211450E+02 -0.50921383556E+02  0.70736490618E+03  0.71454816180E+03  0.00000000000E+00 0. -1.
        -12    1    6    6    0    0  0.18216984004E+02 -0.92300775329E+01  0.18279305251E+03  0.18393029354E+03  0.00000000000E+00 0.  1.
</event>
<event>
12    1  0.9246030E-003  0.2529300E+03  0.7818608E-02  0.1112500E+00
         21   -1    0    0  503  502  0.00000000000E+00  0.00000000000E+00  0.12560605989E+03  0.12560605989E+03  0.00000000000E+00 0. -1.
         21   -1    0    0  501  503 -0.00000000000E+00 -0.00000000000E+00 -0.21324922535E+04  0.21324922535E+04  0.00000000000E+00 0.  1.
          6    2    1    2  501    0 -0.89793023006E+02 -0.15258950603E+03 -0.19893621518E+04  0.20045620024E+04  0.17134966042E+03 0.  0.
         24    2    3    3    0    0 -0.88463998722E+02 -0.59238854620E+02 -0.15303673948E+04  0.15361451076E+04  0.79889344906E+02 0.  0.
         -6    2    1    2    0  502  0.89793023006E+02  0.15258950603E+03 -0.17524041849E+02  0.25353631103E+03  0.18063007677E+03 0.  0.
        -24    2    5    5    0    0  0.35472886191E+02  0.98665784494E+02  0.63351708063E+02  0.14208487796E+03  0.71982018219E+02 0.  0.
          5    1    3    3  501    0 -0.13290242839E+01 -0.93350651410E+02 -0.45899475698E+03  0.46841689483E+03  0.47000000000E+01 0. -1.
        -11    1    4    4    0    0 -0.89801901423E+02 -0.47114384846E+02 -0.90589058181E+03  0.91154917200E+03  0.00000000000E+00 0.  1.
         12    1    4    4    0    0  0.13379027015E+01 -0.12124469773E+02 -0.62447681300E+03  0.62459593556E+03  0.00000000000E+00 0. -1.
         -5    1    5    5    0  502  0.54320136815E+02  0.53923721535E+02 -0.80875749912E+02  0.11145143306E+03  0.47000000000E+01 0.  1.
         13    1    6    6    0    0  0.53204402254E+02  0.44224033356E+02  0.42242105655E+02  0.81060897081E+02  0.00000000000E+00 0. -1.
        -14    1    6    6    0    0 -0.17731516063E+02  0.54441751138E+02  0.21109602408E+02  0.61023980882E+02  0.00000000000E+00 0.  1.
</event>
<event>
12    1  0.9246030E-003  0.2495042E+03  0.7818608E-02  0.1115067E+00
         21   -1    0    0  501  502  0.00000000000E+00  0.00000000000E+00  0.27913373176E+03  0.27913373176E+03  0.00000000000E+00 0.  1.
         21   -1    0    0  502  503 -0.00000000000E+00 -0.00000000000E+00 -0.25028897656E+03  0.25028897656E+03  0.00000000000E+00 0.  1.
          6    2    1    2  501    0  0.14557737257E+03  0.85986671651E+02  0.11347103834E+03  0.26595742019E+03  0.17108826292E+03 0.  0.
         24    2    3    3    0    0  0.12980441196E+03  0.11274738249E+03  0.13041881834E+03  0.23026093328E+03  0.80311092613E+02 0.  0.
         -6    2    1    2    0  503 -0.14557737257E+03 -0.85986671651E+02 -0.84626283128E+02  0.26346528813E+03  0.18348261810E+03 0.  0.
        -24    2    5    5    0    0 -0.30979659916E+02 -0.90306045783E+02 -0.78691870999E+02  0.14853661466E+03  0.82193637822E+02 0.  0.
          5    1    3    3  501    0  0.15772960614E+02 -0.26760710836E+02 -0.16947780001E+02  0.35696486914E+02  0.47000000000E+01 0. -1.
        -13    1    4    4    0    0  0.11880210641E+03  0.54993612187E+02  0.92666811768E+02  0.16039132106E+03  0.00000000000E+00 0.  1.
         14    1    4    4    0    0  0.11002305546E+02  0.57753770300E+02  0.37752006569E+02  0.69869612216E+02  0.00000000000E+00 0. -1.
         -5    1    5    5    0  503 -0.11459771266E+03  0.43193741328E+01 -0.59344121288E+01  0.11492867347E+03  0.47000000000E+01 0.  1.
         13    1    6    6    0    0 -0.29367612409E+02 -0.10335640301E+03 -0.53298430904E+02  0.11994050791E+03  0.00000000000E+00 0. -1.
        -14    1    6    6    0    0 -0.16120475065E+01  0.13050357227E+02 -0.25393440095E+02  0.28596106742E+02  0.00000000000E+00 0.  1.
</event>
<event>
12    1  0.9246030E-003  0.1777892E+03  0.7818608E-02  0.1169979E+00
         21   -1    0    0  503  502  0.00000000000E+00  0.00000000000E+00  0.22968884534E+03  0.22968884534E+03  0.00000000000E+00 0. -1.
         21   -1    0    0  501  503 -0.00000000000E+00 -0.00000000000E+00 -0.16335259268E+03  0.16335259268E+03  0.00000000000E+00 0. -1.
          6    2    1    2  501    0 -0.24096302811E+02  0.41114170932E+02 -0.44920279326E+02  0.18337621434E+03  0.17128338399E+03 0.  0.
         24    2    3    3    0    0  0.21531479400E+02  0.18008738500E+02  0.31581669787E+02  0.91232881782E+02  0.80858627148E+02 0.  0.
         -6    2    1    2    0  502  0.24096302811E+02 -0.41114170932E+02  0.11125653199E+03  0.20966522368E+03  0.17120304685E+03 0.  0.
        -24    2    5    5    0    0  0.48253514511E+02 -0.85524605054E+02  0.71944766991E+02  0.14545181072E+03  0.79607286183E+02 0.  0.
          5    1    3    3  501    0 -0.45627782211E+02  0.23105432432E+02 -0.76501949113E+02  0.92143332561E+02  0.47000000000E+01 0. -1.
        -11    1    4    4    0    0 -0.72415795380E+01  0.39103449267E+02  0.37974683830E+02  0.54987242437E+02  0.00000000000E+00 0.  1.
         12    1    4    4    0    0  0.28773058938E+02 -0.21094710767E+02 -0.63930140433E+01  0.36245639346E+02  0.00000000000E+00 0. -1.
         -5    1    5    5    0  502 -0.24157211700E+02  0.44410434122E+02  0.39311765000E+02  0.64213412955E+02  0.47000000000E+01 0.  1.
         11    1    6    6    0    0  0.37114811493E+02  0.10199491227E+01  0.33839463063E+02  0.50236030782E+02  0.00000000000E+00 0. -1.
        -12    1    6    6    0    0  0.11138703018E+02 -0.86544554177E+02  0.38105303928E+02  0.95215779942E+02  0.00000000000E+00 0.  1.
</event>
<event>
12    1  0.9246030E-003  0.1785878E+03  0.7818608E-02  0.1171952E+00
         21   -1    0    0  501  502  0.00000000000E+00  0.00000000000E+00  0.93893193979E+03  0.93893193979E+03  0.00000000000E+00 0.  1.
         21   -1    0    0  502  503 -0.00000000000E+00 -0.00000000000E+00 -0.32277513272E+02  0.32277513272E+02  0.00000000000E+00 0. -1.
          6    2    1    2  501    0 -0.38851757438E+02 -0.26681546354E+02  0.41594119673E+03  0.45265954909E+03  0.17225627498E+03 0.  0.
         24    2    3    3    0    0  0.90846540430E+01 -0.61659587756E+02  0.15639824293E+03  0.18637774762E+03  0.79948850617E+02 0.  0.
         -6    2    1    2    0  503  0.38851757438E+02  0.26681546354E+02  0.49071322978E+03  0.51854990397E+03  0.16085137566E+03 0.  0.
        -24    2    5    5    0    0 -0.20148510122E+02 -0.28852727467E+02  0.25181990885E+03  0.26624612689E+03  0.78963860402E+02 0.  0.
          5    1    3    3  501    0 -0.47936411481E+02  0.34978041402E+02  0.25954295380E+03  0.26628180147E+03  0.47000000000E+01 0. -1.
        -13    1    4    4    0    0  0.16766354131E+02 -0.17170636825E+02  0.13371670513E+03  0.13585322458E+03  0.00000000000E+00 0.  1.
         14    1    4    4    0    0 -0.76817000877E+01 -0.44488950931E+02  0.22681537809E+02  0.50524523042E+02  0.00000000000E+00 0. -1.
         -5    1    5    5    0  503  0.59000267560E+02  0.55534273821E+02  0.23889332093E+03  0.25230377707E+03  0.47000000000E+01 0.  1.
         11    1    6    6    0    0 -0.27536190779E+02 -0.93650293909E+01  0.24102834343E+03  0.24277686858E+03  0.00000000000E+00 0. -1.
        -12    1    6    6    0    0  0.73876806571E+01 -0.19487698077E+02  0.10791565421E+02  0.23469258319E+02  0.00000000000E+00 0.  1.
</event>
<event>
12    1  0.9246030E-003  0.2135310E+03  0.7818608E-02  0.1139196E+00
         21   -1    0    0  501  502  0.00000000000E+00  0.00000000000E+00  0.17612412469E+03  0.17612412469E+03  0.00000000000E+00 0. -1.
         21   -1    0    0  502  503 -0.00000000000E+00 -0.00000000000E+00 -0.26748610047E+03  0.26748610047E+03  0.00000000000E+00 0.  1.
          6    2    1    2  501    0  0.53214280612E+02  0.11570766958E+03 -0.36868425316E+00  0.21149976927E+03  0.16885494370E+03 0.  0.
         24    2    3    3    0    0  0.18621058872E+02  0.11880355735E+02 -0.49379077454E+02  0.91495974616E+02  0.73792502294E+02 0.  0.
         -6    2    1    2    0  503 -0.53214280612E+02 -0.11570766958E+03 -0.90993291523E+02  0.23211045589E+03  0.17139270746E+03 0.  0.
        -24    2    5    5    0    0 -0.59497284247E+02 -0.18729605631E+02 -0.23016778754E+01  0.10045745231E+03  0.78712623150E+02 0.  0.
          5    1    3    3  501    0  0.34593221741E+02  0.10382731384E+03  0.49010393201E+02  0.12000379465E+03  0.47000000000E+01 0. -1.
        -13    1    4    4    0    0 -0.17706702823E+02  0.18156495694E+02 -0.48370977901E+02  0.54616271970E+02  0.00000000000E+00 0.  1.
         14    1    4    4    0    0  0.36327761695E+02 -0.62761399584E+01 -0.10080995525E+01  0.36879702646E+02  0.00000000000E+00 0. -1.
         -5    1    5    5    0  503  0.62830036341E+01 -0.96978063945E+02 -0.88691613647E+02  0.13165300358E+03  0.47000000000E+01 0.  1.
         11    1    6    6    0    0 -0.48413936843E+02 -0.20713221736E+02  0.33845248248E+02  0.62597505256E+02  0.00000000000E+00 0. -1.
        -12    1    6    6    0    0 -0.11083347404E+02  0.19836161057E+01 -0.36146926123E+02  0.37859947051E+02  0.00000000000E+00 0.  1.
</event>
<event>
12    1  0.9246030E-003  0.3454853E+03  0.7818608E-02  0.1064538E+00
         21   -1    0    0  503  502  0.00000000000E+00  0.00000000000E+00  0.35512859157E+03  0.35512859157E+03  0.00000000000E+00 0. -1.
         21   -1    0    0  501  503 -0.00000000000E+00 -0.00000000000E+00 -0.33764680396E+03  0.33764680396E+03  0.00000000000E+00 0.  1.
          6    2    1    2  501    0 -0.28140332770E+03  0.10236277650E+03 -0.18270643244E+02  0.34596804133E+03  0.17231975618E+03 0.  0.
         24    2    3    3    0    0 -0.23141262991E+03  0.40208256422E+02 -0.61191297354E+02  0.25526783858E+03  0.79049259148E+02 0.  0.
         -6    2    1    2    0  502  0.28140332770E+03 -0.10236277650E+03  0.35752430850E+02  0.34680735419E+03  0.17126334622E+03 0.  0.
        -24    2    5    5    0    0  0.10561924430E+03 -0.51937442164E+02  0.73862198857E+02  0.15994590088E+03  0.79209495151E+02 0.  0.
          5    1    3    3  501    0 -0.49990697783E+02  0.62154520079E+02  0.42920654110E+02  0.90700202758E+02  0.47000000000E+01 0. -1.
        -11    1    4    4    0    0 -0.15292109584E+03 -0.35697410349E+00 -0.66498481309E+02  0.16675442123E+03  0.00000000000E+00 0.  1.
         12    1    4    4    0    0 -0.78491534075E+02  0.40565230526E+02  0.53071839557E+01  0.88513417348E+02  0.00000000000E+00 0. -1.
         -5    1    5    5    0  502  0.17578408339E+03 -0.50425334338E+02 -0.38109768007E+02  0.18686145332E+03  0.47000000000E+01 0.  1.
         11    1    6    6    0    0  0.11173173451E+03 -0.31121120506E+02  0.46336806281E+02  0.12489837571E+03  0.00000000000E+00 0. -1.
        -12    1    6    6    0    0 -0.61124902100E+01 -0.20816321658E+02  0.27525392576E+02  0.35047525168E+02  0.00000000000E+00 0.  1.
</event>
<event>
12    1  0.9246030E-003  0.1827070E+03  0.7818608E-02  0.1165243E+00
         21   -1    0    0  501  502  0.00000000000E+00  0.00000000000E+00  0.48755864704E+03  0.48755864704E+03  0.00000000000E+00 0.  1.
         21   -1    0    0  502  503 -0.00000000000E+00 -0.00000000000E+00 -0.71036651794E+02  0.71036651794E+02  0.00000000000E+00 0.  1.
          6    2    1    2  501    0 -0.14369567822E+01 -0.62139218054E+02  0.26201727931E+03  0.31942903146E+03  0.17180949977E+03 0.  0.
         24    2    3    3    0    0 -0.23088084973E+02  0.31144332225E+02  0.12784262161E+03  0.15451838633E+03  0.77647709030E+02 0.  0.
         -6    2    1    2    0  503  0.14369567822E+01  0.62139218054E+02  0.15450471593E+03  0.23916626738E+03  0.17165502888E+03 0.  0.
        -24    2    5    5    0    0 -0.28970357345E+02 -0.27320328984E+01  0.14303950781E+03  0.16645846209E+03  0.80008582028E+02 0.  0.
          5    1    3    3  501    0  0.21651128191E+02 -0.93283550279E+02  0.13417465770E+03  0.16491064512E+03  0.47000000000E+01 0. -1.
        -11    1    4    4    0    0  0.13726207156E+02 -0.61572945923E+01  0.86410441079E+02  0.87710235246E+02  0.00000000000E+00 0.  1.
         12    1    4    4    0    0 -0.36814292129E+02  0.37301626818E+02  0.41432180532E+02  0.66808151088E+02  0.00000000000E+00 0. -1.
         -5    1    5    5    0  503  0.30407314127E+02  0.64871250952E+02  0.11465208121E+02  0.72707805288E+02  0.47000000000E+01 0.  1.
         13    1    6    6    0    0  0.17009110689E+02 -0.20747858788E+02  0.18788240465E+02  0.32753342891E+02  0.00000000000E+00 0. -1.
        -14    1    6    6    0    0 -0.45979468034E+02  0.18015825890E+02  0.12425126734E+03  0.13370511920E+03  0.00000000000E+00 0.  1.
</event>
<event>
12    1  0.9246030E-003  0.1803120E+03  0.7818608E-02  0.1168040E+00
         21   -1    0    0  503  502  0.00000000000E+00  0.00000000000E+00  0.16627057940E+04  0.16627057940E+04  0.00000000000E+00 0.  1.
         21   -1    0    0  501  503 -0.00000000000E+00 -0.00000000000E+00 -0.28835186272E+02  0.28835186272E+02  0.00000000000E+00 0.  1.
          6    2    1    2  501    0 -0.12345535550E+02  0.48356197327E+02  0.32756794449E+03  0.37285259594E+03  0.17096071471E+03 0.  0.
         24    2    3    3    0    0  0.30179801844E+02  0.41735338802E+02  0.87014683633E+02  0.12843450864E+03  0.79190964755E+02 0.  0.
         -6    2    1    2    0  502  0.12345535550E+02 -0.48356197327E+02  0.13063026632E+04  0.13186883843E+04  0.17326763380E+03 0.  0.
        -24    2    5    5    0    0  0.25644781271E+01  0.19521116335E+02  0.10405876856E+04  0.10442261135E+04  0.84839814159E+02 0.  0.
          5    1    3    3  501    0 -0.42525337393E+02  0.66208585245E+01  0.24055326085E+03  0.24441808729E+03  0.47000000000E+01 0. -1.
        -11    1    4    4    0    0 -0.18648175521E+02 -0.11710529675E+02  0.22154038206E+02  0.31236074728E+02  0.00000000000E+00 0.  1.
         12    1    4    4    0    0  0.48827977365E+02  0.53445868477E+02  0.64860645426E+02  0.97198433917E+02  0.00000000000E+00 0. -1.
         -5    1    5    5    0  502  0.97810574225E+01 -0.67877313661E+02  0.26571497763E+03  0.27446227087E+03  0.47000000000E+01 0.  1.
         13    1    6    6    0    0 -0.24555613630E+02  0.43217737388E+02  0.50958956485E+03  0.51200808157E+03  0.00000000000E+00 0. -1.
        -14    1    6    6    0    0  0.27120091757E+02 -0.23696621053E+02  0.53099812075E+03  0.53221803189E+03  0.00000000000E+00 0.  1.
</event>
<event>
12    1  0.9246030E-003  0.2167632E+03  0.7818608E-02  0.1136417E+00
         21   -1    0    0  503  502  0.00000000000E+00  0.00000000000E+00  0.39700905729E+03  0.39700905729E+03  0.00000000000E+00 0.  1.
         21   -1    0    0  501  503 -0.00000000000E+00 -0.00000000000E+00 -0.15203478796E+03  0.15203478796E+03  0.00000000000E+00 0. -1.
          6    2    1    2  501    0 -0.11291976467E+03  0.65189454116E+02  0.25212845090E+03  0.33216259826E+03  0.17251868813E+03 0.  0.
         24    2    3    3    0    0 -0.85681143783E+02  0.10605289898E+03  0.23355515428E+03  0.27944807521E+03  0.70389920203E+02 0.  0.
         -6    2    1    2    0  502  0.11291976467E+03 -0.65189454116E+02 -0.71541815692E+01  0.21688124698E+03  0.17316395352E+03 0.  0.
        -24    2    5    5    0    0  0.14103208380E+03 -0.44718736007E+02 -0.35406992511E+02  0.17182945331E+03  0.79886744175E+02 0.  0.
          5    1    3    3  501    0 -0.27238620884E+02 -0.40863444861E+02  0.18573296610E+02  0.52714523051E+02  0.47000000000E+01 0. -1.
        -11    1    4    4    0    0 -0.41178455704E+02  0.68540997029E+02  0.19184808357E+03  0.20784422210E+03  0.00000000000E+00 0.  1.
         12    1    4    4    0    0 -0.44502688079E+02  0.37511901947E+02  0.41707070712E+02  0.71603853118E+02  0.00000000000E+00 0. -1.
         -5    1    5    5    0  502 -0.28112319132E+02 -0.20470718108E+02  0.28252810941E+02  0.45051793671E+02  0.47000000000E+01 0.  1.
         13    1    6    6    0    0  0.58713476161E+02  0.16298152150E+02  0.61778082004E+01  0.61245957912E+02  0.00000000000E+00 0. -1.
        -14    1    6    6    0    0  0.82318607638E+02 -0.61016888158E+02 -0.41584800711E+02  0.11058349540E+03  0.00000000000E+00 0.  1.
</event>
<event>
12    1  0.9246030E-003  0.2377553E+03  0.7818608E-02  0.1121367E+00
         21   -1    0    0  501  502  0.00000000000E+00  0.00000000000E+00  0.10838059668E+04  0.10838059668E+04  0.00000000000E+00 0.  1.
         21   -1    0    0  502  503 -0.00000000000E+00 -0.00000000000E+00 -0.10539549732E+03  0.10539549732E+03  0.00000000000E+00 0.  1.
          6    2    1    2  501    0 -0.75328371665E+02 -0.14576081172E+03  0.91237252304E+03  0.94284207798E+03  0.17206680502E+03 0.  0.
         24    2    3    3    0    0 -0.34310703119E+02 -0.14038031920E+02  0.50560340347E+03  0.51328818556E+03  0.80347178846E+02 0.  0.
         -6    2    1    2    0  503  0.75328371665E+02  0.14576081172E+03  0.66037946434E+02  0.24635938614E+03  0.17149740219E+03 0.  0.
        -24    2    5    5    0    0 -0.40100402018E+01  0.17339174374E+02  0.42216873316E+01  0.83172252989E+02  0.81136142581E+02 0.  0.
          5    1    3    3  501    0 -0.41017668546E+02 -0.13172277980E+03  0.40676911957E+03  0.42955389242E+03  0.47000000000E+01 0. -1.
        -11    1    4    4    0    0 -0.59039614789E+02 -0.19723823559E+02  0.38967058781E+03  0.39461103929E+03  0.00000000000E+00 0.  1.
         12    1    4    4    0    0  0.24728911670E+02  0.56857916396E+01  0.11593281566E+03  0.11867714627E+03  0.00000000000E+00 0. -1.
         -5    1    5    5    0  503  0.79338411867E+02  0.12842163734E+03  0.61816259102E+02  0.16318713315E+03  0.47000000000E+01 0.  1.
         11    1    6    6    0    0  0.78240600701E+01 -0.79897684098E+01 -0.34014474673E+02  0.35805541506E+02  0.00000000000E+00 0. -1.
        -12    1    6    6    0    0 -0.11834100272E+02  0.25328942784E+02  0.38236162005E+02  0.47366711483E+02  0.00000000000E+00 0.  1.
</event>
<event>
12    1  0.9246030E-003  0.1769179E+03  0.7818608E-02  0.1171374E+00
         21   -1    0    0  503  502  0.00000000000E+00  0.00000000000E+00  0.11264003538E+03  0.11264003538E+03  0.00000000000E+00 0. -1.
         21   -1    0    0  501  503 -0.00000000000E+00 -0.00000000000E+00 -0.28080345568E+03  0.28080345568E+03  0.00000000000E+00 0. -1.
          6    2    1    2  501    0  0.30942408082E+02 -0.10361648533E+02 -0.54872679496E+02  0.18523214914E+03  0.17388255158E+03 0.  0.
         24    2    3    3    0    0  0.68049694221E+02  0.35480851808E+02 -0.60086000605E+02  0.12583724836E+03  0.79592926053E+02 0.  0.
         -6    2    1    2    0  502 -0.30942408082E+02  0.10361648533E+02 -0.11329074080E+03  0.20821134191E+03  0.17161694139E+03 0.  0.
        -24    2    5    5    0    0  0.23710908981E+02 -0.93592888697E+01 -0.12647228626E+03  0.14844727596E+03  0.73427182002E+02 0.  0.
          5    1    3    3  501    0 -0.37107286139E+02 -0.45842500341E+02  0.52133211095E+01  0.59394900784E+02  0.47000000000E+01 0. -1.
        -13    1    4    4    0    0  0.51999924306E+01 -0.23214378048E+02 -0.70910614508E+01  0.24823988840E+02  0.00000000000E+00 0.  1.
         14    1    4    4    0    0  0.62849701790E+02  0.58695229856E+02 -0.52994939155E+02  0.10101325952E+03  0.00000000000E+00 0. -1.
         -5    1    5    5    0  502 -0.54653317063E+02  0.19720937403E+02  0.13181545462E+02  0.59764065949E+02  0.47000000000E+01 0.  1.
         11    1    6    6    0    0  0.37508188148E+02  0.17529432950E+02 -0.43090008974E+02  0.59756958349E+02  0.00000000000E+00 0. -1.
        -12    1    6    6    0    0 -0.13797279167E+02 -0.26888721820E+02 -0.83382277285E+02  0.88690317616E+02  0.00000000000E+00 0.  1.
</event>
<event>
12    1  0.9246030E-003  0.1737304E+03  0.7818608E-02  0.1174506E+00
         21   -1    0    0  503  502  0.00000000000E+00  0.00000000000E+00  0.78857571713E+03  0.78857571713E+03  0.00000000000E+00 0.  1.
         21   -1    0    0  501  503 -0.00000000000E+00 -0.00000000000E+00 -0.95425308506E+02  0.95425308506E+02  0.00000000000E+00 0.  1.
          6    2    1    2  501    0  0.14127019985E+02  0.27326878567E+02  0.40170413025E+01  0.17377682837E+03  0.17098514109E+03 0.  0.
         24    2    3    3    0    0  0.18809310727E+02  0.23744930793E+01 -0.62510672798E+02  0.10241456852E+03  0.78877951569E+02 0.  0.
         -6    2    1    2    0  502 -0.14127019985E+02 -0.27326878567E+02  0.68913336732E+03  0.71022419726E+03  0.16901858311E+03 0.  0.
        -24    2    5    5    0    0  0.38537719522E+02 -0.46996732473E+02  0.56937525512E+03  0.57784378565E+03  0.77597749869E+02 0.  0.
          5    1    3    3  501    0 -0.46822907421E+01  0.24952385488E+02  0.66527714100E+02  0.71362259855E+02  0.47000000000E+01 0. -1.
        -13    1    4    4    0    0 -0.39731763521E+01 -0.27189588898E+02 -0.58803533758E+02  0.64906975413E+02  0.00000000000E+00 0.  1.
         14    1    4    4    0    0  0.22782487079E+02  0.29564081978E+02 -0.37071390397E+01  0.37507593105E+02  0.00000000000E+00 0. -1.
         -5    1    5    5    0  502 -0.52664739507E+02  0.19669853905E+02  0.11975811220E+03  0.13238041161E+03  0.47000000000E+01 0.  1.
         13    1    6    6    0    0  0.78682446457E+01 -0.62972390514E+02  0.39608348878E+03  0.40113534041E+03  0.00000000000E+00 0. -1.
        -14    1    6    6    0    0  0.30669474877E+02  0.15975658041E+02  0.17329176634E+03  0.17670844525E+03  0.00000000000E+00 0.  1.
</event>
<event>
12    1  0.9246030E-003  0.6882873E+03  0.7818608E-02  0.9738270E-01
         21   -1    0    0  501  502  0.00000000000E+00  0.00000000000E+00  0.23026619799E+04  0.23026619799E+04  0.00000000000E+00 0.  1.
         21   -1    0    0  502  503 -0.00000000000E+00 -0.00000000000E+00 -0.21438322526E+03  0.21438322526E+03  0.00000000000E+00 0. -1.
          6    2    1    2  501    0  0.66216843525E+03 -0.74662115516E+02  0.13034018676E+04  0.14731241485E+04  0.16491470632E+03 0.  0.
         24    2    3    3    0    0  0.49513884821E+03 -0.93241664923E+02  0.10721116319E+04  0.11871847393E+04  0.78280054548E+02 0.  0.
         -6    2    1    2    0  503 -0.66216843525E+03  0.74662115516E+02  0.78487688708E+03  0.10439210567E+04  0.17233100866E+03 0.  0.
        -24    2    5    5    0    0 -0.28086457078E+03  0.11362161507E+02  0.25073827036E+03  0.38458375823E+03  0.77594980768E+02 0.  0.
          5    1    3    3  501    0  0.16702958704E+03  0.18579549408E+02  0.23129023569E+03  0.28593940919E+03  0.47000000000E+01 0. -1.
        -13    1    4    4    0    0  0.11994112319E+03 -0.26127921783E+02  0.34572001700E+03  0.36686628556E+03  0.00000000000E+00 0.  1.
         14    1    4    4    0    0  0.37519772502E+03 -0.67113743140E+02  0.72639161486E+03  0.82031845373E+03  0.00000000000E+00 0. -1.
         -5    1    5    5    0  503 -0.38130386448E+03  0.63299954009E+02  0.53413861671E+03  0.65933729843E+03  0.47000000000E+01 0.  1.
         13    1    6    6    0    0 -0.43132373322E+02 -0.24489470995E+02  0.28625683362E+02  0.57267491354E+02  0.00000000000E+00 0. -1.
        -14    1    6    6    0    0 -0.23773219745E+03  0.35851632501E+02  0.22211258700E+03  0.32731626688E+03  0.00000000000E+00 0.  1.
</event>
<event>
12    1  0.9246030E-003  0.2365695E+03  0.7818608E-02  0.1122222E+00
         21   -1    0    0  503  502  0.00000000000E+00  0.00000000000E+00  0.52725872440E+03  0.52725872440E+03  0.00000000000E+00 0. -1.
         21   -1    0    0  501  503 -0.00000000000E+00 -0.00000000000E+00 -0.10582920653E+03  0.10582920653E+03  0.00000000000E+00 0. -1.
          6    2    1    2  501    0 -0.11479484972E+03  0.11368273336E+03  0.20749592072E+03  0.31413226693E+03  0.17182229954E+03 0.  0.
         24    2    3    3    0    0 -0.18604131393E+02  0.72605473994E+02  0.40613726804E+02  0.11712528183E+03  0.80319289586E+02 0.  0.
         -6    2    1    2    0  502  0.11479484972E+03 -0.11368273336E+03  0.21393359714E+03  0.31895566401E+03  0.17281061955E+03 0.  0.
        -24    2    5    5    0    0  0.68833313173E+02 -0.14523733093E+03  0.17550114760E+03  0.25107857915E+03  0.80049314814E+02 0.  0.
          5    1    3    3  501    0 -0.96190718331E+02  0.41077259364E+02  0.16688219392E+03  0.19700698510E+03  0.47000000000E+01 0. -1.
        -13    1    4    4    0    0 -0.14909653059E+02 -0.15861438906E+01 -0.17329497747E+02  0.22915608195E+02  0.00000000000E+00 0.  1.
         14    1    4    4    0    0 -0.36944783339E+01  0.74191617885E+02  0.57943224551E+02  0.94209673632E+02  0.00000000000E+00 0. -1.
         -5    1    5    5    0  502  0.45961536551E+02  0.31554597577E+02  0.38432449542E+02  0.67877084853E+02  0.47000000000E+01 0.  1.
         13    1    6    6    0    0  0.63704307174E+02 -0.43151313094E+02  0.83681058215E+02  0.11367846796E+03  0.00000000000E+00 0. -1.
        -14    1    6    6    0    0  0.51290059985E+01 -0.10208601784E+03  0.91820089383E+02  0.13740011119E+03  0.00000000000E+00 0.  1.
</event>
<event>
12    1  0.9246030E-003  0.1880481E+03  0.7818608E-02  0.1160591E+00
         21   -1    0    0  503  502  0.00000000000E+00  0.00000000000E+00  0.73113964508E+02  0.73113964508E+02  0.00000000000E+00 0.  1.
         21   -1    0    0  501  503 -0.00000000000E+00 -0.00000000000E+00 -0.63567024333E+03  0.63567024333E+03  0.00000000000E+00 0.  1.
          6    2    1    2  501    0 -0.39566710203E+02  0.64719547087E+02 -0.45596281848E+03  0.49262623231E+03  0.17036539729E+03 0.  0.
         24    2    3    3    0    0 -0.82658132510E+02  0.79344182141E+02 -0.37130496415E+03  0.39639841446E+03  0.78335563322E+02 0.  0.
         -6    2    1    2    0  502  0.39566710203E+02 -0.64719547087E+02 -0.10659346033E+03  0.21615797552E+03  0.17206963783E+03 0.  0.
        -24    2    5    5    0    0 -0.14478114071E+02 -0.59041249768E+02 -0.12644584362E+03  0.15811236231E+03  0.72907357548E+02 0.  0.
          5    1    3    3  501    0  0.43091422307E+02 -0.14624635054E+02 -0.84657854340E+02  0.96227817851E+02  0.47000000000E+01 0. -1.
        -11    1    4    4    0    0 -0.37060330744E+02  0.19690430714E+02 -0.25172771249E+03  0.25520192478E+03  0.00000000000E+00 0.  1.
         12    1    4    4    0    0 -0.45597801766E+02  0.59653751426E+02 -0.11957725165E+03  0.14119648968E+03  0.00000000000E+00 0. -1.
         -5    1    5    5    0  502  0.54044824274E+02 -0.56782973187E+01  0.19852383284E+02  0.58045613213E+02  0.47000000000E+01 0.  1.
         11    1    6    6    0    0  0.29371684109E+02 -0.28293899474E+02 -0.46065466877E+02  0.61524530176E+02  0.00000000000E+00 0. -1.
        -12    1    6    6    0    0 -0.43849798180E+02 -0.30747350295E+02 -0.80380376740E+02  0.96587832130E+02  0.00000000000E+00 0.  1.
</event>
<event>
12    1  0.9246030E-003  0.2005938E+03  0.7818608E-02  0.1149306E+00
         21   -1    0    0  501  502  0.00000000000E+00  0.00000000000E+00  0.12526322630E+03  0.12526322630E+03  0.00000000000E+00 0. -1.
         21   -1    0    0  502  503 -0.00000000000E+00 -0.00000000000E+00 -0.37849564618E+03  0.37849564618E+03  0.00000000000E+00 0. -1.
          6    2    1    2  501    0 -0.74554278293E+02  0.71725399888E+02 -0.28289856784E+02  0.20257886335E+03  0.17185751796E+03 0.  0.
         24    2    3    3    0    0 -0.10986465245E+03  0.64166466425E+02  0.74140246105E+01  0.15158065608E+03  0.82061868536E+02 0.  0.
         -6    2    1    2    0  503  0.74554278293E+02 -0.71725399888E+02 -0.22494256310E+03  0.30118000913E+03  0.17148576560E+03 0.  0.
        -24    2    5    5    0    0  0.84428182171E+02 -0.10335279346E+03 -0.21708976861E+03  0.26680643813E+03  0.79042962582E+02 0.  0.
          5    1    3    3  501    0  0.35310374152E+02  0.75589334632E+01 -0.35703881395E+02  0.50998207268E+02  0.47000000000E+01 0. -1.
        -11    1    4    4    0    0 -0.19928645726E+02 -0.16959023430E+02  0.15110445065E+02  0.30217295482E+02  0.00000000000E+00 0.  1.
         12    1    4    4    0    0 -0.89936006719E+02  0.81125489855E+02 -0.76964204548E+01  0.12136336060E+03  0.00000000000E+00 0. -1.
         -5    1    5    5    0  503 -0.98739038777E+01  0.31627393568E+02 -0.78527944935E+01  0.34373570996E+02  0.47000000000E+01 0.  1.
         11    1    6    6    0    0  0.31955111222E+02 -0.96075741831E+02 -0.15561975067E+03  0.18565878406E+03  0.00000000000E+00 0. -1.
        -12    1    6    6    0    0  0.52473070949E+02 -0.72770516252E+01 -0.61470017940E+02  0.81147654068E+02  0.00000000000E+00 0.  1.
</event>
<event>
12    1  0.9246030E-003  0.1756773E+03  0.7818608E-02  0.1172478E+00
         21   -1    0    0  501  502  0.00000000000E+00  0.00000000000E+00  0.39036364446E+03  0.39036364446E+03  0.00000000000E+00 0. -1.
         21   -1    0    0  502  503 -0.00000000000E+00 -0.00000000000E+00 -0.78656323725E+02  0.78656323725E+02  0.00000000000E+00 0. -1.
          6    2    1    2  501    0 -0.32372733681E+02 -0.11732708906E+02  0.17234880182E+03  0.24610289608E+03  0.17226977572E+03 0.  0.
         24    2    3    3    0    0 -0.13608572560E+02 -0.74289644496E+02  0.11354094287E+03  0.15809199785E+03  0.79983683026E+02 0.  0.
         -6    2    1    2    0  503  0.32372733681E+02  0.11732708906E+02  0.13935851891E+03  0.22291707210E+03  0.17054493219E+03 0.  0.
        -24    2    5    5    0    0 -0.45919004413E+02 -0.31710744627E+01  0.91141232824E+02  0.12965016645E+03  0.79898877711E+02 0.  0.
          5    1    3    3  501    0 -0.18764161121E+02  0.62556935590E+02  0.58807858952E+02  0.88010898231E+02  0.47000000000E+01 0. -1.
        -13    1    4    4    0    0 -0.46651158183E+01 -0.48866851745E+02  0.87143460085E+01  0.49856517442E+02  0.00000000000E+00 0.  1.
         14    1    4    4    0    0 -0.89434567421E+01 -0.25422792750E+02  0.10482659686E+03  0.10823548041E+03  0.00000000000E+00 0. -1.
         -5    1    5    5    0  503  0.78291738094E+02  0.14903783368E+02  0.48217286086E+02  0.93266905652E+02  0.47000000000E+01 0.  1.
         11    1    6    6    0    0  0.18273656411E+02  0.13899640672E+02  0.10703206861E+02  0.25331505414E+02  0.00000000000E+00 0. -1.
        -12    1    6    6    0    0 -0.64192660824E+02 -0.17070715135E+02  0.80438025962E+02  0.10431866103E+03  0.00000000000E+00 0.  1.
</event>
<event>
12    1  0.9246030E-003  0.1858542E+03  0.7818608E-02  0.1163624E+00
         21   -1    0    0  503  502  0.00000000000E+00  0.00000000000E+00  0.13554043943E+04  0.13554043943E+04  0.00000000000E+00 0.  1.
         21   -1    0    0  501  503 -0.00000000000E+00 -0.00000000000E+00 -0.27738493402E+02  0.27738493402E+02  0.00000000000E+00 0.  1.
          6    2    1    2  501    0 -0.43603577034E+02 -0.30786294776E+02  0.42542769584E+03  0.46196128074E+03  0.17196055546E+03 0.  0.
         24    2    3    3    0    0  0.26196088741E+02 -0.28974280414E+02  0.12630638064E+03  0.15476276520E+03  0.80451648281E+02 0.  0.
         -6    2    1    2    0  502  0.43603577034E+02  0.30786294776E+02  0.90223820500E+03  0.92118160692E+03  0.17802445471E+03 0.  0.
        -24    2    5    5    0    0 -0.41240230393E+02  0.41953105051E+02  0.51632212748E+03  0.52586340824E+03  0.80516862685E+02 0.  0.
          5    1    3    3  501    0 -0.69799665776E+02 -0.18120143610E+01  0.29912131521E+03  0.30719851554E+03  0.47000000000E+01 0. -1.
        -11    1    4    4    0    0  0.59150152124E+01 -0.23656143051E+02 -0.22683602790E+01  0.24489711460E+02  0.00000000000E+00 0.  1.
         12    1    4    4    0    0  0.20281073529E+02 -0.53181373632E+01  0.12857474092E+03  0.13027305374E+03  0.00000000000E+00 0. -1.
         -5    1    5    5    0  502  0.84843807428E+02 -0.11166810276E+02  0.38591607752E+03  0.39531819867E+03  0.47000000000E+01 0.  1.
         11    1    6    6    0    0  0.12096990402E+02  0.33148218350E+01  0.12338208008E+02  0.17594220569E+02  0.00000000000E+00 0. -1.
        -12    1    6    6    0    0 -0.53337220795E+02  0.38638283216E+02  0.50398391947E+03  0.50826918768E+03  0.00000000000E+00 0.  1.
</event>
<event>
12    1  0.9246030E-003  0.2534170E+03  0.7818608E-02  0.1111245E+00
         21   -1    0    0  503  502  0.00000000000E+00  0.00000000000E+00  0.96424841475E+02  0.96424841475E+02  0.00000000000E+00 0.  1.
         21   -1    0    0  501  503 -0.00000000000E+00 -0.00000000000E+00 -0.67441509454E+03  0.67441509454E+03  0.00000000000E+00 0. -1.
          6    2    1    2  501    0  0.17910151675E+03  0.50795085247E+02 -0.33568192812E+03  0.42059782534E+03  0.17193801157E+03 0.  0.
         24    2    3    3    0    0  0.10917540748E+03  0.17870916854E+02 -0.13089992081E+03  0.20166536512E+03  0.10628024722E+03 0.  0.
         -6    2    1    2    0  502 -0.17910151675E+03 -0.50795085247E+02 -0.24230832495E+03  0.35024211068E+03  0.17116868220E+03 0.  0.
        -24    2    5    5    0    0 -0.10861474181E+03  0.32359096288E+02 -0.99384652918E+02  0.17043034974E+03  0.79529375853E+02 0.  0.
          5    1    3    3  501    0  0.69926109269E+02  0.32924168394E+02 -0.20478200731E+03  0.21893246022E+03  0.47000000000E+01 0. -1.
        -11    1    4    4    0    0  0.95887101723E+02 -0.23328629931E+02 -0.51699749360E+02  0.11140657671E+03  0.00000000000E+00 0.  1.
         12    1    4    4    0    0  0.13288305761E+02  0.41199546785E+02 -0.79200171455E+02  0.90258788402E+02  0.00000000000E+00 0. -1.
         -5    1    5    5    0  502 -0.70486774940E+02 -0.83154181536E+02 -0.14292367203E+03  0.17981176095E+03  0.47000000000E+01 0.  1.
         11    1    6    6    0    0 -0.66849550581E+01 -0.20587825198E+02 -0.61799500900E+01  0.22510863014E+02  0.00000000000E+00 0. -1.
        -12    1    6    6    0    0 -0.10192978676E+03  0.52946921486E+02 -0.93204702828E+02  0.14791948672E+03  0.00000000000E+00 0.  1.
</event>
<event>
12    1  0.9246030E-003  0.1877681E+03  0.7818608E-02  0.1160996E+00
         21   -1    0    0  501  502  0.00000000000E+00  0.00000000000E+00  0.12956842502E+03  0.12956842502E+03  0.00000000000E+00 0. -1.
         21   -1    0    0  502  503 -0.00000000000E+00 -0.00000000000E+00 -0.27720346792E+03  0.27720346792E+03  0.00000000000E+00 0. -1.
          6    2    1    2  501    0 -0.24593507602E+02  0.70104762448E+02 -0.38273080639E+02  0.18947738106E+03  0.17005096558E+03 0.  0.
         24    2    3    3    0    0  0.82334802143E+01 -0.26782402823E+02 -0.20410391738E+02  0.85525952119E+02  0.78185785776E+02 0.  0.
         -6    2    1    2    0  503  0.24593507602E+02 -0.70104762448E+02 -0.10936196226E+03  0.21729451188E+03  0.17244520223E+03 0.  0.
        -24    2    5    5    0    0  0.60714518387E+02 -0.89513227047E+02 -0.11339508277E+03  0.17582437830E+03  0.79730148939E+02 0.  0.
          5    1    3    3  501    0 -0.32826987816E+02  0.96887165271E+02 -0.17862688900E+02  0.10395142894E+03  0.47000000000E+01 0. -1.
        -13    1    4    4    0    0 -0.20052465711E+02  0.13800122408E+02  0.11227083281E+02  0.26806569317E+02  0.00000000000E+00 0.  1.
         14    1    4    4    0    0  0.28285945925E+02 -0.40582525231E+02 -0.31637475019E+02  0.58719382801E+02  0.00000000000E+00 0. -1.
         -5    1    5    5    0  503 -0.36121010785E+02  0.19408464599E+02  0.40331205096E+01  0.41470133582E+02  0.47000000000E+01 0.  1.
         13    1    6    6    0    0  0.34646016125E+02 -0.33590955456E+01 -0.53815653599E+01  0.35222027227E+02  0.00000000000E+00 0. -1.
        -14    1    6    6    0    0  0.26068502262E+02 -0.86154131502E+02 -0.10801351741E+03  0.14060235108E+03  0.00000000000E+00 0.  1.
</event>
<event>
12    1  0.9246030E-003  0.1905278E+03  0.7818608E-02  0.1159764E+00
         21   -1    0    0  501  502  0.00000000000E+00  0.00000000000E+00  0.24917541645E+02  0.24917541645E+02  0.00000000000E+00 0. -1.
         21   -1    0    0  502  503 -0.00000000000E+00 -0.00000000000E+00 -0.15613765661E+04  0.15613765661E+04  0.00000000000E+00 0. -1.
          6    2    1    2  501    0 -0.47702245667E+02 -0.37550262613E+02 -0.52619197770E+03  0.55962383194E+03  0.18059709137E+03 0.  0.
         24    2    3    3    0    0 -0.62409757631E+02 -0.89629127507E+02 -0.40845218390E+03  0.42995784518E+03  0.78116603589E+02 0.  0.
         -6    2    1    2    0  503  0.47702245667E+02  0.37550262613E+02 -0.10102670467E+04  0.10266702758E+04  0.17241468327E+03 0.  0.
        -24    2    5    5    0    0 -0.97971658039E+01 -0.33595501021E+02 -0.29285491498E+03  0.30343438150E+03  0.71300634646E+02 0.  0.
          5    1    3    3  501    0  0.14707511963E+02  0.52078864893E+02 -0.11773979381E+03  0.12966598676E+03  0.47000000000E+01 0. -1.
        -13    1    4    4    0    0 -0.31802839158E+02  0.72703686152E+01 -0.10360402953E+03  0.10861893838E+03  0.00000000000E+00 0.  1.
         14    1    4    4    0    0 -0.30606918473E+02 -0.96899496122E+02 -0.30484815436E+03  0.32133890680E+03  0.00000000000E+00 0. -1.
         -5    1    5    5    0  503  0.57499411471E+02  0.71145763634E+02 -0.71741213176E+03  0.72323589430E+03  0.47000000000E+01 0.  1.
         13    1    6    6    0    0  0.88882149572E+01 -0.23602260829E+02 -0.27806267568E+02  0.37540053242E+02  0.00000000000E+00 0. -1.
        -14    1    6    6    0    0 -0.18685380761E+02 -0.99932401911E+01 -0.26504864742E+03  0.26589432826E+03  0.00000000000E+00 0.  1.
</event>
<event>
12    1  0.9246030E-003  0.1840970E+03  0.7818608E-02  0.1164334E+00
         21   -1    0    0  501  502  0.00000000000E+00  0.00000000000E+00  0.22010036593E+03  0.22010036593E+03  0.00000000000E+00 0.  1.
         21   -1    0    0  502  503 -0.00000000000E+00 -0.00000000000E+00 -0.15290662433E+03  0.15290662433E+03  0.00000000000E+00 0.  1.
          6    2    1    2  501    0 -0.20456104384E+02 -0.63138760138E+02  0.23056522946E+02  0.18369300152E+03  0.16972495491E+03 0.  0.
         24    2    3    3    0    0 -0.48393583819E+02 -0.75056125236E+02 -0.28905607942E+02  0.12332182136E+03  0.79983601829E+02 0.  0.
         -6    2    1    2    0  503  0.20456104384E+02  0.63138760138E+02  0.44137218659E+02  0.18931398874E+03  0.17171702602E+03 0.  0.
        -24    2    5    5    0    0  0.36894423630E+02  0.49821005792E+02  0.93488844797E+02  0.13541358129E+03  0.75850792905E+02 0.  0.
          5    1    3    3  501    0  0.27937479435E+02  0.11917365098E+02  0.51962130888E+02  0.60371180165E+02  0.47000000000E+01 0. -1.
        -13    1    4    4    0    0 -0.29857274439E+02 -0.20676481349E+02 -0.50278193009E+02  0.62023144149E+02  0.00000000000E+00 0.  1.
         14    1    4    4    0    0 -0.18536309380E+02 -0.54379643887E+02  0.21372585067E+02  0.61298677206E+02  0.00000000000E+00 0. -1.
         -5    1    5    5    0  503 -0.16438319246E+02  0.13317754346E+02 -0.49351626139E+02  0.53900407447E+02  0.47000000000E+01 0.  1.
         11    1    6    6    0    0  0.27724449546E+02 -0.38103605183E+01  0.87381529178E+00  0.27998705382E+02  0.00000000000E+00 0. -1.
        -12    1    6    6    0    0  0.91699740841E+01  0.53631366310E+02  0.92615029505E+02  0.10741487591E+03  0.00000000000E+00 0.  1.
</event>
<event>
12    1  0.9246030E-003  0.1925623E+03  0.7818608E-02  0.1157216E+00
         21   -1    0    0  503  502  0.00000000000E+00  0.00000000000E+00  0.93653410917E+03  0.93653410917E+03  0.00000000000E+00 0. -1.
         21   -1    0    0  501  503 -0.00000000000E+00 -0.00000000000E+00 -0.48775349910E+02  0.48775349910E+02  0.00000000000E+00 0.  1.
          6    2    1    2  501    0 -0.74953118199E+02  0.51841308786E+01  0.22363603600E+03  0.29511575886E+03  0.17730028029E+03 0.  0.
         24    2    3    3    0    0 -0.95174884707E+02 -0.33569606157E+02  0.21482499071E+03  0.25027719851E+03  0.79395984309E+02 0.  0.
         -6    2    1    2    0  502  0.74953118199E+02 -0.51841308786E+01  0.66412272326E+03  0.69019370022E+03  0.17223097030E+03 0.  0.
        -24    2    5    5    0    0  0.37297790391E+02  0.61360165317E+02  0.45154694158E+03  0.46423658033E+03  0.80403774886E+02 0.  0.
          5    1    3    3  501    0  0.20221766507E+02  0.38753737036E+02  0.88110452826E+01  0.44838560346E+02  0.47000000000E+01 0. -1.
        -11    1    4    4    0    0 -0.45824060247E+02 -0.52067850689E+02  0.82136587760E+02  0.10750499812E+03  0.00000000000E+00 0.  1.
         12    1    4    4    0    0 -0.49350824460E+02  0.18498244532E+02  0.13268840295E+03  0.14277220039E+03  0.00000000000E+00 0. -1.
         -5    1    5    5    0  502  0.37655327808E+02 -0.66544296196E+02  0.21257578169E+03  0.22595711989E+03  0.47000000000E+01 0.  1.
         11    1    6    6    0    0  0.54083926175E+02  0.14331415462E+02  0.28164179642E+03  0.28714554155E+03  0.00000000000E+00 0. -1.
        -12    1    6    6    0    0 -0.16786135784E+02  0.47028749855E+02  0.16990514516E+03  0.17709103878E+03  0.00000000000E+00 0.  1.
</event>
<event>
12    1  0.9246030E-003  0.1871420E+03  0.7818608E-02  0.1161565E+00
         21   -1    0    0  501  502  0.00000000000E+00  0.00000000000E+00  0.50426539904E+02  0.50426539904E+02  0.00000000000E+00 0.  1.
         21   -1    0    0  502  503 -0.00000000000E+00 -0.00000000000E+00 -0.72063051500E+03  0.72063051500E+03  0.00000000000E+00 0.  1.
          6    2    1    2  501    0  0.56955620090E+01  0.69323891924E+02 -0.25307554524E+03  0.31475286905E+03  0.17373513046E+03 0.  0.
         24    2    3    3    0    0  0.80079687359E+01  0.11574313376E+03 -0.21076256813E+03  0.25172453201E+03  0.74052544281E+02 0.  0.
         -6    2    1    2    0  503 -0.56955620090E+01 -0.69323891924E+02 -0.41712842985E+03  0.45630418585E+03  0.17140344693E+03 0.  0.
        -24    2    5    5    0    0  0.61344385281E+02 -0.44357775969E+02 -0.21013449191E+03  0.23724656370E+03  0.79991758348E+02 0.  0.
          5    1    3    3  501    0 -0.23124067269E+01 -0.46419241840E+02 -0.42312977117E+02  0.63028337043E+02  0.47000000000E+01 0. -1.
        -13    1    4    4    0    0  0.18673780974E+02  0.55280864689E+02 -0.41310689725E+02  0.71493056881E+02  0.00000000000E+00 0.  1.
         14    1    4    4    0    0 -0.10665812239E+02  0.60462269074E+02 -0.16945187840E+03  0.18023147513E+03  0.00000000000E+00 0. -1.
         -5    1    5    5    0  503 -0.67039947289E+02 -0.24966115954E+02 -0.20699393794E+03  0.21905762215E+03  0.47000000000E+01 0.  1.
         13    1    6    6    0    0  0.75420775578E+02 -0.50950306513E+02 -0.19655792708E+03  0.21660850819E+03  0.00000000000E+00 0. -1.
        -14    1    6    6    0    0 -0.14076390297E+02  0.65925305439E+01 -0.13576564837E+02  0.20638055518E+02  0.00000000000E+00 0.  1.
</event>
<event>
12    1  0.9246030E-003  0.1906934E+03  0.7818608E-02  0.1159741E+00
         21   -1    0    0  503  502  0.00000000000E+00  0.00000000000E+00  0.16238823978E+03  0.16238823978E+03  0.00000000000E+00 0.  1.
         21   -1    0    0  501  503 -0.00000000000E+00 -0.00000000000E+00 -0.26078179428E+03  0.26078179428E+03  0.00000000000E+00 0.  1.
          6    2    1    2  501    0  0.37392266579E+02  0.44616197550E+02 -0.13760020940E+03  0.22848789182E+03  0.17287021836E+03 0.  0.
         24    2    3    3    0    0 -0.41237559534E+02 -0.26766453129E+01 -0.59380889769E+02  0.10782466418E+03  0.79952281952E+02 0.  0.
         -6    2    1    2    0  502 -0.37392266579E+02 -0.44616197550E+02  0.39206654896E+02  0.19468214225E+03  0.18159071573E+03 0.  0.
        -24    2    5    5    0    0 -0.11693537859E+02  0.44012741001E+02  0.46435924198E+02  0.10200061366E+03  0.78574613795E+02 0.  0.
          5    1    3    3  501    0  0.78629826113E+02  0.47292842863E+02 -0.78219319627E+02  0.12066322764E+03  0.47000000000E+01 0. -1.
        -11    1    4    4    0    0 -0.14448703707E+02 -0.83181183808E-01 -0.75220375449E+02  0.76595540605E+02  0.00000000000E+00 0.  1.
         12    1    4    4    0    0 -0.26788855827E+02 -0.25934641291E+01  0.15839485679E+02  0.31229123575E+02  0.00000000000E+00 0. -1.
         -5    1    5    5    0  502 -0.25698728720E+02 -0.88628938551E+02 -0.72292693027E+01  0.92681528586E+02  0.47000000000E+01 0.  1.
         11    1    6    6    0    0  0.14330080709E+02 -0.11207722141E+02 -0.83120981778E+01  0.20001380573E+02  0.00000000000E+00 0. -1.
        -12    1    6    6    0    0 -0.26023618568E+02  0.55220463141E+02  0.54748022376E+02  0.81999233088E+02  0.00000000000E+00 0.  1.
</event>
<event>
12    1  0.9246030E-003  0.3008494E+03  0.7818608E-02  0.1084910E+00
         21   -1    0    0  501  502  0.00000000000E+00  0.00000000000E+00  0.96750187470E+02  0.96750187470E+02  0.00000000000E+00 0.  1.
         21   -1    0    0  502  503 -0.00000000000E+00 -0.00000000000E+00 -0.94773797899E+03  0.94773797899E+03  0.00000000000E+00 0.  1.
          6    2    1    2  501    0 -0.10552045314E+02  0.24639292382E+03 -0.49073699281E+03  0.57561543766E+03  0.17230646356E+03 0.  0.
         24    2    3    3    0    0  0.30641214231E+01  0.26291895501E+03 -0.42253058108E+03  0.50397247356E+03  0.79500920837E+02 0.  0.
         -6    2    1    2    0  503  0.10552045314E+02 -0.24639292382E+03 -0.36025079871E+03  0.46887272880E+03  0.17099760020E+03 0.  0.
        -24    2    5    5    0    0  0.39566635917E+02 -0.21934375742E+03 -0.22032990550E+03  0.32336173188E+03  0.79626250630E+02 0.  0.
          5    1    3    3  501    0 -0.13616166737E+02 -0.16526031186E+02 -0.68206411739E+02  0.71642964104E+02  0.47000000000E+01 0. -1.
        -13    1    4    4    0    0 -0.34981783521E+02  0.16325060399E+03 -0.23593530805E+03  0.28903279133E+03  0.00000000000E+00 0.  1.
         14    1    4    4    0    0  0.38045904944E+02  0.99668351019E+02 -0.18659527303E+03  0.21493968223E+03  0.00000000000E+00 0. -1.
         -5    1    5    5    0  503 -0.29014590602E+02 -0.27049166408E+02 -0.13992089320E+03  0.14551099692E+03  0.47000000000E+01 0.  1.
         13    1    6    6    0    0  0.31256706392E+02 -0.20108175146E+02 -0.38192755170E+02  0.53291715581E+02  0.00000000000E+00 0. -1.
        -14    1    6    6    0    0  0.83099295247E+01 -0.19923558227E+03 -0.18213715033E+03  0.27007001630E+03  0.00000000000E+00 0.  1.
</event>
<event>
12    1  0.9246030E-003  0.2077393E+03  0.7818608E-02  0.1144050E+00
         21   -1    0    0  501  502  0.00000000000E+00  0.00000000000E+00  0.76673367360E+03  0.76673367360E+03  0.00000000000E+00 0. -1.
         21   -1    0    0  502  503 -0.00000000000E+00 -0.00000000000E+00 -0.62659901190E+02  0.62659901190E+02  0.00000000000E+00 0. -1.
          6    2    1    2  501    0 -0.35792491300E+02  0.10609076788E+03  0.49086688002E+03  0.53171459341E+03  0.17097883342E+03 0.  0.
         24    2    3    3    0    0  0.30509393882E+02  0.22169682428E+02  0.14246545156E+03  0.16723642682E+03  0.79052511879E+02 0.  0.
         -6    2    1    2    0  503  0.35792491300E+02 -0.10609076788E+03  0.21320689239E+03  0.29767898138E+03  0.17498355218E+03 0.  0.
        -24    2    5    5    0    0  0.68183446964E+02 -0.47760981364E+02  0.19670265374E+03  0.22878763289E+03  0.81986298811E+02 0.  0.
          5    1    3    3  501    0 -0.66301885182E+02  0.83921085451E+02  0.34840142847E+03  0.36447816659E+03  0.47000000000E+01 0. -1.
        -13    1    4    4    0    0  0.42599454410E+02 -0.16050521964E+02  0.93190289419E+02  0.10371481482E+03  0.00000000000E+00 0.  1.
         14    1    4    4    0    0 -0.12090060528E+02  0.38220204392E+02  0.49275162137E+02  0.63521611999E+02  0.00000000000E+00 0. -1.
         -5    1    5    5    0  503 -0.32390955664E+02 -0.58329786515E+02  0.16504238642E+02  0.68891348491E+02  0.47000000000E+01 0.  1.
         13    1    6    6    0    0  0.21414339381E-01 -0.47940475192E+02  0.68790785884E+02  0.83847849363E+02  0.00000000000E+00 0. -1.
        -14    1    6    6    0    0  0.68162032624E+02  0.17949382807E+00  0.12791186786E+03  0.14493978353E+03  0.00000000000E+00 0.  1.
</event>
<event>
12    1  0.9246030E-003  0.1951697E+03  0.7818608E-02  0.1153906E+00
         21   -1    0    0  501  502  0.00000000000E+00  0.00000000000E+00  0.12857632437E+03  0.12857632437E+03  0.00000000000E+00 0. -1.
         21   -1    0    0  502  503 -0.00000000000E+00 -0.00000000000E+00 -0.30029315630E+03  0.30029315630E+03  0.00000000000E+00 0. -1.
          6    2    1    2  501    0  0.85035933541E+01 -0.90803955070E+02 -0.60451671759E+02  0.20431743518E+03  0.17255010966E+03 0.  0.
         24    2    3    3    0    0 -0.84344851733E+01  0.17784415952E+02 -0.19791251125E+02  0.87041296808E+02  0.82444331146E+02 0.  0.
         -6    2    1    2    0  503 -0.85035933541E+01  0.90803955070E+02 -0.11126516017E+03  0.22455204549E+03  0.17241234268E+03 0.  0.
        -24    2    5    5    0    0  0.43204765412E+02  0.27828786802E+01 -0.33892583918E+02  0.96372211617E+02  0.79148592908E+02 0.  0.
          5    1    3    3  501    0  0.16938078527E+02 -0.10858837102E+03 -0.40660420634E+02  0.11727613837E+03  0.47000000000E+01 0. -1.
        -13    1    4    4    0    0 -0.14403245975E+02  0.22104039389E+02  0.28124713835E+02  0.38562178106E+02  0.00000000000E+00 0.  1.
         14    1    4    4    0    0  0.59687608015E+01 -0.43196234372E+01 -0.47915964960E+02  0.48479118703E+02  0.00000000000E+00 0. -1.
         -5    1    5    5    0  503 -0.51708358766E+02  0.88021076390E+02 -0.77372576253E+02  0.12817983387E+03  0.47000000000E+01 0.  1.
         11    1    6    6    0    0 -0.26469914753E+01  0.34409102600E+02 -0.12521575139E+02  0.36712160785E+02  0.00000000000E+00 0. -1.
        -12    1    6    6    0    0  0.45851756887E+02 -0.31626223919E+02 -0.21371008780E+02  0.59660050832E+02  0.00000000000E+00 0.  1.
</event>
<event>
12    1  0.9246030E-003  0.2494331E+03  0.7818608E-02  0.1114119E+00
         21   -1    0    0  503  502  0.00000000000E+00  0.00000000000E+00  0.24929380410E+03  0.24929380410E+03  0.00000000000E+00 0. -1.
         21   -1    0    0  501  503 -0.00000000000E+00 -0.00000000000E+00 -0.25338657216E+03  0.25338657216E+03  0.00000000000E+00 0. -1.
          6    2    1    2  501    0  0.16892471819E+03  0.57791264042E+02  0.38699121507E+02  0.25241726272E+03  0.17418800734E+03 0.  0.
         24    2    3    3    0    0  0.72183178108E+02  0.94004287174E+02  0.34179025655E+02  0.14891446137E+03  0.83427176631E+02 0.  0.
         -6    2    1    2    0  502 -0.16892471819E+03 -0.57791264042E+02 -0.42791889564E+02  0.25026311353E+03  0.17007377683E+03 0.  0.
        -24    2    5    5    0    0 -0.15124497605E+03  0.12915126859E+02 -0.17344469746E+02  0.17292212717E+03  0.80990049701E+02 0.  0.
          5    1    3    3  501    0  0.96741540084E+02 -0.36213023131E+02  0.45200958511E+01  0.10350280136E+03  0.47000000000E+01 0. -1.
        -11    1    4    4    0    0  0.22836528295E+02  0.20284224422E+02  0.50205471544E+02  0.58766879770E+02  0.00000000000E+00 0.  1.
         12    1    4    4    0    0  0.49346649813E+02  0.73720062752E+02 -0.16026445889E+02  0.90147581597E+02  0.00000000000E+00 0. -1.
         -5    1    5    5    0  502 -0.17679742139E+02 -0.70706390901E+02 -0.25447419818E+02  0.77340986364E+02  0.47000000000E+01 0.  1.
         11    1    6    6    0    0 -0.12176214544E+03 -0.13615397251E+02 -0.37900760943E+02  0.12824923697E+03  0.00000000000E+00 0. -1.
        -12    1    6    6    0    0 -0.29482830615E+02  0.26530524110E+02  0.20556291197E+02  0.44672890195E+02  0.00000000000E+00 0.  1.
</event>
<event>
12    1  0.9246030E-003  0.2754860E+03  0.7818608E-02  0.1098266E+00
         21   -1    0    0  503  502  0.00000000000E+00  0.00000000000E+00  0.12752811935E+03  0.12752811935E+03  0.00000000000E+00 0. -1.
         21   -1    0    0  501  503 -0.00000000000E+00 -0.00000000000E+00 -0.61911528686E+03  0.61911528686E+03  0.00000000000E+00 0. -1.
          6    2    1    2  501    0  0.21424557222E+03 -0.10814408430E+02 -0.17053813969E+03  0.32399967325E+03  0.17284216653E+03 0.  0.
         24    2    3    3    0    0  0.21556172019E+03 -0.45617996803E+02 -0.16800679540E+03  0.28876446766E+03  0.81306688752E+02 0.  0.
         -6    2    1    2    0  502 -0.21424557222E+03  0.10814408430E+02 -0.32104902782E+03  0.42264373296E+03  0.17186369629E+03 0.  0.
        -24    2    5    5    0    0 -0.98473576786E+02  0.67500863057E+02 -0.19559422011E+03  0.24270622203E+03  0.79973742137E+02 0.  0.
          5    1    3    3  501    0 -0.13161479740E+01  0.34803588373E+02 -0.25313442846E+01  0.35235205590E+02  0.47000000000E+01 0. -1.
        -11    1    4    4    0    0  0.64292561881E+02 -0.51216475372E+02 -0.73822769279E+02  0.11048285897E+03  0.00000000000E+00 0.  1.
         12    1    4    4    0    0  0.15126915831E+03  0.55984785698E+01 -0.94184026122E+02  0.17828160868E+03  0.00000000000E+00 0. -1.
         -5    1    5    5    0  502 -0.11577199543E+03 -0.56686454627E+02 -0.12545480771E+03  0.17993751093E+03  0.47000000000E+01 0.  1.
         11    1    6    6    0    0 -0.75921542328E+02  0.23929752099E+02 -0.16921204517E+03  0.18700114934E+03  0.00000000000E+00 0. -1.
        -12    1    6    6    0    0 -0.22552034458E+02  0.43571110957E+02 -0.26382174944E+02  0.55705072686E+02  0.00000000000E+00 0.  1.
</event>
<event>
12    1  0.9246030E-003  0.2616096E+03  0.7818608E-02  0.1108030E+00
         21   -1    0    0  503  502  0.00000000000E+00  0.00000000000E+00  0.59245149958E+03  0.59245149958E+03  0.00000000000E+00 0.  1.
         21   -1    0    0  501  503 -0.00000000000E+00 -0.00000000000E+00 -0.11193760729E+03  0.11193760729E+03  0.00000000000E+00 0. -1.
          6    2    1    2  501    0 -0.19470101656E+03 -0.23765144694E+02  0.28926789995E+03  0.39001983906E+03  0.17310773803E+03 0.  0.
         24    2    3    3    0    0 -0.21876884038E+03 -0.26882350869E+02  0.24103852207E+03  0.33582445172E+03  0.78077057715E+02 0.  0.
         -6    2    1    2    0  502  0.19470101656E+03  0.23765144694E+02  0.19124599235E+03  0.31436926782E+03  0.15420680596E+03 0.  0.
        -24    2    5    5    0    0  0.18998574715E+03  0.18487335845E+02  0.11567973567E+03  0.23832692316E+03  0.83555702086E+02 0.  0.
          5    1    3    3  501    0  0.24067823825E+02  0.31172061749E+01  0.48229377879E+02  0.54195387337E+02  0.47000000000E+01 0. -1.
        -11    1    4    4    0    0 -0.88238126987E+02  0.19482037545E+02  0.62592494676E+02  0.10992423405E+03  0.00000000000E+00 0.  1.
         12    1    4    4    0    0 -0.13053071340E+03 -0.46364388413E+02  0.17844602739E+03  0.22590021767E+03  0.00000000000E+00 0. -1.
         -5    1    5    5    0  502  0.47152694083E+01  0.52778088487E+01  0.75566256682E+02  0.76042344656E+02  0.47000000000E+01 0.  1.
         11    1    6    6    0    0  0.14749268658E+03 -0.32351126653E+01  0.47270683226E+02  0.15491635175E+03  0.00000000000E+00 0. -1.
        -12    1    6    6    0    0  0.42493060575E+02  0.21722448510E+02  0.68409052445E+02  0.83410571408E+02  0.00000000000E+00 0.  1.
</event>
<event>
12    1  0.9246030E-003  0.1965328E+03  0.7818608E-02  0.1152706E+00
         21   -1    0    0  503  502  0.00000000000E+00  0.00000000000E+00  0.17573372176E+02  0.17573372176E+02  0.00000000000E+00 0. -1.
         21   -1    0    0  501  503 -0.00000000000E+00 -0.00000000000E+00 -0.22800639616E+04  0.22800639616E+04  0.00000000000E+00 0.  1.
          6    2    1    2  501    0 -0.94732863090E+02 -0.18665916815E+01 -0.91275998369E+03  0.93367870439E+03  0.17218401692E+03 0.  0.
         24    2    3    3    0    0  0.64360069950E+01 -0.21736883257E+02 -0.57214461089E+03  0.57777016143E+03  0.77168577725E+02 0.  0.
         -6    2    1    2    0  502  0.94732863090E+02  0.18665916815E+01 -0.13497306057E+04  0.13639586294E+04  0.17214132310E+03 0.  0.
        -24    2    5    5    0    0  0.24273812316E+02  0.25887303130E+01 -0.11356597084E+04  0.11385402664E+04  0.77168939809E+02 0.  0.
          5    1    3    3  501    0 -0.10116887008E+03  0.19870291576E+02 -0.34061537280E+03  0.35590854295E+03  0.47000000000E+01 0. -1.
        -11    1    4    4    0    0 -0.66889962317E+01  0.23421980326E+02 -0.34220058669E+03  0.34306642704E+03  0.00000000000E+00 0.  1.
         12    1    4    4    0    0  0.13125003227E+02 -0.45158863583E+02 -0.22994402421E+03  0.23470373439E+03  0.00000000000E+00 0. -1.
         -5    1    5    5    0  502  0.70459050774E+02 -0.72213863154E+00 -0.21407089728E+03  0.22541836301E+03  0.47000000000E+01 0.  1.
         11    1    6    6    0    0 -0.26028029507E+02  0.13622869116E+02 -0.39122399537E+03  0.39232544582E+03  0.00000000000E+00 0. -1.
        -12    1    6    6    0    0  0.50301841823E+02 -0.11034138803E+02 -0.74443571307E+03  0.74621482054E+03  0.00000000000E+00 0.  1.
</event>
<event>
12    1  0.9246030E-003  0.3061543E+03  0.7818608E-02  0.1082211E+00
         21   -1    0    0  503  502  0.00000000000E+00  0.00000000000E+00  0.14574186289E+04  0.14574186289E+04  0.00000000000E+00 0. -1.
         21   -1    0    0  501  503 -0.00000000000E+00 -0.00000000000E+00 -0.95167485560E+02  0.95167485560E+02  0.00000000000E+00 0. -1.
          6    2    1    2  501    0 -0.87606997562E+01 -0.25275782381E+03  0.23897312247E+03  0.38833357152E+03  0.17242836819E+03 0.  0.
         24    2    3    3    0    0  0.52118455169E+02 -0.21121134602E+03  0.19280076025E+03  0.30123386800E+03  0.79013568600E+02 0.  0.
         -6    2    1    2    0  502  0.87606997562E+01  0.25275782381E+03  0.11232780209E+04  0.11642525430E+04  0.17253174838E+03 0.  0.
        -24    2    5    5    0    0  0.27166067742E+02  0.25993264234E+03  0.91729578487E+03  0.95727185026E+03  0.81454677980E+02 0.  0.
          5    1    3    3  501    0 -0.60879154925E+02 -0.41546477791E+02  0.46172362214E+02  0.87099703522E+02  0.47000000000E+01 0. -1.
        -11    1    4    4    0    0  0.34797603483E+00  0.61335988315E+01  0.13241627080E+02  0.14597356256E+02  0.00000000000E+00 0.  1.
         12    1    4    4    0    0  0.51770479134E+02 -0.21734494485E+03  0.17955913317E+03  0.28663651175E+03  0.00000000000E+00 0. -1.
         -5    1    5    5    0  502 -0.18405367985E+02 -0.71748185362E+01  0.20598223603E+03  0.20698069270E+03  0.47000000000E+01 0.  1.
         11    1    6    6    0    0  0.21753867538E+02  0.53891826968E+02  0.11405258573E+03  0.12800606266E+03  0.00000000000E+00 0. -1.
        -12    1    6    6    0    0  0.54122002038E+01  0.20604081538E+03  0.80324319914E+03  0.82926578760E+03  0.00000000000E+00 0.  1.
</event>
<event>
12    1  0.9246030E-003  0.2528580E+03  0.7818608E-02  0.1113958E+00
         21   -1    0    0  503  502  0.00000000000E+00  0.00000000000E+00  0.17906877005E+03  0.17906877005E+03  0.00000000000E+00 0.  1.
         21   -1    0    0  501  503 -0.00000000000E+00 -0.00000000000E+00 -0.42800151787E+03  0.42800151787E+03  0.00000000000E+00 0. -1.
          6    2    1    2  501    0  0.93429388992E+02 -0.13418036971E+03 -0.26823723821E+03  0.36863043832E+03  0.19288276686E+03 0.  0.
         24    2    3    3    0    0 -0.15527836295E+02 -0.26924280584E+01 -0.68759507750E+02  0.10600102129E+03  0.79120059018E+02 0.  0.
         -6    2    1    2    0  502 -0.93429388992E+02  0.13418036971E+03  0.19304490391E+02  0.23843984959E+03  0.17247456677E+03 0.  0.
        -24    2    5    5    0    0  0.45802229245E+01  0.11125395279E+03  0.10703670880E+02  0.13730840682E+03  0.79627944594E+02 0.  0.
          5    1    3    3  501    0  0.10895722529E+03 -0.13148794165E+03 -0.19947773046E+03  0.26262941703E+03  0.47000000000E+01 0. -1.
        -11    1    4    4    0    0 -0.19290381443E+01 -0.39817437309E+02 -0.43894822035E+02  0.59295066435E+02  0.00000000000E+00 0.  1.
         12    1    4    4    0    0 -0.13598798150E+02  0.37125009250E+02 -0.24864685715E+02  0.46705954852E+02  0.00000000000E+00 0. -1.
         -5    1    5    5    0  502 -0.98009611916E+02  0.22926416915E+02  0.86008195116E+01  0.10113144277E+03  0.47000000000E+01 0.  1.
         11    1    6    6    0    0 -0.17607027087E+02  0.11152597024E+03  0.55471060129E+00  0.11290862299E+03  0.00000000000E+00 0. -1.
        -12    1    6    6    0    0  0.22187250012E+02 -0.27201744821E+00  0.10148960279E+02  0.24399783837E+02  0.00000000000E+00 0.  1.
</event>
<event>
12    1  0.9246030E-003  0.2288204E+03  0.7818608E-02  0.1127632E+00
         21   -1    0    0  503  502  0.00000000000E+00  0.00000000000E+00  0.63798904487E+03  0.63798904487E+03  0.00000000000E+00 0.  1.
         21   -1    0    0  501  503 -0.00000000000E+00 -0.00000000000E+00 -0.10070369515E+03  0.10070369515E+03  0.00000000000E+00 0.  1.
          6    2    1    2  501    0 -0.79413420176E+02  0.12725498015E+03  0.10882233171E+03  0.25337928020E+03  0.17279594462E+03 0.  0.
         24    2    3    3    0    0 -0.74994120559E+02  0.13447843173E+03  0.34594932846E+02  0.17852271600E+03  0.83456479842E+02 0.  0.
         -6    2    1    2    0  502  0.79413420176E+02 -0.12725498015E+03  0.42846301800E+03  0.48531345983E+03  0.17160499764E+03 0.  0.
        -24    2    5    5    0    0  0.11687267088E+03 -0.64746596196E+02  0.27982004411E+03  0.31970151214E+03  0.77836089723E+02 0.  0.
          5    1    3    3  501    0 -0.44192996169E+01 -0.72234515816E+01  0.74227398866E+02  0.74856564203E+02  0.47000000000E+01 0. -1.
        -13    1    4    4    0    0 -0.85124488506E+02  0.12780565350E+03  0.47571551933E+02  0.16075918687E+03  0.00000000000E+00 0.  1.
         14    1    4    4    0    0  0.10130367947E+02  0.66727782385E+01 -0.12976619087E+02  0.17763529128E+02  0.00000000000E+00 0. -1.
         -5    1    5    5    0  502 -0.37459250699E+02 -0.62508383957E+02  0.14864297389E+03  0.16561194768E+03  0.47000000000E+01 0.  1.
         13    1    6    6    0    0  0.45789205462E+02 -0.10463290061E+01  0.16046851505E+03  0.16687687216E+03  0.00000000000E+00 0. -1.
        -14    1    6    6    0    0  0.71083465413E+02 -0.63700267190E+02  0.11935152907E+03  0.15282463998E+03  0.00000000000E+00 0.  1.
</event>
<event>
12    1  0.9246030E-003  0.1963764E+03  0.7818608E-02  0.1153201E+00
         21   -1    0    0  501  502  0.00000000000E+00  0.00000000000E+00  0.15699899896E+03  0.15699899896E+03  0.00000000000E+00 0.  1.
         21   -1    0    0  502  503 -0.00000000000E+00 -0.00000000000E+00 -0.47054497731E+03  0.47054497731E+03  0.00000000000E+00 0.  1.
          6    2    1    2  501    0  0.40312362913E+02 -0.83587580759E+02  0.60824040527E+02  0.20558024683E+03  0.17306560525E+03 0.  0.
         24    2    3    3    0    0  0.38865890717E+01 -0.13530284733E+02 -0.28740272392E+02  0.86086657565E+02  0.79917051835E+02 0.  0.
         -6    2    1    2    0  503 -0.40312362913E+02  0.83587580759E+02 -0.37437001888E+03  0.42196372945E+03  0.17113885495E+03 0.  0.
        -24    2    5    5    0    0 -0.75374666518E+02  0.16571256562E+02 -0.27821509142E+03  0.29953655551E+03  0.79765682470E+02 0.  0.
          5    1    3    3  501    0  0.36425773842E+02 -0.70057296026E+02  0.89564312919E+02  0.11949358926E+03  0.47000000000E+01 0. -1.
        -11    1    4    4    0    0  0.14164011302E+02 -0.43085492804E+02 -0.27979803600E+01  0.45440154053E+02  0.00000000000E+00 0.  1.
         12    1    4    4    0    0 -0.10277422230E+02  0.29555208071E+02 -0.25942292032E+02  0.40646503512E+02  0.00000000000E+00 0. -1.
         -5    1    5    5    0  503  0.35062303605E+02  0.67016324196E+02 -0.96154927459E+02  0.12242717393E+03  0.47000000000E+01 0.  1.
         13    1    6    6    0    0 -0.85463306116E+02  0.33074269989E+02 -0.23093422067E+03  0.24845220527E+03  0.00000000000E+00 0. -1.
        -14    1    6    6    0    0  0.10088639598E+02 -0.16503013427E+02 -0.47280870752E+02  0.51084350247E+02  0.00000000000E+00 0.  1.
</event>
<event>
12    1  0.9246030E-003  0.1743550E+03  0.7818608E-02  0.1176410E+00
         21   -1    0    0  501  502  0.00000000000E+00  0.00000000000E+00  0.12636259329E+03  0.12636259329E+03  0.00000000000E+00 0.  1.
         21   -1    0    0  502  503 -0.00000000000E+00 -0.00000000000E+00 -0.23164687309E+03  0.23164687309E+03  0.00000000000E+00 0.  1.
          6    2    1    2  501    0 -0.20159448111E+02  0.20642230178E+02 -0.81490592231E+02  0.18203842431E+03  0.16020226681E+03 0.  0.
         24    2    3    3    0    0 -0.11171730874E+02  0.68972214058E+02 -0.79613318972E+02  0.13262000105E+03  0.79798560377E+02 0.  0.
         -6    2    1    2    0  503  0.20159448111E+02 -0.20642230178E+02 -0.23793687573E+02  0.17597104206E+03  0.17195104845E+03 0.  0.
        -24    2    5    5    0    0 -0.52664621193E+02  0.83533157790E+01 -0.11452111375E+02  0.96482104102E+02  0.79588349318E+02 0.  0.
          5    1    3    3  501    0 -0.89877172368E+01 -0.48329983880E+02 -0.18772732596E+01  0.49418423264E+02  0.47000000000E+01 0. -1.
        -13    1    4    4    0    0 -0.13349884318E+02  0.48176312662E+02  0.32439234437E+00  0.49992816918E+02  0.00000000000E+00 0.  1.
         14    1    4    4    0    0  0.21781534439E+01  0.20795901396E+02 -0.79937711316E+02  0.82627184133E+02  0.00000000000E+00 0. -1.
         -5    1    5    5    0  503  0.72824069304E+02 -0.28995545957E+02 -0.12341576198E+02  0.79488937963E+02  0.47000000000E+01 0.  1.
         11    1    6    6    0    0  0.17396290269E+01  0.20667548251E+02  0.22960008319E+02  0.30940844233E+02  0.00000000000E+00 0. -1.
        -12    1    6    6    0    0 -0.54404250220E+02 -0.12314232472E+02 -0.34412119694E+02  0.65541259869E+02  0.00000000000E+00 0.  1.
</event>
<event>
12    1  0.9246030E-003  0.3168303E+03  0.7818608E-02  0.1077124E+00
         21   -1    0    0  503  502  0.00000000000E+00  0.00000000000E+00  0.16543311427E+03  0.16543311427E+03  0.00000000000E+00 0. -1.
         21   -1    0    0  501  503 -0.00000000000E+00 -0.00000000000E+00 -0.72062599220E+03  0.72062599220E+03  0.00000000000E+00 0. -1.
          6    2    1    2  501    0  0.25986670330E+03 -0.55147625494E+02 -0.45375414359E+03  0.55338618817E+03  0.17254415769E+03 0.  0.
         24    2    3    3    0    0  0.58539910151E+02 -0.23986263211E+02 -0.22804472793E+03  0.24929682884E+03  0.78372501758E+02 0.  0.
         -6    2    1    2    0  502 -0.25986670330E+03  0.55147625494E+02 -0.10143873433E+03  0.33267291830E+03  0.17265424891E+03 0.  0.
        -24    2    5    5    0    0 -0.22166827258E+03  0.33395684697E+02 -0.13819593582E+03  0.27517988482E+03  0.79835815940E+02 0.  0.
          5    1    3    3  501    0  0.20132679315E+03 -0.31161362283E+02 -0.22570941566E+03  0.30408935933E+03  0.47000000000E+01 0. -1.
        -13    1    4    4    0    0  0.22887667337E+02 -0.48533186372E+02 -0.15895324687E+03  0.16776605791E+03  0.00000000000E+00 0.  1.
         14    1    4    4    0    0  0.35652242814E+02  0.24546923161E+02 -0.69091481056E+02  0.81530770933E+02  0.00000000000E+00 0. -1.
         -5    1    5    5    0  502 -0.38198430715E+02  0.21751940797E+02  0.36757201488E+02  0.57493033480E+02  0.47000000000E+01 0.  1.
         13    1    6    6    0    0 -0.17707759859E+03  0.56104691842E+02 -0.12336958979E+03  0.22298939000E+03  0.00000000000E+00 0. -1.
        -14    1    6    6    0    0 -0.44590673996E+02 -0.22709007145E+02 -0.14826346028E+02  0.52190494819E+02  0.00000000000E+00 0.  1.
</event>
<event>
12    1  0.9246030E-003  0.1816459E+03  0.7818608E-02  0.1166255E+00
         21   -1    0    0  501  502  0.00000000000E+00  0.00000000000E+00  0.17072366080E+04  0.17072366080E+04  0.00000000000E+00 0. -1.
         21   -1    0    0  502  503 -0.00000000000E+00 -0.00000000000E+00 -0.33135287855E+02  0.33135287855E+02  0.00000000000E+00 0.  1.
          6    2    1    2  501    0 -0.29989191716E+02  0.48517136290E+02  0.13989187504E+04  0.14106437196E+04  0.17230429253E+03 0.  0.
         24    2    3    3    0    0 -0.49103154837E+02  0.83354088733E+02  0.12502220716E+04  0.12566575217E+04  0.82303552043E+02 0.  0.
         -6    2    1    2    0  503  0.29989191716E+02 -0.48517136290E+02  0.27518256971E+03  0.32972817625E+03  0.17245857301E+03 0.  0.
        -24    2    5    5    0    0  0.83427958711E+02 -0.42401839511E+02  0.15461702470E+03  0.19762503731E+03  0.79944297837E+02 0.  0.
          5    1    3    3  501    0  0.19113963122E+02 -0.34836952443E+02  0.14869667885E+03  0.15398619789E+03  0.47000000000E+01 0. -1.
        -11    1    4    4    0    0 -0.39709400596E+02  0.17838815407E+02  0.21732243485E+03  0.22163957345E+03  0.00000000000E+00 0.  1.
         12    1    4    4    0    0 -0.93937542413E+01  0.65515273326E+02  0.10328996367E+04  0.10350179483E+04  0.00000000000E+00 0. -1.
         -5    1    5    5    0  503 -0.53438766995E+02 -0.61152967789E+01  0.12056554501E+03  0.13210313894E+03  0.47000000000E+01 0.  1.
         13    1    6    6    0    0 -0.12597136210E+01  0.18455614930E+02  0.18632660376E+02  0.26255906641E+02  0.00000000000E+00 0. -1.
        -14    1    6    6    0    0  0.84687672332E+02 -0.60857454441E+02  0.13598436433E+03  0.17136913067E+03  0.00000000000E+00 0.  1.
</event>
<event>
12    1  0.9246030E-003  0.1762621E+03  0.7818608E-02  0.1171898E+00
         21   -1    0    0  501  502  0.00000000000E+00  0.00000000000E+00  0.60121447541E+03  0.60121447541E+03  0.00000000000E+00 0.  1.
         21   -1    0    0  502  503 -0.00000000000E+00 -0.00000000000E+00 -0.52979339432E+02  0.52979339432E+02  0.00000000000E+00 0.  1.
          6    2    1    2  501    0  0.30132474462E+02 -0.60515130695E+00  0.33318588875E+03  0.37613897425E+03  0.17192835504E+03 0.  0.
         24    2    3    3    0    0  0.31684915873E+02  0.57960241275E+02  0.15595192199E+03  0.18941381726E+03  0.84813140098E+02 0.  0.
         -6    2    1    2    0  503 -0.30132474462E+02  0.60515130695E+00  0.21504924723E+03  0.27805484059E+03  0.17366629902E+03 0.  0.
        -24    2    5    5    0    0 -0.36769305814E+02 -0.83957667936E+01  0.35094148995E+02  0.97691342513E+02  0.83003182820E+02 0.  0.
          5    1    3    3  501    0 -0.15524414117E+01 -0.58565392582E+02  0.17723396676E+03  0.18672515700E+03  0.47000000000E+01 0. -1.
        -13    1    4    4    0    0  0.16878353467E+01  0.24674461523E+02 -0.23963022043E+01  0.24847939631E+02  0.00000000000E+00 0.  1.
         14    1    4    4    0    0  0.29997080527E+02  0.33285779752E+02  0.15834822419E+03  0.16456587763E+03  0.00000000000E+00 0. -1.
         -5    1    5    5    0  503  0.66368313520E+01  0.90009181005E+01  0.17995509824E+03  0.18036349808E+03  0.47000000000E+01 0.  1.
         13    1    6    6    0    0  0.16870335523E+02  0.11395735293E+02  0.35030656341E+02  0.40516883977E+02  0.00000000000E+00 0. -1.
        -14    1    6    6    0    0 -0.53639641336E+02 -0.19791502087E+02  0.63492653579E-01  0.57174458536E+02  0.00000000000E+00 0.  1.
</event>
<event>
12    1  0.9246030E-003  0.2112217E+03  0.7818608E-02  0.1140683E+00
         21   -1    0    0  503  502  0.00000000000E+00  0.00000000000E+00  0.18653222094E+03  0.18653222094E+03  0.00000000000E+00 0. -1.
         21   -1    0    0  501  503 -0.00000000000E+00 -0.00000000000E+00 -0.24797310016E+03  0.24797310016E+03  0.00000000000E+00 0. -1.
          6    2    1    2  501    0  0.76778444029E+01  0.12229028373E+03 -0.72670751441E+02  0.22298527629E+03  0.17154454971E+03 0.  0.
         24    2    3    3    0    0 -0.23493890186E+02  0.14576938375E+03 -0.42136166815E+02  0.17321182922E+03  0.80163614637E+02 0.  0.
         -6    2    1    2    0  502 -0.76778444029E+01 -0.12229028373E+03  0.11229872220E+02  0.21152004481E+03  0.17204870397E+03 0.  0.
        -24    2    5    5    0    0 -0.47101556037E+01 -0.64611544892E+02  0.74763485616E+02  0.12553019586E+03  0.77274924735E+02 0.  0.
          5    1    3    3  501    0  0.31171734589E+02 -0.23479100017E+02 -0.30534584627E+02  0.49773447070E+02  0.47000000000E+01 0. -1.
        -13    1    4    4    0    0 -0.47160563227E+02  0.77832716170E+02 -0.24243745485E+01  0.91038058098E+02  0.00000000000E+00 0.  1.
         14    1    4    4    0    0  0.23666673042E+02  0.67936667581E+02 -0.39711792266E+02  0.82173771119E+02  0.00000000000E+00 0. -1.
         -5    1    5    5    0  502 -0.29676887992E+01 -0.57678738841E+02 -0.63533613397E+02  0.85989848949E+02  0.47000000000E+01 0.  1.
         11    1    6    6    0    0  0.17008800687E+01 -0.76611008403E+02  0.36419272815E+02  0.84843992326E+02  0.00000000000E+00 0. -1.
        -12    1    6    6    0    0 -0.64110356724E+01  0.11999463510E+02  0.38344212801E+02  0.40686203537E+02  0.00000000000E+00 0.  1.
</event>
<event>
12    1  0.9246030E-003  0.2279804E+03  0.7818608E-02  0.1128171E+00
         21   -1    0    0  501  502  0.00000000000E+00  0.00000000000E+00  0.15901857757E+03  0.15901857757E+03  0.00000000000E+00 0.  1.
         21   -1    0    0  502  503 -0.00000000000E+00 -0.00000000000E+00 -0.50849887305E+03  0.50849887305E+03  0.00000000000E+00 0.  1.
          6    2    1    2  501    0 -0.15070666391E+03  0.10035448670E+01  0.25333064499E+02  0.22881468815E+03  0.17029648179E+03 0.  0.
         24    2    3    3    0    0 -0.64646038030E+01  0.10511571943E+02 -0.21322419157E+02  0.76844300784E+02  0.72788163580E+02 0.  0.
         -6    2    1    2    0  503  0.15070666391E+03 -0.10035448670E+01 -0.37481335997E+03  0.43870276247E+03  0.17106008692E+03 0.  0.
        -24    2    5    5    0    0  0.50053816593E+02  0.20302997728E+02 -0.74646303268E+02  0.12135860172E+03  0.78982550908E+02 0.  0.
          5    1    3    3  501    0 -0.14424206010E+03 -0.95080270764E+01  0.46655483656E+02  0.15197038737E+03  0.47000000000E+01 0. -1.
        -11    1    4    4    0    0 -0.76594572681E+01 -0.20582369993E+02  0.16788722018E+02  0.27643487970E+02  0.00000000000E+00 0.  1.
         12    1    4    4    0    0  0.11948534652E+01  0.31093941936E+02 -0.38111141175E+02  0.49200812814E+02  0.00000000000E+00 0. -1.
         -5    1    5    5    0  503  0.10065284731E+03 -0.21306542595E+02 -0.30016705670E+03  0.31734416075E+03  0.47000000000E+01 0.  1.
         11    1    6    6    0    0  0.57302099655E+02 -0.80079687249E+01 -0.23494487198E+02  0.62447170606E+02  0.00000000000E+00 0. -1.
        -12    1    6    6    0    0 -0.72482830623E+01  0.28310966453E+02 -0.51151816070E+02  0.58911431116E+02  0.00000000000E+00 0.  1.
</event>
<event>
12    1  0.9246030E-003  0.2058846E+03  0.7818608E-02  0.1144902E+00
         21   -1    0    0  501  502  0.00000000000E+00  0.00000000000E+00  0.79390263858E+02  0.79390263858E+02  0.00000000000E+00 0.  1.
         21   -1    0    0  502  503 -0.00000000000E+00 -0.00000000000E+00 -0.68020034625E+03  0.68020034625E+03  0.00000000000E+00 0.  1.
          6    2    1    2  501    0 -0.88866729060E+02  0.68196835620E+02 -0.12411049006E+03  0.24039944218E+03  0.17274366598E+03 0.  0.
         24    2    3    3    0    0 -0.96395806998E+02 -0.10097180192E+02 -0.65481924740E+02  0.14218519373E+03  0.80837133760E+02 0.  0.
         -6    2    1    2    0  503  0.88866729060E+02 -0.68196835620E+02 -0.47669959233E+03  0.51919116793E+03  0.17253655730E+03 0.  0.
        -24    2    5    5    0    0  0.10527313531E+03 -0.23485049259E+02 -0.21868898766E+03  0.25677951398E+03  0.80478971912E+02 0.  0.
          5    1    3    3  501    0  0.75290779383E+01  0.78294015813E+02 -0.58628565323E+02  0.98214248450E+02  0.47000000000E+01 0. -1.
        -11    1    4    4    0    0 -0.41325009541E+02  0.26959958704E+02 -0.57207552851E+00  0.49344939531E+02  0.00000000000E+00 0.  1.
         12    1    4    4    0    0 -0.55070797458E+02 -0.37057138896E+02 -0.64909849211E+02  0.92840254203E+02  0.00000000000E+00 0. -1.
         -5    1    5    5    0  503 -0.16406406245E+02 -0.44711786361E+02 -0.25801060467E+03  0.26241165395E+03  0.47000000000E+01 0.  1.
         13    1    6    6    0    0 -0.86789275073E+01 -0.57041171232E+01 -0.10088604305E+01  0.10434487731E+02  0.00000000000E+00 0. -1.
        -14    1    6    6    0    0  0.11395206281E+03 -0.17780932136E+02 -0.21768012723E+03  0.24634502625E+03  0.00000000000E+00 0.  1.
</event>
<event>
12    1  0.9246030E-003  0.2091815E+03  0.7818608E-02  0.1142250E+00
         21   -1    0    0  501  502  0.00000000000E+00  0.00000000000E+00  0.22806873994E+03  0.22806873994E+03  0.00000000000E+00 0. -1.
         21   -1    0    0  502  503 -0.00000000000E+00 -0.00000000000E+00 -0.19973971723E+03  0.19973971723E+03  0.00000000000E+00 0. -1.
          6    2    1    2  501    0  0.98647378688E+02  0.69064961725E+02 -0.28752854003E+02  0.21097848529E+03  0.17083301901E+03 0.  0.
         24    2    3    3    0    0  0.56150949654E+02  0.25766569118E+02  0.48763957479E+02  0.11243081487E+03  0.80286483000E+02 0.  0.
         -6    2    1    2    0  503 -0.98647378688E+02 -0.69064961725E+02  0.57081876716E+02  0.21682997188E+03  0.17104274845E+03 0.  0.
        -24    2    5    5    0    0 -0.14292881381E+02 -0.64107454913E+02  0.77195194263E+02  0.12984207828E+03  0.81153034707E+02 0.  0.
          5    1    3    3  501    0  0.42496429034E+02  0.43298392606E+02 -0.77516811482E+02  0.98547670421E+02  0.47000000000E+01 0. -1.
        -11    1    4    4    0    0  0.60745054060E+02  0.18098745939E+02  0.66932880702E+02  0.92182084574E+02  0.00000000000E+00 0.  1.
         12    1    4    4    0    0 -0.45941044063E+01  0.76678231797E+01 -0.18168923222E+02  0.20248730298E+02  0.00000000000E+00 0. -1.
         -5    1    5    5    0  503 -0.84354497306E+02 -0.49575068121E+01 -0.20113317547E+02  0.86987893597E+02  0.47000000000E+01 0.  1.
         13    1    6    6    0    0 -0.36009570125E+02 -0.45034380546E+01  0.10461283289E+02  0.37767824175E+02  0.00000000000E+00 0. -1.
        -14    1    6    6    0    0  0.21716688743E+02 -0.59604016858E+02  0.66733910975E+02  0.92074254108E+02  0.00000000000E+00 0.  1.
</event>
<event>
12    1  0.9246030E-003  0.1751549E+03  0.7818608E-02  0.1173112E+00
         21   -1    0    0  501  502  0.00000000000E+00  0.00000000000E+00  0.12917565608E+03  0.12917565608E+03  0.00000000000E+00 0.  1.
         21   -1    0    0  502  503 -0.00000000000E+00 -0.00000000000E+00 -0.23847532286E+03  0.23847532286E+03  0.00000000000E+00 0.  1.
          6    2    1    2  501    0 -0.14309808849E+02  0.24704243801E+02 -0.30974459452E+02  0.17578104775E+03  0.17065898546E+03 0.  0.
         24    2    3    3    0    0 -0.40684447732E+02 -0.42837003812E+02 -0.26119764988E+02  0.10295866270E+03  0.80174877111E+02 0.  0.
         -6    2    1    2    0  503  0.14309808849E+02 -0.24704243801E+02 -0.78325207326E+02  0.19186993119E+03  0.17281250563E+03 0.  0.
        -24    2    5    5    0    0  0.64313790999E+02 -0.59959156941E+02 -0.53078902824E+02  0.12551653623E+03  0.72150306505E+02 0.  0.
          5    1    3    3  501    0  0.26374638882E+02  0.67541247613E+02 -0.48546944641E+01  0.72822385045E+02  0.47000000000E+01 0. -1.
        -13    1    4    4    0    0  0.10730549879E+02 -0.34988949566E+02  0.11955559560E+02  0.38500736315E+02  0.00000000000E+00 0.  1.
         14    1    4    4    0    0 -0.51414997610E+02 -0.78480542462E+01 -0.38075324548E+02  0.64457926387E+02  0.00000000000E+00 0. -1.
         -5    1    5    5    0  503 -0.50003982150E+02  0.35254913140E+02 -0.25246304502E+02  0.66353394957E+02  0.47000000000E+01 0.  1.
         13    1    6    6    0    0  0.25485827170E+02 -0.58682697395E+02 -0.56777903536E+01  0.64229461023E+02  0.00000000000E+00 0. -1.
        -14    1    6    6    0    0  0.38827963829E+02 -0.12764595459E+01 -0.47401112470E+02  0.61287075208E+02  0.00000000000E+00 0.  1.
</event>
<event>
12    1  0.9246030E-003  0.1993369E+03  0.7818608E-02  0.1153102E+00
         21   -1    0    0  501  502  0.00000000000E+00  0.00000000000E+00  0.29327211371E+03  0.29327211371E+03  0.00000000000E+00 0.  1.
         21   -1    0    0  502  503 -0.00000000000E+00 -0.00000000000E+00 -0.15970025345E+03  0.15970025345E+03  0.00000000000E+00 0. -1.
          6    2    1    2  501    0  0.31171365236E+01  0.72434993255E+02  0.17106136426E+03  0.26267314511E+03  0.18568426436E+03 0.  0.
         24    2    3    3    0    0 -0.21327281086E+02  0.11723057144E+03  0.96829505873E+02  0.17246986259E+03  0.78562335098E+02 0.  0.
         -6    2    1    2    0  503 -0.31171365236E+01 -0.72434993255E+02 -0.37489503991E+02  0.19029922205E+03  0.17190632978E+03 0.  0.
        -24    2    5    5    0    0 -0.52176271668E+02 -0.10242044396E+02  0.13037639853E+02  0.96225613141E+02  0.79133594464E+02 0.  0.
          5    1    3    3  501    0  0.24444417610E+02 -0.44795578185E+02  0.74231858385E+02  0.90203282515E+02  0.47000000000E+01 0. -1.
        -13    1    4    4    0    0  0.10213204497E+02  0.26831860947E+01 -0.86058438713E+01  0.13622392684E+02  0.00000000000E+00 0.  1.
         14    1    4    4    0    0 -0.31540485583E+02  0.11454738535E+03  0.10543534974E+03  0.15884746991E+03  0.00000000000E+00 0. -1.
         -5    1    5    5    0  503  0.49059135144E+02 -0.62192948858E+02 -0.50527143844E+02  0.94073608913E+02  0.47000000000E+01 0.  1.
         11    1    6    6    0    0  0.19391219849E+02 -0.61934842068E+01 -0.74445126572E+01  0.21674856921E+02  0.00000000000E+00 0. -1.
        -12    1    6    6    0    0 -0.71567491517E+02 -0.40485601894E+01  0.20482152510E+02  0.74550756220E+02  0.00000000000E+00 0.  1.
</event>
<event>
12    1  0.9246030E-003  0.1883800E+03  0.7818608E-02  0.1162644E+00
         21   -1    0    0  501  502  0.00000000000E+00  0.00000000000E+00  0.25228166801E+03  0.25228166801E+03  0.00000000000E+00 0. -1.
         21   -1    0    0  502  503 -0.00000000000E+00 -0.00000000000E+00 -0.32763187250E+03  0.32763187250E+03  0.00000000000E+00 0. -1.
          6    2    1    2  501    0 -0.56968083619E+02  0.12931644696E+01  0.18574239147E+03  0.26455107178E+03  0.17955500207E+03 0.  0.
         24    2    3    3    0    0  0.28606247647E+02 -0.15168162234E+02  0.14592350642E+03  0.16862623113E+03  0.78056041071E+02 0.  0.
         -6    2    1    2    0  503  0.56968083619E+02 -0.12931644696E+01 -0.26109259596E+03  0.31536246872E+03  0.16744285050E+03 0.  0.
        -24    2    5    5    0    0  0.13283247848E+02  0.58879277874E+02 -0.17108928832E+03  0.19852166643E+03  0.80598346292E+02 0.  0.
          5    1    3    3  501    0 -0.85574331265E+02  0.16461326703E+02  0.39818885050E+02  0.95924840657E+02  0.47000000000E+01 0. -1.
        -13    1    4    4    0    0  0.49305230203E+02 -0.25954627879E+02  0.71613024111E+02  0.90736286325E+02  0.00000000000E+00 0.  1.
         14    1    4    4    0    0 -0.20698982557E+02  0.10786465645E+02  0.74310482311E+02  0.77889944803E+02  0.00000000000E+00 0. -1.
         -5    1    5    5    0  503  0.43684835771E+02 -0.60172442344E+02 -0.90003307637E+02  0.11684080229E+03  0.47000000000E+01 0.  1.
         13    1    6    6    0    0 -0.12323474574E+02  0.47262088389E+02 -0.16163931319E+03  0.16885745643E+03  0.00000000000E+00 0. -1.
        -14    1    6    6    0    0  0.25606722422E+02  0.11617189485E+02 -0.94499751399E+01  0.29664209999E+02  0.00000000000E+00 0.  1.
</event>
<event>
12    1  0.9246030E-003  0.4276078E+03  0.7818608E-02  0.1034622E+00
         21   -1    0    0  503  502  0.00000000000E+00  0.00000000000E+00  0.41408512685E+03  0.41408512685E+03  0.00000000000E+00 0. -1.
         21   -1    0    0  501  503 -0.00000000000E+00 -0.00000000000E+00 -0.59645957478E+03  0.59645957478E+03  0.00000000000E+00 0.  1.
          6    2    1    2  501    0  0.38747307305E+03  0.54806483061E+02  0.16633042783E+03  0.45881829511E+03  0.17236381227E+03 0.  0.
         24    2    3    3    0    0  0.31995293163E+03 -0.12314274832E+02  0.10820955784E+03  0.34717470520E+03  0.79369060127E+02 0.  0.
         -6    2    1    2    0  502 -0.38747307305E+03 -0.54806483061E+02 -0.34870487576E+03  0.55172640652E+03  0.17224344501E+03 0.  0.
        -24    2    5    5    0    0 -0.38006273623E+03 -0.42070007034E+02 -0.27844137940E+03  0.47978073372E+03  0.80264448685E+02 0.  0.
          5    1    3    3  501    0  0.67520141422E+02  0.67120757893E+02  0.58120869995E+02  0.11164358990E+03  0.47000000000E+01 0. -1.
        -11    1    4    4    0    0  0.29015150848E+03 -0.26159390114E+02  0.11571499513E+03  0.31346797549E+03  0.00000000000E+00 0.  1.
         12    1    4    4    0    0  0.29801423149E+02  0.13845115282E+02 -0.75054372898E+01  0.33706729711E+02  0.00000000000E+00 0. -1.
         -5    1    5    5    0  502 -0.74103368130E+01 -0.12736476028E+02 -0.70263496361E+02  0.71945672797E+02  0.47000000000E+01 0.  1.
         13    1    6    6    0    0 -0.31695576586E+03 -0.65016260850E+02 -0.23203575404E+03  0.39815658081E+03  0.00000000000E+00 0. -1.
        -14    1    6    6    0    0 -0.63106970378E+02  0.22946253816E+02 -0.46405625358E+02  0.81624152916E+02  0.00000000000E+00 0.  1.
</event>
<event>
12    1  0.9246030E-003  0.1961882E+03  0.7818608E-02  0.1153448E+00
         21   -1    0    0  501  502  0.00000000000E+00  0.00000000000E+00  0.30612146298E+03  0.30612146298E+03  0.00000000000E+00 0. -1.
         21   -1    0    0  502  503 -0.00000000000E+00 -0.00000000000E+00 -0.13708615340E+03  0.13708615340E+03  0.00000000000E+00 0. -1.
          6    2    1    2  501    0  0.24822227212E+02 -0.87696813872E+02  0.15151194266E+03  0.24623833662E+03  0.17137845701E+03 0.  0.
         24    2    3    3    0    0 -0.37906647798E+02 -0.78844405921E+02  0.13534119625E+03  0.18068789859E+03  0.81716112259E+02 0.  0.
         -6    2    1    2    0  503 -0.24822227212E+02  0.87696813872E+02  0.17523366919E+02  0.19696927976E+03  0.17373242257E+03 0.  0.
        -24    2    5    5    0    0  0.98039129454E+01  0.10436545695E+03  0.55134348734E+02  0.14299253294E+03  0.80117431007E+02 0.  0.
          5    1    3    3  501    0  0.62728875010E+02 -0.88524079506E+01  0.16170746404E+02  0.65550438029E+02  0.47000000000E+01 0. -1.
        -11    1    4    4    0    0 -0.45695662597E+01  0.17264529663E+02  0.23269816851E+02  0.29333075130E+02  0.00000000000E+00 0.  1.
         12    1    4    4    0    0 -0.33337081538E+02 -0.96108935585E+02  0.11207137940E+03  0.15135482346E+03  0.00000000000E+00 0. -1.
         -5    1    5    5    0  503 -0.34626140158E+02 -0.16668643082E+02 -0.37610981815E+02  0.53976746823E+02  0.47000000000E+01 0.  1.
         13    1    6    6    0    0 -0.11404337080E+02  0.45859506499E+02  0.64606273005E+02  0.80044511068E+02  0.00000000000E+00 0. -1.
        -14    1    6    6    0    0  0.21208250025E+02  0.58505950455E+02 -0.94719242709E+01  0.62948021869E+02  0.00000000000E+00 0.  1.
</event>
<event>
12    1  0.9246030E-003  0.1939786E+03  0.7818608E-02  0.1155077E+00
         21   -1    0    0  501  502  0.00000000000E+00  0.00000000000E+00  0.21310086060E+04  0.21310086060E+04  0.00000000000E+00 0. -1.
         21   -1    0    0  502  503 -0.00000000000E+00 -0.00000000000E+00 -0.17672608625E+02  0.17672608625E+02  0.00000000000E+00 0. -1.
          6    2    1    2  501    0 -0.87668899454E+02 -0.16231007791E+02  0.98643706932E+03  0.10053287003E+04  0.17227426503E+03 0.  0.
         24    2    3    3    0    0 -0.29069660350E+02  0.49467762358E+02  0.38686439759E+03  0.39930916440E+03  0.80570726590E+02 0.  0.
         -6    2    1    2    0  503  0.87668899454E+02  0.16231007791E+02  0.11268989281E+04  0.11433525144E+04  0.17147739325E+03 0.  0.
        -24    2    5    5    0    0  0.11191589384E+03 -0.29871703012E+02  0.84329094694E+03  0.85496223426E+03  0.80020715314E+02 0.  0.
          5    1    3    3  501    0 -0.58599239104E+02 -0.65698770149E+02  0.59957267172E+03  0.60601953591E+03  0.47000000000E+01 0. -1.
        -13    1    4    4    0    0 -0.50552727693E+02  0.56637835462E+02  0.28314714655E+03  0.29314796482E+03  0.00000000000E+00 0.  1.
         14    1    4    4    0    0  0.21483067343E+02 -0.71700731041E+01  0.10371725105E+03  0.10616119958E+03  0.00000000000E+00 0. -1.
         -5    1    5    5    0  503 -0.24246994389E+02  0.46102710803E+02  0.28360798116E+03  0.28839028010E+03  0.47000000000E+01 0.  1.
         11    1    6    6    0    0  0.78251208440E+02  0.55381162486E+01  0.32331294477E+03  0.33269382713E+03  0.00000000000E+00 0. -1.
        -12    1    6    6    0    0  0.33664685402E+02 -0.35409819260E+02  0.51997800216E+03  0.52226840712E+03  0.00000000000E+00 0.  1.
</event>
<event>
12    1  0.9246030E-003  0.2641404E+03  0.7818608E-02  0.1105236E+00
         21   -1    0    0  501  502  0.00000000000E+00  0.00000000000E+00  0.27394924745E+03  0.27394924745E+03  0.00000000000E+00 0. -1.
         21   -1    0    0  502  503 -0.00000000000E+00 -0.00000000000E+00 -0.29108342796E+03  0.29108342796E+03  0.00000000000E+00 0.  1.
          6    2    1    2  501    0  0.19717460839E+03 -0.19762459760E+02 -0.11334316359E+03  0.28743141019E+03  0.17464753596E+03 0.  0.
         24    2    3    3    0    0  0.13684672989E+03  0.46693015119E+02 -0.10811696043E+03  0.19740260221E+03  0.79820079453E+02 0.  0.
         -6    2    1    2    0  503 -0.19717460839E+03  0.19762459760E+02  0.96208983082E+02  0.27760126523E+03  0.16893168151E+03 0.  0.
        -24    2    5    5    0    0 -0.19343026045E+03  0.24943584067E+02  0.12710008407E+03  0.24570746785E+03  0.78614759070E+02 0.  0.
          5    1    3    3  501    0  0.60327878509E+02 -0.66455474879E+02 -0.52262031595E+01  0.90028807980E+02  0.47000000000E+01 0. -1.
        -13    1    4    4    0    0  0.28948217317E+02 -0.22763525839E+02 -0.23018942009E+02  0.43428666634E+02  0.00000000000E+00 0.  1.
         14    1    4    4    0    0  0.10789851257E+03  0.69456540957E+02 -0.85098018422E+02  0.15397393557E+03  0.00000000000E+00 0. -1.
         -5    1    5    5    0  503 -0.37443479444E+01 -0.51811243063E+01 -0.30891100990E+02  0.31893797375E+02  0.47000000000E+01 0.  1.
         13    1    6    6    0    0 -0.82473988316E+02  0.26987227032E+02  0.15179037788E+02  0.88094678385E+02  0.00000000000E+00 0. -1.
        -14    1    6    6    0    0 -0.11095627213E+03 -0.20436429656E+01  0.11192104628E+03  0.15761278947E+03  0.00000000000E+00 0.  1.
</event>
<event>
12    1  0.9246030E-003  0.2819462E+03  0.7818608E-02  0.1094973E+00
         21   -1    0    0  503  502  0.00000000000E+00  0.00000000000E+00  0.96877790229E+02  0.96877790229E+02  0.00000000000E+00 0.  1.
         21   -1    0    0  501  503 -0.00000000000E+00 -0.00000000000E+00 -0.81325043890E+03  0.81325043890E+03  0.00000000000E+00 0.  1.
          6    2    1    2  501    0 -0.16279273451E+03 -0.15311559179E+03 -0.36138527415E+03  0.45835902205E+03  0.17189478719E+03 0.  0.
         24    2    3    3    0    0 -0.18716533042E+03 -0.14996185413E+03 -0.29306132433E+03  0.38559762011E+03  0.72671632828E+02 0.  0.
         -6    2    1    2    0  502  0.16279273451E+03  0.15311559179E+03 -0.35498737452E+03  0.45176920708E+03  0.16773050270E+03 0.  0.
        -24    2    5    5    0    0  0.33907445351E+02  0.95069696030E+02 -0.22887785220E+03  0.26227924588E+03  0.78850298905E+02 0.  0.
          5    1    3    3  501    0  0.24372595909E+02 -0.31537376686E+01 -0.68323949815E+02  0.72761401931E+02  0.47000000000E+01 0. -1.
        -13    1    4    4    0    0 -0.39489545003E+02  0.18228086164E-01 -0.36811645753E+02  0.53986310856E+02  0.00000000000E+00 0.  1.
         14    1    4    4    0    0 -0.14767578541E+03 -0.14998008221E+03 -0.25624967858E+03  0.33161130926E+03  0.00000000000E+00 0. -1.
         -5    1    5    5    0  502  0.12888528916E+03  0.58045895764E+02 -0.12610952232E+03  0.18948996120E+03  0.47000000000E+01 0.  1.
         13    1    6    6    0    0 -0.18616076735E+02 -0.50933193072E+00 -0.26552245956E+02  0.32432075131E+02  0.00000000000E+00 0. -1.
        -14    1    6    6    0    0  0.52523522086E+02  0.95579027961E+02 -0.20232560625E+03  0.22984717075E+03  0.00000000000E+00 0.  1.
</event>
<event>
12    1  0.9246030E-003  0.2262234E+03  0.7818608E-02  0.1129345E+00
         21   -1    0    0  501  502  0.00000000000E+00  0.00000000000E+00  0.18596218252E+04  0.18596218252E+04  0.00000000000E+00 0. -1.
         21   -1    0    0  502  503 -0.00000000000E+00 -0.00000000000E+00 -0.99992007358E+02  0.99992007358E+02  0.00000000000E+00 0.  1.
          6    2    1    2  501    0 -0.14482407923E+03 -0.25759639385E+02  0.17139791060E+04  0.17288303305E+04  0.17173340595E+03 0.  0.
         24    2    3    3    0    0 -0.15178721364E+03 -0.40479832205E+02  0.16917588191E+04  0.17008839448E+04  0.79248450290E+02 0.  0.
         -6    2    1    2    0  503  0.14482407923E+03  0.25759639385E+02  0.45650711827E+02  0.23078350210E+03  0.17187048730E+03 0.  0.
        -24    2    5    5    0    0  0.75148385746E+02 -0.49642214211E+02  0.32222176716E+02  0.12713719323E+03  0.83749435323E+02 0.  0.
          5    1    3    3  501    0  0.69631344116E+01  0.14720192821E+02  0.22220286960E+02  0.27946385635E+02  0.47000000000E+01 0. -1.
        -13    1    4    4    0    0 -0.11230199899E+03 -0.37048737324E+02  0.84930096076E+03  0.85749429728E+03  0.00000000000E+00 0.  1.
         14    1    4    4    0    0 -0.39485214647E+02 -0.34310948819E+01  0.84245785832E+03  0.84338964757E+03  0.00000000000E+00 0. -1.
         -5    1    5    5    0  503  0.69675693480E+02  0.75401853596E+02  0.13428535111E+02  0.10364630887E+03  0.47000000000E+01 0.  1.
         13    1    6    6    0    0  0.91762071502E+02 -0.48391364749E+02  0.18122574687E+02  0.10531110892E+03  0.00000000000E+00 0. -1.
        -14    1    6    6    0    0 -0.16613685756E+02 -0.12508494623E+01  0.14099602029E+02  0.21826084306E+02  0.00000000000E+00 0.  1.
</event>
<event>
12    1  0.9246030E-003  0.1744654E+03  0.7818608E-02  0.1174030E+00
         21   -1    0    0  503  502  0.00000000000E+00  0.00000000000E+00  0.37378116881E+02  0.37378116881E+02  0.00000000000E+00 0.  1.
         21   -1    0    0  501  503 -0.00000000000E+00 -0.00000000000E+00 -0.80144135077E+03  0.80144135077E+03  0.00000000000E+00 0.  1.
          6    2    1    2  501    0  0.14205474412E+02 -0.19098586415E+01 -0.39357370422E+03  0.42930676850E+03  0.17087597185E+03 0.  0.
         24    2    3    3    0    0  0.62558291567E+02  0.34106309099E+02 -0.21695956546E+03  0.24262574837E+03  0.81969631946E+02 0.  0.
         -6    2    1    2    0  502 -0.14205474412E+02  0.19098586415E+01 -0.37048952966E+03  0.40951269915E+03  0.17387557653E+03 0.  0.
        -24    2    5    5    0    0 -0.64519589088E+02 -0.22553429774E+02 -0.15693406479E+03  0.18870058628E+03  0.79424026584E+02 0.  0.
          5    1    3    3  501    0 -0.48352817155E+02 -0.36016167741E+02 -0.17661413876E+03  0.18668102013E+03  0.47000000000E+01 0. -1.
        -11    1    4    4    0    0  0.50479119215E+02 -0.79858340397E+00 -0.47950799091E+02  0.69627999725E+02  0.00000000000E+00 0.  1.
         12    1    4    4    0    0  0.12079172352E+02  0.34904892503E+02 -0.16900876637E+03  0.17299774864E+03  0.00000000000E+00 0. -1.
         -5    1    5    5    0  502  0.50314114676E+02  0.24463288416E+02 -0.21355546487E+03  0.22081211288E+03  0.47000000000E+01 0.  1.
         13    1    6    6    0    0  0.90592812571E+01  0.47901329834E+01  0.28844005046E+01  0.10645924909E+02  0.00000000000E+00 0. -1.
        -14    1    6    6    0    0 -0.73578870345E+02 -0.27343562758E+02 -0.15981846529E+03  0.17805466137E+03  0.00000000000E+00 0.  1.
</event>
<event>
12    1  0.9246030E-003  0.2972176E+03  0.7818608E-02  0.1086651E+00
         21   -1    0    0  503  502  0.00000000000E+00  0.00000000000E+00  0.15288463979E+04  0.15288463979E+04  0.00000000000E+00 0.  1.
         21   -1    0    0  501  503 -0.00000000000E+00 -0.00000000000E+00 -0.10229440241E+03  0.10229440241E+03  0.00000000000E+00 0.  1.
          6    2    1    2  501    0 -0.22191612719E+03  0.96884828173E+02  0.17511531871E+03  0.34489352812E+03  0.17219969064E+03 0.  0.
         24    2    3    3    0    0 -0.13930772107E+03  0.12761726285E+03  0.94891876857E+02  0.22561854363E+03  0.78781038392E+02 0.  0.
         -6    2    1    2    0  502  0.22191612719E+03 -0.96884828173E+02  0.12514366768E+04  0.12862472722E+04  0.17235095529E+03 0.  0.
        -24    2    5    5    0    0  0.18498284239E+03 -0.13969250443E+02  0.95730926219E+03  0.97839651847E+03  0.80030818633E+02 0.  0.
          5    1    3    3  501    0 -0.82608406121E+02 -0.30732434674E+02  0.80223441855E+02  0.11927498449E+03  0.47000000000E+01 0. -1.
        -11    1    4    4    0    0 -0.95660059409E+02  0.56145441087E+02  0.88003276920E+02  0.14159002179E+03  0.00000000000E+00 0.  1.
         12    1    4    4    0    0 -0.43647661662E+02  0.71471821760E+02  0.68885999377E+01  0.84028521844E+02  0.00000000000E+00 0. -1.
         -5    1    5    5    0  502  0.36933284798E+02 -0.82915577730E+02  0.29412741463E+03  0.30785075377E+03  0.47000000000E+01 0.  1.
         11    1    6    6    0    0  0.11054468795E+03 -0.31602019477E+02  0.41177331004E+03  0.42752318596E+03  0.00000000000E+00 0. -1.
        -12    1    6    6    0    0  0.74438154444E+02  0.17632769033E+02  0.54553595215E+03  0.55087333251E+03  0.00000000000E+00 0.  1.
</event>
<event>
12    1  0.9246030E-003  0.2759505E+03  0.7818608E-02  0.1100039E+00
         21   -1    0    0  503  502  0.00000000000E+00  0.00000000000E+00  0.26219667675E+03  0.26219667675E+03  0.00000000000E+00 0. -1.
         21   -1    0    0  501  503 -0.00000000000E+00 -0.00000000000E+00 -0.33164833534E+03  0.33164833534E+03  0.00000000000E+00 0.  1.
          6    2    1    2  501    0  0.15708234521E+03  0.12626142962E+03 -0.15652199606E+03  0.30448373502E+03  0.16611561592E+03 0.  0.
         24    2    3    3    0    0  0.15753658373E+02  0.12324609082E+02 -0.52206895078E+02  0.95058027209E+02  0.76879092750E+02 0.  0.
         -6    2    1    2    0  502 -0.15708234521E+03 -0.12626142962E+03  0.87070337467E+02  0.28936127707E+03  0.18849905361E+03 0.  0.
        -24    2    5    5    0    0 -0.12692879929E+03 -0.15811938420E+03  0.10221757872E+03  0.24271693637E+03  0.85734579106E+02 0.  0.
          5    1    3    3  501    0  0.14132868684E+03  0.11393682054E+03 -0.10431510098E+03  0.20942570781E+03  0.47000000000E+01 0. -1.
        -11    1    4    4    0    0  0.46604456443E+02  0.24709885055E+01 -0.26192774284E+02  0.53517684640E+02  0.00000000000E+00 0.  1.
         12    1    4    4    0    0 -0.30850798070E+02  0.98536205764E+01 -0.26014120794E+02  0.41540342569E+02  0.00000000000E+00 0. -1.
         -5    1    5    5    0  502 -0.30153545927E+02  0.31857954575E+02 -0.15147241249E+02  0.46644340697E+02  0.47000000000E+01 0.  1.
         13    1    6    6    0    0 -0.39600756287E+02 -0.40393703478E+02  0.74496431453E+02  0.93539240313E+02  0.00000000000E+00 0. -1.
        -14    1    6    6    0    0 -0.87328042999E+02 -0.11772568072E+03  0.27721147263E+02  0.14917769606E+03  0.00000000000E+00 0.  1.
</event>
<event>
12    1  0.9246030E-003  0.2461244E+03  0.7818608E-02  0.1115908E+00
         21   -1    0    0  501  502  0.00000000000E+00  0.00000000000E+00  0.21914679682E+03  0.21914679682E+03  0.00000000000E+00 0.  1.
         21   -1    0    0  502  503 -0.00000000000E+00 -0.00000000000E+00 -0.31360130563E+03  0.31360130563E+03  0.00000000000E+00 0.  1.
          6    2    1    2  501    0 -0.35319450689E+02  0.17196336142E+03 -0.13997644998E+03  0.28244932599E+03  0.17136322223E+03 0.  0.
         24    2    3    3    0    0 -0.20752068618E+02  0.22975559185E+02 -0.14212214155E+02  0.86877582503E+02  0.79919976467E+02 0.  0.
         -6    2    1    2    0  503  0.35319450689E+02 -0.17196336142E+03  0.45521941169E+02  0.25029877646E+03  0.17250614221E+03 0.  0.
        -24    2    5    5    0    0 -0.18900551307E+02 -0.17059459984E+03  0.15919941607E+02  0.18833063543E+03  0.75863267567E+02 0.  0.
          5    1    3    3  501    0 -0.14567382071E+02  0.14898780224E+03 -0.12576423582E+03  0.19557174348E+03  0.47000000000E+01 0. -1.
        -11    1    4    4    0    0  0.10751314096E+02  0.45495565138E+02 -0.45779019151E+01  0.46972272544E+02  0.00000000000E+00 0.  1.
         12    1    4    4    0    0 -0.31503382714E+02 -0.22520005953E+02 -0.96343122404E+01  0.39905309959E+02  0.00000000000E+00 0. -1.
         -5    1    5    5    0  503  0.54220001996E+02 -0.13687615847E+01  0.29601999562E+02  0.61968141031E+02  0.47000000000E+01 0.  1.
         11    1    6    6    0    0 -0.30820002883E+02 -0.16540915276E+03  0.62337464935E+00  0.16825709194E+03  0.00000000000E+00 0. -1.
        -12    1    6    6    0    0  0.11919451576E+02 -0.51854470824E+01  0.15296566958E+02  0.20073543484E+02  0.00000000000E+00 0.  1.
</event>
<event>
12    1  0.9246030E-003  0.2478132E+03  0.7818608E-02  0.1115163E+00
         21   -1    0    0  501  502  0.00000000000E+00  0.00000000000E+00  0.90569914666E+03  0.90569914666E+03  0.00000000000E+00 0.  1.
         21   -1    0    0  502  503 -0.00000000000E+00 -0.00000000000E+00 -0.80196038705E+02  0.80196038705E+02  0.00000000000E+00 0.  1.
          6    2    1    2  501    0  0.15713978308E+03  0.75783958775E+02  0.61058862784E+03  0.65787141919E+03  0.17187266189E+03 0.  0.
         24    2    3    3    0    0  0.14914683975E+03  0.53789442705E+02  0.60864530974E+03  0.63392330099E+03  0.79193146830E+02 0.  0.
         -6    2    1    2    0  503 -0.15713978308E+03 -0.75783958775E+02  0.21491448012E+03  0.32802376618E+03  0.17599783402E+03 0.  0.
        -24    2    5    5    0    0 -0.53351466558E+02 -0.88324740604E+02  0.16149470215E+03  0.21052887891E+03  0.87144886520E+02 0.  0.
          5    1    3    3  501    0  0.79929433318E+01  0.21994516071E+02  0.19433180944E+01  0.23948118204E+02  0.47000000000E+01 0. -1.
        -13    1    4    4    0    0  0.14346129851E+02  0.20503983892E+02  0.21611582551E+03  0.21755981898E+03  0.00000000000E+00 0.  1.
         14    1    4    4    0    0  0.13480070990E+03  0.33285458812E+02  0.39252948423E+03  0.41636348201E+03  0.00000000000E+00 0. -1.
         -5    1    5    5    0  503 -0.10378831652E+03  0.12540781828E+02  0.53419777969E+02  0.11749488727E+03  0.47000000000E+01 0.  1.
         13    1    6    6    0    0 -0.30037345134E+02 -0.18291065513E+02  0.12168572639E+03  0.12666578539E+03  0.00000000000E+00 0. -1.
        -14    1    6    6    0    0 -0.23314121424E+02 -0.70033675090E+02  0.39808975757E+02  0.83863093523E+02  0.00000000000E+00 0.  1.
</event>
<event>
12    1  0.9246030E-003  0.2266339E+03  0.7818608E-02  0.1129699E+00
         21   -1    0    0  501  502  0.00000000000E+00  0.00000000000E+00  0.10365506309E+04  0.10365506309E+04  0.00000000000E+00 0. -1.
         21   -1    0    0  502  503 -0.00000000000E+00 -0.00000000000E+00 -0.53416078147E+02  0.53416078147E+02  0.00000000000E+00 0. -1.
          6    2    1    2  501    0  0.39398577663E+02  0.14101974056E+03  0.65633199167E+03  0.69435915062E+03  0.17298592894E+03 0.  0.
         24    2    3    3    0    0  0.60971310352E+02  0.14657655030E+03  0.64594677720E+03  0.66933509000E+03  0.74565661973E+02 0.  0.
         -6    2    1    2    0  503 -0.39398577663E+02 -0.14101974056E+03  0.32680256111E+03  0.39560755846E+03  0.16812677124E+03 0.  0.
        -24    2    5    5    0    0 -0.16900694987E+02 -0.10016946869E+03  0.32367956317E+03  0.34863157999E+03  0.80349007481E+02 0.  0.
          5    1    3    3  501    0 -0.21572732689E+02 -0.55568097421E+01  0.10385214465E+02  0.25024060615E+02  0.47000000000E+01 0. -1.
        -11    1    4    4    0    0  0.57089368991E+02  0.69220860873E+02  0.44547697514E+03  0.45442321575E+03  0.00000000000E+00 0.  1.
         12    1    4    4    0    0  0.38819413617E+01  0.77355689431E+02  0.20046980206E+03  0.21491187425E+03  0.00000000000E+00 0. -1.
         -5    1    5    5    0  503 -0.22497882677E+02 -0.40850271868E+02  0.31229979423E+01  0.46975978465E+02  0.47000000000E+01 0.  1.
         11    1    6    6    0    0  0.20672852606E+02 -0.83506576902E+02  0.18567335336E+03  0.20463457521E+03  0.00000000000E+00 0. -1.
        -12    1    6    6    0    0 -0.37573547593E+02 -0.16662891793E+02  0.13800620981E+03  0.14399700479E+03  0.00000000000E+00 0.  1.
</event>
<event>
12    1  0.9246030E-003  0.1778746E+03  0.7818608E-02  0.1175414E+00
         21   -1    0    0  501  502  0.00000000000E+00  0.00000000000E+00  0.96975745943E+02  0.96975745943E+02  0.00000000000E+00 0. -1.
         21   -1    0    0  502  503 -0.00000000000E+00 -0.00000000000E+00 -0.37642100239E+03  0.37642100239E+03  0.00000000000E+00 0. -1.
          6    2    1    2  501    0  0.25911969648E+02  0.12048704611E+02 -0.32417312746E+02  0.18080445852E+03  0.17556414384E+03 0.  0.
         24    2    3    3    0    0 -0.35258908128E+02 -0.28106095529E+02 -0.49965302476E+02  0.10541012050E+03  0.81127176973E+02 0.  0.
         -6    2    1    2    0  503 -0.25911969648E+02 -0.12048704611E+02 -0.24702794370E+03  0.29259228981E+03  0.15417795444E+03 0.  0.
        -24    2    5    5    0    0 -0.43302379446E+02 -0.45293610968E+02 -0.23080434898E+03  0.25144687479E+03  0.77641973663E+02 0.  0.
          5    1    3    3  501    0  0.61170877776E+02  0.40154800140E+02  0.17547989730E+02  0.75394338021E+02  0.47000000000E+01 0. -1.
        -13    1    4    4    0    0 -0.10017975560E+02  0.20242167161E+02  0.96936602039E+01  0.24577880581E+02  0.00000000000E+00 0.  1.
         14    1    4    4    0    0 -0.25240932568E+02 -0.48348262690E+02 -0.59658962680E+02  0.80832239917E+02  0.00000000000E+00 0. -1.
         -5    1    5    5    0  503  0.17390409798E+02  0.33244906357E+02 -0.16223594722E+02  0.41145415022E+02  0.47000000000E+01 0.  1.
         13    1    6    6    0    0 -0.40870706392E+02  0.21088888592E+01 -0.50506383827E+02  0.65005821743E+02  0.00000000000E+00 0. -1.
        -14    1    6    6    0    0 -0.24316730540E+01 -0.47402499827E+02 -0.18029796515E+03  0.18644105305E+03  0.00000000000E+00 0.  1.
</event>
<event>
12    1  0.9246030E-003  0.1953497E+03  0.7818608E-02  0.1154028E+00
         21   -1    0    0  503  502  0.00000000000E+00  0.00000000000E+00  0.11806655202E+04  0.11806655202E+04  0.00000000000E+00 0. -1.
         21   -1    0    0  501  503 -0.00000000000E+00 -0.00000000000E+00 -0.32774329650E+02  0.32774329650E+02  0.00000000000E+00 0. -1.
          6    2    1    2  501    0  0.13977296371E+02 -0.91201920006E+02  0.65950843201E+03  0.68743676778E+03  0.17060123912E+03 0.  0.
         24    2    3    3    0    0 -0.46910275000E+02 -0.16285749607E+02  0.38430942721E+03  0.39575832982E+03  0.80405971393E+02 0.  0.
         -6    2    1    2    0  502 -0.13977296371E+02  0.91201920006E+02  0.48838275856E+03  0.52600308208E+03  0.17218701598E+03 0.  0.
        -24    2    5    5    0    0 -0.25201002262E+02  0.71577713751E+02  0.49085957975E+03  0.50278012601E+03  0.78014540069E+02 0.  0.
          5    1    3    3  501    0  0.60887571371E+02 -0.74916170398E+02  0.27519900479E+03  0.29167843797E+03  0.47000000000E+01 0. -1.
        -13    1    4    4    0    0 -0.75707802570E+01  0.12108352362E+02  0.28372840077E+03  0.28408754692E+03  0.00000000000E+00 0.  1.
         14    1    4    4    0    0 -0.39339494743E+02 -0.28394101969E+02  0.10058102644E+03  0.11167078290E+03  0.00000000000E+00 0. -1.
         -5    1    5    5    0  502  0.11223705891E+02  0.19624206255E+02 -0.24768211938E+01  0.23222956063E+02  0.47000000000E+01 0.  1.
         13    1    6    6    0    0 -0.24152504601E+02 -0.47698672416E+01  0.21970968269E+03  0.22108468915E+03  0.00000000000E+00 0. -1.
        -14    1    6    6    0    0 -0.10484976611E+01  0.76347580993E+02  0.27114989706E+03  0.28169543686E+03  0.00000000000E+00 0.  1.
</event>
<event>
12    1  0.9246030E-003  0.2684750E+03  0.7818608E-02  0.1102431E+00
         21   -1    0    0  501  502  0.00000000000E+00  0.00000000000E+00  0.52584674698E+02  0.52584674698E+02  0.00000000000E+00 0. -1.
         21   -1    0    0  502  503 -0.00000000000E+00 -0.00000000000E+00 -0.13773489616E+04  0.13773489616E+04  0.00000000000E+00 0.  1.
          6    2    1    2  501    0  0.15566536244E+03 -0.13501803806E+03 -0.58221004177E+03  0.64033522450E+03  0.16911265870E+03 0.  0.
         24    2    3    3    0    0  0.19161091872E+02 -0.47276446621E+02 -0.13774501097E+03  0.16715105702E+03  0.79772037510E+02 0.  0.
         -6    2    1    2    0  503 -0.15566536244E+03  0.13501803806E+03 -0.74255424511E+03  0.78959841177E+03  0.17209668585E+03 0.  0.
        -24    2    5    5    0    0 -0.13663263343E+03  0.57524430470E+02 -0.37260867796E+03  0.41111549717E+03  0.90560413573E+02 0.  0.
          5    1    3    3  501    0  0.13650427057E+03 -0.87741591440E+02 -0.44446503079E+03  0.47318416748E+03  0.47000000000E+01 0. -1.
        -13    1    4    4    0    0 -0.21904455739E+02 -0.14530271530E+02 -0.97502330259E+02  0.10098335693E+03  0.00000000000E+00 0.  1.
         14    1    4    4    0    0  0.41065547611E+02 -0.32746175091E+02 -0.40242680713E+02  0.66167700086E+02  0.00000000000E+00 0. -1.
         -5    1    5    5    0  503 -0.19032729016E+02  0.77493607591E+02 -0.36994556715E+03  0.37848291460E+03  0.47000000000E+01 0.  1.
         13    1    6    6    0    0 -0.74470891987E+02  0.78393740829E+02 -0.23508213748E+03  0.25875684284E+03  0.00000000000E+00 0. -1.
        -14    1    6    6    0    0 -0.62161741439E+02 -0.20869310359E+02 -0.13752654047E+03  0.15235865433E+03  0.00000000000E+00 0.  1.
</event>
<event>
12    1  0.9246030E-003  0.2163338E+03  0.7818608E-02  0.1138460E+00
         21   -1    0    0  503  502  0.00000000000E+00  0.00000000000E+00  0.66918318556E+03  0.66918318556E+03  0.00000000000E+00 0.  1.
         21   -1    0    0  501  503 -0.00000000000E+00 -0.00000000000E+00 -0.72398965067E+02  0.72398965067E+02  0.00000000000E+00 0.  1.
          6    2    1    2  501    0  0.89860502818E+02 -0.93705366697E+02  0.19074098410E+03  0.28150453868E+03  0.16126709697E+03 0.  0.
         24    2    3    3    0    0  0.28844960917E+02 -0.23379907515E+02  0.15544356022E+03  0.18182221981E+03  0.86706212911E+02 0.  0.
         -6    2    1    2    0  502 -0.89860502818E+02  0.93705366697E+02  0.40604323639E+03  0.46007761195E+03  0.17304535094E+03 0.  0.
        -24    2    5    5    0    0 -0.59662140945E+02  0.12611099441E+03  0.36716511834E+03  0.40095347279E+03  0.80559972987E+02 0.  0.
          5    1    3    3  501    0  0.61015541901E+02 -0.70325459182E+02  0.35297423884E+02  0.99682318871E+02  0.47000000000E+01 0. -1.
        -13    1    4    4    0    0  0.11183592738E+02 -0.35426808132E+02  0.15498128724E+02  0.40253241793E+02  0.00000000000E+00 0.  1.
         14    1    4    4    0    0  0.17661368180E+02  0.12046900617E+02  0.13994543149E+03  0.14156897802E+03  0.00000000000E+00 0. -1.
         -5    1    5    5    0  502 -0.30198361873E+02 -0.32405627714E+02  0.38878118057E+02  0.59124139156E+02  0.47000000000E+01 0.  1.
         11    1    6    6    0    0 -0.54353004813E+01  0.10128449670E+03  0.22741249726E+03  0.24900709965E+03  0.00000000000E+00 0. -1.
        -12    1    6    6    0    0 -0.54226840464E+02  0.24826497713E+02  0.13975262107E+03  0.15194637315E+03  0.00000000000E+00 0.  1.
</event>
<event>
12    1  0.9246030E-003  0.2200369E+03  0.7818608E-02  0.1134754E+00
         21   -1    0    0  501  502  0.00000000000E+00  0.00000000000E+00  0.12430907571E+03  0.12430907571E+03  0.00000000000E+00 0.  1.
         21   -1    0    0  502  503 -0.00000000000E+00 -0.00000000000E+00 -0.46275390642E+03  0.46275390642E+03  0.00000000000E+00 0.  1.
          6    2    1    2  501    0  0.12854943305E+02 -0.13797961685E+03 -0.47446729587E+02  0.22509425477E+03  0.17091695981E+03 0.  0.
         24    2    3    3    0    0  0.42270190612E+02 -0.15005725139E+03 -0.10674141396E+02  0.17625329581E+03  0.81531216614E+02 0.  0.
         -6    2    1    2    0  503 -0.12854943305E+02  0.13797961685E+03 -0.29099810112E+03  0.36196872736E+03  0.16473566856E+03 0.  0.
        -24    2    5    5    0    0 -0.33298722942E+02  0.32801797181E+02 -0.21000014036E+03  0.22756976336E+03  0.74183390302E+02 0.  0.
          5    1    3    3  501    0 -0.29415247307E+02  0.12077634532E+02 -0.36772588190E+02  0.48840958961E+02  0.47000000000E+01 0. -1.
        -13    1    4    4    0    0  0.79496442960E+01 -0.10477622063E+03 -0.39852789015E+02  0.11238103953E+03  0.00000000000E+00 0.  1.
         14    1    4    4    0    0  0.34320546316E+02 -0.45281030760E+02  0.29178647619E+02  0.63872256285E+02  0.00000000000E+00 0. -1.
         -5    1    5    5    0  503  0.20443779637E+02  0.10517781967E+03 -0.80997960759E+02  0.13439896400E+03  0.47000000000E+01 0.  1.
         13    1    6    6    0    0 -0.32431010867E+02 -0.17092304214E+02 -0.10726356860E+03  0.11335515196E+03  0.00000000000E+00 0. -1.
        -14    1    6    6    0    0 -0.86771207509E+00  0.49894101394E+02 -0.10273657177E+03  0.11421461140E+03  0.00000000000E+00 0.  1.
</event>
<event>
12    1  0.9246030E-003  0.2651867E+03  0.7818608E-02  0.1104107E+00
         21   -1    0    0  503  502  0.00000000000E+00  0.00000000000E+00  0.63777734382E+02  0.63777734382E+02  0.00000000000E+00 0.  1.
         21   -1    0    0  501  503 -0.00000000000E+00 -0.00000000000E+00 -0.11103856545E+04  0.11103856545E+04  0.00000000000E+00 0. -1.
          6    2    1    2  501    0 -0.20037837279E+03 -0.16218215289E+02 -0.47105083015E+03  0.54056717283E+03  0.17294351958E+03 0.  0.
         24    2    3    3    0    0 -0.32922811873E+02 -0.36678875181E+02 -0.17966068210E+03  0.20383239312E+03  0.82706906397E+02 0.  0.
         -6    2    1    2    0  502  0.20037837279E+03  0.16218215289E+02 -0.57555708992E+03  0.63359621601E+03  0.17252153023E+03 0.  0.
        -24    2    5    5    0    0  0.20072961260E+03 -0.31144579634E+02 -0.45965222341E+03  0.50829902612E+03  0.76324119754E+02 0.  0.
          5    1    3    3  501    0 -0.16745556092E+03  0.20460659892E+02 -0.29139014805E+03  0.33673477971E+03  0.47000000000E+01 0. -1.
        -13    1    4    4    0    0 -0.16533260329E+02  0.10514322867E+02 -0.24876813421E+01  0.19750651658E+02  0.00000000000E+00 0.  1.
         14    1    4    4    0    0 -0.16389551544E+02 -0.47193198047E+02 -0.17717300076E+03  0.18408174146E+03  0.00000000000E+00 0. -1.
         -5    1    5    5    0  502 -0.35123981145E+00  0.47362794923E+02 -0.11590486651E+03  0.12529718989E+03  0.47000000000E+01 0.  1.
         13    1    6    6    0    0  0.19778011337E+03 -0.21831239258E+02 -0.38863286687E+03  0.43661090397E+03  0.00000000000E+00 0. -1.
        -14    1    6    6    0    0  0.29494992298E+01 -0.93133403763E+01 -0.71019356539E+02  0.71688122154E+02  0.00000000000E+00 0.  1.
</event>
<event>
12    1  0.9246030E-003  0.1934607E+03  0.7818608E-02  0.1155440E+00
         21   -1    0    0  503  502  0.00000000000E+00  0.00000000000E+00  0.32454624531E+03  0.32454624531E+03  0.00000000000E+00 0. -1.
         21   -1    0    0  501  503 -0.00000000000E+00 -0.00000000000E+00 -0.11533066189E+03  0.11533066189E+03  0.00000000000E+00 0. -1.
          6    2    1    2  501    0 -0.81052795142E+02  0.39231160770E+02  0.95994542304E+02  0.21596754478E+03  0.17122613314E+03 0.  0.
         24    2    3    3    0    0 -0.82694283014E+02  0.77862511910E+02  0.40753617726E+02  0.14837519668E+03  0.86333228994E+02 0.  0.
         -6    2    1    2    0  502  0.81052795142E+02 -0.39231160770E+02  0.11322104111E+03  0.22390936242E+03  0.17090277602E+03 0.  0.
        -24    2    5    5    0    0  0.42716177174E+02  0.32732885602E+02  0.10576463961E+03  0.14189589907E+03  0.77795717025E+02 0.  0.
          5    1    3    3  501    0  0.16414878720E+01 -0.38631351140E+02  0.55240924578E+02  0.67592348100E+02  0.47000000000E+01 0. -1.
        -11    1    4    4    0    0 -0.19571787491E+02  0.59688612085E+02 -0.12215644094E+02  0.63992243583E+02  0.00000000000E+00 0.  1.
         12    1    4    4    0    0 -0.63122495523E+02  0.18173899825E+02  0.52969261819E+02  0.84382953098E+02  0.00000000000E+00 0. -1.
         -5    1    5    5    0  502  0.38336617967E+02 -0.71964046372E+02  0.74564014967E+01  0.82013463350E+02  0.47000000000E+01 0.  1.
         11    1    6    6    0    0  0.22549680650E+02  0.54375592970E+02  0.44265953874E+02  0.73652344705E+02  0.00000000000E+00 0. -1.
        -12    1    6    6    0    0  0.20166496525E+02 -0.21642707368E+02  0.61498685739E+02  0.68243554362E+02  0.00000000000E+00 0.  1.
</event>
<event>
12    1  0.9246030E-003  0.2074399E+03  0.7818608E-02  0.1143987E+00
         21   -1    0    0  503  502  0.00000000000E+00  0.00000000000E+00  0.32846635728E+03  0.32846635728E+03  0.00000000000E+00 0.  1.
         21   -1    0    0  501  503 -0.00000000000E+00 -0.00000000000E+00 -0.13800831014E+03  0.13800831014E+03  0.00000000000E+00 0.  1.
          6    2    1    2  501    0 -0.93077318305E+02  0.63201228702E+02  0.38857651112E+02  0.21104790520E+03  0.17428000100E+03 0.  0.
         24    2    3    3    0    0 -0.36119582053E+02  0.10401967023E+03  0.26245031715E+02  0.13969317827E+03  0.81857598082E+02 0.  0.
         -6    2    1    2    0  502  0.93077318305E+02 -0.63201228702E+02  0.15160039603E+03  0.25542676222E+03  0.17205338791E+03 0.  0.
        -24    2    5    5    0    0 -0.27339253431E+01  0.12032882261E+02  0.53097085571E+02  0.98694640328E+02  0.82274339439E+02 0.  0.
          5    1    3    3  501    0 -0.56957736252E+02 -0.40818441526E+02  0.12612619397E+02  0.71354726933E+02  0.47000000000E+01 0. -1.
        -13    1    4    4    0    0  0.24395260809E+02  0.50724386234E+02  0.15204187011E+02  0.58303168108E+02  0.00000000000E+00 0.  1.
         14    1    4    4    0    0 -0.60514842862E+02  0.53295283995E+02  0.11040844704E+02  0.81390010164E+02  0.00000000000E+00 0. -1.
         -5    1    5    5    0  502  0.95811243649E+02 -0.75234110964E+02  0.98503310458E+02  0.15673212189E+03  0.47000000000E+01 0.  1.
         13    1    6    6    0    0 -0.10061463196E+02  0.15943728749E+02 -0.18620155517E+02  0.26498032371E+02  0.00000000000E+00 0. -1.
        -14    1    6    6    0    0  0.73275378527E+01 -0.39108464876E+01  0.71717241088E+02  0.72196607957E+02  0.00000000000E+00 0.  1.
</event>
<event>
12    1  0.9246030E-003  0.1800206E+03  0.7818608E-02  0.1170021E+00
         21   -1    0    0  503  502  0.00000000000E+00  0.00000000000E+00  0.13772526554E+03  0.13772526554E+03  0.00000000000E+00 0. -1.
         21   -1    0    0  501  503 -0.00000000000E+00 -0.00000000000E+00 -0.26136069051E+03  0.26136069051E+03  0.00000000000E+00 0. -1.
          6    2    1    2  501    0 -0.17597557639E+02  0.34453362541E+01 -0.13619750503E+03  0.21862763828E+03  0.17007862730E+03 0.  0.
         24    2    3    3    0    0  0.55696624901E+02 -0.88742959526E+01 -0.11411545809E+03  0.14095191923E+03  0.60532954705E+02 0.  0.
         -6    2    1    2    0  502  0.17597557639E+02 -0.34453362541E+01  0.12562080069E+02  0.18045831777E+03  0.17912524730E+03 0.  0.
        -24    2    5    5    0    0  0.39937875399E+02  0.41986719764E+02  0.56049591145E+02  0.11355230062E+03  0.79966554135E+02 0.  0.
          5    1    3    3  501    0 -0.73294182540E+02  0.12319632207E+02 -0.22082046941E+02  0.77675719044E+02  0.47000000000E+01 0. -1.
        -11    1    4    4    0    0  0.30310483613E+02  0.25393398187E+02 -0.46846987861E+02  0.61304081104E+02  0.00000000000E+00 0.  1.
         12    1    4    4    0    0  0.25386141288E+02 -0.34267694139E+02 -0.67268470232E+02  0.79647838128E+02  0.00000000000E+00 0. -1.
         -5    1    5    5    0  502 -0.22340317760E+02 -0.45432056018E+02 -0.43487511076E+02  0.66906017153E+02  0.47000000000E+01 0.  1.
         13    1    6    6    0    0 -0.22343810625E+02  0.25327365750E+02  0.13885263119E+02  0.36517418597E+02  0.00000000000E+00 0. -1.
        -14    1    6    6    0    0  0.62281686024E+02  0.16659354014E+02  0.42164328026E+02  0.77034882022E+02  0.00000000000E+00 0.  1.
</event>
<event>
12    1  0.9246030E-003  0.2056200E+03  0.7818608E-02  0.1145298E+00
         21   -1    0    0  501  502  0.00000000000E+00  0.00000000000E+00  0.50489487165E+03  0.50489487165E+03  0.00000000000E+00 0. -1.
         21   -1    0    0  502  503 -0.00000000000E+00 -0.00000000000E+00 -0.10910804179E+03  0.10910804179E+03  0.00000000000E+00 0.  1.
          6    2    1    2  501    0  0.84547187527E+02  0.74415062127E+02  0.34678600174E+03  0.40262485916E+03  0.17076421705E+03 0.  0.
         24    2    3    3    0    0 -0.17090452545E+02  0.42362438252E+02  0.10710901972E+03  0.14028018839E+03  0.78227421057E+02 0.  0.
         -6    2    1    2    0  503 -0.84547187527E+02 -0.74415062127E+02  0.49000828119E+02  0.21137805427E+03  0.17202840545E+03 0.  0.
        -24    2    5    5    0    0 -0.77304864593E+00 -0.90724809473E+02  0.23454126488E+02  0.12216573355E+03  0.78375900294E+02 0.  0.
          5    1    3    3  501    0  0.10163764007E+03  0.32052623875E+02  0.23967698202E+03  0.26234467078E+03  0.47000000000E+01 0. -1.
        -13    1    4    4    0    0 -0.21702352311E+01 -0.17288386312E+02  0.76689517285E+00  0.17440938921E+02  0.00000000000E+00 0.  1.
         14    1    4    4    0    0 -0.14920217313E+02  0.59650824564E+02  0.10634212455E+03  0.12283924947E+03  0.00000000000E+00 0. -1.
         -5    1    5    5    0  503 -0.83774138881E+02  0.16309747346E+02  0.25546701631E+02  0.89212320719E+02  0.47000000000E+01 0.  1.
         11    1    6    6    0    0  0.29963707212E+02 -0.72707703432E+01  0.84945935198E+01  0.31981963203E+02  0.00000000000E+00 0. -1.
        -12    1    6    6    0    0 -0.30736755858E+02 -0.83454039129E+02  0.14959532968E+02  0.90183770348E+02  0.00000000000E+00 0.  1.
</event>
<event>
12    1  0.9246030E-003  0.1783083E+03  0.7818608E-02  0.1169502E+00
         21   -1    0    0  503  502  0.00000000000E+00  0.00000000000E+00  0.49240769474E+02  0.49240769474E+02  0.00000000000E+00 0. -1.
         21   -1    0    0  501  503 -0.00000000000E+00 -0.00000000000E+00 -0.66122099062E+03  0.66122099062E+03  0.00000000000E+00 0. -1.
          6    2    1    2  501    0 -0.21172925796E+01 -0.46041146873E+02 -0.36193451673E+03  0.40347297439E+03  0.17224858932E+03 0.  0.
         24    2    3    3    0    0  0.54050649658E+02 -0.47483262284E+02 -0.14851081936E+03  0.18272723370E+03  0.78470666761E+02 0.  0.
         -6    2    1    2    0  502  0.21172925796E+01  0.46041146873E+02 -0.25004570441E+03  0.30698878570E+03  0.17203194506E+03 0.  0.
        -24    2    5    5    0    0  0.32519301668E+02  0.85797541887E+02 -0.13422846484E+03  0.18073279146E+03  0.78919819823E+02 0.  0.
          5    1    3    3  501    0 -0.56167942238E+02  0.14421154118E+01 -0.21342369737E+03  0.22074574069E+03  0.47000000000E+01 0. -1.
        -11    1    4    4    0    0  0.42760312055E+02 -0.49625749591E+02 -0.47135473909E+02  0.80702615881E+02  0.00000000000E+00 0.  1.
         12    1    4    4    0    0  0.11290337603E+02  0.21424873065E+01 -0.10137534545E+03  0.10202461782E+03  0.00000000000E+00 0. -1.
         -5    1    5    5    0  502 -0.30402009088E+02 -0.39756395014E+02 -0.11581723957E+03  0.12625599425E+03  0.47000000000E+01 0.  1.
         11    1    6    6    0    0  0.14382855769E+02  0.58512093692E+01  0.73144310624E+01  0.17164034867E+02  0.00000000000E+00 0. -1.
        -12    1    6    6    0    0  0.18136445899E+02  0.79946332518E+02 -0.14154289590E+03  0.16356875659E+03  0.00000000000E+00 0.  1.
</event>
<event>
12    1  0.9246030E-003  0.1868017E+03  0.7818608E-02  0.1161517E+00
         21   -1    0    0  501  502  0.00000000000E+00  0.00000000000E+00  0.34341541591E+03  0.34341541591E+03  0.00000000000E+00 0.  1.
         21   -1    0    0  502  503 -0.00000000000E+00 -0.00000000000E+00 -0.10143136221E+03  0.10143136221E+03  0.00000000000E+00 0.  1.
          6    2    1    2  501    0 -0.68988690272E+02 -0.11231105570E+02  0.11234895418E+03  0.21747012667E+03  0.17258444708E+03 0.  0.
         24    2    3    3    0    0 -0.53929427708E+02 -0.74978224131E+02  0.85959743332E+02  0.14669614160E+03  0.74836910818E+02 0.  0.
         -6    2    1    2    0  503  0.68988690272E+02  0.11231105570E+02  0.12963509952E+03  0.22737665145E+03  0.17323194128E+03 0.  0.
        -24    2    5    5    0    0  0.27639540281E+02 -0.52784513286E+02  0.37156806317E+02  0.10745135647E+03  0.81332753064E+02 0.  0.
          5    1    3    3  501    0 -0.15059262564E+02  0.63747118560E+02  0.26389210846E+02  0.70773985071E+02  0.47000000000E+01 0. -1.
        -13    1    4    4    0    0 -0.54021301839E+02 -0.11335633513E+02  0.38227804482E+02  0.67142852747E+02  0.00000000000E+00 0.  1.
         14    1    4    4    0    0  0.91874131048E-01 -0.63642590618E+02  0.47731938850E+02  0.79553288856E+02  0.00000000000E+00 0. -1.
         -5    1    5    5    0  503  0.41349149991E+02  0.64015618856E+02  0.92478293205E+02  0.11992529498E+03  0.47000000000E+01 0.  1.
         11    1    6    6    0    0  0.39425624831E+02 -0.73581728797E+01  0.44548494257E+02  0.59942396866E+02  0.00000000000E+00 0. -1.
        -12    1    6    6    0    0 -0.11786084550E+02 -0.45426340406E+02 -0.73916879395E+01  0.47508959600E+02  0.00000000000E+00 0.  1.
</event>
<event>
12    1  0.9246030E-003  0.2094672E+03  0.7818608E-02  0.1142256E+00
         21   -1    0    0  503  502  0.00000000000E+00  0.00000000000E+00  0.17798974757E+03  0.17798974757E+03  0.00000000000E+00 0.  1.
         21   -1    0    0  501  503 -0.00000000000E+00 -0.00000000000E+00 -0.24621969905E+03  0.24621969905E+03  0.00000000000E+00 0.  1.
          6    2    1    2  501    0 -0.44756547718E+02  0.10931422548E+03 -0.49555584652E+02  0.21524928284E+03  0.17298482401E+03 0.  0.
         24    2    3    3    0    0 -0.97164356670E+02  0.71597363285E+02 -0.31769725079E+02  0.14811086661E+03  0.79752233456E+02 0.  0.
         -6    2    1    2    0  502  0.44756547718E+02 -0.10931422548E+03 -0.18674366830E+02  0.20896016378E+03  0.17135597338E+03 0.  0.
        -24    2    5    5    0    0  0.63607931746E+02 -0.43667891478E+01 -0.13222283970E+02  0.10209036318E+03  0.78629356047E+02 0.  0.
          5    1    3    3  501    0  0.52407808951E+02  0.37716862195E+02 -0.17785859573E+02  0.67138416228E+02  0.47000000000E+01 0. -1.
        -11    1    4    4    0    0 -0.85386496486E+02  0.81538124122E+02 -0.46404806132E+02  0.12685710662E+03  0.00000000000E+00 0.  1.
         12    1    4    4    0    0 -0.11777860184E+02 -0.99407608367E+01  0.14635081053E+02  0.21253759996E+02  0.00000000000E+00 0. -1.
         -5    1    5    5    0  502 -0.18851384027E+02 -0.10494743633E+03 -0.54520828602E+01  0.10686980060E+03  0.47000000000E+01 0.  1.
         13    1    6    6    0    0  0.84826206917E+01  0.27850379394E+02 -0.23505732316E+02  0.37418149846E+02  0.00000000000E+00 0. -1.
        -14    1    6    6    0    0  0.55125311054E+02 -0.32217168542E+02  0.10283448346E+02  0.64672213334E+02  0.00000000000E+00 0.  1.
</event>
<event>
12    1  0.9246030E-003  0.2146241E+03  0.7818608E-02  0.1138772E+00
         21   -1    0    0  503  502  0.00000000000E+00  0.00000000000E+00  0.79567723890E+02  0.79567723890E+02  0.00000000000E+00 0. -1.
         21   -1    0    0  501  503 -0.00000000000E+00 -0.00000000000E+00 -0.68003968117E+03  0.68003968117E+03  0.00000000000E+00 0. -1.
          6    2    1    2  501    0  0.51725651974E+02  0.11714052582E+03 -0.45709677826E+03  0.50497620094E+03  0.17223836086E+03 0.  0.
         24    2    3    3    0    0 -0.34279645774E+02  0.29434250650E+02 -0.20157140767E+03  0.22141913973E+03  0.79711566426E+02 0.  0.
         -6    2    1    2    0  502 -0.51725651974E+02 -0.11714052582E+03 -0.14337517902E+03  0.25463120412E+03  0.16698252092E+03 0.  0.
        -24    2    5    5    0    0 -0.42609864577E+02 -0.12835350793E+01 -0.72394562039E+02  0.11837307456E+03  0.83390431989E+02 0.  0.
          5    1    3    3  501    0  0.86005297748E+02  0.87706275174E+02 -0.25552537059E+03  0.28355706121E+03  0.47000000000E+01 0. -1.
        -11    1    4    4    0    0 -0.27738530801E+02 -0.18519905204E+02 -0.13533763199E+03  0.13938682725E+03  0.00000000000E+00 0.  1.
         12    1    4    4    0    0 -0.65411149730E+01  0.47954155854E+02 -0.66233775685E+02  0.82032312476E+02  0.00000000000E+00 0. -1.
         -5    1    5    5    0  502 -0.91157873973E+01 -0.11585699074E+03 -0.70980616977E+02  0.13625812956E+03  0.47000000000E+01 0.  1.
         11    1    6    6    0    0 -0.29329383146E+02 -0.11935639572E+02  0.10798711119E+02  0.33455707578E+02  0.00000000000E+00 0. -1.
        -12    1    6    6    0    0 -0.13280481431E+02  0.10652104493E+02 -0.83193273158E+02  0.84917366986E+02  0.00000000000E+00 0.  1.
</event>
<event>
12    1  0.9246030E-003  0.2345702E+03  0.7818608E-02  0.1123626E+00
         21   -1    0    0  501  502  0.00000000000E+00  0.00000000000E+00  0.57863181503E+03  0.57863181503E+03  0.00000000000E+00 0.  1.
         21   -1    0    0  502  503 -0.00000000000E+00 -0.00000000000E+00 -0.12487901633E+03  0.12487901633E+03  0.00000000000E+00 0.  1.
          6    2    1    2  501    0 -0.13337569361E+02 -0.15920342066E+03  0.39942264120E+03  0.46273094870E+03  0.17046367552E+03 0.  0.
         24    2    3    3    0    0 -0.31889097894E+02 -0.17347050794E+03  0.39317324666E+03  0.43805598320E+03  0.78733162233E+02 0.  0.
         -6    2    1    2    0  503  0.13337569361E+02  0.15920342066E+03  0.54330157500E+02  0.24077988266E+03  0.17175437687E+03 0.  0.
        -24    2    5    5    0    0 -0.53422447666E+02  0.12776119571E+03  0.31979156742E+02  0.16353241916E+03  0.80890695423E+02 0.  0.
          5    1    3    3  501    0  0.18551528534E+02  0.14267087278E+02  0.62493945414E+01  0.24674965501E+02  0.47000000000E+01 0. -1.
        -11    1    4    4    0    0 -0.11504315227E+02 -0.16845342629E+02  0.12637184775E+03  0.12800765111E+03  0.00000000000E+00 0.  1.
         12    1    4    4    0    0 -0.20384782667E+02 -0.15662516531E+03  0.26680139891E+03  0.31004833209E+03  0.00000000000E+00 0. -1.
         -5    1    5    5    0  503  0.66760017026E+02  0.31442224953E+02  0.22351000758E+02  0.77247463507E+02  0.47000000000E+01 0.  1.
         13    1    6    6    0    0 -0.22355232259E+02 -0.94522567098E+00  0.20981422278E+02  0.30673603338E+02  0.00000000000E+00 0. -1.
        -14    1    6    6    0    0 -0.31067215406E+02  0.12870642138E+03  0.10997734464E+02  0.13285881582E+03  0.00000000000E+00 0.  1.
</event>
<event>
12    1  0.9246030E-003  0.1804228E+03  0.7818608E-02  0.1167598E+00
         21   -1    0    0  501  502  0.00000000000E+00  0.00000000000E+00  0.15610256299E+03  0.15610256299E+03  0.00000000000E+00 0.  1.
         21   -1    0    0  502  503 -0.00000000000E+00 -0.00000000000E+00 -0.24604465003E+03  0.24604465003E+03  0.00000000000E+00 0.  1.
          6    2    1    2  501    0  0.17999329663E+02 -0.50130100735E+02  0.34637407488E+02  0.18289297162E+03  0.17150243789E+03 0.  0.
         24    2    3    3    0    0 -0.53844057228E+02 -0.32985830815E+02  0.36386767927E+02  0.10886224494E+03  0.80868683429E+02 0.  0.
         -6    2    1    2    0  503 -0.17999329663E+02  0.50130100735E+02 -0.12457949453E+03  0.21925424140E+03  0.17238146375E+03 0.  0.
        -24    2    5    5    0    0  0.46348707786E+02  0.43799426506E+01 -0.34064482962E+02  0.99051062538E+02  0.80519173986E+02 0.  0.
          5    1    3    3  501    0  0.71843386891E+02 -0.17144269920E+02 -0.17493604388E+01  0.74030726682E+02  0.47000000000E+01 0. -1.
        -11    1    4    4    0    0  0.15539456770E+02 -0.28322165001E+02  0.17785088589E+02  0.36877216858E+02  0.00000000000E+00 0.  1.
         12    1    4    4    0    0 -0.69383513998E+02 -0.46636658148E+01  0.18601679337E+02  0.71985028081E+02  0.00000000000E+00 0. -1.
         -5    1    5    5    0  503 -0.64348037450E+02  0.45750158085E+02 -0.90515011569E+02  0.12020317886E+03  0.47000000000E+01 0.  1.
         11    1    6    6    0    0  0.13881963363E+01  0.20929142755E+01  0.24810160655E+02  0.24936949512E+02  0.00000000000E+00 0. -1.
        -12    1    6    6    0    0  0.44960511450E+02  0.22870283750E+01 -0.58874643617E+02  0.74114113026E+02  0.00000000000E+00 0.  1.
</event>
<event>
12    1  0.9246030E-003  0.2904911E+03  0.7818608E-02  0.1090228E+00
         21   -1    0    0  503  502  0.00000000000E+00  0.00000000000E+00  0.93173629866E+03  0.93173629866E+03  0.00000000000E+00 0.  1.
         21   -1    0    0  501  503 -0.00000000000E+00 -0.00000000000E+00 -0.10248644939E+03  0.10248644939E+03  0.00000000000E+00 0. -1.
          6    2    1    2  501    0 -0.11141606992E+03 -0.20478594529E+03  0.23525513392E+03  0.37300052651E+03  0.17156220656E+03 0.  0.
         24    2    3    3    0    0 -0.17466021671E+01 -0.53538074050E+02  0.11851901018E+03  0.15265370150E+03  0.79918838916E+02 0.  0.
         -6    2    1    2    0  502  0.11141606992E+03  0.20478594529E+03  0.59399471535E+03  0.66122222153E+03  0.17330401140E+03 0.  0.
        -24    2    5    5    0    0  0.59814996855E+02  0.20959340065E+03  0.42526335783E+03  0.48464888442E+03  0.80798454304E+02 0.  0.
          5    1    3    3  501    0 -0.10966946775E+03 -0.15124787124E+03  0.11673612374E+03  0.22034682502E+03  0.47000000000E+01 0. -1.
        -13    1    4    4    0    0  0.85444261439E+01 -0.70877967993E+02  0.69431888805E+02  0.99586549031E+02  0.00000000000E+00 0.  1.
         14    1    4    4    0    0 -0.10291028311E+02  0.17339893942E+02  0.49087121376E+02  0.53067152464E+02  0.00000000000E+00 0. -1.
         -5    1    5    5    0  502  0.51601073061E+02 -0.48074553583E+01  0.16873135752E+03  0.17657333711E+03  0.47000000000E+01 0.  1.
         11    1    6    6    0    0 -0.24679231371E+01  0.13596788967E+03  0.24500637686E+03  0.28021684882E+03  0.00000000000E+00 0. -1.
        -12    1    6    6    0    0  0.62282919992E+02  0.73625510979E+02  0.18025698097E+03  0.20443203560E+03  0.00000000000E+00 0.  1.
</event>
<event>
12    1  0.9246030E-003  0.2567117E+03  0.7818608E-02  0.1109376E+00
         21   -1    0    0  503  502  0.00000000000E+00  0.00000000000E+00  0.60737912899E+03  0.60737912899E+03  0.00000000000E+00 0.  1.
         21   -1    0    0  501  503 -0.00000000000E+00 -0.00000000000E+00 -0.10794992308E+03  0.10794992308E+03  0.00000000000E+00 0.  1.
          6    2    1    2  501    0 -0.15750668757E+03 -0.10546308436E+03  0.23888429751E+03  0.35066596527E+03  0.17311872459E+03 0.  0.
         24    2    3    3    0    0 -0.64169526173E+02 -0.11784592029E+02  0.45535623323E+02  0.11637280396E+03  0.84926626048E+02 0.  0.
         -6    2    1    2    0  502  0.15750668757E+03  0.10546308436E+03  0.26054490840E+03  0.36466308680E+03  0.17077675131E+03 0.  0.
        -24    2    5    5    0    0  0.10257143964E+03  0.13936620257E+03  0.19097249846E+03  0.26963828417E+03  0.79312486259E+02 0.  0.
          5    1    3    3  501    0 -0.93337161400E+02 -0.93678492334E+02  0.19334867419E+03  0.23429316130E+03  0.47000000000E+01 0. -1.
        -13    1    4    4    0    0 -0.38472269687E+02 -0.48624404890E+02  0.29663976646E+02  0.68734269446E+02  0.00000000000E+00 0.  1.
         14    1    4    4    0    0 -0.25697256486E+02  0.36839812861E+02  0.15871646677E+02  0.47638534516E+02  0.00000000000E+00 0. -1.
         -5    1    5    5    0  502  0.54935247935E+02 -0.33903118203E+02  0.69572409942E+02  0.95024802629E+02  0.47000000000E+01 0.  1.
         11    1    6    6    0    0  0.54217882828E+02  0.78613707510E+02  0.47859725014E+02  0.10681875821E+03  0.00000000000E+00 0. -1.
        -12    1    6    6    0    0  0.48353556810E+02  0.60752495056E+02  0.14311277345E+03  0.16281952597E+03  0.00000000000E+00 0.  1.
</event>
<event>
12    1  0.9246030E-003  0.2210376E+03  0.7818608E-02  0.1133193E+00
         21   -1    0    0  503  502  0.00000000000E+00  0.00000000000E+00  0.41480727912E+02  0.41480727912E+02  0.00000000000E+00 0. -1.
         21   -1    0    0  501  503 -0.00000000000E+00 -0.00000000000E+00 -0.16683190720E+04  0.16683190720E+04  0.00000000000E+00 0. -1.
          6    2    1    2  501    0  0.60366809353E+02  0.12417227022E+03 -0.12786322729E+04  0.12975970574E+04  0.17261149881E+03 0.  0.
         24    2    3    3    0    0  0.75536627188E+01  0.68928530733E+02 -0.10726504254E+04  0.10778433072E+04  0.79743711516E+02 0.  0.
         -6    2    1    2    0  502 -0.60366809353E+02 -0.12417227022E+03 -0.34820607118E+03  0.41220274258E+03  0.17204862283E+03 0.  0.
        -24    2    5    5    0    0 -0.79264082589E+02 -0.14700461060E+03 -0.32600588763E+03  0.37487499349E+03  0.79738771274E+02 0.  0.
          5    1    3    3  501    0  0.52813146634E+02  0.55243739492E+02 -0.20598184753E+03  0.21975375019E+03  0.47000000000E+01 0. -1.
        -11    1    4    4    0    0  0.42295491190E+02  0.51963634596E+02 -0.68783401485E+03  0.69108954549E+03  0.00000000000E+00 0.  1.
         12    1    4    4    0    0 -0.34741828472E+02  0.16964896137E+02 -0.38481641054E+03  0.38675376167E+03  0.00000000000E+00 0. -1.
         -5    1    5    5    0  502  0.18897273236E+02  0.22832340373E+02 -0.22200183548E+02  0.37327749091E+02  0.47000000000E+01 0.  1.
         13    1    6    6    0    0 -0.85107762604E+02 -0.77407569547E+02 -0.21089728444E+03  0.24023515076E+03  0.00000000000E+00 0. -1.
        -14    1    6    6    0    0  0.58436800150E+01 -0.69597041050E+02 -0.11510860320E+03  0.13463984273E+03  0.00000000000E+00 0.  1.
</event>
<event>
12    1  0.9246030E-003  0.1993185E+03  0.7818608E-02  0.1150352E+00
         21   -1    0    0  503  502  0.00000000000E+00  0.00000000000E+00  0.77603014340E+02  0.77603014340E+02  0.00000000000E+00 0. -1.
         21   -1    0    0  501  503 -0.00000000000E+00 -0.00000000000E+00 -0.51874377414E+03  0.51874377414E+03  0.00000000000E+00 0.  1.
          6    2    1    2  501    0 -0.11605909062E+02 -0.99461688693E+02 -0.25574121945E+03  0.32413204185E+03  0.17213565750E+03 0.  0.
         24    2    3    3    0    0 -0.28030639480E+02  0.77392021439E+01 -0.12965649690E+03  0.15775521045E+03  0.85031095700E+02 0.  0.
         -6    2    1    2    0  502  0.11605909062E+02  0.99461688693E+02 -0.18539954035E+03  0.27221474664E+03  0.17233848694E+03 0.  0.
        -24    2    5    5    0    0  0.17570741460E+02 -0.16101605668E+02 -0.81304178127E+02  0.11649580538E+03  0.79955679159E+02 0.  0.
          5    1    3    3  501    0  0.16424730418E+02 -0.10720089084E+03 -0.12608472256E+03  0.16637683140E+03  0.47000000000E+01 0. -1.
        -11    1    4    4    0    0 -0.51700071675E+01  0.64857309249E+01  0.11819121505E+02  0.14439020496E+02  0.00000000000E+00 0.  1.
         12    1    4    4    0    0 -0.22860632313E+02  0.12534712189E+01 -0.14147561840E+03  0.14331618995E+03  0.00000000000E+00 0. -1.
         -5    1    5    5    0  502 -0.59648323980E+01  0.11556329436E+03 -0.10409536222E+03  0.15571894125E+03  0.47000000000E+01 0.  1.
         11    1    6    6    0    0 -0.24663616012E+01 -0.40899503217E+02 -0.72736583931E+02  0.83483309379E+02  0.00000000000E+00 0. -1.
        -12    1    6    6    0    0  0.20037103061E+02  0.24797897549E+02 -0.85675941965E+01  0.33012496002E+02  0.00000000000E+00 0.  1.
</event>
<event>
12    1  0.9246030E-003  0.2305122E+03  0.7818608E-02  0.1126787E+00
         21   -1    0    0  501  502  0.00000000000E+00  0.00000000000E+00  0.29110807023E+03  0.29110807023E+03  0.00000000000E+00 0. -1.
         21   -1    0    0  502  503 -0.00000000000E+00 -0.00000000000E+00 -0.32289156515E+03  0.32289156515E+03  0.00000000000E+00 0.  1.
          6    2    1    2  501    0  0.14932669831E+03  0.74912221016E+01  0.18809006571E+03  0.29751259415E+03  0.17544597351E+03 0.  0.
         24    2    3    3    0    0  0.42151522289E+02  0.40682739669E+02  0.15611400565E+03  0.18075321075E+03  0.69773234825E+02 0.  0.
         -6    2    1    2    0  503 -0.14932669831E+03 -0.74912221016E+01 -0.21987356063E+03  0.31648704123E+03  0.17165396402E+03 0.  0.
        -24    2    5    5    0    0 -0.12633156451E+03 -0.40231183073E+02 -0.22360580385E+03  0.27603088147E+03  0.92818531174E+02 0.  0.
          5    1    3    3  501    0  0.10717517602E+03 -0.33191517568E+02  0.31976060060E+02  0.11675938340E+03  0.47000000000E+01 0. -1.
        -11    1    4    4    0    0 -0.15242277608E+02 -0.62598092121E+01  0.36091374211E+02  0.39674923194E+02  0.00000000000E+00 0.  1.
         12    1    4    4    0    0  0.57393799896E+02  0.46942548881E+02  0.12002263144E+03  0.14107828755E+03  0.00000000000E+00 0. -1.
         -5    1    5    5    0  503 -0.22995133797E+02  0.32739960972E+02  0.37322432147E+01  0.40456159756E+02  0.47000000000E+01 0.  1.
         13    1    6    6    0    0 -0.79121554925E+01 -0.27525888492E+02 -0.80323866826E+01  0.29745520295E+02  0.00000000000E+00 0. -1.
        -14    1    6    6    0    0 -0.11841940902E+03 -0.12705294582E+02 -0.21557341716E+03  0.24628536118E+03  0.00000000000E+00 0.  1.
</event>
<event>
12    1  0.9246030E-003  0.3865180E+03  0.7818608E-02  0.1048892E+00
         21   -1    0    0  501  502  0.00000000000E+00  0.00000000000E+00  0.32510565459E+03  0.32510565459E+03  0.00000000000E+00 0. -1.
         21   -1    0    0  502  503 -0.00000000000E+00 -0.00000000000E+00 -0.53811629988E+03  0.53811629988E+03  0.00000000000E+00 0. -1.
          6    2    1    2  501    0 -0.12203203843E+03  0.32315451000E+03  0.63480983543E+02  0.38799174800E+03  0.16488512821E+03 0.  0.
         24    2    3    3    0    0 -0.15166354097E+03  0.26801648756E+03  0.43694581442E+02  0.32217519104E+03  0.83981962413E+02 0.  0.
         -6    2    1    2    0  503  0.12203203843E+03 -0.32315451000E+03 -0.27649162884E+03  0.47523020647E+03  0.17342281449E+03 0.  0.
        -24    2    5    5    0    0  0.10281154099E+03 -0.17240117555E+03 -0.23136843351E+03  0.31662948729E+03  0.80190410280E+02 0.  0.
          5    1    3    3  501    0  0.29631502539E+02  0.55138022439E+02  0.19786402101E+02  0.65816556954E+02  0.47000000000E+01 0. -1.
        -13    1    4    4    0    0  0.41981969593E+00 -0.56102833440E+01 -0.16363929421E+01  0.58591219170E+01  0.00000000000E+00 0.  1.
         14    1    4    4    0    0 -0.15208336067E+03  0.27362677090E+03  0.45330974384E+02  0.31631606912E+03  0.00000000000E+00 0. -1.
         -5    1    5    5    0  503  0.19220497443E+02 -0.15075333445E+03 -0.45123195327E+02  0.15860071919E+03  0.47000000000E+01 0.  1.
         11    1    6    6    0    0  0.42869175870E+01 -0.82946927378E+02 -0.91081932867E+02  0.12326592765E+03  0.00000000000E+00 0. -1.
        -12    1    6    6    0    0  0.98524623404E+02 -0.89454248171E+02 -0.14028650065E+03  0.19336355964E+03  0.00000000000E+00 0.  1.
</event>
<event>
12    1  0.9246030E-003  0.2027755E+03  0.7818608E-02  0.1148228E+00
         21   -1    0    0  501  502  0.00000000000E+00  0.00000000000E+00  0.10813217518E+04  0.10813217518E+04  0.00000000000E+00 0. -1.
         21   -1    0    0  502  503 -0.00000000000E+00 -0.00000000000E+00 -0.43254558784E+02  0.43254558784E+02  0.00000000000E+00 0.  1.
          6    2    1    2  501    0 -0.14167571886E+02  0.98839914908E+02  0.73188857133E+03  0.75945952868E+03  0.17648752362E+03 0.  0.
         24    2    3    3    0    0 -0.68077852045E+02  0.56510046911E+02  0.30700109515E+03  0.32905321664E+03  0.78729712422E+02 0.  0.
         -6    2    1    2    0  503  0.14167571886E+02 -0.98839914908E+02  0.30617862165E+03  0.36511678187E+03  0.17203158771E+03 0.  0.
        -24    2    5    5    0    0  0.75672701504E+02 -0.63767340858E+02  0.18089360598E+03  0.22113278425E+03  0.79903567311E+02 0.  0.
          5    1    3    3  501    0  0.53910280159E+02  0.42329867998E+02  0.42488747618E+03  0.43040631204E+03  0.47000000000E+01 0. -1.
        -11    1    4    4    0    0 -0.63894301578E+02  0.26942699896E+02  0.11163632257E+03  0.13141940256E+03  0.00000000000E+00 0.  1.
         12    1    4    4    0    0 -0.41835504672E+01  0.29567347015E+02  0.19536477258E+03  0.19763381408E+03  0.00000000000E+00 0. -1.
         -5    1    5    5    0  503 -0.61505129618E+02 -0.35072574050E+02  0.12528501567E+03  0.14398399762E+03  0.47000000000E+01 0.  1.
         13    1    6    6    0    0  0.19826302138E+02 -0.68201158806E+02  0.10630879047E+03  0.12785162983E+03  0.00000000000E+00 0. -1.
        -14    1    6    6    0    0  0.55846399366E+02  0.44338179483E+01  0.74584815510E+02  0.93281154412E+02  0.00000000000E+00 0.  1.
</event>
<event>
12    1  0.9246030E-003  0.1883224E+03  0.7818608E-02  0.1160373E+00
         21   -1    0    0  501  502  0.00000000000E+00  0.00000000000E+00  0.71439336633E+03  0.71439336633E+03  0.00000000000E+00 0.  1.
         21   -1    0    0  502  503 -0.00000000000E+00 -0.00000000000E+00 -0.56864184889E+02  0.56864184889E+02  0.00000000000E+00 0.  1.
          6    2    1    2  501    0 -0.71722458345E+02  0.26832194705E+02  0.46907957297E+03  0.50483947658E+03  0.17018570338E+03 0.  0.
         24    2    3    3    0    0 -0.10122965117E+02 -0.40243491359E+02  0.17952244149E+03  0.20126235686E+03  0.80970465424E+02 0.  0.
         -6    2    1    2    0  503  0.71722458345E+02 -0.26832194705E+02  0.18844960847E+03  0.26641807464E+03  0.17205016088E+03 0.  0.
        -24    2    5    5    0    0  0.94277930218E+02  0.21625812969E+02  0.16592598052E+03  0.20822587899E+03  0.80439926369E+02 0.  0.
          5    1    3    3  501    0 -0.61599493228E+02  0.67075686064E+02  0.28955713148E+03  0.30357711972E+03  0.47000000000E+01 0. -1.
        -13    1    4    4    0    0 -0.26612637018E+00 -0.73297018924E+01  0.16295235573E+03  0.16311733688E+03  0.00000000000E+00 0.  1.
         14    1    4    4    0    0 -0.98568387469E+01 -0.32913789467E+02  0.16570085760E+02  0.38145019980E+02  0.00000000000E+00 0. -1.
         -5    1    5    5    0  503 -0.22555471873E+02 -0.48458007674E+02  0.22523627952E+02  0.58192195656E+02  0.47000000000E+01 0.  1.
         13    1    6    6    0    0  0.92362184104E+02  0.30527450784E+02  0.92490771519E+02  0.13422831713E+03  0.00000000000E+00 0. -1.
        -14    1    6    6    0    0  0.19157461140E+01 -0.89016378153E+01  0.73435209003E+02  0.73997561853E+02  0.00000000000E+00 0.  1.
</event>
<event>
12    1  0.9246030E-003  0.2606461E+03  0.7818608E-02  0.1106948E+00
         21   -1    0    0  501  502  0.00000000000E+00  0.00000000000E+00  0.54098245501E+02  0.54098245501E+02  0.00000000000E+00 0. -1.
         21   -1    0    0  502  503 -0.00000000000E+00 -0.00000000000E+00 -0.16651732486E+04  0.16651732486E+04  0.00000000000E+00 0. -1.
          6    2    1    2  501    0 -0.10366616627E+03 -0.16559789347E+03 -0.37461973522E+03  0.45564259408E+03  0.17058983317E+03 0.  0.
         24    2    3    3    0    0 -0.76621231994E+02 -0.43231316868E+02 -0.10729401244E+03  0.16036282912E+03  0.80401939704E+02 0.  0.
         -6    2    1    2    0  503  0.10366616627E+03  0.16559789347E+03 -0.12364552679E+04  0.12636289000E+04  0.17253124682E+03 0.  0.
        -24    2    5    5    0    0 -0.13246517888E+02  0.91470673919E+02 -0.50529718460E+03  0.51946651643E+03  0.77316637948E+02 0.  0.
          5    1    3    3  501    0 -0.27044934274E+02 -0.12236657660E+03 -0.26732572278E+03  0.29527976496E+03  0.47000000000E+01 0. -1.
        -11    1    4    4    0    0 -0.38826463526E+02  0.95253300419E+01 -0.81023731220E+02  0.90349716121E+02  0.00000000000E+00 0.  1.
         12    1    4    4    0    0 -0.37794768467E+02 -0.52756646910E+02 -0.26270281221E+02  0.70013113001E+02  0.00000000000E+00 0. -1.
         -5    1    5    5    0  503  0.11691268416E+03  0.74127219550E+02 -0.73115808328E+03  0.74416238358E+03  0.47000000000E+01 0.  1.
         11    1    6    6    0    0 -0.21544731388E+02  0.77393635612E+02 -0.49166755401E+03  0.49818764934E+03  0.00000000000E+00 0. -1.
        -12    1    6    6    0    0  0.82982134999E+01  0.14077038308E+02 -0.13629630589E+02  0.21278867094E+02  0.00000000000E+00 0.  1.
</event>
<event>
12    1  0.9246030E-003  0.2410012E+03  0.7818608E-02  0.1119157E+00
         21   -1    0    0  503  502  0.00000000000E+00  0.00000000000E+00  0.39406515505E+03  0.39406515505E+03  0.00000000000E+00 0.  1.
         21   -1    0    0  501  503 -0.00000000000E+00 -0.00000000000E+00 -0.14748288541E+03  0.14748288541E+03  0.00000000000E+00 0. -1.
          6    2    1    2  501    0  0.76447803484E+02  0.15067448955E+03  0.13319844914E+03  0.27520714741E+03  0.17161025224E+03 0.  0.
         24    2    3    3    0    0  0.89624471153E+02  0.15587746529E+03  0.69819756370E+02  0.21009459697E+03  0.83274313455E+02 0.  0.
         -6    2    1    2    0  502 -0.76447803484E+02 -0.15067448955E+03  0.11338382050E+03  0.26634089305E+03  0.17185607961E+03 0.  0.
        -24    2    5    5    0    0 -0.34689742446E+02 -0.16994610323E+03  0.67199134576E+02  0.20099377399E+03  0.76142742678E+02 0.  0.
          5    1    3    3  501    0 -0.13176667670E+02 -0.52029757383E+01  0.63378692772E+02  0.65112550441E+02  0.47000000000E+01 0. -1.
        -11    1    4    4    0    0  0.91868863524E+01  0.93021293167E+02  0.50345677795E+02  0.10616989750E+03  0.00000000000E+00 0.  1.
         12    1    4    4    0    0  0.80437584801E+02  0.62856172121E+02  0.19474078574E+02  0.10392469946E+03  0.00000000000E+00 0. -1.
         -5    1    5    5    0  502 -0.41758061037E+02  0.19271613676E+02  0.46184685925E+02  0.65347119059E+02  0.47000000000E+01 0.  1.
         11    1    6    6    0    0 -0.33508312527E+02 -0.10268325752E+03  0.77495911319E+02  0.13293710789E+03  0.00000000000E+00 0. -1.
        -12    1    6    6    0    0 -0.11814299190E+01 -0.67262845710E+02 -0.10296776743E+02  0.68056666103E+02  0.00000000000E+00 0.  1.
</event>
<event>
12    1  0.9246030E-003  0.2147882E+03  0.7818608E-02  0.1138252E+00
         21   -1    0    0  503  502  0.00000000000E+00  0.00000000000E+00  0.11544282459E+03  0.11544282459E+03  0.00000000000E+00 0.  1.
         21   -1    0    0  501  503 -0.00000000000E+00 -0.00000000000E+00 -0.44749855537E+03  0.44749855537E+03  0.00000000000E+00 0.  1.
          6    2    1    2  501    0  0.48986092048E+02  0.11179993574E+03 -0.26116117628E+03  0.33675558936E+03  0.17406982542E+03 0.  0.
         24    2    3    3    0    0  0.39337580350E+02  0.13584994603E+03 -0.26414990930E+03  0.31025050875E+03  0.80483231389E+02 0.  0.
         -6    2    1    2    0  502 -0.48986092048E+02 -0.11179993574E+03 -0.70894554499E+02  0.22618579060E+03  0.17673457830E+03 0.  0.
        -24    2    5    5    0    0 -0.47583555027E+02 -0.77267736565E+00 -0.74828843556E+02  0.11498062956E+03  0.73187414265E+02 0.  0.
          5    1    3    3  501    0  0.96485116984E+01 -0.24050010286E+02  0.29887330211E+01  0.26505080604E+02  0.47000000000E+01 0. -1.
        -11    1    4    4    0    0  0.27753115078E+02  0.83527009263E+02 -0.23108769380E+03  0.24728226564E+03  0.00000000000E+00 0.  1.
         12    1    4    4    0    0  0.11584465271E+02  0.52322936764E+02 -0.33062215500E+02  0.62968243115E+02  0.00000000000E+00 0. -1.
         -5    1    5    5    0  502 -0.14025370213E+01 -0.11102725838E+03  0.39342890562E+01  0.11120516104E+03  0.47000000000E+01 0.  1.
         13    1    6    6    0    0 -0.35715361213E+02 -0.34935597222E+02 -0.52521471074E+02  0.72488536360E+02  0.00000000000E+00 0. -1.
        -14    1    6    6    0    0 -0.11868193814E+02  0.34162919856E+02 -0.22307372481E+02  0.42492093200E+02  0.00000000000E+00 0.  1.
</event>
<event>
12    1  0.9246030E-003  0.2595934E+03  0.7818608E-02  0.1107709E+00
         21   -1    0    0  501  502  0.00000000000E+00  0.00000000000E+00  0.23911550495E+04  0.23911550495E+04  0.00000000000E+00 0.  1.
         21   -1    0    0  502  503 -0.00000000000E+00 -0.00000000000E+00 -0.41693088676E+02  0.41693088676E+02  0.00000000000E+00 0.  1.
          6    2    1    2  501    0 -0.17897987551E+03 -0.67614771438E+02  0.18698211929E+04  0.18874638530E+04  0.17228740380E+03 0.  0.
         24    2    3    3    0    0 -0.20591169735E+03 -0.46657617222E+02  0.16070982633E+04  0.16224922448E+04  0.71691675805E+02 0.  0.
         -6    2    1    2    0  503  0.17897987551E+03  0.67614771438E+02  0.47964076792E+03  0.54538428525E+03  0.17545141548E+03 0.  0.
        -24    2    5    5    0    0  0.97172251122E+02 -0.24527343327E+02  0.30842970406E+03  0.33439145336E+03  0.81515181254E+02 0.  0.
          5    1    3    3  501    0  0.26931821836E+02 -0.20957154216E+02  0.26272292967E+03  0.26497160813E+03  0.47000000000E+01 0. -1.
        -11    1    4    4    0    0 -0.10147712438E+03  0.23476879751E+01  0.94317276545E+03  0.94861898773E+03  0.00000000000E+00 0.  1.
         12    1    4    4    0    0 -0.10443457296E+03 -0.49005305197E+02  0.66392549782E+03  0.67387325709E+03  0.00000000000E+00 0. -1.
         -5    1    5    5    0  503  0.81807624388E+02  0.92142114765E+02  0.17121106386E+03  0.21099283189E+03  0.47000000000E+01 0.  1.
         13    1    6    6    0    0 -0.14755869357E+02 -0.34254420388E+01  0.41414344138E+02  0.44097814391E+02  0.00000000000E+00 0. -1.
        -14    1    6    6    0    0  0.11192812048E+03 -0.21101901288E+02  0.26701535992E+03  0.29029363897E+03  0.00000000000E+00 0.  1.
</event>
<event>
12    1  0.9246030E-003  0.1758489E+03  0.7818608E-02  0.1172544E+00
         21   -1    0    0  503  502  0.00000000000E+00  0.00000000000E+00  0.89060870413E+02  0.89060870413E+02  0.00000000000E+00 0. -1.
         21   -1    0    0  501  503 -0.00000000000E+00 -0.00000000000E+00 -0.42496106242E+03  0.42496106242E+03  0.00000000000E+00 0. -1.
          6    2    1    2  501    0 -0.35043988355E+02  0.87774705331E+01 -0.28250205399E+03  0.33276156680E+03  0.17209800906E+03 0.  0.
         24    2    3    3    0    0 -0.22332808905E+02 -0.45602468966E+02 -0.83047290835E+02  0.12558279268E+03  0.79346365840E+02 0.  0.
         -6    2    1    2    0  502  0.35043988355E+02 -0.87774705331E+01 -0.53398138012E+02  0.18126036603E+03  0.16940730220E+03 0.  0.
        -24    2    5    5    0    0  0.21872647787E+01  0.50279164175E+02  0.19863448056E+01  0.93757329940E+02  0.79080420298E+02 0.  0.
          5    1    3    3  501    0 -0.12711179450E+02  0.54379939499E+02 -0.19945476316E+03  0.20717877413E+03  0.47000000000E+01 0. -1.
        -13    1    4    4    0    0  0.61943452405E+01  0.54944590527E+01  0.11631690728E+02  0.14277787729E+02  0.00000000000E+00 0.  1.
         14    1    4    4    0    0 -0.28527154146E+02 -0.51096928019E+02 -0.94678981563E+02  0.11130500495E+03  0.00000000000E+00 0. -1.
         -5    1    5    5    0  502  0.32856723576E+02 -0.59056634708E+02 -0.55384482817E+02  0.87503036085E+02  0.47000000000E+01 0.  1.
         11    1    6    6    0    0  0.32832450711E+02  0.30123612179E+00  0.10600418358E+02  0.34502600370E+02  0.00000000000E+00 0. -1.
        -12    1    6    6    0    0 -0.30645185933E+02  0.49977928053E+02 -0.86140735523E+01  0.59254729570E+02  0.00000000000E+00 0.  1.
</event>
<event>
12    1  0.9246030E-003  0.2159436E+03  0.7818608E-02  0.1137131E+00
         21   -1    0    0  503  502  0.00000000000E+00  0.00000000000E+00  0.93606980468E+03  0.93606980468E+03  0.00000000000E+00 0.  1.
         21   -1    0    0  501  503 -0.00000000000E+00 -0.00000000000E+00 -0.57077390725E+02  0.57077390725E+02  0.00000000000E+00 0. -1.
          6    2    1    2  501    0 -0.12615424549E+03 -0.26016952323E+02  0.25878297788E+03  0.33641940620E+03  0.17209768087E+03 0.  0.
         24    2    3    3    0    0 -0.12526370375E+03 -0.58245586751E+02  0.25861985080E+03  0.30383728607E+03  0.79682653824E+02 0.  0.
         -6    2    1    2    0  502  0.12615424549E+03  0.26016952323E+02  0.62020943608E+03  0.65672778921E+03  0.17332013460E+03 0.  0.
        -24    2    5    5    0    0  0.15666186158E+03  0.37970753604E+02  0.47997107479E+03  0.51263581864E+03  0.80240469347E+02 0.  0.
          5    1    3    3  501    0 -0.89054173621E+00  0.32228634429E+02  0.16312707533E+00  0.32582120130E+02  0.47000000000E+01 0. -1.
        -13    1    4    4    0    0 -0.39948227532E+02  0.19084111808E+02  0.75540358830E+02  0.87558038001E+02  0.00000000000E+00 0.  1.
         14    1    4    4    0    0 -0.85315476222E+02 -0.77329698560E+02  0.18307949197E+03  0.21627924806E+03  0.00000000000E+00 0. -1.
         -5    1    5    5    0  502 -0.30507616087E+02 -0.11953801281E+02  0.14023836129E+03  0.14409197057E+03  0.47000000000E+01 0.  1.
         13    1    6    6    0    0  0.96976249812E+01  0.18607037396E+02  0.18611897903E+02  0.28047611565E+02  0.00000000000E+00 0. -1.
        -14    1    6    6    0    0  0.14696423660E+03  0.19363716207E+02  0.46135917688E+03  0.48458820708E+03  0.00000000000E+00 0.  1.
</event>
<event>
12    1  0.9246030E-003  0.1969927E+03  0.7818608E-02  0.1152385E+00
         21   -1    0    0  503  502  0.00000000000E+00  0.00000000000E+00  0.82634811309E+02  0.82634811309E+02  0.00000000000E+00 0. -1.
         21   -1    0    0  501  503 -0.00000000000E+00 -0.00000000000E+00 -0.46880888751E+03  0.46880888751E+03  0.00000000000E+00 0.  1.
          6    2    1    2  501    0 -0.93523099145E+02 -0.24582293412E+02 -0.19770864588E+03  0.27909644566E+03  0.17162534224E+03 0.  0.
         24    2    3    3    0    0 -0.11180466389E+03 -0.27220085062E+01 -0.20689176464E+03  0.24878955971E+03  0.81144011160E+02 0.  0.
         -6    2    1    2    0  502  0.93523099145E+02  0.24582293412E+02 -0.18846543032E+03  0.27234725316E+03  0.17118104058E+03 0.  0.
        -24    2    5    5    0    0  0.35465283103E+02  0.57288787908E+02 -0.17438945296E+03  0.20407831495E+03  0.81832058529E+02 0.  0.
          5    1    3    3  501    0  0.18281564743E+02 -0.21860284906E+02  0.91831187600E+01  0.30306885947E+02  0.47000000000E+01 0. -1.
        -13    1    4    4    0    0 -0.52960528387E+02  0.38128732320E+02 -0.81829100608E+02  0.10466431819E+03  0.00000000000E+00 0.  1.
         14    1    4    4    0    0 -0.58844135501E+02 -0.40850740826E+02 -0.12506266403E+03  0.14412524152E+03  0.00000000000E+00 0. -1.
         -5    1    5    5    0  502  0.58057816043E+02 -0.32706494496E+02 -0.14075977359E+02  0.68268938211E+02  0.47000000000E+01 0.  1.
         13    1    6    6    0    0  0.14712203105E+02 -0.20403950079E+02 -0.34089647676E+02  0.42365955409E+02  0.00000000000E+00 0. -1.
        -14    1    6    6    0    0  0.20753079998E+02  0.77692737987E+02 -0.14029980528E+03  0.16171235954E+03  0.00000000000E+00 0.  1.
</event>
<event>
12    1  0.9246030E-003  0.2077964E+03  0.7818608E-02  0.1144003E+00
         21   -1    0    0  501  502  0.00000000000E+00  0.00000000000E+00  0.20050139357E+03  0.20050139357E+03  0.00000000000E+00 0. -1.
         21   -1    0    0  502  503 -0.00000000000E+00 -0.00000000000E+00 -0.24234454108E+03  0.24234454108E+03  0.00000000000E+00 0.  1.
          6    2    1    2  501    0  0.15559316197E+02  0.11015378164E+03  0.57418948619E+02  0.21558356153E+03  0.17550894111E+03 0.  0.
         24    2    3    3    0    0  0.66687435208E+02  0.16693534254E+02  0.58202248043E+02  0.10894582921E+03  0.61284614098E+02 0.  0.
         -6    2    1    2    0  503 -0.15559316197E+02 -0.11015378164E+03 -0.99262096137E+02  0.22726237312E+03  0.17152047860E+03 0.  0.
        -24    2    5    5    0    0 -0.74094070947E+02 -0.77173212920E+02 -0.44965005326E+02  0.14075052713E+03  0.79644353484E+02 0.  0.
          5    1    3    3  501    0 -0.51128119010E+02  0.93460247386E+02 -0.78329942427E+00  0.10663773231E+03  0.47000000000E+01 0. -1.
        -13    1    4    4    0    0 -0.73895225803E+01 -0.72594505685E+00 -0.58712719056E+01  0.94659322827E+01  0.00000000000E+00 0.  1.
         14    1    4    4    0    0  0.74076957788E+02  0.17419479311E+02  0.64073519948E+02  0.99479896930E+02  0.00000000000E+00 0. -1.
         -5    1    5    5    0  503  0.58534754749E+02 -0.32980568721E+02 -0.54297090811E+02  0.86511845993E+02  0.47000000000E+01 0.  1.
         13    1    6    6    0    0  0.12541440880E+02  0.51907712748E+00 -0.16888238081E+02  0.21042095093E+02  0.00000000000E+00 0. -1.
        -14    1    6    6    0    0 -0.86635511826E+02 -0.77692290047E+02 -0.28076767245E+02  0.11970843204E+03  0.00000000000E+00 0.  1.
</event>
<event>
12    1  0.9246030E-003  0.1887450E+03  0.7818608E-02  0.1159624E+00
         21   -1    0    0  503  502  0.00000000000E+00  0.00000000000E+00  0.51218827779E+03  0.51218827779E+03  0.00000000000E+00 0.  1.
         21   -1    0    0  501  503 -0.00000000000E+00 -0.00000000000E+00 -0.11200710675E+03  0.11200710675E+03  0.00000000000E+00 0.  1.
          6    2    1    2  501    0  0.11292115592E+02  0.78036764639E+02  0.78145823376E+01  0.18879187670E+03  0.17135943657E+03 0.  0.
         24    2    3    3    0    0  0.66416612223E+02  0.82320778482E+02 -0.48908184169E+01  0.13186578329E+03  0.78592542575E+02 0.  0.
         -6    2    1    2    0  502 -0.11292115592E+02 -0.78036764639E+02  0.39236658870E+03  0.43540350783E+03  0.17148593585E+03 0.  0.
        -24    2    5    5    0    0 -0.57005867532E+02 -0.61418625989E+01  0.15874461843E+03  0.18668692405E+03  0.79779460520E+02 0.  0.
          5    1    3    3  501    0 -0.55124496631E+02 -0.42840138423E+01  0.12705400755E+02  0.56926093417E+02  0.47000000000E+01 0. -1.
        -11    1    4    4    0    0 -0.10050718456E+02  0.46051618600E+02 -0.23846150251E+01  0.47195920437E+02  0.00000000000E+00 0.  1.
         12    1    4    4    0    0  0.76467330679E+02  0.36269159882E+02 -0.25062033918E+01  0.84669862850E+02  0.00000000000E+00 0. -1.
         -5    1    5    5    0  502  0.45713751940E+02 -0.71894902040E+02  0.23362197027E+03  0.24871658379E+03  0.47000000000E+01 0.  1.
         11    1    6    6    0    0  0.14266503147E+02  0.10763341683E+02  0.90512502947E+01  0.20032667524E+02  0.00000000000E+00 0. -1.
        -12    1    6    6    0    0 -0.71272370679E+02 -0.16905204282E+02  0.14969336814E+03  0.16665425652E+03  0.00000000000E+00 0.  1.
</event>
<event>
12    1  0.9246030E-003  0.1747274E+03  0.7818608E-02  0.1173307E+00
         21   -1    0    0  503  502  0.00000000000E+00  0.00000000000E+00  0.52362946575E+03  0.52362946575E+03  0.00000000000E+00 0.  1.
         21   -1    0    0  501  503 -0.00000000000E+00 -0.00000000000E+00 -0.57906747764E+02  0.57906747764E+02  0.00000000000E+00 0.  1.
          6    2    1    2  501    0  0.98687327916E+01  0.29225528190E+02  0.23227891545E+03  0.28994457108E+03  0.17077129840E+03 0.  0.
         24    2    3    3    0    0  0.29463700759E+02 -0.31368716045E+02  0.19704952938E+03  0.21701429721E+03  0.80091086639E+02 0.  0.
         -6    2    1    2    0  502 -0.98687327916E+01 -0.29225528190E+02  0.23344380254E+03  0.29159164243E+03  0.17198300383E+03 0.  0.
        -24    2    5    5    0    0  0.20948594282E+02 -0.47011800446E+02  0.23728579634E+03  0.25549579717E+03  0.79527355301E+02 0.  0.
          5    1    3    3  501    0 -0.19594967967E+02  0.60594244235E+02  0.35229386069E+02  0.72930273871E+02  0.47000000000E+01 0. -1.
        -11    1    4    4    0    0 -0.22440840277E+02 -0.19601051966E+01  0.19788033320E+02  0.29983321821E+02  0.00000000000E+00 0.  1.
         12    1    4    4    0    0  0.51904541036E+02 -0.29408610848E+02  0.17726149606E+03  0.18703097539E+03  0.00000000000E+00 0. -1.
         -5    1    5    5    0  502 -0.30817327074E+02  0.17786272255E+02 -0.38419938019E+01  0.36095845261E+02  0.47000000000E+01 0.  1.
         13    1    6    6    0    0 -0.22329070192E+02 -0.15116346922E+02  0.15415654965E+03  0.15649707065E+03  0.00000000000E+00 0. -1.
        -14    1    6    6    0    0  0.43277664474E+02 -0.31895453524E+02  0.83129246687E+02  0.98998726520E+02  0.00000000000E+00 0.  1.
</event>
<event>
12    1  0.9246030E-003  0.1921413E+03  0.7818608E-02  0.1156813E+00
         21   -1    0    0  501  502  0.00000000000E+00  0.00000000000E+00  0.57232109293E+03  0.57232109293E+03  0.00000000000E+00 0. -1.
         21   -1    0    0  502  503 -0.00000000000E+00 -0.00000000000E+00 -0.65196393875E+02  0.65196393875E+02  0.00000000000E+00 0. -1.
          6    2    1    2  501    0  0.75007330896E+02 -0.37257697928E+02  0.29564547542E+03  0.35259683576E+03  0.17292786273E+03 0.  0.
         24    2    3    3    0    0 -0.11847243932E+02  0.26178553370E+01  0.63911712130E+02  0.10188504113E+03  0.78413291628E+02 0.  0.
         -6    2    1    2    0  503 -0.75007330896E+02  0.37257697928E+02  0.21147922363E+03  0.28492065104E+03  0.17158694478E+03 0.  0.
        -24    2    5    5    0    0 -0.98492186399E+01  0.60065102900E+02  0.18393312272E+03  0.21044491681E+03  0.82163530129E+02 0.  0.
          5    1    3    3  501    0  0.86854574827E+02 -0.39875553265E+02  0.23173376329E+03  0.25071179462E+03  0.47000000000E+01 0. -1.
        -13    1    4    4    0    0 -0.12057853881E+02  0.37105558603E+02  0.14490072230E+02  0.41619424704E+02  0.00000000000E+00 0.  1.
         14    1    4    4    0    0  0.21060994936E+00 -0.34487703266E+02  0.49421639900E+02  0.60265616429E+02  0.00000000000E+00 0. -1.
         -5    1    5    5    0  503 -0.65158112256E+02 -0.22807404972E+02  0.27546100914E+02  0.74475734235E+02  0.47000000000E+01 0.  1.
         11    1    6    6    0    0 -0.12933185437E+02 -0.14895971813E+02  0.79155633721E+02  0.81576783533E+02  0.00000000000E+00 0. -1.
        -12    1    6    6    0    0  0.30839667975E+01  0.74961074712E+02  0.10477748900E+03  0.12886813328E+03  0.00000000000E+00 0.  1.
</event>
<event>
12    1  0.9246030E-003  0.1797900E+03  0.7818608E-02  0.1168768E+00
         21   -1    0    0  503  502  0.00000000000E+00  0.00000000000E+00  0.13650376809E+03  0.13650376809E+03  0.00000000000E+00 0.  1.
         21   -1    0    0  501  503 -0.00000000000E+00 -0.00000000000E+00 -0.24127114330E+03  0.24127114330E+03  0.00000000000E+00 0.  1.
          6    2    1    2  501    0 -0.28535502666E+02  0.33241352004E+02 -0.88385725073E+02  0.20034094227E+03  0.17437085294E+03 0.  0.
         24    2    3    3    0    0 -0.15682494239E+02 -0.53948210753E+02 -0.56783782073E+02  0.10659664921E+03  0.70583975854E+02 0.  0.
         -6    2    1    2    0  502  0.28535502666E+02 -0.33241352004E+02 -0.16381650139E+02  0.17743396913E+03  0.17115838438E+03 0.  0.
        -24    2    5    5    0    0  0.40474945346E+02  0.34422745557E+02 -0.40314145692E+02  0.10452419795E+03  0.80479382458E+02 0.  0.
          5    1    3    3  501    0 -0.12853008427E+02  0.87189562757E+02 -0.31601943000E+02  0.93744293057E+02  0.47000000000E+01 0. -1.
        -13    1    4    4    0    0  0.66135272555E+01  0.68700804391E+01 -0.37961703091E+02  0.39141124787E+02  0.00000000000E+00 0.  1.
         14    1    4    4    0    0 -0.22296021494E+02 -0.60818291193E+02 -0.18822078982E+02  0.67455524424E+02  0.00000000000E+00 0. -1.
         -5    1    5    5    0  502 -0.11939442679E+02 -0.67664097561E+02  0.23932495553E+02  0.72909771181E+02  0.47000000000E+01 0.  1.
         11    1    6    6    0    0  0.56056983929E+00  0.30174197144E+02 -0.54212176655E+02  0.62046406097E+02  0.00000000000E+00 0. -1.
        -12    1    6    6    0    0  0.39914375506E+02  0.42485484132E+01  0.13898030963E+02  0.42477791848E+02  0.00000000000E+00 0.  1.
</event>
<event>
12    1  0.9246030E-003  0.3057737E+03  0.7818608E-02  0.1082470E+00
         21   -1    0    0  503  502  0.00000000000E+00  0.00000000000E+00  0.66054927619E+02  0.66054927619E+02  0.00000000000E+00 0. -1.
         21   -1    0    0  501  503 -0.00000000000E+00 -0.00000000000E+00 -0.15165410003E+04  0.15165410003E+04  0.00000000000E+00 0.  1.
          6    2    1    2  501    0 -0.19434608904E+03 -0.16130395838E+03 -0.93188401297E+03  0.98056134497E+03  0.17118226632E+03 0.  0.
         24    2    3    3    0    0 -0.14338128731E+03 -0.18229331736E+03 -0.67880412562E+03  0.72150636319E+03  0.77507058077E+02 0.  0.
         -6    2    1    2    0  502  0.19434608904E+03  0.16130395838E+03 -0.51860205971E+03  0.60203458295E+03  0.17236059125E+03 0.  0.
        -24    2    5    5    0    0  0.12999820918E+03  0.30854783570E+02 -0.32221351639E+03  0.35760016066E+03  0.78770379602E+02 0.  0.
          5    1    3    3  501    0 -0.50964801732E+02  0.20989358983E+02 -0.25307988735E+03  0.25905498178E+03  0.47000000000E+01 0. -1.
        -13    1    4    4    0    0 -0.74804814999E+02 -0.84296999428E+02 -0.44288127850E+03  0.45699624868E+03  0.00000000000E+00 0.  1.
         14    1    4    4    0    0 -0.68576472312E+02 -0.97996317937E+02 -0.23592284712E+03  0.26451011451E+03  0.00000000000E+00 0. -1.
         -5    1    5    5    0  502  0.64347879865E+02  0.13044917481E+03 -0.19638854333E+03  0.24443442229E+03  0.47000000000E+01 0.  1.
         13    1    6    6    0    0  0.15536116068E+02 -0.23350556558E+02 -0.68934990162E+02  0.74422122132E+02  0.00000000000E+00 0. -1.
        -14    1    6    6    0    0  0.11446209311E+03  0.54205340128E+02 -0.25327852623E+03  0.28317803853E+03  0.00000000000E+00 0.  1.
</event>
<event>
12    1  0.9246030E-003  0.1836632E+03  0.7818608E-02  0.1164617E+00
         21   -1    0    0  501  502  0.00000000000E+00  0.00000000000E+00  0.15222078263E+04  0.15222078263E+04  0.00000000000E+00 0. -1.
         21   -1    0    0  502  503 -0.00000000000E+00 -0.00000000000E+00 -0.25395089376E+02  0.25395089376E+02  0.00000000000E+00 0. -1.
          6    2    1    2  501    0  0.57765695790E+02  0.23580569964E+02  0.10289651554E+04  0.10449961774E+04  0.17133242788E+03 0.  0.
         24    2    3    3    0    0  0.23823163333E+02  0.46405329316E+02  0.29405201811E+03  0.30893064056E+03  0.79060442836E+02 0.  0.
         -6    2    1    2    0  503 -0.57765695790E+02 -0.23580569964E+02  0.46784758147E+03  0.50260673823E+03  0.17274042648E+03 0.  0.
        -24    2    5    5    0    0 -0.28025684966E+01 -0.55660163173E+02  0.38946002096E+03  0.40152882123E+03  0.80251966945E+02 0.  0.
          5    1    3    3  501    0  0.33942532457E+02 -0.22824759352E+02  0.73491313733E+03  0.73606553687E+03  0.47000000000E+01 0. -1.
        -13    1    4    4    0    0 -0.18969972039E+02  0.44122447490E+02  0.11127884954E+03  0.12120079441E+03  0.00000000000E+00 0.  1.
         14    1    4    4    0    0  0.42793135373E+02  0.22828818266E+01  0.18277316857E+03  0.18772984614E+03  0.00000000000E+00 0. -1.
         -5    1    5    5    0  503 -0.54963127294E+02  0.32079593209E+02  0.78387560505E+02  0.10107791700E+03  0.47000000000E+01 0.  1.
         13    1    6    6    0    0 -0.39247429938E+02 -0.12592492159E+02  0.15703363452E+03  0.16235299193E+03  0.00000000000E+00 0. -1.
        -14    1    6    6    0    0  0.36444861442E+02 -0.43067671015E+02  0.23242638644E+03  0.23917582931E+03  0.00000000000E+00 0.  1.
</event>
<event>
12    1  0.9246030E-003  0.2225714E+03  0.7818608E-02  0.1132015E+00
         21   -1    0    0  501  502  0.00000000000E+00  0.00000000000E+00  0.83716717573E+02  0.83716717573E+02  0.00000000000E+00 0.  1.
         21   -1    0    0  502  503 -0.00000000000E+00 -0.00000000000E+00 -0.60367492101E+03  0.60367492101E+03  0.00000000000E+00 0.  1.
          6    2    1    2  501    0  0.38081779497E+02  0.13636706558E+03 -0.30920755465E+03  0.38087267080E+03  0.17148901133E+03 0.  0.
         24    2    3    3    0    0 -0.24852829208E+02  0.13191282305E+03 -0.19595010109E+03  0.25114238892E+03  0.81592900381E+02 0.  0.
         -6    2    1    2    0  503 -0.38081779497E+02 -0.13636706558E+03 -0.21075064879E+03  0.30651896779E+03  0.17173189321E+03 0.  0.
        -24    2    5    5    0    0  0.15803404687E+02 -0.11882944492E+03 -0.85218723528E+02  0.16870918775E+03  0.82646080445E+02 0.  0.
          5    1    3    3  501    0  0.62934608705E+02  0.44542425293E+01 -0.11325745355E+03  0.12973028187E+03  0.47000000000E+01 0. -1.
        -11    1    4    4    0    0 -0.27565395484E+02  0.69052069750E+01 -0.60273631145E+02  0.66636653000E+02  0.00000000000E+00 0.  1.
         12    1    4    4    0    0  0.27125662768E+01  0.12500761607E+03 -0.13567646995E+03  0.18450573592E+03  0.00000000000E+00 0. -1.
         -5    1    5    5    0  503 -0.53885184184E+02 -0.17537620657E+02 -0.12553192527E+03  0.13780978004E+03  0.47000000000E+01 0.  1.
         13    1    6    6    0    0 -0.19817684837E+02 -0.27870440642E+01 -0.28246872410E+02  0.34617828468E+02  0.00000000000E+00 0. -1.
        -14    1    6    6    0    0  0.35621089524E+02 -0.11604240085E+03 -0.56971851119E+02  0.13409135928E+03  0.00000000000E+00 0.  1.
</event>
<event>
12    1  0.9246030E-003  0.2156288E+03  0.7818608E-02  0.1137258E+00
         21   -1    0    0  503  502  0.00000000000E+00  0.00000000000E+00  0.55077370001E+03  0.55077370001E+03  0.00000000000E+00 0.  1.
         21   -1    0    0  501  503 -0.00000000000E+00 -0.00000000000E+00 -0.12506223008E+03  0.12506223008E+03  0.00000000000E+00 0.  1.
          6    2    1    2  501    0  0.12872053567E+03 -0.56380780938E+01  0.19732103229E+02  0.21614580392E+03  0.17242067285E+03 0.  0.
         24    2    3    3    0    0  0.36369457709E+02 -0.48890161079E+02 -0.25767431029E+02  0.10437925302E+03  0.80734643458E+02 0.  0.
         -6    2    1    2    0  502 -0.12872053567E+03  0.56380780938E+01  0.40597936671E+03  0.45969012616E+03  0.17290171102E+03 0.  0.
        -24    2    5    5    0    0 -0.78734268824E+02 -0.41658947588E+02  0.11918197091E+03  0.16471475135E+03  0.70654469932E+02 0.  0.
          5    1    3    3  501    0  0.92351077961E+02  0.43252082985E+02  0.45499534259E+02  0.11176655090E+03  0.47000000000E+01 0. -1.
        -13    1    4    4    0    0  0.16675642888E+02 -0.66678673579E+02 -0.20117269037E+01  0.68761687160E+02  0.00000000000E+00 0.  1.
         14    1    4    4    0    0  0.19693814821E+02  0.17788512500E+02 -0.23755704126E+02  0.35617565858E+02  0.00000000000E+00 0. -1.
         -5    1    5    5    0  502 -0.49986266846E+02  0.47297025682E+02  0.28679739579E+03  0.29497537481E+03  0.47000000000E+01 0.  1.
         13    1    6    6    0    0 -0.91395133991E+02 -0.39852022923E+02  0.96971467428E+02  0.13908529665E+03  0.00000000000E+00 0. -1.
        -14    1    6    6    0    0  0.12660865167E+02 -0.18069246644E+01  0.22210503483E+02  0.25629454705E+02  0.00000000000E+00 0.  1.
</event>
<event>
12    1  0.9246030E-003  0.1835377E+03  0.7818608E-02  0.1164427E+00
         21   -1    0    0  503  502  0.00000000000E+00  0.00000000000E+00  0.18412753567E+03  0.18412753567E+03  0.00000000000E+00 0. -1.
         21   -1    0    0  501  503 -0.00000000000E+00 -0.00000000000E+00 -0.23637163614E+03  0.23637163614E+03  0.00000000000E+00 0.  1.
          6    2    1    2  501    0  0.60059624987E+02  0.24528148729E+02 -0.12609077125E+03  0.22266234729E+03  0.17167075951E+03 0.  0.
         24    2    3    3    0    0  0.41372574758E+02  0.78777378801E+02 -0.56610087980E+02  0.13243020136E+03  0.80096759105E+02 0.  0.
         -6    2    1    2    0  502 -0.60059624987E+02 -0.24528148729E+02  0.73846670792E+02  0.19783682453E+03  0.17168951546E+03 0.  0.
        -24    2    5    5    0    0 -0.79525214017E+02 -0.19381406549E+02  0.10785251335E+03  0.15803876629E+03  0.81511891330E+02 0.  0.
          5    1    3    3  501    0  0.18687050229E+02 -0.54249230072E+02 -0.69480683274E+02  0.90232145923E+02  0.47000000000E+01 0. -1.
        -13    1    4    4    0    0 -0.11340964842E+02  0.56051759401E+02 -0.47430739983E+02  0.74297323713E+02  0.00000000000E+00 0.  1.
         14    1    4    4    0    0  0.52713539600E+02  0.22725619399E+02 -0.91793479971E+01  0.58132877651E+02  0.00000000000E+00 0. -1.
         -5    1    5    5    0  502  0.19465589030E+02 -0.51467421796E+01 -0.34005842561E+02  0.39798058240E+02  0.47000000000E+01 0.  1.
         13    1    6    6    0    0 -0.96560507881E+02 -0.14630627931E+02  0.94287239941E+02  0.13575002973E+03  0.00000000000E+00 0. -1.
        -14    1    6    6    0    0  0.17035293864E+02 -0.47507786183E+01  0.13565273412E+02  0.22288736556E+02  0.00000000000E+00 0.  1.
</event>
<event>
12    1  0.9246030E-003  0.1936115E+03  0.7818608E-02  0.1156161E+00
         21   -1    0    0  501  502  0.00000000000E+00  0.00000000000E+00  0.47988916673E+03  0.47988916673E+03  0.00000000000E+00 0. -1.
         21   -1    0    0  502  503 -0.00000000000E+00 -0.00000000000E+00 -0.76607999884E+02  0.76607999884E+02  0.00000000000E+00 0. -1.
          6    2    1    2  501    0 -0.78095843994E+02 -0.18298958807E+02  0.19151127073E+03  0.27232697424E+03  0.17621464565E+03 0.  0.
         24    2    3    3    0    0 -0.81595473993E+02 -0.45880039058E+02  0.53376341631E+02  0.13134359921E+03  0.75095325073E+02 0.  0.
         -6    2    1    2    0  503  0.78095843994E+02  0.18298958807E+02  0.21176989612E+03  0.28417019238E+03  0.17167526493E+03 0.  0.
        -24    2    5    5    0    0  0.29919960893E+02 -0.52378872879E+02  0.82660647447E+02  0.12922646163E+03  0.78917332477E+02 0.  0.
          5    1    3    3  501    0  0.34996299995E+01  0.27581080250E+02  0.13813492910E+03  0.14098337503E+03  0.47000000000E+01 0. -1.
        -13    1    4    4    0    0 -0.25023655149E+02  0.20759321613E+02  0.12337136712E+02  0.34775532966E+02  0.00000000000E+00 0.  1.
         14    1    4    4    0    0 -0.56571818844E+02 -0.66639360671E+02  0.41039204919E+02  0.96568066245E+02  0.00000000000E+00 0. -1.
         -5    1    5    5    0  503  0.48175883101E+02  0.70677831686E+02  0.12910924868E+03  0.15494373075E+03  0.47000000000E+01 0.  1.
         13    1    6    6    0    0  0.55511164573E+02 -0.25202516764E+02  0.42014106190E+02  0.74039458145E+02  0.00000000000E+00 0. -1.
        -14    1    6    6    0    0 -0.25591203680E+02 -0.27176356115E+02  0.40646541257E+02  0.55187003485E+02  0.00000000000E+00 0.  1.
</event>
<event>
12    1  0.9246030E-003  0.2157358E+03  0.7818608E-02  0.1137207E+00
         21   -1    0    0  503  502  0.00000000000E+00  0.00000000000E+00  0.10433260425E+03  0.10433260425E+03  0.00000000000E+00 0.  1.
         21   -1    0    0  501  503 -0.00000000000E+00 -0.00000000000E+00 -0.53360601134E+03  0.53360601134E+03  0.00000000000E+00 0.  1.
          6    2    1    2  501    0  0.99409680765E+02 -0.84321482270E+02 -0.34486747063E+03  0.40678680843E+03  0.17189979120E+03 0.  0.
         24    2    3    3    0    0  0.31124273039E+02 -0.46905073477E+02 -0.30180144675E+03  0.31768205565E+03  0.81663755307E+02 0.  0.
         -6    2    1    2    0  502 -0.99409680765E+02  0.84321482270E+02 -0.84405936459E+02  0.23115180716E+03  0.17121448199E+03 0.  0.
        -24    2    5    5    0    0 -0.10820815438E+03  0.64007588613E+02 -0.11853437208E+03  0.19020174573E+03  0.79500507180E+02 0.  0.
          5    1    3    3  501    0  0.68285407726E+02 -0.37416408793E+02 -0.43066023874E+02  0.89104752778E+02  0.47000000000E+01 0. -1.
        -11    1    4    4    0    0  0.46808799688E+02 -0.61693615233E+02 -0.22770467633E+03  0.24051317119E+03  0.00000000000E+00 0.  1.
         12    1    4    4    0    0 -0.15684526648E+02  0.14788541756E+02 -0.74096770418E+02  0.77168884467E+02  0.00000000000E+00 0. -1.
         -5    1    5    5    0  502  0.87984736101E+01  0.20313893657E+02  0.34128435619E+02  0.40950061431E+02  0.47000000000E+01 0.  1.
         11    1    6    6    0    0 -0.16187942535E+02  0.51679008142E+02 -0.29983194755E+02  0.61901222393E+02  0.00000000000E+00 0. -1.
        -12    1    6    6    0    0 -0.92020211840E+02  0.12328580472E+02 -0.88551177323E+02  0.12830052334E+03  0.00000000000E+00 0.  1.
</event>
<event>
12    1  0.9246030E-003  0.5216005E+03  0.7818608E-02  0.1008317E+00
         21   -1    0    0  501  502  0.00000000000E+00  0.00000000000E+00  0.39313037969E+03  0.39313037969E+03  0.00000000000E+00 0.  1.
         21   -1    0    0  502  503 -0.00000000000E+00 -0.00000000000E+00 -0.69515655709E+03  0.69515655709E+03  0.00000000000E+00 0. -1.
          6    2    1    2  501    0 -0.48867971645E+03  0.59460193094E+02 -0.11147117885E+03  0.53337875063E+03  0.17240559177E+03 0.  0.
         24    2    3    3    0    0 -0.45146732965E+03  0.89274165453E+02 -0.12499231392E+03  0.48359375517E+03  0.80294552347E+02 0.  0.
         -6    2    1    2    0  503  0.48867971645E+03 -0.59460193094E+02 -0.19055499855E+03  0.55490818615E+03  0.17108041310E+03 0.  0.
        -24    2    5    5    0    0  0.35440121190E+03  0.16630740553E+02 -0.10656125724E+03  0.37913109564E+03  0.80673946276E+02 0.  0.
          5    1    3    3  501    0 -0.37212386799E+02 -0.29813972360E+02  0.13521135078E+02  0.49784995460E+02  0.47000000000E+01 0. -1.
        -11    1    4    4    0    0 -0.13962586111E+02  0.65825458738E+01 -0.21510005552E+02  0.26475725862E+02  0.00000000000E+00 0.  1.
         12    1    4    4    0    0 -0.43750474354E+03  0.82691619580E+02 -0.10348230837E+03  0.45711802931E+03  0.00000000000E+00 0. -1.
         -5    1    5    5    0  503  0.13427850455E+03 -0.76090933647E+02 -0.83993741315E+02  0.17577709051E+03  0.47000000000E+01 0.  1.
         13    1    6    6    0    0  0.24828304354E+03  0.32538950973E+02 -0.10575972200E+03  0.27182415610E+03  0.00000000000E+00 0. -1.
        -14    1    6    6    0    0  0.10611816836E+03 -0.15908210420E+02 -0.80153523478E+00  0.10730693954E+03  0.00000000000E+00 0.  1.
</event>
<event>
12    1  0.9246030E-003  0.1941775E+03  0.7818608E-02  0.1154763E+00
         21   -1    0    0  503  502  0.00000000000E+00  0.00000000000E+00  0.44375277715E+02  0.44375277715E+02  0.00000000000E+00 0.  1.
         21   -1    0    0  501  503 -0.00000000000E+00 -0.00000000000E+00 -0.14559396959E+04  0.14559396959E+04  0.00000000000E+00 0.  1.
          6    2    1    2  501    0  0.77185538932E+02 -0.46774375661E+02 -0.11900609751E+04  0.12057985024E+04  0.17192863176E+03 0.  0.
         24    2    3    3    0    0  0.75671759308E+02  0.31973126309E+02 -0.77939979968E+03  0.78762610787E+03  0.78373095440E+02 0.  0.
         -6    2    1    2    0  502 -0.77185538932E+02  0.46774375661E+02 -0.22150344313E+03  0.29451647121E+03  0.17184506643E+03 0.  0.
        -24    2    5    5    0    0 -0.77205830823E+02 -0.31808442083E+02 -0.13529561241E+03  0.17777256458E+03  0.79534047307E+02 0.  0.
          5    1    3    3  501    0  0.15137796246E+01 -0.78747501970E+02 -0.41066117539E+03  0.41817239456E+03  0.47000000000E+01 0. -1.
        -11    1    4    4    0    0  0.48645301943E+02  0.22103109707E+02 -0.71613924548E+03  0.71812974578E+03  0.00000000000E+00 0.  1.
         12    1    4    4    0    0  0.27026457365E+02  0.98700166016E+01 -0.63260554208E+02  0.69496362093E+02  0.00000000000E+00 0. -1.
         -5    1    5    5    0  502  0.20291890381E-01  0.78582817744E+02 -0.86207830721E+02  0.11674390662E+03  0.47000000000E+01 0.  1.
         11    1    6    6    0    0 -0.72868934357E+01 -0.37293869511E+02 -0.20310425482E+02  0.43086481665E+02  0.00000000000E+00 0. -1.
        -12    1    6    6    0    0 -0.69918937387E+02  0.54854274284E+01 -0.11498518693E+03  0.13468608292E+03  0.00000000000E+00 0.  1.
</event>
<event>
12    1  0.9246030E-003  0.1806834E+03  0.7818608E-02  0.1167244E+00
         21   -1    0    0  501  502  0.00000000000E+00  0.00000000000E+00  0.15352728589E+04  0.15352728589E+04  0.00000000000E+00 0.  1.
         21   -1    0    0  502  503 -0.00000000000E+00 -0.00000000000E+00 -0.21645875033E+02  0.21645875033E+02  0.00000000000E+00 0.  1.
          6    2    1    2  501    0  0.35226009634E+02 -0.42603548072E+02  0.64612326818E+03  0.67079842795E+03  0.17157890081E+03 0.  0.
         24    2    3    3    0    0  0.45733765465E+02 -0.40181906576E+02  0.19696150332E+03  0.22148266116E+03  0.80960314262E+02 0.  0.
         -6    2    1    2    0  503 -0.35226009634E+02  0.42603548072E+02  0.86750371573E+03  0.88612030602E+03  0.17201908577E+03 0.  0.
        -24    2    5    5    0    0 -0.15045695013E+02 -0.41499550512E+02  0.50895951891E+03  0.51726178658E+03  0.81064038476E+02 0.  0.
          5    1    3    3  501    0 -0.10507755831E+02 -0.24216414958E+01  0.44916176486E+03  0.44931576679E+03  0.47000000000E+01 0. -1.
        -13    1    4    4    0    0  0.69092447639E+01  0.24624648008E+02  0.55616770413E+02  0.61215489085E+02  0.00000000000E+00 0.  1.
         14    1    4    4    0    0  0.38824520701E+02 -0.64806554585E+02  0.14134473291E+03  0.16026717208E+03  0.00000000000E+00 0. -1.
         -5    1    5    5    0  503 -0.20180314621E+02  0.84103098584E+02  0.35854419682E+03  0.36885851944E+03  0.47000000000E+01 0.  1.
         11    1    6    6    0    0  0.15667895661E+02  0.11270930273E+02  0.40770555960E+02  0.45108259299E+02  0.00000000000E+00 0. -1.
        -12    1    6    6    0    0 -0.30713590674E+02 -0.52770480786E+02  0.46818896295E+03  0.47215352728E+03  0.00000000000E+00 0.  1.
</event>
<event>
12    1  0.9246030E-003  0.2341041E+03  0.7818608E-02  0.1124018E+00
         21   -1    0    0  501  502  0.00000000000E+00  0.00000000000E+00  0.10159452820E+04  0.10159452820E+04  0.00000000000E+00 0.  1.
         21   -1    0    0  502  503 -0.00000000000E+00 -0.00000000000E+00 -0.53711849874E+02  0.53711849874E+02  0.00000000000E+00 0. -1.
          6    2    1    2  501    0  0.11545243061E+03  0.11011649893E+03  0.50309111005E+03  0.55489222386E+03  0.17131785669E+03 0.  0.
         24    2    3    3    0    0  0.14153439851E+03  0.63837271183E+02  0.43288010553E+03  0.46672357226E+03  0.79614847742E+02 0.  0.
         -6    2    1    2    0  503 -0.11545243061E+03 -0.11011649893E+03  0.45914232208E+03  0.51476490802E+03  0.16945893758E+03 0.  0.
        -24    2    5    5    0    0 -0.10148836145E+03 -0.11397630747E+03  0.24054677452E+03  0.29563938061E+03  0.79053187534E+02 0.  0.
          5    1    3    3  501    0 -0.26081967896E+02  0.46279227751E+02  0.70211004510E+02  0.88168651600E+02  0.47000000000E+01 0. -1.
        -11    1    4    4    0    0  0.75905504506E+02  0.31887054081E+02  0.33292256364E+03  0.34295169224E+03  0.00000000000E+00 0.  1.
         12    1    4    4    0    0  0.65628894001E+02  0.31950217102E+02  0.99957541894E+02  0.12377188001E+03  0.00000000000E+00 0. -1.
         -5    1    5    5    0  503 -0.13964069163E+02  0.38598085343E+01  0.21859554756E+03  0.21912552741E+03  0.47000000000E+01 0.  1.
         11    1    6    6    0    0 -0.53008828368E+02 -0.73653168811E+02  0.20272661678E+03  0.22210989693E+03  0.00000000000E+00 0. -1.
        -12    1    6    6    0    0 -0.48479533081E+02 -0.40323138658E+02  0.37820157740E+02  0.73529483681E+02  0.00000000000E+00 0.  1.
</event>
<event>
12    1  0.9246030E-003  0.1922791E+03  0.7818608E-02  0.1158199E+00
         21   -1    0    0  501  502  0.00000000000E+00  0.00000000000E+00  0.11355693086E+03  0.11355693086E+03  0.00000000000E+00 0. -1.
         21   -1    0    0  502  503 -0.00000000000E+00 -0.00000000000E+00 -0.35576703794E+03  0.35576703794E+03  0.00000000000E+00 0. -1.
          6    2    1    2  501    0  0.64905205867E+02 -0.13409335700E+02 -0.20517676304E+03  0.28119165408E+03  0.18049583431E+03 0.  0.
         24    2    3    3    0    0  0.70510229495E+00 -0.83645247153E+01 -0.20763132408E+02  0.85800813512E+02  0.82826381600E+02 0.  0.
         -6    2    1    2    0  503 -0.64905205867E+02  0.13409335700E+02 -0.37033344032E+02  0.18813231472E+03  0.17213309745E+03 0.  0.
        -24    2    5    5    0    0  0.96752688356E+01  0.25385146523E+02  0.27068199705E+02  0.88951847079E+02  0.80260371120E+02 0.  0.
          5    1    3    3  501    0  0.64200103572E+02 -0.50448109852E+01 -0.18441363063E+03  0.19539084057E+03  0.47000000000E+01 0. -1.
        -11    1    4    4    0    0  0.32618452351E+02  0.19848966460E+02 -0.20207765718E+02  0.43200679377E+02  0.00000000000E+00 0.  1.
         12    1    4    4    0    0 -0.31913350056E+02 -0.28213491175E+02 -0.55536669020E+00  0.42600134134E+02  0.00000000000E+00 0. -1.
         -5    1    5    5    0  503 -0.74580474702E+02 -0.11975810823E+02 -0.64101543737E+02  0.99180467639E+02  0.47000000000E+01 0.  1.
         11    1    6    6    0    0 -0.20662922763E+02  0.36107866280E+02  0.36581087894E+02  0.55397747029E+02  0.00000000000E+00 0. -1.
        -12    1    6    6    0    0  0.30338191599E+02 -0.10722719757E+02 -0.95128881886E+01  0.33554100050E+02  0.00000000000E+00 0.  1.
</event>
<event>
12    1  0.9246030E-003  0.1782860E+03  0.7818608E-02  0.1171572E+00
         21   -1    0    0  501  502  0.00000000000E+00  0.00000000000E+00  0.16353412186E+03  0.16353412186E+03  0.00000000000E+00 0. -1.
         21   -1    0    0  502  503 -0.00000000000E+00 -0.00000000000E+00 -0.20568419738E+03  0.20568419738E+03  0.00000000000E+00 0.  1.
          6    2    1    2  501    0 -0.20461066730E+02 -0.39113423589E+02  0.36474044652E+02  0.18197873549E+03  0.17273502563E+03 0.  0.
         24    2    3    3    0    0  0.16855937804E+02  0.13919204060E+02 -0.33281918460E+02  0.86621497628E+02  0.76926789053E+02 0.  0.
         -6    2    1    2    0  503  0.20461066730E+02  0.39113423589E+02 -0.78624120174E+02  0.18723958376E+03  0.16409873337E+03 0.  0.
        -24    2    5    5    0    0 -0.10663120571E+02 -0.28132666818E+02 -0.11075509878E+02  0.86862014234E+02  0.80729136717E+02 0.  0.
          5    1    3    3  501    0 -0.37317004534E+02 -0.53032627650E+02  0.69755963112E+02  0.95357237861E+02  0.47000000000E+01 0. -1.
        -11    1    4    4    0    0 -0.10857166522E+02  0.40155764452E+02 -0.20505329302E+02  0.46377063441E+02  0.00000000000E+00 0.  1.
         12    1    4    4    0    0  0.27713104326E+02 -0.26236560391E+02 -0.12776589158E+02  0.40244434188E+02  0.00000000000E+00 0. -1.
         -5    1    5    5    0  503  0.31124187302E+02  0.67246090407E+02 -0.67548610296E+02  0.10037756952E+03  0.47000000000E+01 0.  1.
         13    1    6    6    0    0  0.15630851793E+02 -0.49054075224E+02 -0.13338824850E+02  0.53184114848E+02  0.00000000000E+00 0. -1.
        -14    1    6    6    0    0 -0.26293972364E+02  0.20921408406E+02  0.22633149726E+01  0.33677899385E+02  0.00000000000E+00 0.  1.
</event>
<event>
12    1  0.9246030E-003  0.1997552E+03  0.7818608E-02  0.1150427E+00
         21   -1    0    0  501  502  0.00000000000E+00  0.00000000000E+00  0.23462010223E+03  0.23462010223E+03  0.00000000000E+00 0.  1.
         21   -1    0    0  502  503 -0.00000000000E+00 -0.00000000000E+00 -0.19379045427E+03  0.19379045427E+03  0.00000000000E+00 0. -1.
          6    2    1    2  501    0  0.84275360685E+02  0.47702639951E+02 -0.57602805788E+02  0.20571999107E+03  0.17211842787E+03 0.  0.
         24    2    3    3    0    0  0.12425849461E+03  0.19444580835E+02 -0.54241172687E+02  0.15641928641E+03  0.75542194433E+02 0.  0.
         -6    2    1    2    0  503 -0.84275360685E+02 -0.47702639951E+02  0.98432453743E+02  0.22269056543E+03  0.17471193922E+03 0.  0.
        -24    2    5    5    0    0  0.95725225083E+01 -0.44869062584E+02  0.84459297848E+02  0.12764955625E+03  0.84001013405E+02 0.  0.
          5    1    3    3  501    0 -0.39983133921E+02  0.28258059116E+02 -0.33616331009E+01  0.49300704663E+02  0.47000000000E+01 0. -1.
        -11    1    4    4    0    0  0.54514394462E+02  0.29600609199E+02  0.78028942840E+01  0.62521199826E+02  0.00000000000E+00 0.  1.
         12    1    4    4    0    0  0.69744100145E+02 -0.10156028364E+02 -0.62044066971E+02  0.93898086580E+02  0.00000000000E+00 0. -1.
         -5    1    5    5    0  503 -0.93847883194E+02 -0.28335773671E+01  0.13973155895E+02  0.95041009182E+02  0.47000000000E+01 0.  1.
         13    1    6    6    0    0 -0.13901172233E+02 -0.44023807578E+02  0.69838121962E+01  0.46691667949E+02  0.00000000000E+00 0. -1.
        -14    1    6    6    0    0  0.23473694741E+02 -0.84525500558E+00  0.77475485651E+02  0.80957888298E+02  0.00000000000E+00 0.  1.
</event>
<event>
12    1  0.9246030E-003  0.2251781E+03  0.7818608E-02  0.1130121E+00
         21   -1    0    0  503  502  0.00000000000E+00  0.00000000000E+00  0.21046448898E+03  0.21046448898E+03  0.00000000000E+00 0.  1.
         21   -1    0    0  501  503 -0.00000000000E+00 -0.00000000000E+00 -0.24184795744E+03  0.24184795744E+03  0.00000000000E+00 0.  1.
          6    2    1    2  501    0 -0.14444115021E+03  0.17774939876E+02 -0.31405262596E+02  0.22713436936E+03  0.17153581803E+03 0.  0.
         24    2    3    3    0    0 -0.15674323302E+03 -0.47124506886E+01 -0.61438836291E+02  0.18737094993E+03  0.82112690757E+02 0.  0.
         -6    2    1    2    0  502  0.14444115021E+03 -0.17774939876E+02  0.21794135903E-01  0.22517807706E+03  0.17183122985E+03 0.  0.
        -24    2    5    5    0    0  0.15726067486E+03 -0.55578327803E+02  0.12509906021E+00  0.18498433348E+03  0.79995734907E+02 0.  0.
          5    1    3    3  501    0  0.12302082814E+02  0.22487390565E+02  0.30033573695E+02  0.39763419431E+02  0.47000000000E+01 0. -1.
        -11    1    4    4    0    0 -0.59743336933E+02 -0.10777778961E+02 -0.66509205734E+02  0.90049437947E+02  0.00000000000E+00 0.  1.
         12    1    4    4    0    0 -0.96999896092E+02  0.60653282725E+01  0.50703694429E+01  0.97321511985E+02  0.00000000000E+00 0. -1.
         -5    1    5    5    0  502 -0.12819524654E+02  0.37803387927E+02 -0.10330492430E+00  0.40193743581E+02  0.47000000000E+01 0.  1.
         11    1    6    6    0    0 -0.70930428365E+01 -0.11587333406E+02 -0.57289526287E+01  0.14744437947E+02  0.00000000000E+00 0. -1.
        -12    1    6    6    0    0  0.16435371770E+03 -0.43990994397E+02  0.58540516889E+01  0.17023989553E+03  0.00000000000E+00 0.  1.
</event>
<event>
12    1  0.9246030E-003  0.1910923E+03  0.7818608E-02  0.1159746E+00
         21   -1    0    0  501  502  0.00000000000E+00  0.00000000000E+00  0.58446243477E+03  0.58446243477E+03  0.00000000000E+00 0.  1.
         21   -1    0    0  502  503 -0.00000000000E+00 -0.00000000000E+00 -0.81393520736E+02  0.81393520736E+02  0.00000000000E+00 0. -1.
          6    2    1    2  501    0  0.29596141248E+02  0.73400091757E+02  0.42978196333E+03  0.47034967274E+03  0.17393324466E+03 0.  0.
         24    2    3    3    0    0  0.29629038892E+02 -0.17134588318E+01  0.35165546494E+03  0.36186978375E+03  0.80045977321E+02 0.  0.
         -6    2    1    2    0  503 -0.29596141248E+02 -0.73400091757E+02  0.73286950709E+02  0.19550628277E+03  0.16305895992E+03 0.  0.
        -24    2    5    5    0    0 -0.29426092984E+02  0.15503050085E+02  0.61550483808E+02  0.10570855339E+03  0.79243906347E+02 0.  0.
          5    1    3    3  501    0 -0.32897644181E-01  0.75113550589E+02  0.78126498393E+02  0.10847988899E+03  0.47000000000E+01 0. -1.
        -13    1    4    4    0    0  0.25570901884E+02 -0.29712792825E+02  0.83703333878E+02  0.92428183921E+02  0.00000000000E+00 0.  1.
         14    1    4    4    0    0  0.40581370079E+01  0.27999333993E+02  0.26795213106E+03  0.26944159983E+03  0.00000000000E+00 0. -1.
         -5    1    5    5    0  503 -0.17004826337E+00 -0.88903141842E+02  0.11736466901E+02  0.89797729376E+02  0.47000000000E+01 0.  1.
         13    1    6    6    0    0 -0.18585981870E+02 -0.26803736908E+02  0.31285828645E+01  0.32766859249E+02  0.00000000000E+00 0. -1.
        -14    1    6    6    0    0 -0.10840111115E+02  0.42306786993E+02  0.58421900943E+02  0.72941694143E+02  0.00000000000E+00 0.  1.
</event>
<event>
12    1  0.9246030E-003  0.2320495E+03  0.7818608E-02  0.1125252E+00
         21   -1    0    0  503  502  0.00000000000E+00  0.00000000000E+00  0.31829779233E+03  0.31829779233E+03  0.00000000000E+00 0.  1.
         21   -1    0    0  501  503 -0.00000000000E+00 -0.00000000000E+00 -0.19128924870E+03  0.19128924870E+03  0.00000000000E+00 0. -1.
          6    2    1    2  501    0 -0.92967733729E+02  0.12460210485E+03  0.15055798963E+03  0.27661287827E+03  0.17227388698E+03 0.  0.
         24    2    3    3    0    0 -0.10097004915E+03  0.10385901023E+03  0.51614399482E+02  0.17509323949E+03  0.83737395771E+02 0.  0.
         -6    2    1    2    0  502  0.92967733729E+02 -0.12460210485E+03 -0.23549445997E+02  0.23297416276E+03  0.17191189621E+03 0.  0.
        -24    2    5    5    0    0  0.63982164889E+01 -0.11918612717E+03 -0.29051181313E+02  0.14593409600E+03  0.78781464545E+02 0.  0.
          5    1    3    3  501    0  0.80023154191E+01  0.20743094627E+02  0.98943590150E+02  0.10151963878E+03  0.47000000000E+01 0. -1.
        -13    1    4    4    0    0 -0.98846263313E+02  0.11012395955E+03  0.63863502963E+02  0.16117201137E+03  0.00000000000E+00 0.  1.
         14    1    4    4    0    0 -0.21237858349E+01 -0.62649493233E+01 -0.12249103480E+02  0.13921228120E+02  0.00000000000E+00 0. -1.
         -5    1    5    5    0  502  0.86569517240E+02 -0.54159776830E+01  0.55017353164E+01  0.87040066756E+02  0.47000000000E+01 0.  1.
         13    1    6    6    0    0  0.13847456532E+02 -0.71377044823E+02 -0.54871753423E+02  0.91089757404E+02  0.00000000000E+00 0. -1.
        -14    1    6    6    0    0 -0.74492400435E+01 -0.47809082348E+02  0.25820572110E+02  0.54844338598E+02  0.00000000000E+00 0.  1.
</event>
<event>
12    1  0.9246030E-003  0.1710561E+03  0.7818608E-02  0.1178101E+00
         21   -1    0    0  503  502  0.00000000000E+00  0.00000000000E+00  0.72428419839E+03  0.72428419839E+03  0.00000000000E+00 0.  1.
         21   -1    0    0  501  503 -0.00000000000E+00 -0.00000000000E+00 -0.39400468053E+02  0.39400468053E+02  0.00000000000E+00 0.  1.
          6    2    1    2  501    0  0.21947933254E+02  0.59797223984E+01  0.30970601701E+03  0.35135167211E+03  0.16435544308E+03 0.  0.
         24    2    3    3    0    0 -0.54145336244E+01  0.58949901996E+02  0.24017230487E+03  0.25963705144E+03  0.78893943598E+02 0.  0.
         -6    2    1    2    0  502 -0.21947933254E+02 -0.59797223984E+01  0.37517771333E+03  0.41233299433E+03  0.16953675938E+03 0.  0.
        -24    2    5    5    0    0  0.10604209927E+02  0.56294488156E+02  0.17324530921E+03  0.19847204615E+03  0.78074946517E+02 0.  0.
          5    1    3    3  501    0  0.27362466878E+02 -0.52970179597E+02  0.69533712138E+02  0.91714620666E+02  0.47000000000E+01 0. -1.
        -13    1    4    4    0    0  0.11585921605E+02 -0.66852144492E+01  0.40541466129E+01  0.13977187715E+02  0.00000000000E+00 0.  1.
         14    1    4    4    0    0 -0.17000455229E+02  0.65635116445E+02  0.23611815826E+03  0.24565986373E+03  0.00000000000E+00 0. -1.
         -5    1    5    5    0  502 -0.32552143181E+02 -0.62274210554E+02  0.20193240412E+03  0.21386094818E+03  0.47000000000E+01 0.  1.
         13    1    6    6    0    0  0.11096267551E+02  0.63384889992E+02  0.17842720365E+03  0.18967614092E+03  0.00000000000E+00 0. -1.
        -14    1    6    6    0    0 -0.49205762314E+00 -0.70904018363E+01 -0.51818944335E+01  0.87959052305E+01  0.00000000000E+00 0.  1.
</event>
<event>
12    1  0.9246030E-003  0.1951729E+03  0.7818608E-02  0.1153962E+00
         21   -1    0    0  501  502  0.00000000000E+00  0.00000000000E+00  0.32509285426E+03  0.32509285426E+03  0.00000000000E+00 0.  1.
         21   -1    0    0  502  503 -0.00000000000E+00 -0.00000000000E+00 -0.11796346276E+03  0.11796346276E+03  0.00000000000E+00 0.  1.
          6    2    1    2  501    0 -0.77438074077E+02 -0.48700137349E+02  0.82835276358E+02  0.21166600582E+03  0.17196643950E+03 0.  0.
         24    2    3    3    0    0 -0.11312330589E+03 -0.43316006198E+02  0.95174367624E+02  0.17323726904E+03  0.79245393579E+02 0.  0.
         -6    2    1    2    0  503  0.77438074077E+02  0.48700137349E+02  0.12429411514E+03  0.23139031120E+03  0.17240675846E+03 0.  0.
        -24    2    5    5    0    0  0.42577775578E+02  0.48531961825E+02  0.15768196604E+01  0.10373102519E+03  0.81175248291E+02 0.  0.
          5    1    3    3  501    0  0.35685231808E+02 -0.53841311503E+01 -0.12339091266E+02  0.38428736782E+02  0.47000000000E+01 0. -1.
        -13    1    4    4    0    0 -0.82685022087E+02  0.47057185673E+00  0.27632969166E+02  0.87181507789E+02  0.00000000000E+00 0.  1.
         14    1    4    4    0    0 -0.30438283798E+02 -0.43786578055E+02  0.67541398458E+02  0.86055761248E+02  0.00000000000E+00 0. -1.
         -5    1    5    5    0  503  0.34860298499E+02  0.16817552348E+00  0.12271729548E+03  0.12765928601E+03  0.47000000000E+01 0.  1.
         11    1    6    6    0    0  0.53662400661E+02  0.71347380144E+01  0.19136590664E+02  0.57417478467E+02  0.00000000000E+00 0. -1.
        -12    1    6    6    0    0 -0.11084625083E+02  0.41397223811E+02 -0.17559771004E+02  0.46313546724E+02  0.00000000000E+00 0.  1.
</event>
<event>
12    1  0.9246030E-003  0.2047150E+03  0.7818608E-02  0.1145966E+00
         21   -1    0    0  501  502  0.00000000000E+00  0.00000000000E+00  0.33281582790E+03  0.33281582790E+03  0.00000000000E+00 0.  1.
         21   -1    0    0  502  503 -0.00000000000E+00 -0.00000000000E+00 -0.12653290421E+03  0.12653290421E+03  0.00000000000E+00 0. -1.
          6    2    1    2  501    0 -0.28455801389E+02 -0.10634182414E+03  0.12420879740E+03  0.23944945179E+03  0.17259750409E+03 0.  0.
         24    2    3    3    0    0  0.23119362358E+01 -0.10601243568E+03  0.25626273929E+02  0.13606973372E+03  0.81328254314E+02 0.  0.
         -6    2    1    2    0  503  0.28455801389E+02  0.10634182414E+03  0.82074126288E+02  0.21989928032E+03  0.17175917758E+03 0.  0.
        -24    2    5    5    0    0  0.50538342537E+02  0.10979523518E+03  0.10927699395E+03  0.18437955791E+03  0.86285817101E+02 0.  0.
          5    1    3    3  501    0 -0.30767737625E+02 -0.32938845987E+00  0.98582523471E+02  0.10337971807E+03  0.47000000000E+01 0. -1.
        -13    1    4    4    0    0 -0.10230677819E+02  0.76452500631E+01  0.17184582979E+02  0.21410896977E+02  0.00000000000E+00 0.  1.
         14    1    4    4    0    0  0.12542614055E+02 -0.11365768575E+03  0.84416909492E+01  0.11465883674E+03  0.00000000000E+00 0. -1.
         -5    1    5    5    0  503 -0.22082541148E+02 -0.34534110354E+01 -0.27202867660E+02  0.35519722412E+02  0.47000000000E+01 0.  1.
         13    1    6    6    0    0  0.61820879384E+02  0.32301304083E+02  0.58619767706E+02  0.91112417041E+02  0.00000000000E+00 0. -1.
        -14    1    6    6    0    0 -0.11282536846E+02  0.77493931097E+02  0.50657226242E+02  0.93267140865E+02  0.00000000000E+00 0.  1.
</event>
<event>
12    1  0.9246030E-003  0.2103013E+03  0.7818608E-02  0.1141454E+00
         21   -1    0    0  503  502  0.00000000000E+00  0.00000000000E+00  0.13649409592E+03  0.13649409592E+03  0.00000000000E+00 0.  1.
         21   -1    0    0  501  503 -0.00000000000E+00 -0.00000000000E+00 -0.35547917391E+03  0.35547917391E+03  0.00000000000E+00 0.  1.
          6    2    1    2  501    0 -0.10041551118E+03  0.67455770710E+02 -0.18395993778E+03  0.27940632471E+03  0.17202639243E+03 0.  0.
         24    2    3    3    0    0 -0.12089513867E+03  0.96418099255E+02 -0.15964656819E+03  0.23614593223E+03  0.79785901992E+02 0.  0.
         -6    2    1    2    0  502  0.10041551118E+03 -0.67455770710E+02 -0.35025140202E+02  0.21256694512E+03  0.17124365630E+03 0.  0.
        -24    2    5    5    0    0  0.49656001947E+02 -0.90138286896E+02 -0.68441298364E+02  0.14753038659E+03  0.80562859635E+02 0.  0.
          5    1    3    3  501    0  0.20479627487E+02 -0.28962328545E+02 -0.24313369596E+02  0.43260392484E+02  0.47000000000E+01 0. -1.
        -13    1    4    4    0    0 -0.10756107502E+03  0.38508196692E+02 -0.11186025779E+03  0.15989053551E+03  0.00000000000E+00 0.  1.
         14    1    4    4    0    0 -0.13334063656E+02  0.57909902563E+02 -0.47786310391E+02  0.76255396722E+02  0.00000000000E+00 0. -1.
         -5    1    5    5    0  502  0.50759509237E+02  0.22682516186E+02  0.33416158161E+02  0.65036558525E+02  0.47000000000E+01 0.  1.
         13    1    6    6    0    0  0.37561858435E+02 -0.82597398238E+02 -0.14686197803E+02  0.91917940635E+02  0.00000000000E+00 0. -1.
        -14    1    6    6    0    0  0.12094143512E+02 -0.75408886579E+01 -0.53755100561E+02  0.55612445957E+02  0.00000000000E+00 0.  1.
</event>
<event>
12    1  0.9246030E-003  0.2141516E+03  0.7818608E-02  0.1139103E+00
         21   -1    0    0  501  502  0.00000000000E+00  0.00000000000E+00  0.40249503572E+03  0.40249503572E+03  0.00000000000E+00 0. -1.
         21   -1    0    0  502  503 -0.00000000000E+00 -0.00000000000E+00 -0.11186187853E+03  0.11186187853E+03  0.00000000000E+00 0. -1.
          6    2    1    2  501    0  0.12159386942E+03 -0.34628985744E+02  0.14925820953E+03  0.25774866151E+03  0.16784553513E+03 0.  0.
         24    2    3    3    0    0  0.29194952142E+02 -0.66165118106E+02  0.72012653457E+02  0.13316514137E+03  0.85539257263E+02 0.  0.
         -6    2    1    2    0  503 -0.12159386942E+03  0.34628985744E+02  0.14137494766E+03  0.25660825274E+03  0.17284873101E+03 0.  0.
        -24    2    5    5    0    0 -0.11429391457E+03  0.23510055458E+02  0.17134544309E+03  0.22348363127E+03  0.83485633249E+02 0.  0.
          5    1    3    3  501    0  0.92398917275E+02  0.31536132362E+02  0.77245556074E+02  0.12458352014E+03  0.47000000000E+01 0. -1.
        -11    1    4    4    0    0  0.53611118448E+02 -0.46759674855E+02  0.73042171308E+02  0.10195968813E+03  0.00000000000E+00 0.  1.
         12    1    4    4    0    0 -0.24416166307E+02 -0.19405443251E+02 -0.10295178514E+01  0.31205453240E+02  0.00000000000E+00 0. -1.
         -5    1    5    5    0  503 -0.72999548436E+01  0.11118930285E+02 -0.29970495429E+02  0.33124621472E+02  0.47000000000E+01 0.  1.
         13    1    6    6    0    0  0.94776105654E+01  0.33035062804E+01  0.42547991920E+02  0.43715785160E+02  0.00000000000E+00 0. -1.
        -14    1    6    6    0    0 -0.12377152514E+03  0.20206549178E+02  0.12879745117E+03  0.17976784611E+03  0.00000000000E+00 0.  1.
</event>
<event>
12    1  0.9246030E-003  0.2041035E+03  0.7818608E-02  0.1146346E+00
         21   -1    0    0  501  502  0.00000000000E+00  0.00000000000E+00  0.75618125144E+02  0.75618125144E+02  0.00000000000E+00 0. -1.
         21   -1    0    0  502  503 -0.00000000000E+00 -0.00000000000E+00 -0.71071467072E+03  0.71071467072E+03  0.00000000000E+00 0. -1.
          6    2    1    2  501    0  0.10200762169E+03 -0.40010108802E+02 -0.13099888346E+03  0.24252619355E+03  0.17219722240E+03 0.  0.
         24    2    3    3    0    0  0.20557893242E+02  0.21326923681E+02 -0.11268187345E+02  0.85192727911E+02  0.79078215677E+02 0.  0.
         -6    2    1    2    0  503 -0.10200762169E+03  0.40010108802E+02 -0.50409766212E+03  0.54380660232E+03  0.17206046635E+03 0.  0.
        -24    2    5    5    0    0 -0.10700019615E+03  0.46609131749E+01 -0.48443124173E+03  0.50277795961E+03  0.81494064945E+02 0.  0.
          5    1    3    3  501    0  0.81449728447E+02 -0.61337032483E+02 -0.11973069611E+03  0.15733346564E+03  0.47000000000E+01 0. -1.
        -11    1    4    4    0    0  0.42725059021E+02  0.30922860883E+02  0.91927365603E+01  0.53536533312E+02  0.00000000000E+00 0.  1.
         12    1    4    4    0    0 -0.22167165779E+02 -0.95959372019E+01 -0.20460923905E+02  0.31656194599E+02  0.00000000000E+00 0. -1.
         -5    1    5    5    0  503  0.49925744621E+01  0.35349195628E+02 -0.19666420395E+02  0.41028642708E+02  0.47000000000E+01 0.  1.
         13    1    6    6    0    0 -0.10687965054E+03  0.90803870299E+01 -0.30535255055E+03  0.32364470219E+03  0.00000000000E+00 0. -1.
        -14    1    6    6    0    0 -0.12054560963E+00 -0.44194738550E+01 -0.17907869118E+03  0.17913325742E+03  0.00000000000E+00 0.  1.
</event>
<event>
12    1  0.9246030E-003  0.1927202E+03  0.7818608E-02  0.1156674E+00
         21   -1    0    0  501  502  0.00000000000E+00  0.00000000000E+00  0.64295501263E+03  0.64295501263E+03  0.00000000000E+00 0.  1.
         21   -1    0    0  502  503 -0.00000000000E+00 -0.00000000000E+00 -0.58113760957E+02  0.58113760957E+02  0.00000000000E+00 0.  1.
          6    2    1    2  501    0 -0.83246835956E+02  0.16866950946E+02  0.24403977198E+03  0.31096056515E+03  0.17299286991E+03 0.  0.
         24    2    3    3    0    0 -0.26743465033E+02 -0.46042415069E+02  0.13562902716E+03  0.17339167750E+03  0.93991084199E+02 0.  0.
         -6    2    1    2    0  503  0.83246835956E+02 -0.16866950946E+02  0.34080147969E+03  0.39010820844E+03  0.16977701847E+03 0.  0.
        -24    2    5    5    0    0  0.84804512862E+00 -0.20975338781E+02  0.72333404946E+02  0.10921029684E+03  0.79082763280E+02 0.  0.
          5    1    3    3  501    0 -0.56503370923E+02  0.62909366015E+02  0.10841074482E+03  0.13756888766E+03  0.47000000000E+01 0. -1.
        -13    1    4    4    0    0 -0.10433008219E+02 -0.72694545647E+01 -0.13439704168E+02  0.18501845268E+02  0.00000000000E+00 0.  1.
         14    1    4    4    0    0 -0.16310456814E+02 -0.38772960504E+02  0.14906873133E+03  0.15488983223E+03  0.00000000000E+00 0. -1.
         -5    1    5    5    0  503  0.82398790827E+02  0.41083878352E+01  0.26846807475E+03  0.28089791160E+03  0.47000000000E+01 0.  1.
         11    1    6    6    0    0  0.74423563593E+01  0.29132165057E+02  0.18177879172E+02  0.35135551799E+02  0.00000000000E+00 0. -1.
        -12    1    6    6    0    0 -0.65943112307E+01 -0.50107503838E+02  0.54155525774E+02  0.74074745044E+02  0.00000000000E+00 0.  1.
</event>
<event>
12    1  0.9246030E-003  0.2139145E+03  0.7818608E-02  0.1138625E+00
         21   -1    0    0  501  502  0.00000000000E+00  0.00000000000E+00  0.18325872904E+03  0.18325872904E+03  0.00000000000E+00 0. -1.
         21   -1    0    0  502  503 -0.00000000000E+00 -0.00000000000E+00 -0.27167151013E+03  0.27167151013E+03  0.00000000000E+00 0. -1.
          6    2    1    2  501    0  0.10412704321E+02 -0.12639289625E+03  0.21493276019E+02  0.21499153711E+03  0.17226668709E+03 0.  0.
         24    2    3    3    0    0  0.31071377249E+02 -0.13708727504E+03 -0.26348076841E+02  0.16158708459E+03  0.75218437186E+02 0.  0.
         -6    2    1    2    0  503 -0.10412704321E+02  0.12639289625E+03 -0.10990605711E+03  0.23993870207E+03  0.17148659051E+03 0.  0.
        -24    2    5    5    0    0 -0.56792754086E+02  0.84942605405E+02 -0.12241161436E+03  0.17631705018E+03  0.75249157635E+02 0.  0.
          5    1    3    3  501    0 -0.20658672928E+02  0.10694378789E+02  0.47841352861E+02  0.53404452515E+02  0.47000000000E+01 0. -1.
        -11    1    4    4    0    0  0.11249316835E+02 -0.11776240169E+03  0.66857045042E+01  0.11848725258E+03  0.00000000000E+00 0.  1.
         12    1    4    4    0    0  0.19822060415E+02 -0.19324873348E+02 -0.33033781345E+02  0.43099832006E+02  0.00000000000E+00 0. -1.
         -5    1    5    5    0  503  0.46380049765E+02  0.41450290841E+02  0.12505557243E+02  0.63621651887E+02  0.47000000000E+01 0.  1.
         13    1    6    6    0    0  0.57129218683E+01  0.65088970615E+01  0.80065418704E+01  0.11794402484E+02  0.00000000000E+00 0. -1.
        -14    1    6    6    0    0 -0.62505675954E+02  0.78433708344E+02 -0.13041815623E+03  0.16452264770E+03  0.00000000000E+00 0.  1.
</event>
<event>
12    1  0.9246030E-003  0.2408038E+03  0.7818608E-02  0.1119298E+00
         21   -1    0    0  503  502  0.00000000000E+00  0.00000000000E+00  0.13120173465E+04  0.13120173465E+04  0.00000000000E+00 0. -1.
         21   -1    0    0  501  503 -0.00000000000E+00 -0.00000000000E+00 -0.52808859701E+02  0.52808859701E+02  0.00000000000E+00 0.  1.
          6    2    1    2  501    0  0.90039540113E+02 -0.14170293055E+03  0.35305270158E+03  0.42722033987E+03  0.17229094403E+03 0.  0.
         24    2    3    3    0    0 -0.10528271659E+01 -0.17369144562E+02  0.83665634018E+02  0.11682028851E+03  0.79650774407E+02 0.  0.
         -6    2    1    2    0  502 -0.90039540113E+02  0.14170293055E+03  0.90615578518E+03  0.93760586629E+03  0.17262564752E+03 0.  0.
        -24    2    5    5    0    0 -0.10033720961E+03  0.10955130973E+03  0.46722306011E+03  0.49735162627E+03  0.83619418567E+02 0.  0.
          5    1    3    3  501    0  0.91092367279E+02 -0.12433378599E+03  0.26938706757E+03  0.31040005136E+03  0.47000000000E+01 0. -1.
        -11    1    4    4    0    0 -0.25399051563E+02  0.22999104867E+02  0.38403098872E+02  0.51467160869E+02  0.00000000000E+00 0.  1.
         12    1    4    4    0    0  0.24346224397E+02 -0.40368249429E+02  0.45262535147E+02  0.65353127639E+02  0.00000000000E+00 0. -1.
         -5    1    5    5    0  502  0.10297669500E+02  0.32151620826E+02  0.43893272507E+03  0.44025424002E+03  0.47000000000E+01 0.  1.
         13    1    6    6    0    0  0.44242627424E+01  0.22615425558E+02  0.15550518960E+03  0.15720335736E+03  0.00000000000E+00 0. -1.
        -14    1    6    6    0    0 -0.10476147235E+03  0.86935884170E+02  0.31171787051E+03  0.34014826891E+03  0.00000000000E+00 0.  1.
</event>
<event>
12    1  0.9246030E-003  0.2029078E+03  0.7818608E-02  0.1147356E+00
         21   -1    0    0  501  502  0.00000000000E+00  0.00000000000E+00  0.19034827785E+03  0.19034827785E+03  0.00000000000E+00 0. -1.
         21   -1    0    0  502  503 -0.00000000000E+00 -0.00000000000E+00 -0.22567180059E+03  0.22567180059E+03  0.00000000000E+00 0. -1.
          6    2    1    2  501    0  0.98697866690E+02 -0.41213825713E+02 -0.60597299000E+02  0.21154429427E+03  0.17216012162E+03 0.  0.
         24    2    3    3    0    0  0.89749115869E+02 -0.58634940669E+02  0.15568754604E+02  0.13276020255E+03  0.76745848058E+02 0.  0.
         -6    2    1    2    0  503 -0.98697866690E+02  0.41213825713E+02  0.25273776261E+02  0.20447578416E+03  0.17242892514E+03 0.  0.
        -24    2    5    5    0    0 -0.10057532872E+03  0.26313174781E+02 -0.40420960162E+02  0.13692252625E+03  0.79411235094E+02 0.  0.
          5    1    3    3  501    0  0.89487508212E+01  0.17421114956E+02 -0.76166053603E+02  0.78784091726E+02  0.47000000000E+01 0. -1.
        -11    1    4    4    0    0  0.45447868678E+02 -0.64945126309E+02 -0.12044766068E+02  0.80177643943E+02  0.00000000000E+00 0.  1.
         12    1    4    4    0    0  0.44301247192E+02  0.63101856405E+01  0.27613520671E+02  0.52582558605E+02  0.00000000000E+00 0. -1.
         -5    1    5    5    0  503  0.18774620276E+01  0.14900650932E+02  0.65694736423E+02  0.67553257919E+02  0.47000000000E+01 0.  1.
         13    1    6    6    0    0 -0.69223510585E+02 -0.19297121537E+02 -0.68457248692E+01  0.72188207253E+02  0.00000000000E+00 0. -1.
        -14    1    6    6    0    0 -0.31351818132E+02  0.45610296318E+02 -0.33575235293E+02  0.64734318993E+02  0.00000000000E+00 0.  1.
</event>
<event>
12    1  0.9246030E-003  0.2093286E+03  0.7818608E-02  0.1142489E+00
         21   -1    0    0  501  502  0.00000000000E+00  0.00000000000E+00  0.41976031871E+03  0.41976031871E+03  0.00000000000E+00 0.  1.
         21   -1    0    0  502  503 -0.00000000000E+00 -0.00000000000E+00 -0.13051725628E+03  0.13051725628E+03  0.00000000000E+00 0. -1.
          6    2    1    2  501    0 -0.11509999349E+03 -0.12188637561E+02  0.19788485770E+02  0.21026186270E+03  0.17441873567E+03 0.  0.
         24    2    3    3    0    0 -0.38200525728E+01 -0.23734507293E+02 -0.23893649400E+02  0.90067223507E+02  0.83446261933E+02 0.  0.
         -6    2    1    2    0  503  0.11509999349E+03  0.12188637561E+02  0.26945457666E+03  0.34001571230E+03  0.17207075387E+03 0.  0.
        -24    2    5    5    0    0  0.80165764933E+02  0.66493288474E+02  0.22460129784E+03  0.26125466827E+03  0.83428720599E+02 0.  0.
          5    1    3    3  501    0 -0.11127994092E+03  0.11545869733E+02  0.43682135170E+02  0.12019463919E+03  0.47000000000E+01 0. -1.
        -13    1    4    4    0    0  0.23799391823E+02 -0.44899550453E+02 -0.67071732505E+01  0.51257846765E+02  0.00000000000E+00 0.  1.
         14    1    4    4    0    0 -0.27619444396E+02  0.21165043160E+02 -0.17186476149E+02  0.38809376742E+02  0.00000000000E+00 0. -1.
         -5    1    5    5    0  503  0.34934228556E+02 -0.54304650913E+02  0.44853278822E+02  0.78761044030E+02  0.47000000000E+01 0.  1.
         11    1    6    6    0    0  0.10862550799E+02  0.45412317096E+02  0.35204149386E+02  0.58477394674E+02  0.00000000000E+00 0. -1.
        -12    1    6    6    0    0  0.69303214134E+02  0.21080971378E+02  0.18939714845E+03  0.20277727359E+03  0.00000000000E+00 0.  1.
</event>
<event>
12    1  0.9246030E-003  0.2015237E+03  0.7818608E-02  0.1148853E+00
         21   -1    0    0  501  502  0.00000000000E+00  0.00000000000E+00  0.68624576956E+03  0.68624576956E+03  0.00000000000E+00 0.  1.
         21   -1    0    0  502  503 -0.00000000000E+00 -0.00000000000E+00 -0.69610079738E+02  0.69610079738E+02  0.00000000000E+00 0.  1.
          6    2    1    2  501    0 -0.58478092124E+02  0.87109711003E+02  0.45719925787E+03  0.49888934483E+03  0.16985766978E+03 0.  0.
         24    2    3    3    0    0 -0.53936361842E+00  0.28361155942E+01  0.30426359972E+03  0.31485037973E+03  0.80907904649E+02 0.  0.
         -6    2    1    2    0  503  0.58478092124E+02 -0.87109711003E+02  0.15943643195E+03  0.25696650447E+03  0.17205818659E+03 0.  0.
        -24    2    5    5    0    0 -0.25646457531E+02 -0.31255408508E+02  0.32387504122E+02  0.94608372471E+02  0.79165348313E+02 0.  0.
          5    1    3    3  501    0 -0.57938728506E+02  0.84273595408E+02  0.15293565815E+03  0.18403896511E+03  0.47000000000E+01 0. -1.
        -13    1    4    4    0    0 -0.39421133568E+02 -0.76861396608E+01  0.16965127823E+03  0.17434063990E+03  0.00000000000E+00 0.  1.
         14    1    4    4    0    0  0.38881769949E+02  0.10522255255E+02  0.13461232149E+03  0.14050973983E+03  0.00000000000E+00 0. -1.
         -5    1    5    5    0  503  0.84124549655E+02 -0.55854302495E+02  0.12704892783E+03  0.16235813199E+03  0.47000000000E+01 0.  1.
         11    1    6    6    0    0 -0.22822876699E+02 -0.44367991005E+02  0.51208898627E+02  0.71496528764E+02  0.00000000000E+00 0. -1.
        -12    1    6    6    0    0 -0.28235808314E+01  0.13112582497E+02 -0.18821394505E+02  0.23111843707E+02  0.00000000000E+00 0.  1.
</event>
<event>
12    1  0.9246030E-003  0.1711429E+03  0.7818608E-02  0.1177155E+00
         21   -1    0    0  503  502  0.00000000000E+00  0.00000000000E+00  0.12792158774E+03  0.12792158774E+03  0.00000000000E+00 0. -1.
         21   -1    0    0  501  503 -0.00000000000E+00 -0.00000000000E+00 -0.22782675590E+03  0.22782675590E+03  0.00000000000E+00 0. -1.
          6    2    1    2  501    0  0.11566146044E+02  0.52627277115E+01 -0.64132217551E+02  0.18276439043E+03  0.17067046916E+03 0.  0.
         24    2    3    3    0    0 -0.46818006595E+02 -0.10719834682E+02  0.66418625078E+00  0.93967906686E+02  0.80763145966E+02 0.  0.
         -6    2    1    2    0  502 -0.11566146044E+02 -0.52627277115E+01 -0.35772950612E+02  0.17298395321E+03  0.16876691629E+03 0.  0.
        -24    2    5    5    0    0 -0.57082908475E+01 -0.65870505973E+02 -0.36359355605E+01  0.10397312080E+03  0.80160349798E+02 0.  0.
          5    1    3    3  501    0  0.58384152639E+02  0.15982562393E+02 -0.64796403801E+02  0.88796483746E+02  0.47000000000E+01 0. -1.
        -13    1    4    4    0    0 -0.39820203864E+02 -0.40994657025E+02  0.15955387218E+02  0.59336202454E+02  0.00000000000E+00 0.  1.
         14    1    4    4    0    0 -0.69978027309E+01  0.30274822343E+02 -0.15291200967E+02  0.34631704232E+02  0.00000000000E+00 0. -1.
         -5    1    5    5    0  502 -0.58578551966E+01  0.60607778261E+02 -0.32137015051E+02  0.69010832408E+02  0.47000000000E+01 0.  1.
         11    1    6    6    0    0 -0.39560761160E+02 -0.15394446735E+02  0.43547581820E+01  0.42673255473E+02  0.00000000000E+00 0. -1.
        -12    1    6    6    0    0  0.33852470313E+02 -0.50476059238E+02 -0.79906937425E+01  0.61299865326E+02  0.00000000000E+00 0.  1.
</event>
<event>
12    1  0.9246030E-003  0.4441943E+03  0.7818608E-02  0.1029559E+00
         21   -1    0    0  501  502  0.00000000000E+00  0.00000000000E+00  0.94948922973E+03  0.94948922973E+03  0.00000000000E+00 0.  1.
         21   -1    0    0  502  503 -0.00000000000E+00 -0.00000000000E+00 -0.22758199218E+03  0.22758199218E+03  0.00000000000E+00 0.  1.
          6    2    1    2  501    0  0.15662672549E+03 -0.37705951672E+03  0.53734797846E+03  0.69717385726E+03  0.17493635129E+03 0.  0.
         24    2    3    3    0    0  0.16998255190E+03 -0.37303985600E+03  0.53959867403E+03  0.68228455231E+03  0.79326409122E+02 0.  0.
         -6    2    1    2    0  503 -0.15662672549E+03  0.37705951672E+03  0.18455925910E+03  0.47989736466E+03  0.17185328104E+03 0.  0.
        -24    2    5    5    0    0 -0.11117257511E+03  0.14480763218E+03  0.11919543876E+03  0.23433365263E+03  0.85884319516E+02 0.  0.
          5    1    3    3  501    0 -0.13355826411E+02 -0.40196607125E+01 -0.22506955673E+01  0.14889304950E+02  0.47000000000E+01 0. -1.
        -11    1    4    4    0    0  0.96011431993E+02 -0.29324334579E+03  0.39007119736E+03  0.49735841597E+03  0.00000000000E+00 0.  1.
         12    1    4    4    0    0  0.73971119906E+02 -0.79796510217E+02  0.14952747667E+03  0.18492613634E+03  0.00000000000E+00 0. -1.
         -5    1    5    5    0  503 -0.45454150375E+02  0.23225188453E+03  0.65363820341E+02  0.24556371203E+03  0.47000000000E+01 0.  1.
         11    1    6    6    0    0  0.11113274166E+02  0.27880959620E+02  0.55643137027E+01  0.30525634457E+02  0.00000000000E+00 0. -1.
        -12    1    6    6    0    0 -0.12228584928E+03  0.11692667256E+03  0.11363112505E+03  0.20380801817E+03  0.00000000000E+00 0.  1.
</event>
<event>
12    1  0.9246030E-003  0.1957748E+03  0.7818608E-02  0.1154203E+00
         21   -1    0    0  503  502  0.00000000000E+00  0.00000000000E+00  0.12129795202E+04  0.12129795202E+04  0.00000000000E+00 0.  1.
         21   -1    0    0  501  503 -0.00000000000E+00 -0.00000000000E+00 -0.42929116227E+02  0.42929116227E+02  0.00000000000E+00 0.  1.
          6    2    1    2  501    0 -0.97137057784E+01  0.93707133567E+02  0.24946396039E+03  0.31473534601E+03  0.16718459120E+03 0.  0.
         24    2    3    3    0    0 -0.32576810340E+01  0.11079430639E+02  0.20593433914E+03  0.22100202497E+03  0.79369872976E+02 0.  0.
         -6    2    1    2    0  502  0.97137057784E+01 -0.93707133567E+02  0.92058644363E+03  0.94117329046E+03  0.17161695581E+03 0.  0.
        -24    2    5    5    0    0  0.60340368613E+01 -0.10889400004E+02  0.19218066358E+03  0.20805025347E+03  0.78717926055E+02 0.  0.
          5    1    3    3  501    0 -0.64560247444E+01  0.82627702928E+02  0.43529621248E+02  0.93733321037E+02  0.47000000000E+01 0. -1.
        -13    1    4    4    0    0 -0.12799753172E+02  0.22130150176E+02  0.15267656325E+02  0.29777148248E+02  0.00000000000E+00 0.  1.
         14    1    4    4    0    0  0.95420721383E+01 -0.11050719537E+02  0.19066668282E+03  0.19122487673E+03  0.00000000000E+00 0. -1.
         -5    1    5    5    0  502  0.36796689170E+01 -0.82817733563E+02  0.72840578004E+03  0.73312303698E+03  0.47000000000E+01 0.  1.
         13    1    6    6    0    0  0.16453293124E+02 -0.21238291578E+02  0.16022291218E+02  0.31280819996E+02  0.00000000000E+00 0. -1.
        -14    1    6    6    0    0 -0.10419256262E+02  0.10348891574E+02  0.17615837237E+03  0.17676943348E+03  0.00000000000E+00 0.  1.
</event>
<event>
12    1  0.9246030E-003  0.3060744E+03  0.7818608E-02  0.1082460E+00
         21   -1    0    0  501  502  0.00000000000E+00  0.00000000000E+00  0.82935097177E+03  0.82935097177E+03  0.00000000000E+00 0.  1.
         21   -1    0    0  502  503 -0.00000000000E+00 -0.00000000000E+00 -0.19232823630E+03  0.19232823630E+03  0.00000000000E+00 0. -1.
          6    2    1    2  501    0  0.14645213675E+03 -0.20538823521E+03  0.64748510375E+03  0.71542608899E+03  0.17019099186E+03 0.  0.
         24    2    3    3    0    0  0.15597138054E+03 -0.11809775934E+03  0.39503722464E+03  0.44810181989E+03  0.80415669088E+02 0.  0.
         -6    2    1    2    0  503 -0.14645213675E+03  0.20538823521E+03 -0.10462368283E+02  0.30625311908E+03  0.17334634774E+03 0.  0.
        -24    2    5    5    0    0 -0.20283150792E+02  0.55964741922E+02 -0.40476837558E+02  0.10834164460E+03  0.80969617955E+02 0.  0.
          5    1    3    3  501    0 -0.95192437874E+01 -0.87290475870E+02  0.25244787912E+03  0.26732426910E+03  0.47000000000E+01 0. -1.
        -13    1    4    4    0    0  0.96367715049E-01 -0.10372464948E+02  0.78540535863E+02  0.79222554171E+02  0.00000000000E+00 0.  1.
         14    1    4    4    0    0  0.15587501283E+03 -0.10772529439E+03  0.31649668877E+03  0.36887926572E+03  0.00000000000E+00 0. -1.
         -5    1    5    5    0  503 -0.12616898596E+03  0.14942349329E+03  0.30014469275E+02  0.19791147448E+03  0.47000000000E+01 0.  1.
         11    1    6    6    0    0 -0.29753775090E+02  0.15387618546E+02 -0.54845738014E+02  0.64266016797E+02  0.00000000000E+00 0. -1.
        -12    1    6    6    0    0  0.94706242978E+01  0.40577123376E+02  0.14368900456E+02  0.44075627805E+02  0.00000000000E+00 0.  1.
</event>
<event>
12    1  0.9246030E-003  0.1850699E+03  0.7818608E-02  0.1163401E+00
         21   -1    0    0  501  502  0.00000000000E+00  0.00000000000E+00  0.66570695765E+03  0.66570695765E+03  0.00000000000E+00 0.  1.
         21   -1    0    0  502  503 -0.00000000000E+00 -0.00000000000E+00 -0.53815170364E+02  0.53815170364E+02  0.00000000000E+00 0.  1.
          6    2    1    2  501    0  0.49111560968E+02 -0.41129140133E+02  0.39023599554E+03  0.43189697091E+03  0.17362980642E+03 0.  0.
         24    2    3    3    0    0  0.31141350054E+02 -0.51230268449E+02  0.99228442754E+02  0.14012231976E+03  0.78699787523E+02 0.  0.
         -6    2    1    2    0  503 -0.49111560968E+02  0.41129140133E+02  0.22165579175E+03  0.28762515710E+03  0.17173639508E+03 0.  0.
        -24    2    5    5    0    0 -0.56091474882E+01  0.82426826494E+02  0.18703656478E+03  0.21820945461E+03  0.76203971374E+02 0.  0.
          5    1    3    3  501    0  0.17970210914E+02  0.10101128316E+02  0.29100755279E+03  0.29177465115E+03  0.47000000000E+01 0. -1.
        -11    1    4    4    0    0  0.42451950724E+01 -0.49335646226E+02  0.10163109926E+03  0.11305267801E+03  0.00000000000E+00 0.  1.
         12    1    4    4    0    0  0.26896154982E+02 -0.18946222227E+01 -0.24026565043E+01  0.27069641750E+02  0.00000000000E+00 0. -1.
         -5    1    5    5    0  503 -0.43502413480E+02 -0.41297686361E+02  0.34619226965E+02  0.69415702496E+02  0.47000000000E+01 0.  1.
         11    1    6    6    0    0  0.32632181890E+02  0.28470659560E+02  0.50687713352E+02  0.66668448576E+02  0.00000000000E+00 0. -1.
        -12    1    6    6    0    0 -0.38241329378E+02  0.53956166934E+02  0.13634885143E+03  0.15154100603E+03  0.00000000000E+00 0.  1.
</event>
<event>
12    1  0.9246030E-003  0.1846607E+03  0.7818608E-02  0.1163522E+00
         21   -1    0    0  503  502  0.00000000000E+00  0.00000000000E+00  0.14773114572E+03  0.14773114572E+03  0.00000000000E+00 0. -1.
         21   -1    0    0  501  503 -0.00000000000E+00 -0.00000000000E+00 -0.24741562624E+03  0.24741562624E+03  0.00000000000E+00 0. -1.
          6    2    1    2  501    0  0.13920169936E+02 -0.59142619642E+02 -0.10234578025E+03  0.21112607873E+03  0.17437873091E+03 0.  0.
         24    2    3    3    0    0 -0.68278347330E+01 -0.71212899354E+02  0.21077844518E+01  0.10384696366E+03  0.75245283864E+02 0.  0.
         -6    2    1    2    0  502 -0.13920169936E+02  0.59142619642E+02  0.26612997358E+01  0.18402069323E+03  0.17368048950E+03 0.  0.
        -24    2    5    5    0    0 -0.38423943631E+02  0.72937208707E+02  0.53213232172E+02  0.12598351992E+03  0.79018753191E+02 0.  0.
          5    1    3    3  501    0  0.20748004669E+02  0.12070279712E+02 -0.10445356471E+03  0.10727911507E+03  0.47000000000E+01 0. -1.
        -11    1    4    4    0    0  0.93815938329E+01  0.27994688552E+01  0.23215224879E+02  0.25195197854E+02  0.00000000000E+00 0.  1.
         12    1    4    4    0    0 -0.16209428566E+02 -0.74012368209E+02 -0.21107440427E+02  0.78651765802E+02  0.00000000000E+00 0. -1.
         -5    1    5    5    0  502  0.24503773695E+02 -0.13794589065E+02 -0.50551932436E+02  0.58037173310E+02  0.47000000000E+01 0.  1.
         11    1    6    6    0    0 -0.69618255031E+01  0.54226853705E+02  0.67346798195E+02  0.86744509360E+02  0.00000000000E+00 0. -1.
        -12    1    6    6    0    0 -0.31462118128E+02  0.18710355003E+02 -0.14133566023E+02  0.39239010563E+02  0.00000000000E+00 0.  1.
</event>
<event>
12    1  0.9246030E-003  0.2042718E+03  0.7818608E-02  0.1146193E+00
         21   -1    0    0  501  502  0.00000000000E+00  0.00000000000E+00  0.80909217336E+03  0.80909217336E+03  0.00000000000E+00 0. -1.
         21   -1    0    0  502  503 -0.00000000000E+00 -0.00000000000E+00 -0.58057739930E+02  0.58057739930E+02  0.00000000000E+00 0. -1.
          6    2    1    2  501    0  0.53426129280E+02  0.95078472562E+02  0.52051565978E+03  0.55914690203E+03  0.17266858064E+03 0.  0.
         24    2    3    3    0    0  0.82310276074E+02  0.55835832392E+02  0.47680646051E+03  0.49352020895E+03  0.79530963354E+02 0.  0.
         -6    2    1    2    0  503 -0.53426129280E+02 -0.95078472562E+02  0.23051877365E+03  0.30800301126E+03  0.17272140199E+03 0.  0.
        -24    2    5    5    0    0 -0.75162812622E+02 -0.12365791495E+03  0.20965984659E+03  0.26621242897E+03  0.77272748969E+02 0.  0.
          5    1    3    3  501    0 -0.28884146794E+02  0.39242640169E+02  0.43709199265E+02  0.65626693074E+02  0.47000000000E+01 0. -1.
        -13    1    4    4    0    0 -0.11005758153E+02  0.10108897445E+02  0.14631645977E+03  0.14707760849E+03  0.00000000000E+00 0.  1.
         14    1    4    4    0    0  0.93316034226E+02  0.45726934947E+02  0.33049000074E+03  0.34644260046E+03  0.00000000000E+00 0. -1.
         -5    1    5    5    0  503  0.21736683343E+02  0.28579442392E+02  0.20858927061E+02  0.41790582292E+02  0.47000000000E+01 0.  1.
         13    1    6    6    0    0 -0.89664838916E+01 -0.88731912371E+02  0.11195530358E+03  0.14313539082E+03  0.00000000000E+00 0. -1.
        -14    1    6    6    0    0 -0.66196328731E+02 -0.34926002583E+02  0.97704543013E+02  0.12307703815E+03  0.00000000000E+00 0.  1.
</event>
<event>
12    1  0.9246030E-003  0.2044142E+03  0.7818608E-02  0.1149905E+00
         21   -1    0    0  501  502  0.00000000000E+00  0.00000000000E+00  0.62447219366E+03  0.62447219366E+03  0.00000000000E+00 0.  1.
         21   -1    0    0  502  503 -0.00000000000E+00 -0.00000000000E+00 -0.63058561686E+02  0.63058561686E+02  0.00000000000E+00 0.  1.
          6    2    1    2  501    0 -0.42668351927E+02 -0.58881491453E+02  0.35202209617E+03  0.40706843918E+03  0.19104329272E+03 0.  0.
         24    2    3    3    0    0 -0.31008647639E+02 -0.10449785972E+02  0.34559973336E+03  0.35662128323E+03  0.81662902809E+02 0.  0.
         -6    2    1    2    0  503  0.42668351927E+02  0.58881491453E+02  0.20939153580E+03  0.28046231616E+03  0.17183328324E+03 0.  0.
        -24    2    5    5    0    0  0.20705480705E+02 -0.28894490812E+02  0.14118997643E+03  0.16705802402E+03  0.81915599340E+02 0.  0.
          5    1    3    3  501    0 -0.11659704288E+02 -0.48431705481E+02  0.64223628084E+01  0.50447155955E+02  0.47000000000E+01 0. -1.
        -11    1    4    4    0    0  0.11498404866E+02  0.15891582188E+02  0.22784950111E+03  0.22869226234E+03  0.00000000000E+00 0.  1.
         12    1    4    4    0    0 -0.42507052504E+02 -0.26341368160E+02  0.11775023225E+03  0.12792902088E+03  0.00000000000E+00 0. -1.
         -5    1    5    5    0  503  0.21962871222E+02  0.87775982265E+02  0.68201559369E+02  0.11340429214E+03  0.47000000000E+01 0.  1.
         13    1    6    6    0    0 -0.15620336047E+02  0.13572149354E+02  0.72480644689E+01  0.21925614583E+02  0.00000000000E+00 0. -1.
        -14    1    6    6    0    0  0.36325816752E+02 -0.42466640165E+02  0.13394191196E+03  0.14513240944E+03  0.00000000000E+00 0.  1.
</event>
<event>
12    1  0.9246030E-003  0.2117141E+03  0.7818608E-02  0.1140410E+00
         21   -1    0    0  503  502  0.00000000000E+00  0.00000000000E+00  0.52971197340E+02  0.52971197340E+02  0.00000000000E+00 0.  1.
         21   -1    0    0  501  503 -0.00000000000E+00 -0.00000000000E+00 -0.10489447014E+04  0.10489447014E+04  0.00000000000E+00 0. -1.
          6    2    1    2  501    0  0.90508798983E+02  0.84526014409E+02 -0.74351643009E+03  0.77307148967E+03  0.17171591807E+03 0.  0.
         24    2    3    3    0    0  0.58062875782E+02 -0.21326590726E+02 -0.35695291433E+03  0.37093848473E+03  0.79711074426E+02 0.  0.
         -6    2    1    2    0  502 -0.90508798983E+02 -0.84526014409E+02 -0.25245707399E+03  0.32884440909E+03  0.17049217395E+03 0.  0.
        -24    2    5    5    0    0 -0.80819912258E+02  0.12170396833E+02 -0.12776115111E+03  0.17068236037E+03  0.78291631943E+02 0.  0.
          5    1    3    3  501    0  0.32445923201E+02  0.10585260514E+03 -0.38656351576E+03  0.40213300494E+03  0.47000000000E+01 0. -1.
        -13    1    4    4    0    0  0.66376795744E+02 -0.94754217884E+01 -0.16035750194E+03  0.17381079097E+03  0.00000000000E+00 0.  1.
         14    1    4    4    0    0 -0.83139199616E+01 -0.11851168938E+02 -0.19659541239E+03  0.19712769375E+03  0.00000000000E+00 0. -1.
         -5    1    5    5    0  502 -0.96888867251E+01 -0.96696411242E+02 -0.12469592287E+03  0.15816204872E+03  0.47000000000E+01 0.  1.
         11    1    6    6    0    0 -0.92822409402E+02  0.87312642078E+01 -0.12780449886E+03  0.15819679071E+03  0.00000000000E+00 0. -1.
        -12    1    6    6    0    0  0.12002497144E+02  0.34391326254E+01  0.43347741123E-01  0.12485569668E+02  0.00000000000E+00 0.  1.
</event>
<event>
12    1  0.9246030E-003  0.2006907E+03  0.7818608E-02  0.1149691E+00
         21   -1    0    0  503  502  0.00000000000E+00  0.00000000000E+00  0.20447436426E+03  0.20447436426E+03  0.00000000000E+00 0.  1.
         21   -1    0    0  501  503 -0.00000000000E+00 -0.00000000000E+00 -0.21233811410E+03  0.21233811410E+03  0.00000000000E+00 0.  1.
          6    2    1    2  501    0 -0.18780901523E+02  0.10023386569E+03 -0.64297362819E+02  0.20833819305E+03  0.16991498382E+03 0.  0.
         24    2    3    3    0    0 -0.43811188965E+02  0.12463242929E+03 -0.27061980927E+02  0.15705107128E+03  0.80498605387E+02 0.  0.
         -6    2    1    2    0  502  0.18780901523E+02 -0.10023386569E+03  0.56433612981E+02  0.20847428530E+03  0.17285029611E+03 0.  0.
        -24    2    5    5    0    0 -0.14806921740E+02  0.14011791538E+02  0.23933359662E+02  0.84948706850E+02  0.78917056821E+02 0.  0.
          5    1    3    3  501    0  0.25030287442E+02 -0.24398563602E+02 -0.37235381892E+02  0.51287121775E+02  0.47000000000E+01 0. -1.
        -13    1    4    4    0    0 -0.18224275814E+02  0.19347142931E+02 -0.39901295114E+02  0.47943190552E+02  0.00000000000E+00 0.  1.
         14    1    4    4    0    0 -0.25586913152E+02  0.10528528636E+03  0.12839314187E+02  0.10910788073E+03  0.00000000000E+00 0. -1.
         -5    1    5    5    0  502  0.33587823264E+02 -0.11424565722E+03  0.32500253319E+02  0.12352557845E+03  0.47000000000E+01 0.  1.
         11    1    6    6    0    0  0.21517339743E+02  0.24217125315E+02 -0.10309196666E+02  0.33996243969E+02  0.00000000000E+00 0. -1.
        -12    1    6    6    0    0 -0.36324261483E+02 -0.10205333777E+02  0.34242556328E+02  0.50952462881E+02  0.00000000000E+00 0.  1.
</event>
<event>
12    1  0.9246030E-003  0.2701946E+03  0.7818608E-02  0.1101947E+00
         21   -1    0    0  503  502  0.00000000000E+00  0.00000000000E+00  0.37761641712E+03  0.37761641712E+03  0.00000000000E+00 0. -1.
         21   -1    0    0  501  503 -0.00000000000E+00 -0.00000000000E+00 -0.19533979565E+03  0.19533979565E+03  0.00000000000E+00 0.  1.
          6    2    1    2  501    0  0.16193915980E+02 -0.20028383712E+03  0.40692769155E+02  0.26791341545E+03  0.17246981878E+03 0.  0.
         24    2    3    3    0    0 -0.38163380975E+01 -0.24247829763E+02  0.33017682050E+02  0.90515323252E+02  0.80624653368E+02 0.  0.
         -6    2    1    2    0  502 -0.16193915980E+02  0.20028383712E+03  0.14158385232E+03  0.30504279732E+03  0.18063571805E+03 0.  0.
        -24    2    5    5    0    0 -0.91364932962E+01  0.20690858799E+03  0.70593581615E+02  0.23324166172E+03  0.80768680226E+02 0.  0.
          5    1    3    3  501    0  0.20010254077E+02 -0.17603600735E+03  0.76750871053E+01  0.17739809220E+03  0.47000000000E+01 0. -1.
        -11    1    4    4    0    0 -0.39616327126E+02  0.12796092568E+01  0.99695699172E+01  0.40871543880E+02  0.00000000000E+00 0.  1.
         12    1    4    4    0    0  0.35799989029E+02 -0.25527439020E+02  0.23048112133E+02  0.49643779371E+02  0.00000000000E+00 0. -1.
         -5    1    5    5    0  502 -0.70574226838E+01 -0.66247508690E+01  0.70990270704E+02  0.71801135601E+02  0.47000000000E+01 0.  1.
         11    1    6    6    0    0  0.89996070058E+01 -0.11560840029E+01  0.14297848897E+02  0.16933928651E+02  0.00000000000E+00 0. -1.
        -12    1    6    6    0    0 -0.18136100302E+02  0.20806467199E+03  0.56295732718E+02  0.21630773307E+03  0.00000000000E+00 0.  1.
</event>
<event>
12    1  0.9246030E-003  0.2800584E+03  0.7818608E-02  0.1095840E+00
         21   -1    0    0  501  502  0.00000000000E+00  0.00000000000E+00  0.41640068062E+02  0.41640068062E+02  0.00000000000E+00 0.  1.
         21   -1    0    0  502  503 -0.00000000000E+00 -0.00000000000E+00 -0.19046363552E+04  0.19046363552E+04  0.00000000000E+00 0.  1.
          6    2    1    2  501    0  0.37530978111E+02  0.21826241964E+03 -0.10514925818E+04  0.10878062980E+04  0.16923012242E+03 0.  0.
         24    2    3    3    0    0  0.42573868418E+02  0.23942156734E+03 -0.96162088660E+03  0.99522038188E+03  0.81324398424E+02 0.  0.
         -6    2    1    2    0  503 -0.37530978111E+02 -0.21826241964E+03 -0.81150370538E+03  0.85847012526E+03  0.17142238469E+03 0.  0.
        -24    2    5    5    0    0 -0.57314833360E+02 -0.54850319672E+02 -0.27271460661E+03  0.29507798980E+03  0.80026343881E+02 0.  0.
          5    1    3    3  501    0 -0.50428903079E+01 -0.21159147697E+02 -0.89871695180E+02  0.92585916146E+02  0.47000000000E+01 0. -1.
        -13    1    4    4    0    0 -0.16229357455E+02  0.30228483913E+02 -0.21127621028E+03  0.21404389810E+03  0.00000000000E+00 0.  1.
         14    1    4    4    0    0  0.58803225873E+02  0.20919308343E+03 -0.75034467633E+03  0.78117648378E+03  0.00000000000E+00 0. -1.
         -5    1    5    5    0  503  0.19783855249E+02 -0.16341209997E+03 -0.53878909877E+03  0.56339213546E+03  0.47000000000E+01 0.  1.
         13    1    6    6    0    0 -0.58679815831E+02 -0.10275212878E+02 -0.97345146232E+02  0.11412702695E+03  0.00000000000E+00 0. -1.
        -14    1    6    6    0    0  0.13649824714E+01 -0.44575106795E+02 -0.17536946038E+03  0.18095096285E+03  0.00000000000E+00 0.  1.
</event>
<event>
12    1  0.9246030E-003  0.2240428E+03  0.7818608E-02  0.1131323E+00
         21   -1    0    0  503  502  0.00000000000E+00  0.00000000000E+00  0.10047184978E+03  0.10047184978E+03  0.00000000000E+00 0. -1.
         21   -1    0    0  501  503 -0.00000000000E+00 -0.00000000000E+00 -0.52093101468E+03  0.52093101468E+03  0.00000000000E+00 0.  1.
          6    2    1    2  501    0 -0.14243186430E+01 -0.14262301191E+03 -0.27917978143E+03  0.35653490668E+03  0.16980116935E+03 0.  0.
         24    2    3    3    0    0  0.40307180009E+02 -0.38351716615E+02 -0.18754429930E+03  0.21150672808E+03  0.80415849783E+02 0.  0.
         -6    2    1    2    0  502  0.14243186430E+01  0.14262301191E+03 -0.14127938346E+03  0.26486795778E+03  0.17277678854E+03 0.  0.
        -24    2    5    5    0    0  0.61611297143E+02  0.12499267216E+03 -0.11383901425E+03  0.19625042996E+03  0.78331284095E+02 0.  0.
          5    1    3    3  501    0 -0.41731498652E+02 -0.10427129530E+03 -0.91635482137E+02  0.14502817860E+03  0.47000000000E+01 0. -1.
        -11    1    4    4    0    0  0.40845704426E+02 -0.48998598697E+02 -0.19012260887E+03  0.20053887565E+03  0.00000000000E+00 0.  1.
         12    1    4    4    0    0 -0.53852441758E+00  0.10646882082E+02  0.25783095722E+01  0.10967852427E+02  0.00000000000E+00 0. -1.
         -5    1    5    5    0  502 -0.60186978500E+02  0.17630339757E+02 -0.27440369216E+02  0.68617527817E+02  0.47000000000E+01 0.  1.
         13    1    6    6    0    0  0.57712416321E+01 -0.10729709627E+02 -0.14934560459E+02  0.19273686590E+02  0.00000000000E+00 0. -1.
        -14    1    6    6    0    0  0.55840055511E+02  0.13572238178E+03 -0.98904453786E+02  0.17697674337E+03  0.00000000000E+00 0.  1.
</event>
<event>
12    1  0.9246030E-003  0.1782502E+03  0.7818608E-02  0.1170342E+00
         21   -1    0    0  503  502  0.00000000000E+00  0.00000000000E+00  0.36389942436E+02  0.36389942436E+02  0.00000000000E+00 0. -1.
         21   -1    0    0  501  503 -0.00000000000E+00 -0.00000000000E+00 -0.10169859384E+04  0.10169859384E+04  0.00000000000E+00 0. -1.
          6    2    1    2  501    0 -0.42236640558E+01  0.26369358180E+02 -0.70333682915E+03  0.72557276261E+03  0.17623835057E+03 0.  0.
         24    2    3    3    0    0  0.14587669369E-01  0.87208665391E+02 -0.51539788564E+03  0.52793035682E+03  0.73960324453E+02 0.  0.
         -6    2    1    2    0  502  0.42236640558E+01 -0.26369358180E+02 -0.27725916681E+03  0.32780311823E+03  0.17282666562E+03 0.  0.
        -24    2    5    5    0    0  0.10755686222E+02 -0.77319151271E+02 -0.22584320303E+03  0.25497290430E+03  0.88949950141E+02 0.  0.
          5    1    3    3  501    0 -0.42382517252E+01 -0.60839307211E+02 -0.18793894351E+03  0.19764240579E+03  0.47000000000E+01 0. -1.
        -13    1    4    4    0    0 -0.23346900382E+02  0.20758626349E+01 -0.68575398031E+02  0.72470491776E+02  0.00000000000E+00 0.  1.
         14    1    4    4    0    0  0.23361488051E+02  0.85132802756E+02 -0.44682248761E+03  0.45545986504E+03  0.00000000000E+00 0. -1.
         -5    1    5    5    0  502 -0.65320221661E+01  0.50949793091E+02 -0.51415963779E+02  0.72830213929E+02  0.47000000000E+01 0.  1.
         13    1    6    6    0    0 -0.93882844461E+01 -0.17160491797E+02  0.84059826150E+00  0.19578788752E+02  0.00000000000E+00 0. -1.
        -14    1    6    6    0    0  0.20143970668E+02 -0.60158659475E+02 -0.22668380129E+03  0.23539411555E+03  0.00000000000E+00 0.  1.
</event>
<event>
12    1  0.9246030E-003  0.2800442E+03  0.7818608E-02  0.1095858E+00
         21   -1    0    0  503  502  0.00000000000E+00  0.00000000000E+00  0.76508686577E+03  0.76508686577E+03  0.00000000000E+00 0. -1.
         21   -1    0    0  501  503 -0.00000000000E+00 -0.00000000000E+00 -0.17697377616E+03  0.17697377616E+03  0.00000000000E+00 0.  1.
          6    2    1    2  501    0  0.92210376025E+02  0.20087599301E+03 -0.12978673990E+02  0.27893464975E+03  0.16965310148E+03 0.  0.
         24    2    3    3    0    0  0.10823434667E+02  0.10421018157E+03  0.42830086426E+02  0.14071445925E+03  0.83601639084E+02 0.  0.
         -6    2    1    2    0  502 -0.92210376025E+02 -0.20087599301E+03  0.60109176359E+03  0.66312599218E+03  0.17196178421E+03 0.  0.
        -24    2    5    5    0    0 -0.10244204592E+03 -0.22100725341E+03  0.55948217756E+03  0.61555076371E+03  0.80894108917E+02 0.  0.
          5    1    3    3  501    0  0.81386941358E+02  0.96665811436E+02 -0.55808760417E+02  0.13822019051E+03  0.47000000000E+01 0. -1.
        -13    1    4    4    0    0  0.43477851016E+02  0.44186050874E+02  0.39953595245E+01  0.62118383096E+02  0.00000000000E+00 0.  1.
         14    1    4    4    0    0 -0.32654416349E+02  0.60024130696E+02  0.38834726902E+02  0.78596076151E+02  0.00000000000E+00 0. -1.
         -5    1    5    5    0  502  0.10231669895E+02  0.20131260405E+02  0.41609586030E+02  0.47575228469E+02  0.47000000000E+01 0.  1.
         13    1    6    6    0    0 -0.57180732392E+02 -0.10150127935E+03  0.17366678158E+03  0.20912268383E+03  0.00000000000E+00 0. -1.
        -14    1    6    6    0    0 -0.45261313527E+02 -0.11950597406E+03  0.38581539598E+03  0.40642807988E+03  0.00000000000E+00 0.  1.
</event>
<event>
12    1  0.9246030E-003  0.2494893E+03  0.7818608E-02  0.1113668E+00
         21   -1    0    0  501  502  0.00000000000E+00  0.00000000000E+00  0.21172618611E+03  0.21172618611E+03  0.00000000000E+00 0.  1.
         21   -1    0    0  502  503 -0.00000000000E+00 -0.00000000000E+00 -0.29905767849E+03  0.29905767849E+03  0.00000000000E+00 0. -1.
          6    2    1    2  501    0 -0.95476823707E+00  0.18051913014E+03 -0.94179814300E+01  0.24941166124E+03  0.17184123621E+03 0.  0.
         24    2    3    3    0    0  0.76645848983E+01  0.19682999175E+03  0.20747026100E+02  0.21374157385E+03  0.80338221213E+02 0.  0.
         -6    2    1    2    0  503  0.95476823707E+00 -0.18051913014E+03 -0.77913510947E+02  0.26137220336E+03  0.17221163019E+03 0.  0.
        -24    2    5    5    0    0 -0.14698630696E+02 -0.21238262901E+02 -0.54443050425E+02  0.99543973180E+02  0.79232842316E+02 0.  0.
          5    1    3    3  501    0 -0.86193531353E+01 -0.16310861612E+02 -0.30165007529E+02  0.35670087388E+02  0.47000000000E+01 0. -1.
        -13    1    4    4    0    0 -0.60370529843E+01  0.78246601738E+02  0.47054639314E+02  0.91504730879E+02  0.00000000000E+00 0.  1.
         14    1    4    4    0    0  0.13701637883E+02  0.11858339001E+03 -0.26307613215E+02  0.12223684297E+03  0.00000000000E+00 0. -1.
         -5    1    5    5    0  503  0.15653398933E+02 -0.15928086724E+03 -0.23470460522E+02  0.16182823018E+03  0.47000000000E+01 0.  1.
         11    1    6    6    0    0  0.19366358208E+02  0.28335507672E+01 -0.54419414431E+02  0.57832149426E+02  0.00000000000E+00 0. -1.
        -12    1    6    6    0    0 -0.34064988904E+02 -0.24071813668E+02 -0.23635994342E-01  0.41711823754E+02  0.00000000000E+00 0.  1.
</event>
<event>
12    1  0.9246030E-003  0.1909404E+03  0.7818608E-02  0.1157960E+00
         21   -1    0    0  501  502  0.00000000000E+00  0.00000000000E+00  0.35713194761E+03  0.35713194761E+03  0.00000000000E+00 0.  1.
         21   -1    0    0  502  503 -0.00000000000E+00 -0.00000000000E+00 -0.13698589108E+03  0.13698589108E+03  0.00000000000E+00 0.  1.
          6    2    1    2  501    0 -0.82008075921E+02 -0.67512743632E+01  0.23589809194E+03  0.30252877967E+03  0.17060143178E+03 0.  0.
         24    2    3    3    0    0 -0.11843310452E+03 -0.97976511642E+01  0.21993952948E+03  0.26236873939E+03  0.79633941045E+02 0.  0.
         -6    2    1    2    0  503  0.82008075921E+02  0.67512743632E+01 -0.15752035415E+02  0.19158905901E+03  0.17230013550E+03 0.  0.
        -24    2    5    5    0    0  0.68051056272E+02 -0.15346676817E+02 -0.72895980221E+02  0.12857605820E+03  0.79696374197E+02 0.  0.
          5    1    3    3  501    0  0.36425028595E+02  0.30463768010E+01  0.15958562459E+02  0.40160040283E+02  0.47000000000E+01 0. -1.
        -11    1    4    4    0    0 -0.11044249106E+03  0.29641442763E+01  0.12748965183E+03  0.16870074483E+03  0.00000000000E+00 0.  1.
         12    1    4    4    0    0 -0.79906134529E+01 -0.12761795441E+02  0.92449877655E+02  0.93667994559E+02  0.00000000000E+00 0. -1.
         -5    1    5    5    0  503  0.13957019649E+02  0.22097951180E+02  0.57143944806E+02  0.63013000816E+02  0.47000000000E+01 0.  1.
         13    1    6    6    0    0  0.30812797944E+01 -0.13621322208E+02 -0.60906074139E+02  0.62486675147E+02  0.00000000000E+00 0. -1.
        -14    1    6    6    0    0  0.64969776478E+02 -0.17253546090E+01 -0.11989906081E+02  0.66089383050E+02  0.00000000000E+00 0.  1.
</event>
<event>
12    1  0.9246030E-003  0.2675314E+03  0.7818608E-02  0.1102710E+00
         21   -1    0    0  503  502  0.00000000000E+00  0.00000000000E+00  0.10118196754E+03  0.10118196754E+03  0.00000000000E+00 0. -1.
         21   -1    0    0  501  503 -0.00000000000E+00 -0.00000000000E+00 -0.71886195209E+03  0.71886195209E+03  0.00000000000E+00 0. -1.
          6    2    1    2  501    0 -0.20480000185E+03 -0.15966964786E+01 -0.25660314910E+03  0.37065595724E+03  0.17203218394E+03 0.  0.
         24    2    3    3    0    0 -0.18670033427E+02  0.11331488136E+02 -0.77764690871E+02  0.11216652371E+03  0.77826789246E+02 0.  0.
         -6    2    1    2    0  502  0.20480000185E+03  0.15966964786E+01 -0.36107683545E+03  0.44938796239E+03  0.17212631827E+03 0.  0.
        -24    2    5    5    0    0  0.19028787878E+03  0.50706292916E+02 -0.32085963983E+03  0.38410498603E+03  0.76191383186E+02 0.  0.
          5    1    3    3  501    0 -0.18612996842E+03 -0.12928184614E+02 -0.17883845822E+03  0.25848943352E+03  0.47000000000E+01 0. -1.
        -11    1    4    4    0    0 -0.13049395589E+02  0.13042826342E+02 -0.93535004868E+02  0.95337291654E+02  0.00000000000E+00 0.  1.
         12    1    4    4    0    0 -0.56206378387E+01 -0.17113382061E+01  0.15770313997E+02  0.16829232060E+02  0.00000000000E+00 0. -1.
         -5    1    5    5    0  502  0.14512123074E+02 -0.49109596437E+02 -0.40217195623E+02  0.65282976358E+02  0.47000000000E+01 0.  1.
         11    1    6    6    0    0  0.71848249162E+02 -0.17346042872E+02 -0.12724500040E+03  0.14715415807E+03  0.00000000000E+00 0. -1.
        -12    1    6    6    0    0  0.11843962961E+03  0.68052335788E+02 -0.19361463944E+03  0.23695082796E+03  0.00000000000E+00 0.  1.
</event>
<event>
12    1  0.9246030E-003  0.2302917E+03  0.7818608E-02  0.1126605E+00
         21   -1    0    0  501  502  0.00000000000E+00  0.00000000000E+00  0.68597364231E+03  0.68597364231E+03  0.00000000000E+00 0. -1.
         21   -1    0    0  502  503 -0.00000000000E+00 -0.00000000000E+00 -0.14738991456E+03  0.14738991456E+03  0.00000000000E+00 0. -1.
          6    2    1    2  501    0 -0.14772091052E+03  0.42633025400E+02  0.55697494921E+03  0.60233862531E+03  0.17015194160E+03 0.  0.
         24    2    3    3    0    0 -0.98550588683E+02  0.51718100107E+02  0.20156619029E+03  0.24339888795E+03  0.78912034454E+02 0.  0.
         -6    2    1    2    0  503  0.14772091052E+03 -0.42633025400E+02 -0.18391221470E+02  0.23102493156E+03  0.17145040016E+03 0.  0.
        -24    2    5    5    0    0  0.93035582543E+02 -0.51005042024E+01 -0.75135590116E+02  0.14361103898E+03  0.79354513744E+02 0.  0.
          5    1    3    3  501    0 -0.49170321838E+02 -0.90850747070E+01  0.35540875892E+03  0.35893973736E+03  0.47000000000E+01 0. -1.
        -11    1    4    4    0    0 -0.66081769894E+02  0.67542133479E+01  0.53517196331E+02  0.85302461942E+02  0.00000000000E+00 0.  1.
         12    1    4    4    0    0 -0.32468818789E+02  0.44963886760E+02  0.14804899396E+03  0.15809642601E+03  0.00000000000E+00 0. -1.
         -5    1    5    5    0  503  0.54685327978E+02 -0.37532521198E+02  0.56744368646E+02  0.87413892584E+02  0.47000000000E+01 0.  1.
         11    1    6    6    0    0 -0.84670001732E+01 -0.73629200944E+01 -0.30883026675E+02  0.32858241293E+02  0.00000000000E+00 0. -1.
        -12    1    6    6    0    0  0.10150258272E+03  0.22624158920E+01 -0.44252563441E+02  0.11075279768E+03  0.00000000000E+00 0.  1.
</event>
<event>
12    1  0.9246030E-003  0.5522699E+03  0.7818608E-02  0.1000996E+00
         21   -1    0    0  503  502  0.00000000000E+00  0.00000000000E+00  0.10298830206E+04  0.10298830206E+04  0.00000000000E+00 0.  1.
         21   -1    0    0  501  503 -0.00000000000E+00 -0.00000000000E+00 -0.32442156338E+03  0.32442156338E+03  0.00000000000E+00 0. -1.
          6    2    1    2  501    0  0.31128553626E+03 -0.42191107029E+03  0.55335226364E+03  0.78147018286E+03  0.17201535598E+03 0.  0.
         24    2    3    3    0    0  0.24076660851E+03 -0.22216380018E+03  0.30460482271E+03  0.45471450891E+03  0.81583532076E+02 0.  0.
         -6    2    1    2    0  502 -0.31128553626E+03  0.42191107029E+03  0.15210919358E+03  0.57283440112E+03  0.17347739914E+03 0.  0.
        -24    2    5    5    0    0 -0.10601660126E+03  0.90757617427E+02  0.21168132082E+02  0.16178015092E+03  0.79045952152E+02 0.  0.
          5    1    3    3  501    0  0.70518927748E+02 -0.19974727011E+03  0.24874744093E+03  0.32675567395E+03  0.47000000000E+01 0. -1.
        -13    1    4    4    0    0  0.41860655336E+01  0.18825948218E+01  0.24823332195E+02  0.25244110782E+02  0.00000000000E+00 0.  1.
         14    1    4    4    0    0  0.23658054298E+03 -0.22404639500E+03  0.27978149051E+03  0.42947039812E+03  0.00000000000E+00 0. -1.
         -5    1    5    5    0  502 -0.20526893500E+03  0.33115345287E+03  0.13094106150E+03  0.41105425020E+03  0.47000000000E+01 0.  1.
         11    1    6    6    0    0 -0.89728679953E+02  0.75819390114E+02 -0.15980275345E+02  0.11855456602E+03  0.00000000000E+00 0. -1.
        -12    1    6    6    0    0 -0.16287921310E+02  0.14938227313E+02  0.37148407428E+02  0.43225584903E+02  0.00000000000E+00 0.  1.
</event>
<event>
12    1  0.9246030E-003  0.3004966E+03  0.7818608E-02  0.1085175E+00
         21   -1    0    0  501  502  0.00000000000E+00  0.00000000000E+00  0.37739134273E+03  0.37739134273E+03  0.00000000000E+00 0.  1.
         21   -1    0    0  502  503 -0.00000000000E+00 -0.00000000000E+00 -0.40237395190E+03  0.40237395190E+03  0.00000000000E+00 0.  1.
          6    2    1    2  501    0  0.21484526789E+03 -0.12135744605E+03  0.23659889555E+03  0.38246207906E+03  0.17149952098E+03 0.  0.
         24    2    3    3    0    0  0.13912866553E+03 -0.15415755916E+02  0.18787845679E+03  0.24334911512E+03  0.65772685837E+02 0.  0.
         -6    2    1    2    0  503 -0.21484526789E+03  0.12135744605E+03 -0.26158150472E+03  0.39730321557E+03  0.16893443298E+03 0.  0.
        -24    2    5    5    0    0 -0.59128580921E+02  0.14863597923E+02 -0.14569002746E+03  0.17584994558E+03  0.77333716027E+02 0.  0.
          5    1    3    3  501    0  0.75716602353E+02 -0.10594169014E+03  0.48720438759E+02  0.13911296393E+03  0.47000000000E+01 0. -1.
        -13    1    4    4    0    0  0.79288658432E+02  0.15159877808E+02  0.66408610782E+02  0.10453045890E+03  0.00000000000E+00 0.  1.
         14    1    4    4    0    0  0.59840007101E+02 -0.30575633724E+02  0.12146984601E+03  0.13881865623E+03  0.00000000000E+00 0. -1.
         -5    1    5    5    0  503 -0.15571668696E+03  0.10649384813E+03 -0.11589147726E+03  0.22145326999E+03  0.47000000000E+01 0.  1.
         11    1    6    6    0    0 -0.23735763836E+02 -0.22859380764E+02 -0.10496193854E+03  0.11001339153E+03  0.00000000000E+00 0. -1.
        -12    1    6    6    0    0 -0.35392817085E+02  0.37722978687E+02 -0.40728088919E+02  0.65836554050E+02  0.00000000000E+00 0.  1.
</event>
<event>
12    1  0.9246030E-003  0.2206654E+03  0.7818608E-02  0.1133560E+00
         21   -1    0    0  501  502  0.00000000000E+00  0.00000000000E+00  0.15846222106E+03  0.15846222106E+03  0.00000000000E+00 0. -1.
         21   -1    0    0  502  503 -0.00000000000E+00 -0.00000000000E+00 -0.30612420151E+03  0.30612420151E+03  0.00000000000E+00 0.  1.
          6    2    1    2  501    0  0.13663904272E+03  0.75903046618E+01 -0.69240818682E+02  0.23127371594E+03  0.17310517032E+03 0.  0.
         24    2    3    3    0    0  0.16160059839E+03 -0.21989684265E+02 -0.59512491677E+02  0.19108932404E+03  0.79844182511E+02 0.  0.
         -6    2    1    2    0  503 -0.13663904272E+03 -0.75903046618E+01 -0.78421161766E+02  0.23331270664E+03  0.17192178380E+03 0.  0.
        -24    2    5    5    0    0 -0.11659738552E+03  0.31083734876E+02 -0.15147345227E+01  0.14480260603E+03  0.80027191687E+02 0.  0.
          5    1    3    3  501    0 -0.24961555669E+02  0.29579988927E+02 -0.97283270047E+01  0.40184391904E+02  0.47000000000E+01 0. -1.
        -11    1    4    4    0    0  0.11785071917E+03 -0.12146719409E+02 -0.78785528356E+02  0.14227963410E+03  0.00000000000E+00 0.  1.
         12    1    4    4    0    0  0.43749879217E+02 -0.98429648562E+01  0.19273036678E+02  0.48809689934E+02  0.00000000000E+00 0. -1.
         -5    1    5    5    0  503 -0.20041657202E+02 -0.38674039538E+02 -0.76906427244E+02  0.88510100604E+02  0.47000000000E+01 0.  1.
         11    1    6    6    0    0 -0.10381131770E+03 -0.17629078202E+01  0.16645106288E+02  0.10515206650E+03  0.00000000000E+00 0. -1.
        -12    1    6    6    0    0 -0.12786067820E+02  0.32846642696E+02 -0.18159840811E+02  0.39650539530E+02  0.00000000000E+00 0.  1.
</event>
<event>
12    1  0.9246030E-003  0.1853328E+03  0.7818608E-02  0.1163211E+00
         21   -1    0    0  501  502  0.00000000000E+00  0.00000000000E+00  0.93340841271E+02  0.93340841271E+02  0.00000000000E+00 0.  1.
         21   -1    0    0  502  503 -0.00000000000E+00 -0.00000000000E+00 -0.49656584172E+03  0.49656584172E+03  0.00000000000E+00 0.  1.
          6    2    1    2  501    0  0.66596421247E+02 -0.79424492065E+01 -0.50023783302E+02  0.19196517250E+03  0.17277176486E+03 0.  0.
         24    2    3    3    0    0  0.64954085846E+02 -0.47579858689E+01  0.33706133192E+02  0.10802693932E+03  0.79322408605E+02 0.  0.
         -6    2    1    2    0  503 -0.66596421247E+02  0.79424492065E+01 -0.35320121715E+03  0.39794151049E+03  0.17061119588E+03 0.  0.
        -24    2    5    5    0    0 -0.56754076356E+02  0.61908580114E+02 -0.30100948738E+03  0.32207793759E+03  0.77934516832E+02 0.  0.
          5    1    3    3  501    0  0.16423354012E+01 -0.31844633376E+01 -0.83729916494E+02  0.83938233174E+02  0.47000000000E+01 0. -1.
        -11    1    4    4    0    0  0.54362943882E+02 -0.38916053172E+02  0.22839993179E+02  0.70650223994E+02  0.00000000000E+00 0.  1.
         12    1    4    4    0    0  0.10591141964E+02  0.34158067303E+02  0.10866140013E+02  0.37376715328E+02  0.00000000000E+00 0. -1.
         -5    1    5    5    0  503 -0.98423448913E+01 -0.53966130907E+02 -0.52191729770E+02  0.75863572908E+02  0.47000000000E+01 0.  1.
         11    1    6    6    0    0 -0.31275597643E+02 -0.10955430995E+02 -0.54687487548E+02  0.63944552313E+02  0.00000000000E+00 0. -1.
        -12    1    6    6    0    0 -0.25478478712E+02  0.72864011109E+02 -0.24632199983E+03  0.25813338527E+03  0.00000000000E+00 0.  1.
</event>
<event>
12    1  0.9246030E-003  0.1956221E+03  0.7818608E-02  0.1157373E+00
         21   -1    0    0  501  502  0.00000000000E+00  0.00000000000E+00  0.69585124871E+02  0.69585124871E+02  0.00000000000E+00 0. -1.
         21   -1    0    0  502  503 -0.00000000000E+00 -0.00000000000E+00 -0.51534096203E+03  0.51534096203E+03  0.00000000000E+00 0. -1.
          6    2    1    2  501    0  0.19552462434E+02  0.42510779779E+02 -0.27791971321E+03  0.33986374257E+03  0.18994349512E+03 0.  0.
         24    2    3    3    0    0  0.63103029400E+02  0.48140075819E+02 -0.64335391754E+02  0.12176125925E+03  0.66236714924E+02 0.  0.
         -6    2    1    2    0  503 -0.19552462434E+02 -0.42510779779E+02 -0.16783612395E+03  0.24506234433E+03  0.17232853194E+03 0.  0.
        -24    2    5    5    0    0 -0.21139897124E+01 -0.45110536245E+02 -0.15851404318E+02  0.91986206197E+02  0.78554221267E+02 0.  0.
          5    1    3    3  501    0 -0.43550566966E+02 -0.56292960400E+01 -0.21358432146E+03  0.21810248332E+03  0.47000000000E+01 0. -1.
        -11    1    4    4    0    0  0.18965824853E+02  0.18105215244E+02  0.11816321887E+02  0.28759812140E+02  0.00000000000E+00 0.  1.
         12    1    4    4    0    0  0.44137204546E+02  0.30034860575E+02 -0.76151713641E+02  0.93001447114E+02  0.00000000000E+00 0. -1.
         -5    1    5    5    0  503 -0.17438472722E+02  0.25997564657E+01 -0.15198471963E+03  0.15307613813E+03  0.47000000000E+01 0.  1.
         11    1    6    6    0    0  0.50884792761E+01 -0.59970798363E+02 -0.32614690096E+02  0.68455148000E+02  0.00000000000E+00 0. -1.
        -12    1    6    6    0    0 -0.72024689885E+01  0.14860262118E+02  0.16763285778E+02  0.23531058196E+02  0.00000000000E+00 0.  1.
</event>
<event>
12    1  0.9246030E-003  0.2042352E+03  0.7818608E-02  0.1146380E+00
         21   -1    0    0  501  502  0.00000000000E+00  0.00000000000E+00  0.40571806636E+03  0.40571806636E+03  0.00000000000E+00 0. -1.
         21   -1    0    0  502  503 -0.00000000000E+00 -0.00000000000E+00 -0.10738782942E+03  0.10738782942E+03  0.00000000000E+00 0.  1.
          6    2    1    2  501    0 -0.10033283844E+03 -0.44214287490E+02  0.20470933101E+03  0.28916764388E+03  0.17230912447E+03 0.  0.
         24    2    3    3    0    0 -0.66182807591E+02  0.38553423474E+01  0.34143553663E+02  0.10863596156E+03  0.78999760773E+02 0.  0.
         -6    2    1    2    0  503  0.10033283844E+03  0.44214287490E+02  0.93620905932E+02  0.22393825191E+03  0.17135310021E+03 0.  0.
        -24    2    5    5    0    0  0.12512719428E+03  0.10674261575E+02  0.10118073432E+03  0.18128928445E+03  0.82810078194E+02 0.  0.
          5    1    3    3  501    0 -0.34150030848E+02 -0.48069629837E+02  0.17056577734E+03  0.18053168232E+03  0.47000000000E+01 0. -1.
        -13    1    4    4    0    0 -0.66013525503E+02 -0.26707508746E+02  0.31781005612E+02  0.77981465044E+02  0.00000000000E+00 0.  1.
         14    1    4    4    0    0 -0.16928208766E+00  0.30562851093E+02  0.23625480515E+01  0.30654496516E+02  0.00000000000E+00 0. -1.
         -5    1    5    5    0  503 -0.24794355837E+02  0.33540025915E+02 -0.75598283924E+01  0.42648967456E+02  0.47000000000E+01 0.  1.
         11    1    6    6    0    0  0.93615693588E+02  0.41336138444E+02  0.89109986616E+02  0.13569511466E+03  0.00000000000E+00 0. -1.
        -12    1    6    6    0    0  0.31511500688E+02 -0.30661876870E+02  0.12070747709E+02  0.45594169792E+02  0.00000000000E+00 0.  1.
</event>
<event>
12    1  0.9246030E-003  0.2215606E+03  0.7818608E-02  0.1132870E+00
         21   -1    0    0  503  502  0.00000000000E+00  0.00000000000E+00  0.11474310514E+03  0.11474310514E+03  0.00000000000E+00 0. -1.
         21   -1    0    0  501  503 -0.00000000000E+00 -0.00000000000E+00 -0.47330932182E+03  0.47330932182E+03  0.00000000000E+00 0.  1.
          6    2    1    2  501    0 -0.83226753702E+02 -0.11212786007E+03 -0.27165659045E+03  0.35005580916E+03  0.17100414280E+03 0.  0.
         24    2    3    3    0    0 -0.22063146873E+02 -0.77054425488E+02 -0.10187382813E+03  0.16615526812E+03  0.10394772402E+03 0.  0.
         -6    2    1    2    0  502  0.83226753702E+02  0.11212786007E+03 -0.86909626227E+02  0.23799661779E+03  0.17201673585E+03 0.  0.
        -24    2    5    5    0    0 -0.89004215356E+01  0.84421049630E+02 -0.14628553906E+02  0.11757350050E+03  0.80021261592E+02 0.  0.
          5    1    3    3  501    0 -0.61163606828E+02 -0.35073434586E+02 -0.16978276232E+03  0.18390054104E+03  0.47000000000E+01 0. -1.
        -11    1    4    4    0    0 -0.20896629239E+01 -0.65506270483E+02 -0.12005589550E+03  0.13678032098E+03  0.00000000000E+00 0.  1.
         12    1    4    4    0    0 -0.19973483949E+02 -0.11548155005E+02  0.18182067373E+02  0.29374947133E+02  0.00000000000E+00 0. -1.
         -5    1    5    5    0  502  0.92127175237E+02  0.27706810444E+02 -0.72281072320E+02  0.12042311729E+03  0.47000000000E+01 0.  1.
         13    1    6    6    0    0  0.27539986615E+01  0.95684056689E+02 -0.24220551316E+02  0.98740358107E+02  0.00000000000E+00 0. -1.
        -14    1    6    6    0    0 -0.11654420197E+02 -0.11263007059E+02  0.95919974098E+01  0.18833142395E+02  0.00000000000E+00 0.  1.
</event>
<event>
12    1  0.9246030E-003  0.3054053E+03  0.7818608E-02  0.1082806E+00
         21   -1    0    0  501  502  0.00000000000E+00  0.00000000000E+00  0.11015286123E+04  0.11015286123E+04  0.00000000000E+00 0. -1.
         21   -1    0    0  502  503 -0.00000000000E+00 -0.00000000000E+00 -0.13043052017E+03  0.13043052017E+03  0.00000000000E+00 0.  1.
          6    2    1    2  501    0 -0.21913178831E+03 -0.11927548190E+03  0.85349667664E+03  0.90649267172E+03  0.17614484272E+03 0.  0.
         24    2    3    3    0    0 -0.18084123703E+03 -0.13194352313E+03  0.82014279721E+03  0.85394538959E+03  0.80472817058E+02 0.  0.
         -6    2    1    2    0  503  0.21913178831E+03  0.11927548190E+03  0.11760141548E+03  0.32546646073E+03  0.17278004199E+03 0.  0.
        -24    2    5    5    0    0  0.89699066346E+02  0.14096908093E+02  0.10054323565E+03  0.15775112631E+03  0.80819739507E+02 0.  0.
          5    1    3    3  501    0 -0.38290551277E+02  0.12668041236E+02  0.33353879435E+02  0.52547282130E+02  0.47000000000E+01 0. -1.
        -13    1    4    4    0    0 -0.48841251324E+02 -0.71048504607E+02  0.21627474027E+03  0.23282637548E+03  0.00000000000E+00 0.  1.
         14    1    4    4    0    0 -0.13199998571E+03 -0.60895018525E+02  0.60386805694E+03  0.62111901412E+03  0.00000000000E+00 0. -1.
         -5    1    5    5    0  503  0.12943272197E+03  0.10517857380E+03  0.17058179825E+02  0.16771533443E+03  0.47000000000E+01 0.  1.
         13    1    6    6    0    0  0.67049928116E+02  0.32674137125E+02  0.28266759442E+02  0.79764038179E+02  0.00000000000E+00 0. -1.
        -14    1    6    6    0    0  0.22649138230E+02 -0.18577229032E+02  0.72276476211E+02  0.77987088128E+02  0.00000000000E+00 0.  1.
</event>
<event>
12    1  0.9246030E-003  0.2132562E+03  0.7818608E-02  0.1139060E+00
         21   -1    0    0  501  502  0.00000000000E+00  0.00000000000E+00  0.10791621526E+03  0.10791621526E+03  0.00000000000E+00 0. -1.
         21   -1    0    0  502  503 -0.00000000000E+00 -0.00000000000E+00 -0.50558653828E+03  0.50558653828E+03  0.00000000000E+00 0. -1.
          6    2    1    2  501    0  0.93582190846E+02  0.83188021964E+02 -0.73233442111E+02  0.22525348972E+03  0.17233143690E+03 0.  0.
         24    2    3    3    0    0  0.10165165513E+03  0.20900231279E+01 -0.56381232466E+02  0.14189829409E+03  0.81356347641E+02 0.  0.
         -6    2    1    2    0  503 -0.93582190846E+02 -0.83188021964E+02 -0.32443688091E+03  0.38824926382E+03  0.17262771422E+03 0.  0.
        -24    2    5    5    0    0 -0.78040486640E+02 -0.84572215951E+02 -0.33776505494E+03  0.36719716688E+03  0.86635730277E+02 0.  0.
          5    1    3    3  501    0 -0.80694642884E+01  0.81097998837E+02 -0.16852209644E+02  0.83355195633E+02  0.47000000000E+01 0. -1.
        -11    1    4    4    0    0  0.92987643296E+01 -0.17110072097E+02 -0.42244971885E+02  0.46517300381E+02  0.00000000000E+00 0.  1.
         12    1    4    4    0    0  0.92352890805E+02  0.19200095224E+02 -0.14136260581E+02  0.95380993704E+02  0.00000000000E+00 0. -1.
         -5    1    5    5    0  503 -0.15541704206E+02  0.13841939866E+01  0.13328174025E+02  0.21052096938E+02  0.47000000000E+01 0.  1.
         11    1    6    6    0    0 -0.77689612634E+02 -0.31730994350E+02 -0.14719988886E+03  0.16944125588E+03  0.00000000000E+00 0. -1.
        -12    1    6    6    0    0 -0.35087400592E+00 -0.52841221601E+02 -0.19056516608E+03  0.19775591100E+03  0.00000000000E+00 0.  1.
</event>
<event>
12    1  0.9246030E-003  0.2212664E+03  0.7818608E-02  0.1134239E+00
         21   -1    0    0  503  502  0.00000000000E+00  0.00000000000E+00  0.20536525243E+03  0.20536525243E+03  0.00000000000E+00 0.  1.
         21   -1    0    0  501  503 -0.00000000000E+00 -0.00000000000E+00 -0.46263778135E+03  0.46263778135E+03  0.00000000000E+00 0. -1.
          6    2    1    2  501    0  0.10850970463E+02  0.14001868990E+03 -0.36595857092E+03  0.42764997570E+03  0.17098493793E+03 0.  0.
         24    2    3    3    0    0 -0.47367021769E+02  0.88715360947E+02 -0.14775516313E+03  0.19601193186E+03  0.80467628149E+02 0.  0.
         -6    2    1    2    0  502 -0.10850970463E+02 -0.14001868990E+03  0.10868604200E+03  0.24035305808E+03  0.16196900853E+03 0.  0.
        -24    2    5    5    0    0  0.38482774626E+02 -0.13873859133E+03  0.90658546031E+02  0.18760329346E+03  0.79036087220E+02 0.  0.
          5    1    3    3  501    0  0.58217992232E+02  0.51303328957E+02 -0.21820340779E+03  0.23163804384E+03  0.47000000000E+01 0. -1.
        -11    1    4    4    0    0  0.13699015733E+02  0.96176207976E+01  0.10463939034E+01  0.16770706666E+02  0.00000000000E+00 0.  1.
         12    1    4    4    0    0 -0.61066037502E+02  0.79097740150E+02 -0.14880155703E+03  0.17924122519E+03  0.00000000000E+00 0. -1.
         -5    1    5    5    0  502 -0.49333745089E+02 -0.12800985779E+01  0.18027495965E+02  0.52749764622E+02  0.47000000000E+01 0.  1.
         13    1    6    6    0    0  0.42468080014E+02 -0.24310291701E+02  0.18781506773E+02  0.52414435982E+02  0.00000000000E+00 0. -1.
        -14    1    6    6    0    0 -0.39853053872E+01 -0.11442829963E+03  0.71877039257E+02  0.13518885748E+03  0.00000000000E+00 0.  1.
</event>
<event>
12    1  0.9246030E-003  0.2031988E+03  0.7818608E-02  0.1147347E+00
         21   -1    0    0  503  502  0.00000000000E+00  0.00000000000E+00  0.99195891559E+03  0.99195891559E+03  0.00000000000E+00 0.  1.
         21   -1    0    0  501  503 -0.00000000000E+00 -0.00000000000E+00 -0.42103671079E+02  0.42103671079E+02  0.00000000000E+00 0.  1.
          6    2    1    2  501    0  0.10596166613E+03  0.69220933345E+01  0.40417600653E+03  0.45177779107E+03  0.17166577465E+03 0.  0.
         24    2    3    3    0    0  0.33029534478E+02 -0.53398163310E+02  0.15886931478E+03  0.18880423308E+03  0.80406873187E+02 0.  0.
         -6    2    1    2    0  502 -0.10596166613E+03 -0.69220933345E+01  0.54567923798E+03  0.58228479560E+03  0.17324538191E+03 0.  0.
        -24    2    5    5    0    0 -0.94477465746E+02  0.68727977613E+01  0.19711481528E+03  0.23322687397E+03  0.81038863851E+02 0.  0.
          5    1    3    3  501    0  0.72932131654E+02  0.60320256645E+02  0.24530669175E+03  0.26297355800E+03  0.47000000000E+01 0. -1.
        -11    1    4    4    0    0  0.50351004152E+02 -0.94101680391E+01  0.57839298087E+02  0.77260334486E+02  0.00000000000E+00 0.  1.
         12    1    4    4    0    0 -0.17321469673E+02 -0.43987995271E+02  0.10103001669E+03  0.11154389859E+03  0.00000000000E+00 0. -1.
         -5    1    5    5    0  502 -0.11484200386E+02 -0.13794891096E+02  0.34856442270E+03  0.34905792163E+03  0.47000000000E+01 0.  1.
         11    1    6    6    0    0 -0.62532694965E+02 -0.31451545224E+02  0.82303279704E+02  0.10804335929E+03  0.00000000000E+00 0. -1.
        -12    1    6    6    0    0 -0.31944770782E+02  0.38324342985E+02  0.11481153558E+03  0.12518351468E+03  0.00000000000E+00 0.  1.
</event>
<event>
12    1  0.9246030E-003  0.3879238E+03  0.7818608E-02  0.1048169E+00
         21   -1    0    0  503  502  0.00000000000E+00  0.00000000000E+00  0.71983691020E+02  0.71983691020E+02  0.00000000000E+00 0.  1.
         21   -1    0    0  501  503 -0.00000000000E+00 -0.00000000000E+00 -0.23474251687E+04  0.23474251687E+04  0.00000000000E+00 0.  1.
          6    2    1    2  501    0  0.34044843994E+03  0.67062635751E+02 -0.15418805177E+04  0.15895916751E+04  0.17030450733E+03 0.  0.
         24    2    3    3    0    0  0.34621655756E+03  0.78147820645E+02 -0.15271606406E+04  0.15697191491E+04  0.76325607792E+02 0.  0.
         -6    2    1    2    0  502 -0.34044843994E+03 -0.67062635751E+02 -0.73356095996E+03  0.82981718463E+03  0.17344261460E+03 0.  0.
        -24    2    5    5    0    0 -0.13603768516E+03 -0.85292323156E+02 -0.30190057304E+03  0.35183302401E+03  0.82834102919E+02 0.  0.
          5    1    3    3  501    0 -0.57681176221E+01 -0.11085184895E+02 -0.14719877145E+02  0.19872525965E+02  0.47000000000E+01 0. -1.
        -11    1    4    4    0    0  0.32676204672E+03  0.53599162246E+02 -0.13679306346E+04  0.14074375746E+04  0.00000000000E+00 0.  1.
         12    1    4    4    0    0  0.19454510843E+02  0.24548658399E+02 -0.15923000603E+03  0.16228157456E+03  0.00000000000E+00 0. -1.
         -5    1    5    5    0  502 -0.20441075478E+03  0.18229687406E+02 -0.43166038692E+03  0.47798416063E+03  0.47000000000E+01 0.  1.
         11    1    6    6    0    0 -0.85393857206E+02 -0.39411918771E+02 -0.24659385963E+03  0.26392033229E+03  0.00000000000E+00 0. -1.
        -12    1    6    6    0    0 -0.50643827953E+02 -0.45880404385E+02 -0.55306713412E+02  0.87912691716E+02  0.00000000000E+00 0.  1.
</event>
<event>
12    1  0.9246030E-003  0.2639629E+03  0.7818608E-02  0.1104945E+00
         21   -1    0    0  503  502  0.00000000000E+00  0.00000000000E+00  0.36228761114E+03  0.36228761114E+03  0.00000000000E+00 0.  1.
         21   -1    0    0  501  503 -0.00000000000E+00 -0.00000000000E+00 -0.21802588329E+03  0.21802588329E+03  0.00000000000E+00 0. -1.
          6    2    1    2  501    0  0.53878034112E+02  0.19045739903E+03 -0.28874145878E+02  0.26553746105E+03  0.17464124231E+03 0.  0.
         24    2    3    3    0    0  0.12700888620E+02  0.11148865246E+03  0.42691787927E+02  0.15118977578E+03  0.91895197608E+02 0.  0.
         -6    2    1    2    0  502 -0.53878034112E+02 -0.19045739903E+03  0.17313587373E+03  0.31477603338E+03  0.17300594502E+03 0.  0.
        -24    2    5    5    0    0  0.34792989724E+02 -0.83901694006E+02  0.55047902070E+02  0.13261256890E+03  0.79408913332E+02 0.  0.
          5    1    3    3  501    0  0.41177145491E+02  0.78968746566E+02 -0.71565933805E+02  0.11434768527E+03  0.47000000000E+01 0. -1.
        -11    1    4    4    0    0 -0.39702524799E+02  0.41699115794E+02  0.13230284894E+02  0.59077467547E+02  0.00000000000E+00 0.  1.
         12    1    4    4    0    0  0.52403413419E+02  0.69789536669E+02  0.29461503033E+02  0.92112308230E+02  0.00000000000E+00 0. -1.
         -5    1    5    5    0  502 -0.88671023836E+02 -0.10655570502E+03  0.11808797166E+03  0.18216346448E+03  0.47000000000E+01 0.  1.
         13    1    6    6    0    0  0.26715518765E+02 -0.11250309320E+02  0.51899014464E+02  0.59445740848E+02  0.00000000000E+00 0. -1.
        -14    1    6    6    0    0  0.80774709594E+01 -0.72651384685E+02  0.31488876067E+01  0.73166828050E+02  0.00000000000E+00 0.  1.
</event>
<event>
12    1  0.9246030E-003  0.1787260E+03  0.7818608E-02  0.1169109E+00
         21   -1    0    0  501  502  0.00000000000E+00  0.00000000000E+00  0.10411278557E+03  0.10411278557E+03  0.00000000000E+00 0. -1.
         21   -1    0    0  502  503 -0.00000000000E+00 -0.00000000000E+00 -0.33789268870E+03  0.33789268870E+03  0.00000000000E+00 0. -1.
          6    2    1    2  501    0  0.31333619060E+01 -0.50885607369E+02 -0.49276966416E+02  0.18513133946E+03  0.17101529299E+03 0.  0.
         24    2    3    3    0    0  0.36477411488E+02 -0.26933211882E+02 -0.86814267741E+02  0.12930408910E+03  0.84420559843E+02 0.  0.
         -6    2    1    2    0  503 -0.31333619060E+01  0.50885607369E+02 -0.18450293671E+03  0.25687413481E+03  0.17130039255E+03 0.  0.
        -24    2    5    5    0    0  0.50573541464E+02  0.32233437805E+02 -0.17383707099E+03  0.19883806335E+03  0.75634453651E+02 0.  0.
          5    1    3    3  501    0 -0.33344049582E+02 -0.23952395487E+02  0.37537301324E+02  0.55827250360E+02  0.47000000000E+01 0. -1.
        -13    1    4    4    0    0  0.33597988580E+02  0.24700160725E+02 -0.53324171894E+02  0.67693353327E+02  0.00000000000E+00 0.  1.
         14    1    4    4    0    0  0.28794229082E+01 -0.51633372607E+02 -0.33490095847E+02  0.61610735776E+02  0.00000000000E+00 0. -1.
         -5    1    5    5    0  503 -0.53706903370E+02  0.18652169564E+02 -0.10665865725E+02  0.58036071461E+02  0.47000000000E+01 0.  1.
         11    1    6    6    0    0  0.43921369880E+02  0.61809600083E+01 -0.16449996523E+03  0.17037467406E+03  0.00000000000E+00 0. -1.
        -12    1    6    6    0    0  0.66521715836E+01  0.26052477797E+02 -0.93371057520E+01  0.28463389292E+02  0.00000000000E+00 0.  1.
</event>
<event>
12    1  0.9246030E-003  0.2446249E+03  0.7818608E-02  0.1117757E+00
         21   -1    0    0  503  502  0.00000000000E+00  0.00000000000E+00  0.39119452016E+03  0.39119452016E+03  0.00000000000E+00 0. -1.
         21   -1    0    0  501  503 -0.00000000000E+00 -0.00000000000E+00 -0.16037744205E+03  0.16037744205E+03  0.00000000000E+00 0. -1.
          6    2    1    2  501    0  0.13189329048E+03  0.98680370910E+02  0.43873903357E+02  0.24852815987E+03  0.18085262280E+03 0.  0.
         24    2    3    3    0    0  0.91252685283E+02  0.90104565612E+02 -0.38635930469E+02  0.15603402002E+03  0.80049952942E+02 0.  0.
         -6    2    1    2    0  502 -0.13189329048E+03 -0.98680370910E+02  0.18694317475E+03  0.30304380235E+03  0.17249388361E+03 0.  0.
        -24    2    5    5    0    0 -0.89370770035E+02 -0.37780292346E+02  0.30367144936E+02  0.12967965546E+03  0.80499469086E+02 0.  0.
          5    1    3    3  501    0  0.40640605195E+02  0.85758052980E+01  0.82509833825E+02  0.92494139842E+02  0.47000000000E+01 0. -1.
        -11    1    4    4    0    0  0.47626656926E+02  0.73721052121E+02 -0.58393497790E+02  0.10541770515E+03  0.00000000000E+00 0.  1.
         12    1    4    4    0    0  0.43626028357E+02  0.16383513492E+02  0.19757567322E+02  0.50616314870E+02  0.00000000000E+00 0. -1.
         -5    1    5    5    0  502 -0.42522520444E+02 -0.60900078564E+02  0.15657602982E+03  0.17336414689E+03  0.47000000000E+01 0.  1.
         11    1    6    6    0    0 -0.17963488146E+02 -0.45706709778E+02 -0.54308130511E+01  0.49409350891E+02  0.00000000000E+00 0. -1.
        -12    1    6    6    0    0 -0.71407281889E+02  0.79264174317E+01  0.35797957987E+02  0.80270304572E+02  0.00000000000E+00 0.  1.
</event>
<event>
12    1  0.9246030E-003  0.1793856E+03  0.7818608E-02  0.1169234E+00
         21   -1    0    0  501  502  0.00000000000E+00  0.00000000000E+00  0.93376286343E+02  0.93376286343E+02  0.00000000000E+00 0. -1.
         21   -1    0    0  502  503 -0.00000000000E+00 -0.00000000000E+00 -0.34545655979E+03  0.34545655979E+03  0.00000000000E+00 0. -1.
          6    2    1    2  501    0  0.46715116812E+01  0.43042868142E+02 -0.15684030773E+03  0.23573226603E+03  0.17057639812E+03 0.  0.
         24    2    3    3    0    0  0.59889725678E+02  0.55203665744E+02 -0.12962807778E+03  0.17280745682E+03  0.80154567107E+02 0.  0.
         -6    2    1    2    0  503 -0.46715116812E+01 -0.43042868142E+02 -0.95239965709E+02  0.20310058010E+03  0.17408240305E+03 0.  0.
        -24    2    5    5    0    0 -0.66610844812E+02  0.39071481741E+01 -0.68847826764E+02  0.12088488805E+03  0.73626506479E+02 0.  0.
          5    1    3    3  501    0 -0.55218213997E+02 -0.12160797603E+02 -0.27212229951E+02  0.62924809211E+02  0.47000000000E+01 0. -1.
        -13    1    4    4    0    0 -0.10181378764E+02 -0.12339273783E+02 -0.11245198526E+02  0.19554350946E+02  0.00000000000E+00 0.  1.
         14    1    4    4    0    0  0.70071104442E+02  0.67542939528E+02 -0.11838287926E+03  0.15325310587E+03  0.00000000000E+00 0. -1.
         -5    1    5    5    0  503  0.61939333131E+02 -0.46950016316E+02 -0.26392138945E+02  0.82215692047E+02  0.47000000000E+01 0.  1.
         11    1    6    6    0    0 -0.36098980084E+01 -0.17966642850E+02  0.72427564562E+01  0.19705053667E+02  0.00000000000E+00 0. -1.
        -12    1    6    6    0    0 -0.63000946803E+02  0.21873791024E+02 -0.76090583220E+02  0.10117983439E+03  0.00000000000E+00 0.  1.
</event>
<event>
12    1  0.9246030E-003  0.1935687E+03  0.7818608E-02  0.1155391E+00
         21   -1    0    0  503  502  0.00000000000E+00  0.00000000000E+00  0.11783325469E+03  0.11783325469E+03  0.00000000000E+00 0.  1.
         21   -1    0    0  501  503 -0.00000000000E+00 -0.00000000000E+00 -0.35770932822E+03  0.35770932822E+03  0.00000000000E+00 0.  1.
          6    2    1    2  501    0  0.17117570321E+02 -0.96612885396E+02 -0.19985162482E+03  0.27787923429E+03  0.16628029369E+03 0.  0.
         24    2    3    3    0    0  0.47792513601E+02 -0.55479122700E+02 -0.19901524297E+03  0.22634547726E+03  0.79140070312E+02 0.  0.
         -6    2    1    2    0  502 -0.17117570321E+02  0.96612885396E+02 -0.40024448710E+02  0.19766334863E+03  0.16685856903E+03 0.  0.
        -24    2    5    5    0    0  0.13442639614E+02  0.21207933227E+02  0.30978678047E+02  0.89573722613E+02  0.80207806962E+02 0.  0.
          5    1    3    3  501    0 -0.30674943280E+02 -0.41133762696E+02 -0.83638184432E+00  0.51533757027E+02  0.47000000000E+01 0. -1.
        -13    1    4    4    0    0  0.39745851259E+02 -0.21159681815E+02 -0.30986875093E+02  0.54659411402E+02  0.00000000000E+00 0.  1.
         14    1    4    4    0    0  0.80466623417E+01 -0.34319440885E+02 -0.16802836788E+03  0.17168606586E+03  0.00000000000E+00 0. -1.
         -5    1    5    5    0  502 -0.30560209935E+02  0.75404952169E+02 -0.71003126757E+02  0.10808962602E+03  0.47000000000E+01 0.  1.
         11    1    6    6    0    0  0.32323491739E+02  0.35040343246E+02  0.42154597565E+02  0.63636812215E+02  0.00000000000E+00 0. -1.
        -12    1    6    6    0    0 -0.18880852126E+02 -0.13832410019E+02 -0.11175919518E+02  0.25936910398E+02  0.00000000000E+00 0.  1.
</event>
<event>
12    1  0.9246030E-003  0.1997988E+03  0.7818608E-02  0.1149912E+00
         21   -1    0    0  503  502  0.00000000000E+00  0.00000000000E+00  0.39760597576E+02  0.39760597576E+02  0.00000000000E+00 0.  1.
         21   -1    0    0  501  503 -0.00000000000E+00 -0.00000000000E+00 -0.13085027434E+04  0.13085027434E+04  0.00000000000E+00 0.  1.
          6    2    1    2  501    0 -0.37906364805E+02  0.94208415939E+02 -0.95963250040E+03  0.98021124181E+03  0.17206808138E+03 0.  0.
         24    2    3    3    0    0 -0.55948067798E+01  0.11993829925E+02 -0.71394339086E+03  0.71908195682E+03  0.84785266714E+02 0.  0.
         -6    2    1    2    0  502  0.37906364805E+02 -0.94208415939E+02 -0.30910964541E+03  0.36805209914E+03  0.17205073866E+03 0.  0.
        -24    2    5    5    0    0  0.71823736165E+01 -0.34883291487E+02 -0.51410647910E+02  0.10179226865E+03  0.80313017139E+02 0.  0.
          5    1    3    3  501    0 -0.32311558025E+02  0.82214586014E+02 -0.24568910954E+03  0.26112928499E+03  0.47000000000E+01 0. -1.
        -13    1    4    4    0    0 -0.73391769788E+01  0.46908793741E+02 -0.50576931140E+03  0.50799300665E+03  0.00000000000E+00 0.  1.
         14    1    4    4    0    0  0.17443701991E+01 -0.34914963816E+02 -0.20817407946E+03  0.21108895017E+03  0.00000000000E+00 0. -1.
         -5    1    5    5    0  502  0.30723991188E+02 -0.59325124452E+02 -0.25769899750E+03  0.26625983050E+03  0.47000000000E+01 0.  1.
         13    1    6    6    0    0 -0.78072106751E+01 -0.11164790920E+02 -0.67896207466E+02  0.69249549334E+02  0.00000000000E+00 0. -1.
        -14    1    6    6    0    0  0.14989584292E+02 -0.23718500566E+02  0.16485559556E+02  0.32542719312E+02  0.00000000000E+00 0.  1.
</event>
<event>
12    1  0.9246030E-003  0.2313279E+03  0.7818608E-02  0.1125718E+00
         21   -1    0    0  501  502  0.00000000000E+00  0.00000000000E+00  0.20246367924E+03  0.20246367924E+03  0.00000000000E+00 0.  1.
         21   -1    0    0  502  503 -0.00000000000E+00 -0.00000000000E+00 -0.26893449233E+03  0.26893449233E+03  0.00000000000E+00 0. -1.
          6    2    1    2  501    0  0.93182924834E+02 -0.12259247813E+03 -0.21133345382E+01  0.23128466542E+03  0.17255769209E+03 0.  0.
         24    2    3    3    0    0  0.64458317772E+02 -0.96159620451E+02  0.64059757221E+02  0.15431215676E+03  0.79416886704E+02 0.  0.
         -6    2    1    2    0  503 -0.93182924834E+02  0.12259247813E+03 -0.64357478554E+02  0.24011350615E+03  0.17262861180E+03 0.  0.
        -24    2    5    5    0    0 -0.77689365538E+02  0.11171909311E+03  0.15267110027E+02  0.15813517981E+03  0.79100298120E+02 0.  0.
          5    1    3    3  501    0  0.28724607063E+02 -0.26432857681E+02 -0.66173091759E+02  0.76972508658E+02  0.47000000000E+01 0. -1.
        -13    1    4    4    0    0  0.41353920779E+02 -0.47111375001E+01  0.38237335781E+02  0.56519336761E+02  0.00000000000E+00 0.  1.
         14    1    4    4    0    0  0.23104396993E+02 -0.91448482951E+02  0.25822421440E+02  0.97792819999E+02  0.00000000000E+00 0. -1.
         -5    1    5    5    0  503 -0.15493559296E+02  0.10873385018E+02 -0.79624588581E+02  0.81978326331E+02  0.47000000000E+01 0.  1.
         13    1    6    6    0    0 -0.40725267036E+02  0.54040161958E+02 -0.32052057607E+02  0.74874701177E+02  0.00000000000E+00 0. -1.
        -14    1    6    6    0    0 -0.36964098503E+02  0.57678931156E+02  0.47319167634E+02  0.83260478638E+02  0.00000000000E+00 0.  1.
</event>
<event>
12    1  0.9246030E-003  0.2785775E+03  0.7818608E-02  0.1096796E+00
         21   -1    0    0  501  502  0.00000000000E+00  0.00000000000E+00  0.25507580028E+03  0.25507580028E+03  0.00000000000E+00 0. -1.
         21   -1    0    0  502  503 -0.00000000000E+00 -0.00000000000E+00 -0.50008790024E+03  0.50008790024E+03  0.00000000000E+00 0.  1.
          6    2    1    2  501    0 -0.11083381183E+03  0.18378765995E+03  0.11501892419E+03  0.30138809228E+03  0.17760459299E+03 0.  0.
         24    2    3    3    0    0 -0.70877401981E+02  0.11059452907E+03 -0.54656566389E+01  0.15478531839E+03  0.81693729335E+02 0.  0.
         -6    2    1    2    0  503  0.11083381183E+03 -0.18378765995E+03 -0.36003102415E+03  0.45377560825E+03  0.17386180288E+03 0.  0.
        -24    2    5    5    0    0  0.90079172860E+02 -0.50276905874E+02 -0.11080072323E+03  0.17023776354E+03  0.77859303987E+02 0.  0.
          5    1    3    3  501    0 -0.39956409850E+02  0.73193130874E+02  0.12048458083E+03  0.14660277389E+03  0.47000000000E+01 0. -1.
        -13    1    4    4    0    0 -0.56524054966E+02  0.24605609528E+02 -0.23114226506E+02  0.65838228082E+02  0.00000000000E+00 0.  1.
         14    1    4    4    0    0 -0.14353347015E+02  0.85988919546E+02  0.17648569867E+02  0.88947090304E+02  0.00000000000E+00 0. -1.
         -5    1    5    5    0  503  0.20754638971E+02 -0.13351075407E+03 -0.24923030092E+03  0.28353784472E+03  0.47000000000E+01 0.  1.
         13    1    6    6    0    0  0.91135172204E+02 -0.34446374734E+02 -0.11782339533E+03  0.15288729454E+03  0.00000000000E+00 0. -1.
        -14    1    6    6    0    0 -0.10559993446E+01 -0.15830531139E+02  0.70226721014E+01  0.17350468991E+02  0.00000000000E+00 0.  1.
</event>
<event>
12    1  0.9246030E-003  0.1748132E+03  0.7818608E-02  0.1173047E+00
         21   -1    0    0  501  502  0.00000000000E+00  0.00000000000E+00  0.26763766171E+03  0.26763766171E+03  0.00000000000E+00 0.  1.
         21   -1    0    0  502  503 -0.00000000000E+00 -0.00000000000E+00 -0.14656765349E+03  0.14656765349E+03  0.00000000000E+00 0. -1.
          6    2    1    2  501    0  0.30937265450E+01  0.29485613730E+02  0.15844822554E+03  0.23593535611E+03  0.17228081590E+03 0.  0.
         24    2    3    3    0    0 -0.36737004621E+01  0.45943993754E+02  0.18296851685E+03  0.20527575684E+03  0.80847458534E+02 0.  0.
         -6    2    1    2    0  503 -0.30937265450E+01 -0.29485613730E+02 -0.37378217320E+02  0.17826995909E+03  0.17176750165E+03 0.  0.
        -24    2    5    5    0    0 -0.14782860176E+02 -0.59859496743E+02  0.36152928233E+02  0.97721042396E+02  0.66638394352E+02 0.  0.
          5    1    3    3  501    0  0.67674270071E+01 -0.16458380024E+02 -0.24520291314E+02  0.30659599271E+02  0.47000000000E+01 0. -1.
        -13    1    4    4    0    0  0.21005846869E+02  0.50831601881E+02  0.16614018830E+03  0.17500759847E+03  0.00000000000E+00 0.  1.
         14    1    4    4    0    0 -0.24679547331E+02 -0.48876081278E+01  0.16828328552E+02  0.30268158377E+02  0.00000000000E+00 0. -1.
         -5    1    5    5    0  503  0.11689133631E+02  0.30373883013E+02 -0.73531145553E+02  0.80548916694E+02  0.47000000000E+01 0.  1.
         11    1    6    6    0    0 -0.40885120107E+02 -0.39676047028E+02  0.29127790105E+02  0.63986013396E+02  0.00000000000E+00 0. -1.
        -12    1    6    6    0    0  0.26102259931E+02 -0.20183449715E+02  0.70251381280E+01  0.33735029000E+02  0.00000000000E+00 0.  1.
</event>
<event>
12    1  0.9246030E-003  0.1946178E+03  0.7818608E-02  0.1154876E+00
         21   -1    0    0  501  502  0.00000000000E+00  0.00000000000E+00  0.99188774280E+03  0.99188774280E+03  0.00000000000E+00 0. -1.
         21   -1    0    0  502  503 -0.00000000000E+00 -0.00000000000E+00 -0.74707164761E+02  0.74707164761E+02  0.00000000000E+00 0. -1.
          6    2    1    2  501    0  0.33884986188E+02 -0.78988491207E+02  0.83238878835E+03  0.85430801519E+03  0.17199917387E+03 0.  0.
         24    2    3    3    0    0  0.13957162091E+02 -0.16452975848E+02  0.19073680163E+03  0.20929082866E+03  0.83406358737E+02 0.  0.
         -6    2    1    2    0  503 -0.33884986188E+02  0.78988491207E+02  0.84791789683E+02  0.21228689237E+03  0.17461014587E+03 0.  0.
        -24    2    5    5    0    0  0.14152616849E+02  0.54827105639E+02 -0.14767886575E+02  0.99036713582E+02  0.79899136959E+02 0.  0.
          5    1    3    3  501    0  0.19927824097E+02 -0.62535515359E+02  0.64165198672E+03  0.64501718653E+03  0.47000000000E+01 0. -1.
        -13    1    4    4    0    0 -0.30392083771E+02 -0.10295115752E+02  0.36088766315E+02  0.48291481841E+02  0.00000000000E+00 0.  1.
         14    1    4    4    0    0  0.44349245862E+02 -0.61578600955E+01  0.15464803531E+03  0.16099934682E+03  0.00000000000E+00 0. -1.
         -5    1    5    5    0  503 -0.48037603036E+02  0.24161385568E+02  0.99559676258E+02  0.11325017878E+03  0.47000000000E+01 0.  1.
         13    1    6    6    0    0  0.39135506447E+02  0.45906436932E+02  0.11827886538E+02  0.61472658285E+02  0.00000000000E+00 0. -1.
        -14    1    6    6    0    0 -0.24982889598E+02  0.89206687074E+01 -0.26595773113E+02  0.37564055297E+02  0.00000000000E+00 0.  1.
</event>
<event>
12    1  0.9246030E-003  0.2243398E+03  0.7818608E-02  0.1130999E+00
         21   -1    0    0  503  502  0.00000000000E+00  0.00000000000E+00  0.43042861784E+03  0.43042861784E+03  0.00000000000E+00 0. -1.
         21   -1    0    0  501  503 -0.00000000000E+00 -0.00000000000E+00 -0.11901294638E+03  0.11901294638E+03  0.00000000000E+00 0. -1.
          6    2    1    2  501    0 -0.32899743021E+02 -0.14056318747E+03  0.11287764507E+03  0.25113683032E+03  0.17172053465E+03 0.  0.
         24    2    3    3    0    0  0.28941540498E+02 -0.12984975146E+03  0.11044890295E+03  0.18815182538E+03  0.74186107264E+02 0.  0.
         -6    2    1    2    0  502  0.32899743021E+02  0.14056318747E+03  0.19853802638E+03  0.29830473391E+03  0.16949325530E+03 0.  0.
        -24    2    5    5    0    0  0.25444022803E+02  0.36220536143E+01  0.95501425125E+02  0.12670318058E+03  0.79200102277E+02 0.  0.
          5    1    3    3  501    0 -0.61841283519E+02 -0.10713436010E+02  0.24287421242E+01  0.62985004936E+02  0.47000000000E+01 0. -1.
        -11    1    4    4    0    0  0.15701367889E+02 -0.39193167995E+02  0.81977678868E+02  0.92211589313E+02  0.00000000000E+00 0.  1.
         12    1    4    4    0    0  0.13240172609E+02 -0.90656583463E+02  0.28471224083E+02  0.95940236067E+02  0.00000000000E+00 0. -1.
         -5    1    5    5    0  502  0.74557202182E+01  0.13694113385E+03  0.10303660126E+03  0.17160155333E+03  0.47000000000E+01 0.  1.
         11    1    6    6    0    0  0.36035029545E+02  0.33606469979E+02  0.43389319471E+02  0.65654788270E+02  0.00000000000E+00 0. -1.
        -12    1    6    6    0    0 -0.10591006741E+02 -0.29984416364E+02  0.52112105654E+02  0.61048392315E+02  0.00000000000E+00 0.  1.
</event>
<event>
12    1  0.9246030E-003  0.2643156E+03  0.7818608E-02  0.1104661E+00
         21   -1    0    0  503  502  0.00000000000E+00  0.00000000000E+00  0.26155272111E+03  0.26155272111E+03  0.00000000000E+00 0.  1.
         21   -1    0    0  501  503 -0.00000000000E+00 -0.00000000000E+00 -0.35818659536E+03  0.35818659536E+03  0.00000000000E+00 0. -1.
          6    2    1    2  501    0 -0.12088714081E+03  0.15973265941E+03 -0.20502083851E+03  0.33406383682E+03  0.17157179124E+03 0.  0.
         24    2    3    3    0    0 -0.46908019379E+02  0.10310474126E+03 -0.39486329086E+02  0.14405490194E+03  0.79760232173E+02 0.  0.
         -6    2    1    2    0  502  0.12088714081E+03 -0.15973265941E+03  0.10838696426E+03  0.28567547966E+03  0.17243700983E+03 0.  0.
        -24    2    5    5    0    0  0.13675024476E+03 -0.14146056880E+03  0.44339946725E+02  0.21704882436E+03  0.80202489449E+02 0.  0.
          5    1    3    3  501    0 -0.73979121428E+02  0.56627918152E+02 -0.16553450943E+03  0.19000893488E+03  0.47000000000E+01 0. -1.
        -11    1    4    4    0    0 -0.62758542253E+02  0.65743916505E+02 -0.47703062279E+02  0.10264735425E+03  0.00000000000E+00 0.  1.
         12    1    4    4    0    0  0.15850522874E+02  0.37360824753E+02  0.82167331933E+01  0.41407547693E+02  0.00000000000E+00 0. -1.
         -5    1    5    5    0  502 -0.15863103951E+02 -0.18272090612E+02  0.64047017535E+02  0.68626655298E+02  0.47000000000E+01 0.  1.
         11    1    6    6    0    0  0.99050382006E+02 -0.51617664889E+02  0.42775935180E+02  0.11960410584E+03  0.00000000000E+00 0. -1.
        -12    1    6    6    0    0  0.37699862753E+02 -0.89842903909E+02  0.15640115443E+01  0.97444718515E+02  0.00000000000E+00 0.  1.
</event>
<event>
12    1  0.9246030E-003  0.1736654E+03  0.7818608E-02  0.1174433E+00
         21   -1    0    0  503  502  0.00000000000E+00  0.00000000000E+00  0.28375239671E+03  0.28375239671E+03  0.00000000000E+00 0.  1.
         21   -1    0    0  501  503 -0.00000000000E+00 -0.00000000000E+00 -0.10684601313E+03  0.10684601313E+03  0.00000000000E+00 0.  1.
          6    2    1    2  501    0  0.65244493368E+00 -0.23170126967E+02  0.66389417882E+02  0.18592265316E+03  0.17211158498E+03 0.  0.
         24    2    3    3    0    0 -0.51221486589E+02 -0.56457129325E+02  0.42166521859E+02  0.11953162975E+03  0.81845872253E+02 0.  0.
         -6    2    1    2    0  502 -0.65244493368E+00  0.23170126967E+02  0.11051696570E+03  0.20467575668E+03  0.17070701567E+03 0.  0.
        -24    2    5    5    0    0 -0.37479318315E+02  0.56742317693E+02  0.11038175322E+03  0.15462159726E+03  0.84257444641E+02 0.  0.
          5    1    3    3  501    0  0.51873931523E+02  0.33287002358E+02  0.24222896023E+02  0.66391023410E+02  0.47000000000E+01 0. -1.
        -11    1    4    4    0    0 -0.42438037310E+02  0.10877173700E+02  0.13705545951E+02  0.45903615416E+02  0.00000000000E+00 0.  1.
         12    1    4    4    0    0 -0.87834492793E+01 -0.67334303025E+02  0.28460975907E+02  0.73628014334E+02  0.00000000000E+00 0. -1.
         -5    1    5    5    0  502  0.36826873381E+02 -0.33572190727E+02  0.13521248071E+00  0.50054159424E+02  0.47000000000E+01 0.  1.
         13    1    6    6    0    0  0.20810077515E+02  0.38920481361E+02  0.65267848439E+02  0.78789309144E+02  0.00000000000E+00 0. -1.
        -14    1    6    6    0    0 -0.58289395830E+02  0.17821836332E+02  0.45113904776E+02  0.75832288114E+02  0.00000000000E+00 0.  1.
</event>
<event>
12    1  0.9246030E-003  0.2650096E+03  0.7818608E-02  0.1104323E+00
         21   -1    0    0  503  502  0.00000000000E+00  0.00000000000E+00  0.41047861906E+03  0.41047861906E+03  0.00000000000E+00 0.  1.
         21   -1    0    0  501  503 -0.00000000000E+00 -0.00000000000E+00 -0.18530626410E+03  0.18530626410E+03  0.00000000000E+00 0. -1.
          6    2    1    2  501    0  0.10409762299E+03  0.17342422903E+03  0.19681304855E+03  0.32926217368E+03  0.16960520220E+03 0.  0.
         24    2    3    3    0    0  0.13605610633E+03  0.12041021617E+03  0.12368081216E+03  0.23333384515E+03  0.78344468636E+02 0.  0.
         -6    2    1    2    0  502 -0.10409762299E+03 -0.17342422903E+03  0.28359306412E+02  0.26652270948E+03  0.17122449032E+03 0.  0.
        -24    2    5    5    0    0 -0.65287339689E+02 -0.11507577647E+03 -0.49141603816E+02  0.16193178687E+03  0.79385989454E+02 0.  0.
          5    1    3    3  501    0 -0.31958483339E+02  0.53014012860E+02  0.73132236385E+02  0.95928328535E+02  0.47000000000E+01 0. -1.
        -13    1    4    4    0    0  0.51905172409E+02  0.21858231741E+02  0.77409619045E+02  0.95729715023E+02  0.00000000000E+00 0.  1.
         14    1    4    4    0    0  0.84150933920E+02  0.98551984429E+02  0.46271193119E+02  0.13760413012E+03  0.00000000000E+00 0. -1.
         -5    1    5    5    0  502 -0.38810283301E+02 -0.58348452563E+02  0.77500910228E+02  0.10459092261E+03  0.47000000000E+01 0.  1.
         11    1    6    6    0    0 -0.77080614427E+02 -0.10675811960E+03 -0.25333591325E+02  0.13409141684E+03  0.00000000000E+00 0. -1.
        -12    1    6    6    0    0  0.11793274738E+02 -0.83176568658E+01 -0.23808012491E+02  0.27840370033E+02  0.00000000000E+00 0.  1.
</event>
<event>
12    1  0.9246030E-003  0.2725714E+03  0.7818608E-02  0.1099840E+00
         21   -1    0    0  501  502  0.00000000000E+00  0.00000000000E+00  0.62142421466E+03  0.62142421466E+03  0.00000000000E+00 0. -1.
         21   -1    0    0  502  503 -0.00000000000E+00 -0.00000000000E+00 -0.15116974097E+03  0.15116974097E+03  0.00000000000E+00 0. -1.
          6    2    1    2  501    0  0.82840942337E+02  0.19481983430E+03  0.41192861895E+03  0.49385202660E+03  0.17142709094E+03 0.  0.
         24    2    3    3    0    0  0.35513352265E+02  0.11621142962E+03  0.12270759777E+03  0.19038856725E+03  0.80152089346E+02 0.  0.
         -6    2    1    2    0  503 -0.82840942337E+02 -0.19481983430E+03  0.58325854743E+02  0.27874192903E+03  0.17169090863E+03 0.  0.
        -24    2    5    5    0    0 -0.25671256146E+02 -0.11425097155E+03  0.97504930044E+02  0.17236145805E+03  0.80554099510E+02 0.  0.
          5    1    3    3  501    0  0.47327590072E+02  0.78608404675E+02  0.28922102118E+03  0.30346345935E+03  0.47000000000E+01 0. -1.
        -13    1    4    4    0    0  0.18761955029E+02  0.88916190959E+02  0.12895658078E+03  0.15775899245E+03  0.00000000000E+00 0.  1.
         14    1    4    4    0    0  0.16751397236E+02  0.27295238665E+02 -0.62489830167E+01  0.32629574803E+02  0.00000000000E+00 0. -1.
         -5    1    5    5    0  503 -0.57169686190E+02 -0.80568862749E+02 -0.39179075301E+02  0.10638047098E+03  0.47000000000E+01 0.  1.
         11    1    6    6    0    0 -0.44560965923E+02 -0.47979732103E+02  0.19597447935E+02  0.68350525544E+02  0.00000000000E+00 0. -1.
        -12    1    6    6    0    0  0.18889709776E+02 -0.66271239446E+02  0.77907482109E+02  0.10401093251E+03  0.00000000000E+00 0.  1.
</event>
<event>
12    1  0.9246030E-003  0.2019049E+03  0.7818608E-02  0.1148172E+00
         21   -1    0    0  503  502  0.00000000000E+00  0.00000000000E+00  0.16546831432E+03  0.16546831432E+03  0.00000000000E+00 0. -1.
         21   -1    0    0  501  503 -0.00000000000E+00 -0.00000000000E+00 -0.25422402702E+03  0.25422402702E+03  0.00000000000E+00 0. -1.
          6    2    1    2  501    0 -0.79866736030E+02 -0.70311727612E+02 -0.81704371723E+02  0.21780995139E+03  0.17159002302E+03 0.  0.
         24    2    3    3    0    0 -0.21747253714E+02 -0.60562981625E+02  0.19544187694E+02  0.10056545021E+03  0.74770426742E+02 0.  0.
         -6    2    1    2    0  502  0.79866736030E+02  0.70311727612E+02 -0.70513409777E+01  0.20188238995E+03  0.17141862034E+03 0.  0.
        -24    2    5    5    0    0  0.51768927062E+01  0.91319768041E+02 -0.20461742620E+02  0.12300375323E+03  0.79656387970E+02 0.  0.
          5    1    3    3  501    0 -0.58119482316E+02 -0.97487459867E+01 -0.10124855942E+03  0.11724450118E+03  0.47000000000E+01 0. -1.
        -13    1    4    4    0    0 -0.57423475540E+01 -0.75592433108E+02  0.94371606852E+01  0.76395356537E+02  0.00000000000E+00 0.  1.
         14    1    4    4    0    0 -0.16004906160E+02  0.15029451482E+02  0.10107027009E+02  0.24170093670E+02  0.00000000000E+00 0. -1.
         -5    1    5    5    0  502  0.74689843324E+02 -0.21008040429E+02  0.13410401642E+02  0.78878636719E+02  0.47000000000E+01 0.  1.
         13    1    6    6    0    0 -0.17064279171E+02  0.48853158904E+02  0.24522781593E+02  0.57264191041E+02  0.00000000000E+00 0. -1.
        -14    1    6    6    0    0  0.22241171877E+02  0.42466609136E+02 -0.44984524213E+02  0.65739562188E+02  0.00000000000E+00 0.  1.
</event>
<event>
12    1  0.9246030E-003  0.1936588E+03  0.7818608E-02  0.1155855E+00
         21   -1    0    0  503  502  0.00000000000E+00  0.00000000000E+00  0.38018497670E+03  0.38018497670E+03  0.00000000000E+00 0.  1.
         21   -1    0    0  501  503 -0.00000000000E+00 -0.00000000000E+00 -0.11434938984E+03  0.11434938984E+03  0.00000000000E+00 0. -1.
          6    2    1    2  501    0  0.27346164060E+02 -0.84198896586E+02  0.22794302927E+03  0.29720321449E+03  0.16892145877E+03 0.  0.
         24    2    3    3    0    0  0.59201415287E+02 -0.10179193302E+03  0.21005531218E+03  0.25638247976E+03  0.87990548068E+02 0.  0.
         -6    2    1    2    0  502 -0.27346164060E+02  0.84198896586E+02  0.37892557588E+02  0.19733115205E+03  0.17223957377E+03 0.  0.
        -24    2    5    5    0    0 -0.45230168065E+02  0.42047688637E+01  0.63118104777E+02  0.11143984690E+03  0.79821652085E+02 0.  0.
          5    1    3    3  501    0 -0.31855251227E+02  0.17593036432E+02  0.17887717085E+02  0.40820734733E+02  0.47000000000E+01 0. -1.
        -13    1    4    4    0    0  0.20323604340E+02  0.14110758584E+02  0.36352366097E+02  0.43973366053E+02  0.00000000000E+00 0.  1.
         14    1    4    4    0    0  0.38877810948E+02 -0.11590269160E+03  0.17370294609E+03  0.21240911370E+03  0.00000000000E+00 0. -1.
         -5    1    5    5    0  502  0.17884004004E+02  0.79994127722E+02 -0.25225547189E+02  0.85891305149E+02  0.47000000000E+01 0.  1.
         11    1    6    6    0    0 -0.40527134299E+02  0.16284627368E+02 -0.32692711700E+01  0.43798696750E+02  0.00000000000E+00 0. -1.
        -12    1    6    6    0    0 -0.47030337652E+01 -0.12079858505E+02  0.66387375947E+02  0.67641150147E+02  0.00000000000E+00 0.  1.
</event>
<event>
12    1  0.9246030E-003  0.2837518E+03  0.7818608E-02  0.1094284E+00
         21   -1    0    0  503  502  0.00000000000E+00  0.00000000000E+00  0.16873020914E+03  0.16873020914E+03  0.00000000000E+00 0.  1.
         21   -1    0    0  501  503 -0.00000000000E+00 -0.00000000000E+00 -0.47013661709E+03  0.47013661709E+03  0.00000000000E+00 0.  1.
          6    2    1    2  501    0  0.33692974426E+02  0.21681414186E+03 -0.13952836143E+03  0.31620131965E+03  0.17992087780E+03 0.  0.
         24    2    3    3    0    0 -0.35629894410E+02  0.17749008633E+03 -0.12672871921E+03  0.23534365255E+03  0.80958300406E+02 0.  0.
         -6    2    1    2    0  502 -0.33692974426E+02 -0.21681414186E+03 -0.16187804652E+03  0.32266550658E+03  0.17252518238E+03 0.  0.
        -24    2    5    5    0    0 -0.64184004659E+02 -0.20252944378E+03 -0.90848579395E+02  0.24391888301E+03  0.78135747633E+02 0.  0.
          5    1    3    3  501    0  0.69322868836E+02  0.39324055538E+02 -0.12799642218E+02  0.80857667098E+02  0.47000000000E+01 0. -1.
        -11    1    4    4    0    0  0.16577655773E+02  0.39905322090E+01 -0.91403517498E+01  0.19346551330E+02  0.00000000000E+00 0.  1.
         12    1    4    4    0    0 -0.52207550183E+02  0.17349955412E+03 -0.11758836746E+03  0.21599710122E+03  0.00000000000E+00 0. -1.
         -5    1    5    5    0  502  0.30491030234E+02 -0.14284698082E+02 -0.71029467126E+02  0.78746623574E+02  0.47000000000E+01 0.  1.
         11    1    6    6    0    0 -0.46293073850E+01 -0.34937973252E+02  0.13464191817E+02  0.37727667873E+02  0.00000000000E+00 0. -1.
        -12    1    6    6    0    0 -0.59554697274E+02 -0.16759147053E+03 -0.10431277121E+03  0.20619121514E+03  0.00000000000E+00 0.  1.
</event>
<event>
12    1  0.9246030E-003  0.2690919E+03  0.7818608E-02  0.1101965E+00
         21   -1    0    0  503  502  0.00000000000E+00  0.00000000000E+00  0.10915241426E+04  0.10915241426E+04  0.00000000000E+00 0.  1.
         21   -1    0    0  501  503 -0.00000000000E+00 -0.00000000000E+00 -0.28129196703E+03  0.28129196703E+03  0.00000000000E+00 0. -1.
          6    2    1    2  501    0 -0.20218581194E+03  0.43356709092E+02 -0.19510734634E+03  0.33238131892E+03  0.17219627697E+03 0.  0.
         24    2    3    3    0    0 -0.20638075058E+03  0.39782377453E+02 -0.11672121672E+03  0.25366125367E+03  0.80898315264E+02 0.  0.
         -6    2    1    2    0  502  0.20218581194E+03 -0.43356709092E+02  0.10053395219E+04  0.10404347907E+04  0.17040567079E+03 0.  0.
        -24    2    5    5    0    0  0.22146440049E+03 -0.56219909242E+02  0.86791741227E+03  0.90099285974E+03  0.79374680527E+02 0.  0.
          5    1    3    3  501    0  0.41949386454E+01  0.35743316384E+01 -0.78386129620E+02  0.78720065254E+02  0.47000000000E+01 0. -1.
        -13    1    4    4    0    0  0.61236793808E+01 -0.21951302937E+00  0.26359595546E+01  0.66705260589E+01  0.00000000000E+00 0.  1.
         14    1    4    4    0    0 -0.21250442997E+03  0.40001890483E+02 -0.11935717628E+03  0.24699072761E+03  0.00000000000E+00 0. -1.
         -5    1    5    5    0  502 -0.19278588549E+02  0.12863200151E+02  0.13742210965E+03  0.13944193098E+03  0.47000000000E+01 0.  1.
         11    1    6    6    0    0  0.23716017022E+02 -0.35922813183E+02  0.14755151326E+03  0.15370213739E+03  0.00000000000E+00 0. -1.
        -12    1    6    6    0    0  0.19774838347E+03 -0.20297096060E+02  0.72036589900E+03  0.74729072236E+03  0.00000000000E+00 0.  1.
</event>
<event>
12    1  0.9246030E-003  0.1972337E+03  0.7818608E-02  0.1152523E+00
         21   -1    0    0  501  502  0.00000000000E+00  0.00000000000E+00  0.45649647501E+02  0.45649647501E+02  0.00000000000E+00 0.  1.
         21   -1    0    0  502  503 -0.00000000000E+00 -0.00000000000E+00 -0.84729331100E+03  0.84729331100E+03  0.00000000000E+00 0.  1.
          6    2    1    2  501    0 -0.95465696927E+02 -0.96031999074E+01 -0.42827853183E+03  0.47068396582E+03  0.17004403582E+03 0.  0.
         24    2    3    3    0    0 -0.30877567061E+02  0.40260038538E+02 -0.12521595534E+03  0.15679388261E+03  0.79567526685E+02 0.  0.
         -6    2    1    2    0  503  0.95465696927E+02  0.96031999074E+01 -0.37336513167E+03  0.42225899268E+03  0.17232299502E+03 0.  0.
        -24    2    5    5    0    0 -0.15387813822E+02 -0.57252145044E+01 -0.10895952109E+03  0.13510767710E+03  0.78181482969E+02 0.  0.
          5    1    3    3  501    0 -0.64588129866E+02 -0.49863238445E+02 -0.30306257649E+03  0.31389008321E+03  0.47000000000E+01 0. -1.
        -11    1    4    4    0    0 -0.49336052414E+02  0.46602745684E+02 -0.66893393076E+02  0.95292119351E+02  0.00000000000E+00 0.  1.
         12    1    4    4    0    0  0.18458485353E+02 -0.63427071465E+01 -0.58322562262E+02  0.61501763262E+02  0.00000000000E+00 0. -1.
         -5    1    5    5    0  503  0.11085351075E+03  0.15328414412E+02 -0.26440561057E+03  0.28715131557E+03  0.47000000000E+01 0.  1.
         13    1    6    6    0    0  0.30452763754E+02  0.89710853542E+01 -0.43694305651E+02  0.54009661534E+02  0.00000000000E+00 0. -1.
        -14    1    6    6    0    0 -0.45840577576E+02 -0.14696299859E+02 -0.65265215443E+02  0.81098015567E+02  0.00000000000E+00 0.  1.
</event>
<event>
12    1  0.9246030E-003  0.2694282E+03  0.7818608E-02  0.1101700E+00
         21   -1    0    0  503  502  0.00000000000E+00  0.00000000000E+00  0.60463835948E+03  0.60463835948E+03  0.00000000000E+00 0. -1.
         21   -1    0    0  501  503 -0.00000000000E+00 -0.00000000000E+00 -0.23906567943E+03  0.23906567943E+03  0.00000000000E+00 0. -1.
          6    2    1    2  501    0  0.19058508110E+03 -0.80297057387E+02 -0.11532353301E+03  0.29247563962E+03  0.17167466890E+03 0.  0.
         24    2    3    3    0    0  0.31752578124E+02 -0.65206107759E+02 -0.62982077101E+02  0.12449582306E+03  0.79198517775E+02 0.  0.
         -6    2    1    2    0  502 -0.19058508110E+03  0.80297057387E+02  0.48089621305E+03  0.55122839929E+03  0.17268841854E+03 0.  0.
        -24    2    5    5    0    0 -0.41661881076E+02 -0.11866616520E+02  0.21439623020E+03  0.23229801010E+03  0.78231023571E+02 0.  0.
          5    1    3    3  501    0  0.15883250298E+03 -0.15090949628E+02 -0.52341455907E+02  0.16797981655E+03  0.47000000000E+01 0. -1.
        -11    1    4    4    0    0  0.31932672992E+02 -0.45277585316E+02  0.30821514871E+01  0.55491035260E+02  0.00000000000E+00 0.  1.
         12    1    4    4    0    0 -0.18009486801E+00 -0.19928522443E+02 -0.66064228588E+02  0.69004787804E+02  0.00000000000E+00 0. -1.
         -5    1    5    5    0  502 -0.14892320003E+03  0.92163673907E+02  0.26649998285E+03  0.31893038920E+03  0.47000000000E+01 0.  1.
         13    1    6    6    0    0 -0.49083943287E+02 -0.20436233776E+02  0.21446872896E+03  0.22096087627E+03  0.00000000000E+00 0. -1.
        -14    1    6    6    0    0  0.74220622108E+01  0.85696172563E+01 -0.72498760819E-01  0.11337133829E+02  0.00000000000E+00 0.  1.
</event>
<event>
12    1  0.9246030E-003  0.2650499E+03  0.7818608E-02  0.1104567E+00
         21   -1    0    0  501  502  0.00000000000E+00  0.00000000000E+00  0.41097639453E+03  0.41097639453E+03  0.00000000000E+00 0.  1.
         21   -1    0    0  502  503 -0.00000000000E+00 -0.00000000000E+00 -0.16916089905E+03  0.16916089905E+03  0.00000000000E+00 0.  1.
          6    2    1    2  501    0 -0.12188224773E+03  0.15503490345E+03  0.11628239964E+03  0.28943569545E+03  0.17708845737E+03 0.  0.
         24    2    3    3    0    0 -0.14076942011E+03  0.16574773815E+03  0.12781132091E+03  0.26440579066E+03  0.79286480834E+02 0.  0.
         -6    2    1    2    0  503  0.12188224773E+03 -0.15503490345E+03  0.12553309584E+03  0.29070159813E+03  0.17279397387E+03 0.  0.
        -24    2    5    5    0    0  0.19486374600E+02 -0.31463954733E+02  0.60512418435E+01  0.90569897406E+02  0.82441431002E+02 0.  0.
          5    1    3    3  501    0  0.18887172385E+02 -0.10712834697E+02 -0.11528921267E+02  0.25029904785E+02  0.47000000000E+01 0. -1.
        -13    1    4    4    0    0 -0.57344267890E+02  0.22005609970E+02  0.14065575426E+02  0.63011525470E+02  0.00000000000E+00 0.  1.
         14    1    4    4    0    0 -0.83425152223E+02  0.14374212818E+03  0.11374574548E+03  0.20139426519E+03  0.00000000000E+00 0. -1.
         -5    1    5    5    0  503  0.10239587313E+03 -0.12357094872E+03  0.11948185399E+03  0.20013170072E+03  0.47000000000E+01 0.  1.
         11    1    6    6    0    0 -0.16568031075E+02 -0.17921697472E+02 -0.29409220550E+02  0.38217654917E+02  0.00000000000E+00 0. -1.
        -12    1    6    6    0    0  0.36054405676E+02 -0.13542257261E+02  0.35460462394E+02  0.52352242488E+02  0.00000000000E+00 0.  1.
</event>
<event>
12    1  0.9246030E-003  0.1744391E+03  0.7818608E-02  0.1173920E+00
         21   -1    0    0  503  502  0.00000000000E+00  0.00000000000E+00  0.60559727711E+02  0.60559727711E+02  0.00000000000E+00 0. -1.
         21   -1    0    0  501  503 -0.00000000000E+00 -0.00000000000E+00 -0.61754323728E+03  0.61754323728E+03  0.00000000000E+00 0. -1.
          6    2    1    2  501    0 -0.17124803171E+02 -0.98178972033E+01 -0.43085155011E+03  0.46482477327E+03  0.17331867074E+03 0.  0.
         24    2    3    3    0    0 -0.65768845510E+02  0.32179764747E+02 -0.29454165341E+03  0.31405168416E+03  0.80700659394E+02 0.  0.
         -6    2    1    2    0  502  0.17124803171E+02  0.98178972033E+01 -0.12613195947E+03  0.21327819173E+03  0.17084690772E+03 0.  0.
        -24    2    5    5    0    0 -0.52836214618E+02  0.23530296286E+02 -0.89702629917E+02  0.13307993769E+03  0.79488160022E+02 0.  0.
          5    1    3    3  501    0  0.48644042339E+02 -0.41997661951E+02 -0.13630989669E+03  0.15077308911E+03  0.47000000000E+01 0. -1.
        -11    1    4    4    0    0 -0.21121086706E+02  0.26710621149E+02 -0.29001306570E+02  0.44728440265E+02  0.00000000000E+00 0.  1.
         12    1    4    4    0    0 -0.44647758805E+02  0.54691435982E+01 -0.26554034684E+03  0.26932324389E+03  0.00000000000E+00 0. -1.
         -5    1    5    5    0  502  0.69961017789E+02 -0.13712399083E+02 -0.36429329552E+02  0.80198254035E+02  0.47000000000E+01 0.  1.
         13    1    6    6    0    0 -0.22197917035E+02  0.47566873145E+02 -0.26394943815E+02  0.58754131774E+02  0.00000000000E+00 0. -1.
        -14    1    6    6    0    0 -0.30638297583E+02 -0.24036576859E+02 -0.63307686101E+02  0.74325805918E+02  0.00000000000E+00 0.  1.
</event>
<event>
12    1  0.9246030E-003  0.1858692E+03  0.7818608E-02  0.1162338E+00
         21   -1    0    0  503  502  0.00000000000E+00  0.00000000000E+00  0.85611684451E+02  0.85611684451E+02  0.00000000000E+00 0. -1.
         21   -1    0    0  501  503 -0.00000000000E+00 -0.00000000000E+00 -0.70619703609E+03  0.70619703609E+03  0.00000000000E+00 0. -1.
          6    2    1    2  501    0 -0.63617202277E+01 -0.70822474299E+02 -0.57006627944E+03  0.59960231652E+03  0.17172967327E+03 0.  0.
         24    2    3    3    0    0 -0.66844444818E+02 -0.30647827285E+02 -0.39307752717E+03  0.40824069377E+03  0.82116091968E+02 0.  0.
         -6    2    1    2    0  502  0.63617202277E+01  0.70822474299E+02 -0.50519072205E+02  0.19220640402E+03  0.17127413914E+03 0.  0.
        -24    2    5    5    0    0  0.53580900921E+02  0.62473711078E+02 -0.69922037458E+02  0.14026491835E+03  0.89505745503E+02 0.  0.
          5    1    3    3  501    0  0.60482724591E+02 -0.40174647015E+02 -0.17698875227E+03  0.19136162276E+03  0.47000000000E+01 0. -1.
        -11    1    4    4    0    0 -0.63120263705E+01  0.26088452553E+02 -0.81473107511E+02  0.85780628822E+02  0.00000000000E+00 0.  1.
         12    1    4    4    0    0 -0.60532418448E+02 -0.56736279838E+02 -0.31160441966E+03  0.32246006494E+03  0.00000000000E+00 0. -1.
         -5    1    5    5    0  502 -0.47219180693E+02  0.83487632208E+01  0.19402965254E+02  0.51941485667E+02  0.47000000000E+01 0.  1.
         11    1    6    6    0    0 -0.13194765070E+02 -0.45683665397E+01  0.93661022422E+01  0.16813556117E+02  0.00000000000E+00 0. -1.
        -12    1    6    6    0    0  0.66775665991E+02  0.67042077618E+02 -0.79288139700E+02  0.12345136223E+03  0.00000000000E+00 0.  1.
</event>
<event>
12    1  0.9246030E-003  0.5198303E+03  0.7818608E-02  0.1008732E+00
         21   -1    0    0  503  502  0.00000000000E+00  0.00000000000E+00  0.29405189601E+03  0.29405189601E+03  0.00000000000E+00 0.  1.
         21   -1    0    0  501  503 -0.00000000000E+00 -0.00000000000E+00 -0.10544225354E+04  0.10544225354E+04  0.00000000000E+00 0.  1.
          6    2    1    2  501    0 -0.23877560306E+03  0.42833155822E+03 -0.62191270800E+03  0.81052074102E+03  0.17229841229E+03 0.  0.
         24    2    3    3    0    0 -0.10511197977E+03  0.25384949143E+03 -0.44154864014E+03  0.52615611102E+03  0.79918451976E+02 0.  0.
         -6    2    1    2    0  502  0.23877560306E+03 -0.42833155822E+03 -0.13845793135E+03  0.53795369035E+03  0.17245829010E+03 0.  0.
        -24    2    5    5    0    0  0.16980055262E+03 -0.18852399994E+03 -0.47409180475E+02  0.27229001646E+03  0.86721949051E+02 0.  0.
          5    1    3    3  501    0 -0.13366362329E+03  0.17448206678E+03 -0.18036406786E+03  0.28436463000E+03  0.47000000000E+01 0. -1.
        -13    1    4    4    0    0 -0.84355924914E+02  0.18316609159E+03 -0.25172374234E+03  0.32253772125E+03  0.00000000000E+00 0.  1.
         14    1    4    4    0    0 -0.20756054854E+02  0.70683399848E+02 -0.18982489780E+03  0.20361838977E+03  0.00000000000E+00 0. -1.
         -5    1    5    5    0  502  0.68975050446E+02 -0.23980755827E+03 -0.91048750875E+02  0.26566367389E+03  0.47000000000E+01 0.  1.
         13    1    6    6    0    0  0.15101400778E+03 -0.19640167370E+03 -0.43120390210E+02  0.25147209792E+03  0.00000000000E+00 0. -1.
        -14    1    6    6    0    0  0.18786544835E+02  0.78776737554E+01 -0.42887902643E+01  0.20817918545E+02  0.00000000000E+00 0.  1.
</event>
<event>
12    1  0.9246030E-003  0.4420657E+03  0.7818608E-02  0.1030312E+00
         21   -1    0    0  503  502  0.00000000000E+00  0.00000000000E+00  0.19427958674E+03  0.19427958674E+03  0.00000000000E+00 0.  1.
         21   -1    0    0  501  503 -0.00000000000E+00 -0.00000000000E+00 -0.14874503717E+04  0.14874503717E+04  0.00000000000E+00 0. -1.
          6    2    1    2  501    0 -0.40531815386E+03 -0.49093445815E+02 -0.11291948068E+04  0.12126429952E+04  0.16949675463E+03 0.  0.
         24    2    3    3    0    0 -0.26726757387E+03  0.30734094024E+02 -0.65600571559E+03  0.71328300001E+03  0.77798448843E+02 0.  0.
         -6    2    1    2    0  502  0.40531815386E+03  0.49093445815E+02 -0.16397597822E+03  0.46908696329E+03  0.16266986638E+03 0.  0.
        -24    2    5    5    0    0  0.28000205553E+03  0.95367422860E+02 -0.11497913669E+03  0.32672058407E+03  0.77653343386E+02 0.  0.
          5    1    3    3  501    0 -0.13805057999E+03 -0.79827539839E+02 -0.47318909118E+03  0.49935999516E+03  0.47000000000E+01 0. -1.
        -13    1    4    4    0    0 -0.16038885776E+03 -0.17304961940E+02 -0.34236779640E+03  0.37847028339E+03  0.00000000000E+00 0.  1.
         14    1    4    4    0    0 -0.10687871612E+03  0.48039055964E+02 -0.31363791919E+03  0.33481271662E+03  0.00000000000E+00 0. -1.
         -5    1    5    5    0  502  0.12531609833E+03 -0.46273977046E+02 -0.48996841524E+02  0.14236637922E+03  0.47000000000E+01 0.  1.
         13    1    6    6    0    0  0.24617343235E+03  0.71663554939E+02 -0.12343383243E+03  0.28455743689E+03  0.00000000000E+00 0. -1.
        -14    1    6    6    0    0  0.33828623177E+02  0.23703867922E+02  0.84546957311E+01  0.42163147183E+02  0.00000000000E+00 0.  1.
</event>
<event>
12    1  0.9246030E-003  0.1963848E+03  0.7818608E-02  0.1153279E+00
         21   -1    0    0  501  502  0.00000000000E+00  0.00000000000E+00  0.33700825525E+03  0.33700825525E+03  0.00000000000E+00 0.  1.
         21   -1    0    0  502  503 -0.00000000000E+00 -0.00000000000E+00 -0.17736888097E+03  0.17736888097E+03  0.00000000000E+00 0. -1.
          6    2    1    2  501    0  0.70987546911E+02  0.54127416044E+02  0.23420931275E+03  0.30431130447E+03  0.17257566128E+03 0.  0.
         24    2    3    3    0    0  0.34246589547E+02  0.65861985770E+02  0.24133642837E+03  0.26480834444E+03  0.79809507946E+02 0.  0.
         -6    2    1    2    0  503 -0.70987546911E+02 -0.54127416044E+02 -0.74569938467E+02  0.21006583175E+03  0.17492275141E+03 0.  0.
        -24    2    5    5    0    0 -0.80545808573E+02 -0.61885332680E+02  0.50153745819E+01  0.12939701690E+03  0.80006326751E+02 0.  0.
          5    1    3    3  501    0  0.36740957364E+02 -0.11734569726E+02 -0.71271156197E+01  0.39502960038E+02  0.47000000000E+01 0. -1.
        -11    1    4    4    0    0  0.38547162826E+02  0.11258497638E+01  0.52528104935E+02  0.65164047662E+02  0.00000000000E+00 0.  1.
         12    1    4    4    0    0 -0.43005732787E+01  0.64736136006E+02  0.18880832344E+03  0.19964429677E+03  0.00000000000E+00 0. -1.
         -5    1    5    5    0  503  0.95582616611E+01  0.77579166366E+01 -0.79585313049E+02  0.80668814852E+02  0.47000000000E+01 0.  1.
         11    1    6    6    0    0 -0.67619799550E+02 -0.19484554169E+01 -0.20327854933E+01  0.67678401183E+02  0.00000000000E+00 0. -1.
        -12    1    6    6    0    0 -0.12926009022E+02 -0.59936877263E+02  0.70481600752E+01  0.61718615715E+02  0.00000000000E+00 0.  1.
</event>
<event>
12    1  0.9246030E-003  0.2989482E+03  0.7818608E-02  0.1085910E+00
         21   -1    0    0  503  502  0.00000000000E+00  0.00000000000E+00  0.79852661856E+03  0.79852661856E+03  0.00000000000E+00 0.  1.
         21   -1    0    0  501  503 -0.00000000000E+00 -0.00000000000E+00 -0.11503042032E+03  0.11503042032E+03  0.00000000000E+00 0. -1.
          6    2    1    2  501    0 -0.23880925119E+03 -0.47956009516E+02  0.26105259700E+03  0.39603545068E+03  0.17136505621E+03 0.  0.
         24    2    3    3    0    0 -0.11303769732E+03 -0.42617084182E+02  0.22066683895E+03  0.26374755501E+03  0.79216046888E+02 0.  0.
         -6    2    1    2    0  502  0.23880925119E+03  0.47956009516E+02  0.42244360124E+03  0.51752158820E+03  0.17332155298E+03 0.  0.
        -24    2    5    5    0    0  0.85132081996E+02 -0.24216264356E+02  0.11316159580E+03  0.16467182083E+03  0.80482066123E+02 0.  0.
          5    1    3    3  501    0 -0.12577155387E+03 -0.53389253342E+01  0.40385758057E+02  0.13228789567E+03  0.47000000000E+01 0. -1.
        -11    1    4    4    0    0 -0.10907028831E+03 -0.14862474776E+02  0.13842356424E+03  0.17685673322E+03  0.00000000000E+00 0.  1.
         12    1    4    4    0    0 -0.39674090134E+01 -0.27754609407E+02  0.82243274704E+02  0.86890821792E+02  0.00000000000E+00 0. -1.
         -5    1    5    5    0  502  0.15367716919E+03  0.72172273872E+02  0.30928200543E+03  0.35284976737E+03  0.47000000000E+01 0.  1.
         11    1    6    6    0    0  0.37361602439E+02 -0.15568248173E+02  0.10861608858E+03  0.11591252903E+03  0.00000000000E+00 0. -1.
        -12    1    6    6    0    0  0.47770479557E+02 -0.86480161830E+01  0.45455072219E+01  0.48759291801E+02  0.00000000000E+00 0.  1.
</event>
<event>
12    1  0.9246030E-003  0.1992695E+03  0.7818608E-02  0.1150853E+00
         21   -1    0    0  501  502  0.00000000000E+00  0.00000000000E+00  0.53907297703E+03  0.53907297703E+03  0.00000000000E+00 0.  1.
         21   -1    0    0  502  503 -0.00000000000E+00 -0.00000000000E+00 -0.78494986912E+02  0.78494986912E+02  0.00000000000E+00 0.  1.
          6    2    1    2  501    0 -0.89678686305E+02 -0.43564382238E+02  0.31468770440E+03  0.37247372448E+03  0.17253463984E+03 0.  0.
         24    2    3    3    0    0 -0.55681415970E+02 -0.70763863891E+02  0.30516778735E+03  0.32765916197E+03  0.78263679092E+02 0.  0.
         -6    2    1    2    0  503  0.89678686305E+02  0.43564382238E+02  0.14589028571E+03  0.24509423946E+03  0.16984430687E+03 0.  0.
        -24    2    5    5    0    0  0.11214531116E+03  0.39994127749E+02  0.58929399751E+02  0.15508434202E+03  0.80014860594E+02 0.  0.
          5    1    3    3  501    0 -0.33997270335E+02  0.27199481653E+02  0.95199170499E+01  0.44814562511E+02  0.47000000000E+01 0. -1.
        -11    1    4    4    0    0 -0.53842279889E+01 -0.49709927455E+02  0.22642975433E+03  0.23188467056E+03  0.00000000000E+00 0.  1.
         12    1    4    4    0    0 -0.50297187981E+02 -0.21053936436E+02  0.78738033028E+02  0.95774491403E+02  0.00000000000E+00 0. -1.
         -5    1    5    5    0  503 -0.22466624859E+02  0.35702544891E+01  0.86960885959E+02  0.90009897436E+02  0.47000000000E+01 0.  1.
         11    1    6    6    0    0  0.11087503287E+03  0.22796844976E+02  0.71374745626E+02  0.13381824752E+03  0.00000000000E+00 0. -1.
        -12    1    6    6    0    0  0.12702782925E+01  0.17197282772E+02 -0.12445345875E+02  0.21266094509E+02  0.00000000000E+00 0.  1.
</event>
<event>
12    1  0.9246030E-003  0.1817126E+03  0.7818608E-02  0.1166900E+00
         21   -1    0    0  503  502  0.00000000000E+00  0.00000000000E+00  0.11108071566E+03  0.11108071566E+03  0.00000000000E+00 0.  1.
         21   -1    0    0  501  503 -0.00000000000E+00 -0.00000000000E+00 -0.32892551572E+03  0.32892551572E+03  0.00000000000E+00 0.  1.
          6    2    1    2  501    0 -0.44063729264E+02 -0.17685583554E+02 -0.18323016080E+03  0.25805575088E+03  0.17539979085E+03 0.  0.
         24    2    3    3    0    0 -0.52471888615E+02 -0.30072491513E+02 -0.32440142452E+02  0.10645148884E+03  0.81375074770E+02 0.  0.
         -6    2    1    2    0  502  0.44063729264E+02  0.17685583554E+02 -0.34614639247E+02  0.18195048050E+03  0.17220166086E+03 0.  0.
        -24    2    5    5    0    0  0.76680021324E+02  0.55540595966E+02 -0.43975401958E+02  0.13089621182E+03  0.78964541539E+02 0.  0.
          5    1    3    3  501    0  0.84081593509E+01  0.12386907959E+02 -0.15079001835E+03  0.15160426203E+03  0.47000000000E+01 0. -1.
        -13    1    4    4    0    0 -0.38495457437E+01  0.26114196550E+02 -0.31531247324E+01  0.26584064014E+02  0.00000000000E+00 0.  1.
         14    1    4    4    0    0 -0.48622342871E+02 -0.56186688063E+02 -0.29287017720E+02  0.79867424828E+02  0.00000000000E+00 0. -1.
         -5    1    5    5    0  502 -0.32616292060E+02 -0.37855012412E+02  0.93607627115E+01  0.51054268685E+02  0.47000000000E+01 0.  1.
         13    1    6    6    0    0 -0.13071991023E+02  0.23901536450E+02 -0.34455454384E+01  0.27459646344E+02  0.00000000000E+00 0. -1.
        -14    1    6    6    0    0  0.89752012347E+02  0.31639059516E+02 -0.40529856520E+02  0.10343656547E+03  0.00000000000E+00 0.  1.
</event>
<event>
12    1  0.9246030E-003  0.1786498E+03  0.7818608E-02  0.1171124E+00
         21   -1    0    0  501  502  0.00000000000E+00  0.00000000000E+00  0.28963073834E+02  0.28963073834E+02  0.00000000000E+00 0. -1.
         21   -1    0    0  502  503 -0.00000000000E+00 -0.00000000000E+00 -0.11621584044E+04  0.11621584044E+04  0.00000000000E+00 0. -1.
          6    2    1    2  501    0 -0.22703891525E+02 -0.39428360861E+02 -0.73724882182E+03  0.75673755898E+03  0.16445621173E+03 0.  0.
         24    2    3    3    0    0 -0.17735524590E+02  0.83412802102E+01 -0.66570271254E+03  0.67043831779E+03  0.77092870548E+02 0.  0.
         -6    2    1    2    0  503  0.22703891525E+02  0.39428360861E+02 -0.39594650874E+03  0.43438391925E+03  0.17275904949E+03 0.  0.
        -24    2    5    5    0    0  0.33393596960E+02 -0.38090421118E+02 -0.26351448041E+03  0.28048861883E+03  0.81657647570E+02 0.  0.
          5    1    3    3  501    0 -0.49683669350E+01 -0.47769641072E+02 -0.71546109279E+02  0.86299241197E+02  0.47000000000E+01 0. -1.
        -13    1    4    4    0    0  0.20793021914E+02 -0.21912594035E+02 -0.28514784085E+03  0.28674344400E+03  0.00000000000E+00 0.  1.
         14    1    4    4    0    0 -0.38528546504E+02  0.30253874246E+02 -0.38055487169E+03  0.38369487379E+03  0.00000000000E+00 0. -1.
         -5    1    5    5    0  503 -0.10689705435E+02  0.77518781980E+02 -0.13243202833E+03  0.15389530042E+03  0.47000000000E+01 0.  1.
         13    1    6    6    0    0  0.48470904413E+02  0.32162534822E+01 -0.17553040189E+03  0.18212823738E+03  0.00000000000E+00 0. -1.
        -14    1    6    6    0    0 -0.15077307453E+02 -0.41306674601E+02 -0.87984078518E+02  0.98360381452E+02  0.00000000000E+00 0.  1.
</event>
<event>
12    1  0.9246030E-003  0.2044660E+03  0.7818608E-02  0.1146763E+00
         21   -1    0    0  503  502  0.00000000000E+00  0.00000000000E+00  0.13578456516E+03  0.13578456516E+03  0.00000000000E+00 0. -1.
         21   -1    0    0  501  503 -0.00000000000E+00 -0.00000000000E+00 -0.41342300437E+03  0.41342300437E+03  0.00000000000E+00 0. -1.
          6    2    1    2  501    0  0.10477231651E+03 -0.19449109540E+02 -0.28013525514E+03  0.34472630244E+03  0.17030841511E+03 0.  0.
         24    2    3    3    0    0  0.26323634441E+02  0.11334142530E+02 -0.23328897232E+03  0.24819408740E+03  0.79719281848E+02 0.  0.
         -6    2    1    2    0  502 -0.10477231651E+03  0.19449109540E+02  0.24968159286E+01  0.20448126708E+03  0.17450171440E+03 0.  0.
        -24    2    5    5    0    0  0.12573404878E+02  0.26930878425E+02  0.11160536679E+02  0.86484888949E+02  0.80446974553E+02 0.  0.
          5    1    3    3  501    0  0.78448682073E+02 -0.30783252071E+02 -0.46846282820E+02  0.96532215043E+02  0.47000000000E+01 0. -1.
        -11    1    4    4    0    0 -0.18452197144E+02 -0.21676367119E+02 -0.93702871769E+02  0.97931489566E+02  0.00000000000E+00 0.  1.
         12    1    4    4    0    0  0.44775831586E+02  0.33010509649E+02 -0.13958610055E+03  0.15026259784E+03  0.00000000000E+00 0. -1.
         -5    1    5    5    0  502 -0.11734572139E+03 -0.74817688848E+01 -0.86637207501E+01  0.11799637813E+03  0.47000000000E+01 0.  1.
         13    1    6    6    0    0 -0.24240275076E+02  0.17505629655E+02  0.31459505375E+02  0.43402056217E+02  0.00000000000E+00 0. -1.
        -14    1    6    6    0    0  0.36813679954E+02  0.94252487702E+01 -0.20298968697E+02  0.43082832733E+02  0.00000000000E+00 0.  1.
</event>
<event>
12    1  0.9246030E-003  0.3230709E+03  0.7818608E-02  0.1074293E+00
         21   -1    0    0  501  502  0.00000000000E+00  0.00000000000E+00  0.16554281305E+03  0.16554281305E+03  0.00000000000E+00 0.  1.
         21   -1    0    0  502  503 -0.00000000000E+00 -0.00000000000E+00 -0.66757365298E+03  0.66757365298E+03  0.00000000000E+00 0. -1.
          6    2    1    2  501    0  0.24344913234E+03 -0.12467368322E+03 -0.15190646436E+03  0.35700194405E+03  0.17194128887E+03 0.  0.
         24    2    3    3    0    0  0.90516085996E+02 -0.11171660247E+03 -0.48042079708E+02  0.17162043741E+03  0.80447324529E+02 0.  0.
         -6    2    1    2    0  503 -0.24344913234E+03  0.12467368322E+03 -0.35012437557E+03  0.47611452198E+03  0.17113431083E+03 0.  0.
        -24    2    5    5    0    0 -0.19109937650E+03  0.15702503715E+03 -0.26741319799E+03  0.37291405719E+03  0.79870154583E+02 0.  0.
          5    1    3    3  501    0  0.15293304634E+03 -0.12957080754E+02 -0.10386438465E+03  0.18538150664E+03  0.47000000000E+01 0. -1.
        -13    1    4    4    0    0  0.74592758444E+02 -0.28782029560E+02 -0.29007729814E+02  0.85052532160E+02  0.00000000000E+00 0.  1.
         14    1    4    4    0    0  0.15923327552E+02 -0.82934572910E+02 -0.19034349893E+02  0.86567905253E+02  0.00000000000E+00 0. -1.
         -5    1    5    5    0  503 -0.52349755833E+02 -0.32351353929E+02 -0.82711177579E+02  0.10320046479E+03  0.47000000000E+01 0.  1.
         13    1    6    6    0    0 -0.10992499549E+03  0.39845560225E+02 -0.13134425950E+03  0.17584791101E+03  0.00000000000E+00 0. -1.
        -14    1    6    6    0    0 -0.81174381016E+02  0.11717947693E+03 -0.13606893849E+03  0.19706614618E+03  0.00000000000E+00 0.  1.
</event>
<event>
12    1  0.9246030E-003  0.1938601E+03  0.7818608E-02  0.1155182E+00
         21   -1    0    0  503  502  0.00000000000E+00  0.00000000000E+00  0.14303556009E+03  0.14303556009E+03  0.00000000000E+00 0.  1.
         21   -1    0    0  501  503 -0.00000000000E+00 -0.00000000000E+00 -0.50435646805E+03  0.50435646805E+03  0.00000000000E+00 0. -1.
          6    2    1    2  501    0  0.68185553137E+02  0.56248763795E+02 -0.40532262061E+03  0.44929741933E+03  0.17253565182E+03 0.  0.
         24    2    3    3    0    0  0.52194163466E+02  0.49271553487E+02 -0.10406429873E+03  0.14749769681E+03  0.75988654494E+02 0.  0.
         -6    2    1    2    0  502 -0.68185553137E+02 -0.56248763795E+02  0.44001712648E+02  0.19809460881E+03  0.17173272908E+03 0.  0.
        -24    2    5    5    0    0 -0.45489338233E+02  0.11291543617E+02 -0.29105626555E+02  0.95900752136E+02  0.78441302341E+02 0.  0.
          5    1    3    3  501    0  0.15991389671E+02  0.69772103082E+01 -0.30125832188E+03  0.30179972252E+03  0.47000000000E+01 0. -1.
        -13    1    4    4    0    0 -0.99323921261E+01  0.11969933579E+02  0.51890761665E+01  0.16396897106E+02  0.00000000000E+00 0.  1.
         14    1    4    4    0    0  0.62126555592E+02  0.37301619907E+02 -0.10925337489E+03  0.13110079970E+03  0.00000000000E+00 0. -1.
         -5    1    5    5    0  502 -0.22696214904E+02 -0.67540307412E+02  0.73107339203E+02  0.10219385667E+03  0.47000000000E+01 0.  1.
         11    1    6    6    0    0  0.79242361851E+01  0.28425110807E+02 -0.26635490825E+02  0.39752104536E+02  0.00000000000E+00 0. -1.
        -12    1    6    6    0    0 -0.53413574418E+02 -0.17133567190E+02 -0.24701357296E+01  0.56148647600E+02  0.00000000000E+00 0.  1.
</event>
<event>
12    1  0.9246030E-003  0.2382792E+03  0.7818608E-02  0.1120968E+00
         21   -1    0    0  503  502  0.00000000000E+00  0.00000000000E+00  0.43195764392E+02  0.43195764392E+02  0.00000000000E+00 0.  1.
         21   -1    0    0  501  503 -0.00000000000E+00 -0.00000000000E+00 -0.13153159629E+04  0.13153159629E+04  0.00000000000E+00 0.  1.
          6    2    1    2  501    0 -0.16098473157E+03 -0.33457659546E+02 -0.66013442996E+03  0.70177468534E+03  0.17226359041E+03 0.  0.
         24    2    3    3    0    0 -0.15318432988E+03 -0.68242282518E+02 -0.62254632014E+03  0.64975764715E+03  0.80614088519E+02 0.  0.
         -6    2    1    2    0  502  0.16098473157E+03  0.33457659546E+02 -0.61198576853E+03  0.65673704194E+03  0.17245713260E+03 0.  0.
        -24    2    5    5    0    0  0.21620604519E+02 -0.79995817971E+01 -0.52440646092E+02  0.78590091054E+02  0.53804620626E+02 0.  0.
          5    1    3    3  501    0 -0.78004016986E+01  0.34784622972E+02 -0.37588109823E+02  0.52017038190E+02  0.47000000000E+01 0. -1.
        -13    1    4    4    0    0 -0.10438698245E+03 -0.65194932261E+02 -0.53974446410E+03  0.55359832715E+03  0.00000000000E+00 0.  1.
         14    1    4    4    0    0 -0.48797347422E+02 -0.30473502570E+01 -0.82801856040E+02  0.96159319999E+02  0.00000000000E+00 0. -1.
         -5    1    5    5    0  502  0.13936412706E+03  0.41457241343E+02 -0.55954512244E+03  0.57814695088E+03  0.47000000000E+01 0.  1.
         13    1    6    6    0    0 -0.52187321159E+01  0.16116625863E+02 -0.27214842450E+01  0.17157717523E+02  0.00000000000E+00 0. -1.
        -14    1    6    6    0    0  0.26839336635E+02 -0.24116207660E+02 -0.49719161847E+02  0.61432373531E+02  0.00000000000E+00 0.  1.
</event>
<event>
12    1  0.9246030E-003  0.1900361E+03  0.7818608E-02  0.1158500E+00
         21   -1    0    0  501  502  0.00000000000E+00  0.00000000000E+00  0.95422337021E+03  0.95422337021E+03  0.00000000000E+00 0.  1.
         21   -1    0    0  502  503 -0.00000000000E+00 -0.00000000000E+00 -0.41186682245E+02  0.41186682245E+02  0.00000000000E+00 0. -1.
          6    2    1    2  501    0  0.18804642043E+02  0.79028891869E+02  0.59924189457E+03  0.62855739292E+03  0.17144785699E+03 0.  0.
         24    2    3    3    0    0  0.60461276261E+02  0.61202320499E+02  0.24994366850E+03  0.27630123249E+03  0.80431608778E+02 0.  0.
         -6    2    1    2    0  503 -0.18804642043E+02 -0.79028891869E+02  0.31379479339E+03  0.36685265953E+03  0.17179790784E+03 0.  0.
        -24    2    5    5    0    0 -0.61815318940E+02 -0.90494433219E+02  0.27868825088E+03  0.30996736888E+03  0.80014076853E+02 0.  0.
          5    1    3    3  501    0 -0.41656634218E+02  0.17826571370E+02  0.34929822608E+03  0.35225616043E+03  0.47000000000E+01 0. -1.
        -13    1    4    4    0    0 -0.11184160881E+02  0.37808049481E+02  0.11719407286E+03  0.12364863434E+03  0.00000000000E+00 0.  1.
         14    1    4    4    0    0  0.71645437142E+02  0.23394271019E+02  0.13274959563E+03  0.15265259814E+03  0.00000000000E+00 0. -1.
         -5    1    5    5    0  503  0.43010676897E+02  0.11465541350E+02  0.35106542512E+02  0.56885290654E+02  0.47000000000E+01 0.  1.
         13    1    6    6    0    0 -0.68710215911E+02 -0.65009459299E+02  0.26244195021E+03  0.27896792074E+03  0.00000000000E+00 0. -1.
        -14    1    6    6    0    0  0.68948969709E+01 -0.25484973920E+02  0.16246300664E+02  0.30999448144E+02  0.00000000000E+00 0.  1.
</event>
<event>
12    1  0.9246030E-003  0.1872717E+03  0.7818608E-02  0.1161406E+00
         21   -1    0    0  503  502  0.00000000000E+00  0.00000000000E+00  0.46365867428E+02  0.46365867428E+02  0.00000000000E+00 0. -1.
         21   -1    0    0  501  503 -0.00000000000E+00 -0.00000000000E+00 -0.75260010058E+03  0.75260010058E+03  0.00000000000E+00 0. -1.
          6    2    1    2  501    0 -0.10655849517E+02 -0.72101982403E+02 -0.38495165325E+03  0.42808699333E+03  0.17250639270E+03 0.  0.
         24    2    3    3    0    0 -0.23178483139E+02 -0.22752610777E+02 -0.74406396771E+02  0.11336072631E+03  0.79116490132E+02 0.  0.
         -6    2    1    2    0  502  0.10655849517E+02  0.72101982403E+02 -0.32128257990E+03  0.37087897468E+03  0.17034222822E+03 0.  0.
        -24    2    5    5    0    0  0.67759868132E+02  0.34779657011E+02 -0.14748903849E+03  0.18411679984E+03  0.79655227300E+02 0.  0.
          5    1    3    3  501    0  0.12522633622E+02 -0.49349371626E+02 -0.31054525648E+03  0.31472626703E+03  0.47000000000E+01 0. -1.
        -11    1    4    4    0    0  0.12919223961E+01  0.28558238589E+02 -0.27366777227E+02  0.39575024328E+02  0.00000000000E+00 0.  1.
         12    1    4    4    0    0 -0.24470405535E+02 -0.51310849366E+02 -0.47039619544E+02  0.73785701979E+02  0.00000000000E+00 0. -1.
         -5    1    5    5    0  502 -0.57104018615E+02  0.37322325392E+02 -0.17379354141E+03  0.18676217484E+03  0.47000000000E+01 0.  1.
         13    1    6    6    0    0 -0.11285487815E+02 -0.11915057916E+01 -0.59185491664E+02  0.60263623727E+02  0.00000000000E+00 0. -1.
        -14    1    6    6    0    0  0.79045355947E+02  0.35971162802E+02 -0.88303546826E+02  0.12385317611E+03  0.00000000000E+00 0.  1.
</event>
<event>
12    1  0.9246030E-003  0.1895008E+03  0.7818608E-02  0.1158922E+00
         21   -1    0    0  501  502  0.00000000000E+00  0.00000000000E+00  0.58669270344E+03  0.58669270344E+03  0.00000000000E+00 0. -1.
         21   -1    0    0  502  503 -0.00000000000E+00 -0.00000000000E+00 -0.67083437843E+02  0.67083437843E+02  0.00000000000E+00 0. -1.
          6    2    1    2  501    0  0.71647377384E+02 -0.30239762927E+02  0.16298278914E+03  0.24994790700E+03  0.17280849722E+03 0.  0.
         24    2    3    3    0    0  0.84107944153E+02 -0.70243515308E+02  0.15580576736E+03  0.20717916175E+03  0.81482944281E+02 0.  0.
         -6    2    1    2    0  503 -0.71647377384E+02  0.30239762927E+02  0.35662647646E+03  0.40382823428E+03  0.17276286969E+03 0.  0.
        -24    2    5    5    0    0 -0.36050016800E+02 -0.41877480207E+02  0.26264202203E+03  0.28004117312E+03  0.79930593915E+02 0.  0.
          5    1    3    3  501    0 -0.12460566769E+02  0.40003752381E+02  0.71770217814E+01  0.42768745252E+02  0.47000000000E+01 0. -1.
        -11    1    4    4    0    0 -0.11075225015E+02 -0.20224260461E+02  0.55633099272E+02  0.60222280386E+02  0.00000000000E+00 0.  1.
         12    1    4    4    0    0  0.95183169169E+02 -0.50019254847E+02  0.10017266808E+03  0.14695688136E+03  0.00000000000E+00 0. -1.
         -5    1    5    5    0  503 -0.35597360584E+02  0.72117243134E+02  0.93984454424E+02  0.12378706116E+03  0.47000000000E+01 0.  1.
         13    1    6    6    0    0 -0.39545151425E+02 -0.43797166161E+02  0.26739981654E+03  0.27383329354E+03  0.00000000000E+00 0. -1.
        -14    1    6    6    0    0  0.34951346253E+01  0.19196859534E+01 -0.47577945106E+01  0.62078795747E+01  0.00000000000E+00 0.  1.
</event>
<event>
12    1  0.9246030E-003  0.1763613E+03  0.7818608E-02  0.1171402E+00
         21   -1    0    0  501  502  0.00000000000E+00  0.00000000000E+00  0.15817063624E+04  0.15817063624E+04  0.00000000000E+00 0.  1.
         21   -1    0    0  502  503 -0.00000000000E+00 -0.00000000000E+00 -0.19662383676E+02  0.19662383676E+02  0.00000000000E+00 0.  1.
          6    2    1    2  501    0  0.33810793583E+02  0.85831749330E+01  0.80080067774E+03  0.81999087090E+03  0.17287701478E+03 0.  0.
         24    2    3    3    0    0 -0.34363425308E+01  0.69168554773E+02  0.47719647414E+03  0.48863048102E+03  0.79039070242E+02 0.  0.
         -6    2    1    2    0  503 -0.33810793583E+02 -0.85831749330E+01  0.76124330101E+03  0.78137787520E+03  0.17275178686E+03 0.  0.
        -24    2    5    5    0    0 -0.41460968794E+02 -0.26306349785E+02  0.20681463321E+03  0.22659334605E+03  0.78493413681E+02 0.  0.
          5    1    3    3  501    0  0.37247136114E+02 -0.60585379840E+02  0.32360420360E+03  0.33136038989E+03  0.47000000000E+01 0. -1.
        -11    1    4    4    0    0 -0.27054620689E+02  0.74611799653E+01  0.60058806692E+02  0.66292397515E+02  0.00000000000E+00 0.  1.
         12    1    4    4    0    0  0.23618278158E+02  0.61707374808E+02  0.41713766745E+03  0.42233808350E+03  0.00000000000E+00 0. -1.
         -5    1    5    5    0  503  0.76501752113E+01  0.17723174852E+02  0.55442866780E+03  0.55478452915E+03  0.47000000000E+01 0.  1.
         13    1    6    6    0    0 -0.21158878028E+02  0.27249368672E+02  0.63680567142E+02  0.72425415732E+02  0.00000000000E+00 0. -1.
        -14    1    6    6    0    0 -0.20302090766E+02 -0.53555718457E+02  0.14313406607E+03  0.15416793032E+03  0.00000000000E+00 0.  1.
</event>
<event>
12    1  0.9246030E-003  0.1742077E+03  0.7818608E-02  0.1173764E+00
         21   -1    0    0  501  502  0.00000000000E+00  0.00000000000E+00  0.29331506580E+03  0.29331506580E+03  0.00000000000E+00 0. -1.
         21   -1    0    0  502  503 -0.00000000000E+00 -0.00000000000E+00 -0.11494341114E+03  0.11494341114E+03  0.00000000000E+00 0. -1.
          6    2    1    2  501    0  0.24051538072E+02 -0.65019462945E+01  0.15542323281E+03  0.23346241965E+03  0.17241684461E+03 0.  0.
         24    2    3    3    0    0 -0.29882714548E+01 -0.33248312754E+02  0.17646469723E+02  0.90455266459E+02  0.82197185288E+02 0.  0.
         -6    2    1    2    0  503 -0.24051538072E+02  0.65019462945E+01  0.22948421857E+02  0.17479605729E+03  0.17148259326E+03 0.  0.
        -24    2    5    5    0    0 -0.35740095317E+02  0.66643814356E+02  0.30067271450E+01  0.11019398416E+03  0.80093204036E+02 0.  0.
          5    1    3    3  501    0  0.27039809527E+02  0.26746366460E+02  0.13777676308E+03  0.14300715319E+03  0.47000000000E+01 0. -1.
        -11    1    4    4    0    0 -0.28288601392E+02  0.16417218845E+02  0.31251382212E+01  0.32856301256E+02  0.00000000000E+00 0.  1.
         12    1    4    4    0    0  0.25300329937E+02 -0.49665531599E+02  0.14521331501E+02  0.57598965204E+02  0.00000000000E+00 0. -1.
         -5    1    5    5    0  503  0.11688557244E+02 -0.60141868061E+02  0.19941694712E+02  0.64602073127E+02  0.47000000000E+01 0.  1.
         13    1    6    6    0    0 -0.35263112251E+02  0.40219829307E+02 -0.34984672686E+02  0.63914388662E+02  0.00000000000E+00 0. -1.
        -14    1    6    6    0    0 -0.47698306557E+00  0.26423985049E+02  0.37991399831E+02  0.46279595502E+02  0.00000000000E+00 0.  1.
</event>
<event>
12    1  0.9246030E-003  0.2238426E+03  0.7818608E-02  0.1131825E+00
         21   -1    0    0  503  502  0.00000000000E+00  0.00000000000E+00  0.58951085967E+02  0.58951085967E+02  0.00000000000E+00 0.  1.
         21   -1    0    0  501  503 -0.00000000000E+00 -0.00000000000E+00 -0.89946794992E+03  0.89946794992E+03  0.00000000000E+00 0.  1.
          6    2    1    2  501    0 -0.10603897643E+03 -0.96815576051E+02 -0.54579467900E+03  0.58832895985E+03  0.16619751227E+03 0.  0.
         24    2    3    3    0    0 -0.35208611274E+02 -0.68043096591E+02 -0.46002693010E+03  0.47333768647E+03  0.80958506131E+02 0.  0.
         -6    2    1    2    0  502  0.10603897643E+03  0.96815576051E+02 -0.29472218495E+03  0.37009007603E+03  0.17172063880E+03 0.  0.
        -24    2    5    5    0    0  0.39434905087E+02 -0.30969129865E+01 -0.19529184021E+03  0.21411863236E+03  0.78378461737E+02 0.  0.
          5    1    3    3  501    0 -0.70830365154E+02 -0.28772479460E+02 -0.85767748899E+02  0.11499127338E+03  0.47000000000E+01 0. -1.
        -13    1    4    4    0    0 -0.90997115814E+01 -0.81397867431E+02 -0.35171701851E+03  0.36112778719E+03  0.00000000000E+00 0.  1.
         14    1    4    4    0    0 -0.26108899692E+02  0.13354770841E+02 -0.10830991159E+03  0.11220989928E+03  0.00000000000E+00 0. -1.
         -5    1    5    5    0  502  0.66604071340E+02  0.99912489037E+02 -0.99430344741E+02  0.15597144367E+03  0.47000000000E+01 0.  1.
         13    1    6    6    0    0  0.52485473433E+02  0.17063528452E+02 -0.17210000743E+03  0.18073267962E+03  0.00000000000E+00 0. -1.
        -14    1    6    6    0    0 -0.13050568346E+02 -0.20160441439E+02 -0.23191832781E+02  0.33385952748E+02  0.00000000000E+00 0.  1.
</event>
<event>
12    1  0.9246030E-003  0.2660605E+03  0.7818608E-02  0.1103582E+00
         21   -1    0    0  501  502  0.00000000000E+00  0.00000000000E+00  0.15052344127E+03  0.15052344127E+03  0.00000000000E+00 0.  1.
         21   -1    0    0  502  503 -0.00000000000E+00 -0.00000000000E+00 -0.93605460322E+03  0.93605460322E+03  0.00000000000E+00 0. -1.
          6    2    1    2  501    0  0.10066700166E+03 -0.17623069288E+03 -0.94626048332E+01  0.26622876733E+03  0.17203811591E+03 0.  0.
         24    2    3    3    0    0  0.90962155939E+02 -0.13942683218E+03  0.53553265153E+02  0.19246022346E+03  0.80368091079E+02 0.  0.
         -6    2    1    2    0  503 -0.10066700166E+03  0.17623069288E+03 -0.77606855711E+03  0.82034927717E+03  0.17175397774E+03 0.  0.
        -24    2    5    5    0    0 -0.13509851570E+02  0.15104608225E+03 -0.55453669124E+03  0.58091433606E+03  0.83385183689E+02 0.  0.
          5    1    3    3  501    0  0.97048457177E+01 -0.36803860707E+02 -0.63015869986E+02  0.73768543862E+02  0.47000000000E+01 0. -1.
        -11    1    4    4    0    0  0.39520057314E+02 -0.87228735312E+02  0.68402598378E+02  0.11768433481E+03  0.00000000000E+00 0.  1.
         12    1    4    4    0    0  0.51442098625E+02 -0.52198096863E+02 -0.14849333225E+02  0.74775888656E+02  0.00000000000E+00 0. -1.
         -5    1    5    5    0  503 -0.87157150087E+02  0.25184610630E+02 -0.22153186588E+03  0.23943494111E+03  0.47000000000E+01 0.  1.
         13    1    6    6    0    0 -0.23584636955E+02  0.12023476994E+03 -0.29605499837E+03  0.32040786049E+03  0.00000000000E+00 0. -1.
        -14    1    6    6    0    0  0.10074785385E+02  0.30811312308E+02 -0.25848169286E+03  0.26050647557E+03  0.00000000000E+00 0.  1.
</event>
<event>
12    1  0.9246030E-003  0.1803384E+03  0.7818608E-02  0.1167744E+00
         21   -1    0    0  503  502  0.00000000000E+00  0.00000000000E+00  0.17202121932E+03  0.17202121932E+03  0.00000000000E+00 0.  1.
         21   -1    0    0  501  503 -0.00000000000E+00 -0.00000000000E+00 -0.31738305155E+03  0.31738305155E+03  0.00000000000E+00 0. -1.
          6    2    1    2  501    0  0.29560392664E+02  0.42970111509E+02 -0.22911224276E+03  0.29157219646E+03  0.17263162707E+03 0.  0.
         24    2    3    3    0    0 -0.42729468631E+02  0.29362571451E+02 -0.17909524712E+03  0.20249481972E+03  0.79000483432E+02 0.  0.
         -6    2    1    2    0  502 -0.29560392664E+02 -0.42970111509E+02  0.83750410525E+02  0.19783207442E+03  0.17147347056E+03 0.  0.
        -24    2    5    5    0    0 -0.14968391807E+01 -0.71279164810E+02  0.28270761905E+01  0.10750134004E+03  0.80408866971E+02 0.  0.
          5    1    3    3  501    0  0.72289861295E+02  0.13607540057E+02 -0.50016995643E+02  0.89077376733E+02  0.47000000000E+01 0. -1.
        -13    1    4    4    0    0 -0.19103743785E+02 -0.12256733206E+02 -0.68263607305E+01  0.23701893095E+02  0.00000000000E+00 0.  1.
         14    1    4    4    0    0 -0.23625724847E+02  0.41619304658E+02 -0.17226888639E+03  0.17879292663E+03  0.00000000000E+00 0. -1.
         -5    1    5    5    0  502 -0.28063553483E+02  0.28309053301E+02  0.80923334334E+02  0.90330734375E+02  0.47000000000E+01 0.  1.
         11    1    6    6    0    0  0.34819282014E+01 -0.53012023617E+02  0.39518676953E+02  0.66212720078E+02  0.00000000000E+00 0. -1.
        -12    1    6    6    0    0 -0.49787673821E+01 -0.18267141192E+02 -0.36691600763E+02  0.41288619964E+02  0.00000000000E+00 0.  1.
</event>
<event>
12    1  0.9246030E-003  0.3154768E+03  0.7818608E-02  0.1077815E+00
         21   -1    0    0  503  502  0.00000000000E+00  0.00000000000E+00  0.49222836194E+02  0.49222836194E+02  0.00000000000E+00 0. -1.
         21   -1    0    0  501  503 -0.00000000000E+00 -0.00000000000E+00 -0.21006682661E+04  0.21006682661E+04  0.00000000000E+00 0.  1.
          6    2    1    2  501    0 -0.80978999766E+02 -0.25177420009E+03 -0.12393302658E+04  0.12788530360E+04  0.17198178291E+03 0.  0.
         24    2    3    3    0    0 -0.59839741603E+02 -0.15584612331E+03 -0.50487428573E+03  0.53784241472E+03  0.80669757978E+02 0.  0.
         -6    2    1    2    0  502  0.80978999766E+02  0.25177420009E+03 -0.81211516405E+03  0.87103806627E+03  0.17096323280E+03 0.  0.
        -24    2    5    5    0    0  0.58813708730E+02  0.93986019460E+02 -0.52381273666E+03  0.54160098621E+03  0.81605275515E+02 0.  0.
          5    1    3    3  501    0 -0.21139258162E+02 -0.95928076779E+02 -0.73445598007E+03  0.74101062126E+03  0.47000000000E+01 0. -1.
        -11    1    4    4    0    0 -0.75551115124E+01 -0.39249825542E+02 -0.24513643838E+03  0.24837371426E+03  0.00000000000E+00 0.  1.
         12    1    4    4    0    0 -0.52284630091E+02 -0.11659629777E+03 -0.25973784735E+03  0.28946870046E+03  0.00000000000E+00 0. -1.
         -5    1    5    5    0  502  0.22165291036E+02  0.15778818063E+03 -0.28830242740E+03  0.32943708006E+03  0.47000000000E+01 0.  1.
         13    1    6    6    0    0 -0.19177918556E+02  0.60236845305E+01 -0.78173166242E+02  0.80716301053E+02  0.00000000000E+00 0. -1.
        -14    1    6    6    0    0  0.77991627286E+02  0.87962334929E+02 -0.44563957042E+03  0.46088468516E+03  0.00000000000E+00 0.  1.
</event>
<event>
12    1  0.9246030E-003  0.1944622E+03  0.7818608E-02  0.1155890E+00
         21   -1    0    0  503  502  0.00000000000E+00  0.00000000000E+00  0.11713647599E+03  0.11713647599E+03  0.00000000000E+00 0. -1.
         21   -1    0    0  501  503 -0.00000000000E+00 -0.00000000000E+00 -0.31405350921E+03  0.31405350921E+03  0.00000000000E+00 0. -1.
          6    2    1    2  501    0 -0.90972712636E+02  0.27936582502E+01 -0.81861472756E+02  0.20524014076E+03  0.16473729294E+03 0.  0.
         24    2    3    3    0    0 -0.49956370073E+02 -0.50818612261E+02 -0.10234505591E+02  0.10670523155E+03  0.78759704629E+02 0.  0.
         -6    2    1    2    0  502  0.90972712636E+02 -0.27936582502E+01 -0.11505556047E+03  0.22594984444E+03  0.17184793056E+03 0.  0.
        -24    2    5    5    0    0  0.98118422776E+02 -0.47751701839E+02 -0.11834827368E+03  0.18006718086E+03  0.80687209802E+02 0.  0.
          5    1    3    3  501    0 -0.41016342563E+02  0.53612270511E+02 -0.71626967165E+02  0.98534909205E+02  0.47000000000E+01 0. -1.
        -11    1    4    4    0    0  0.20157075870E+02 -0.21977975645E+02 -0.79240285387E+01  0.30856593289E+02  0.00000000000E+00 0.  1.
         12    1    4    4    0    0 -0.70113445943E+02 -0.28840636616E+02 -0.23104770521E+01  0.75848638265E+02  0.00000000000E+00 0. -1.
         -5    1    5    5    0  502 -0.71457101401E+01  0.44958043589E+02  0.32927132062E+01  0.45882663578E+02  0.47000000000E+01 0.  1.
         11    1    6    6    0    0  0.77189806929E+02 -0.14913179126E+02 -0.11717967379E+03  0.14110898325E+03  0.00000000000E+00 0. -1.
        -12    1    6    6    0    0  0.20928615847E+02 -0.32838522713E+02 -0.11685998843E+01  0.38958197609E+02  0.00000000000E+00 0.  1.
</event>
<event>
12    1  0.9246030E-003  0.1803547E+03  0.7818608E-02  0.1167606E+00
         21   -1    0    0  503  502  0.00000000000E+00  0.00000000000E+00  0.22551449831E+03  0.22551449831E+03  0.00000000000E+00 0.  1.
         21   -1    0    0  501  503 -0.00000000000E+00 -0.00000000000E+00 -0.20667224623E+03  0.20667224623E+03  0.00000000000E+00 0. -1.
          6    2    1    2  501    0 -0.36585046172E+01 -0.54546213460E+02 -0.10979770143E+03  0.21114773427E+03  0.17186959123E+03 0.  0.
         24    2    3    3    0    0  0.29399499401E+02 -0.17611233389E+02 -0.13186344736E+03  0.15668663324E+03  0.77383759134E+02 0.  0.
         -6    2    1    2    0  502  0.36585046172E+01  0.54546213460E+02  0.12863995351E+03  0.22103901027E+03  0.17123472884E+03 0.  0.
        -24    2    5    5    0    0  0.73257253924E+01 -0.10629419880E+02  0.22387480081E+01  0.78699042440E+02  0.77600750439E+02 0.  0.
          5    1    3    3  501    0 -0.33058004018E+02 -0.36934980071E+02  0.22065745932E+02  0.54461101036E+02  0.47000000000E+01 0. -1.
        -13    1    4    4    0    0 -0.51803952685E+01 -0.31600058638E+01  0.90379334474E+01  0.10886063255E+02  0.00000000000E+00 0.  1.
         14    1    4    4    0    0  0.34579894670E+02 -0.14451227525E+02 -0.14090138081E+03  0.14580056998E+03  0.00000000000E+00 0. -1.
         -5    1    5    5    0  502 -0.36672207752E+01  0.65175633340E+02  0.12640120550E+03  0.14233996783E+03  0.47000000000E+01 0.  1.
         11    1    6    6    0    0  0.25366998844E+02 -0.35908900779E+02  0.12973129584E+02  0.45839239487E+02  0.00000000000E+00 0. -1.
        -12    1    6    6    0    0 -0.18041273451E+02  0.25279480900E+02 -0.10734381576E+02  0.32859802953E+02  0.00000000000E+00 0.  1.
</event>
<event>
12    1  0.9246030E-003  0.1913792E+03  0.7818608E-02  0.1157363E+00
         21   -1    0    0  503  502  0.00000000000E+00  0.00000000000E+00  0.26605011492E+03  0.26605011492E+03  0.00000000000E+00 0. -1.
         21   -1    0    0  501  503 -0.00000000000E+00 -0.00000000000E+00 -0.18243981136E+03  0.18243981136E+03  0.00000000000E+00 0.  1.
          6    2    1    2  501    0 -0.83796949504E+02 -0.28840007553E+00 -0.69788053730E+02  0.20370662450E+03  0.17205814280E+03 0.  0.
         24    2    3    3    0    0 -0.29375017190E+01 -0.47871139326E+02 -0.15027464878E+02  0.94972179813E+02  0.80582971781E+02 0.  0.
         -6    2    1    2    0  502  0.83796949504E+02  0.28840007553E+00  0.15339835729E+03  0.24478330178E+03  0.17136451468E+03 0.  0.
        -24    2    5    5    0    0  0.10342539416E+03 -0.12942068347E+02  0.17079220220E+03  0.21503507536E+03  0.78776887561E+02 0.  0.
          5    1    3    3  501    0 -0.80859447785E+02  0.47582739250E+02 -0.54760588852E+02  0.10873444469E+03  0.47000000000E+01 0. -1.
        -13    1    4    4    0    0 -0.20260848411E+02  0.12785189266E+02  0.11457410604E+02  0.26556266692E+02  0.00000000000E+00 0.  1.
         14    1    4    4    0    0  0.17323346691E+02 -0.60656328592E+02 -0.26484875482E+02  0.68415913121E+02  0.00000000000E+00 0. -1.
         -5    1    5    5    0  502 -0.19628444653E+02  0.13230468423E+02 -0.17393844913E+02  0.29748226419E+02  0.47000000000E+01 0.  1.
         11    1    6    6    0    0  0.56871563563E+02 -0.28371116168E+02  0.14776679527E+03  0.16085496809E+03  0.00000000000E+00 0. -1.
        -12    1    6    6    0    0  0.46553830594E+02  0.15429047820E+02  0.23025406928E+02  0.54180107271E+02  0.00000000000E+00 0.  1.
</event>
<event>
12    1  0.9246030E-003  0.1734268E+03  0.7818608E-02  0.1176084E+00
         21   -1    0    0  501  502  0.00000000000E+00  0.00000000000E+00  0.45264960102E+03  0.45264960102E+03  0.00000000000E+00 0.  1.
         21   -1    0    0  502  503 -0.00000000000E+00 -0.00000000000E+00 -0.82728182462E+02  0.82728182462E+02  0.00000000000E+00 0.  1.
          6    2    1    2  501    0 -0.13349027117E+02 -0.26753012013E+01  0.31560715837E+03  0.36011765609E+03  0.17289156733E+03 0.  0.
         24    2    3    3    0    0 -0.67109649951E+02  0.32264387213E+02  0.20807590212E+03  0.23483378855E+03  0.79414302275E+02 0.  0.
         -6    2    1    2    0  503  0.13349027117E+02  0.26753012013E+01  0.54314260190E+02  0.17526012739E+03  0.16607444003E+03 0.  0.
        -24    2    5    5    0    0 -0.35140547510E+02 -0.77319495007E+01  0.80485392789E+02  0.11898786161E+03  0.79909771841E+02 0.  0.
          5    1    3    3  501    0  0.53760622834E+02 -0.34939688414E+02  0.10753125625E+03  0.12528386754E+03  0.47000000000E+01 0. -1.
        -13    1    4    4    0    0 -0.29064184222E+02  0.54449887946E+02  0.92996755970E+02  0.11161502463E+03  0.00000000000E+00 0.  1.
         14    1    4    4    0    0 -0.38045465729E+02 -0.22185500733E+02  0.11507914615E+03  0.12321876392E+03  0.00000000000E+00 0. -1.
         -5    1    5    5    0  503  0.48489574628E+02  0.10407250702E+02 -0.26171132599E+02  0.56272265782E+02  0.47000000000E+01 0.  1.
         11    1    6    6    0    0 -0.57856831317E+02  0.37150873970E+00  0.35321674720E+02  0.67787695446E+02  0.00000000000E+00 0. -1.
        -12    1    6    6    0    0  0.22716283807E+02 -0.81034582404E+01  0.45163718069E+02  0.51200166164E+02  0.00000000000E+00 0.  1.
</event>
<event>
12    1  0.9246030E-003  0.2149969E+03  0.7818608E-02  0.1137742E+00
         21   -1    0    0  503  502  0.00000000000E+00  0.00000000000E+00  0.21997379096E+04  0.21997379096E+04  0.00000000000E+00 0.  1.
         21   -1    0    0  501  503 -0.00000000000E+00 -0.00000000000E+00 -0.30958535045E+02  0.30958535045E+02  0.00000000000E+00 0.  1.
          6    2    1    2  501    0 -0.12823648869E+03  0.16140354880E+02  0.45039195328E+03  0.49891152920E+03  0.17133211696E+03 0.  0.
         24    2    3    3    0    0 -0.15728534001E+03  0.52033014192E+01  0.32878867251E+03  0.37332131144E+03  0.80629137917E+02 0.  0.
         -6    2    1    2    0  502  0.12823648869E+03 -0.16140354880E+02  0.17183874212E+04  0.17317849154E+04  0.17180964955E+03 0.  0.
        -24    2    5    5    0    0  0.12506447707E+03 -0.30587889902E+02  0.85843083412E+03  0.87168828441E+03  0.79751023682E+02 0.  0.
          5    1    3    3  501    0  0.29048851318E+02  0.10937053460E+02  0.12160328077E+03  0.12559021775E+03  0.47000000000E+01 0. -1.
        -11    1    4    4    0    0 -0.46710706073E+02  0.39230853837E+02  0.10670883006E+03  0.12291348326E+03  0.00000000000E+00 0.  1.
         12    1    4    4    0    0 -0.11057463394E+03 -0.34027552417E+02  0.22207984245E+03  0.25040782818E+03  0.00000000000E+00 0. -1.
         -5    1    5    5    0  502  0.31720116241E+01  0.14447535022E+02  0.85995658711E+03  0.86009663099E+03  0.47000000000E+01 0.  1.
         13    1    6    6    0    0  0.55410354514E+02 -0.68337168080E+01  0.16140394697E+03  0.17078712237E+03  0.00000000000E+00 0. -1.
        -14    1    6    6    0    0  0.69654122553E+02 -0.23754173094E+02  0.69702688716E+03  0.70090116204E+03  0.00000000000E+00 0.  1.
</event>
<event>
12    1  0.9246030E-003  0.2002910E+03  0.7818608E-02  0.1149858E+00
         21   -1    0    0  503  502  0.00000000000E+00  0.00000000000E+00  0.11328197825E+03  0.11328197825E+03  0.00000000000E+00 0.  1.
         21   -1    0    0  501  503 -0.00000000000E+00 -0.00000000000E+00 -0.35161165502E+03  0.35161165502E+03  0.00000000000E+00 0.  1.
          6    2    1    2  501    0  0.48164431152E+02  0.88975945385E+02 -0.10967561430E+03  0.22684248775E+03  0.17085737500E+03 0.  0.
         24    2    3    3    0    0  0.60041015893E+02  0.12357903757E+03 -0.10169377146E+03  0.18910355469E+03  0.80881574702E+02 0.  0.
         -6    2    1    2    0  502 -0.48164431152E+02 -0.88975945385E+02 -0.12865406247E+03  0.23805114552E+03  0.17285817541E+03 0.  0.
        -24    2    5    5    0    0 -0.27229953516E+02 -0.11279988070E+03 -0.14577849446E+03  0.20170326499E+03  0.77249946314E+02 0.  0.
          5    1    3    3  501    0 -0.11876584741E+02 -0.34603092183E+02 -0.79818428408E+01  0.37738933065E+02  0.47000000000E+01 0. -1.
        -11    1    4    4    0    0  0.16970921391E+01  0.84996888307E+02 -0.33382062374E+02  0.91332979979E+02  0.00000000000E+00 0.  1.
         12    1    4    4    0    0  0.58343923754E+02  0.38582149261E+02 -0.68311709085E+02  0.97770574708E+02  0.00000000000E+00 0. -1.
         -5    1    5    5    0  502 -0.20934477636E+02  0.23823935318E+02  0.17124431988E+02  0.36347880527E+02  0.47000000000E+01 0.  1.
         11    1    6    6    0    0 -0.41651314006E+02 -0.65681687317E+02 -0.12709667937E+03  0.14900497279E+03  0.00000000000E+00 0. -1.
        -12    1    6    6    0    0  0.14421360490E+02 -0.47118193386E+02 -0.18681815089E+02  0.52698292205E+02  0.00000000000E+00 0.  1.
</event>
<event>
12    1  0.9246030E-003  0.2101440E+03  0.7818608E-02  0.1142962E+00
         21   -1    0    0  501  502  0.00000000000E+00  0.00000000000E+00  0.41165438449E+02  0.41165438449E+02  0.00000000000E+00 0.  1.
         21   -1    0    0  502  503 -0.00000000000E+00 -0.00000000000E+00 -0.11279025428E+04  0.11279025428E+04  0.00000000000E+00 0.  1.
          6    2    1    2  501    0  0.70139875719E+02  0.77829113121E+02 -0.38456494244E+03  0.43823590596E+03  0.18216350157E+03 0.  0.
         24    2    3    3    0    0  0.58623671383E+02  0.57047108384E+02 -0.10116063253E+03  0.15379855335E+03  0.82033005664E+02 0.  0.
         -6    2    1    2    0  503 -0.70139875719E+02 -0.77829113121E+02 -0.70217216193E+03  0.73083207531E+03  0.17347277681E+03 0.  0.
        -24    2    5    5    0    0 -0.46445133213E+02 -0.11418245617E+03 -0.40371166344E+03  0.42919692230E+03  0.77666641590E+02 0.  0.
          5    1    3    3  501    0  0.11516204336E+02  0.20782004738E+02 -0.28340430991E+03  0.28443735261E+03  0.47000000000E+01 0. -1.
        -11    1    4    4    0    0  0.12060735855E+02  0.60761388317E+02 -0.83256288944E+02  0.10377387585E+03  0.00000000000E+00 0.  1.
         12    1    4    4    0    0  0.46562935528E+02 -0.37142799332E+01 -0.17904343588E+02  0.50024677507E+02  0.00000000000E+00 0. -1.
         -5    1    5    5    0  503 -0.23694742506E+02  0.36353343047E+02 -0.29846049849E+03  0.30163515301E+03  0.47000000000E+01 0.  1.
         11    1    6    6    0    0  0.11973703246E+02 -0.15203923104E+02 -0.16972249757E+02  0.25740748026E+02  0.00000000000E+00 0. -1.
        -12    1    6    6    0    0 -0.58418836459E+02 -0.98978533065E+02 -0.38673941368E+03  0.40345617427E+03  0.00000000000E+00 0.  1.
</event>
<event>
12    1  0.9246030E-003  0.3002718E+03  0.7818608E-02  0.1085411E+00
         21   -1    0    0  503  502  0.00000000000E+00  0.00000000000E+00  0.19262875717E+04  0.19262875717E+04  0.00000000000E+00 0.  1.
         21   -1    0    0  501  503 -0.00000000000E+00 -0.00000000000E+00 -0.73474356705E+02  0.73474356705E+02  0.00000000000E+00 0.  1.
          6    2    1    2  501    0  0.15787713384E+02  0.24548558218E+03  0.32214015408E+03  0.44038328231E+03  0.17219388350E+03 0.  0.
         24    2    3    3    0    0  0.67526268099E+02  0.11157181782E+03  0.20146346307E+03  0.25278070216E+03  0.79388217093E+02 0.  0.
         -6    2    1    2    0  502 -0.15787713384E+02 -0.24548558218E+03  0.15306730609E+04  0.15593786461E+04  0.16789675265E+03 0.  0.
        -24    2    5    5    0    0  0.38299626785E+02 -0.83275482314E+02  0.80112133648E+03  0.81004202916E+03  0.77272413394E+02 0.  0.
          5    1    3    3  501    0 -0.51738554715E+02  0.13391376435E+03  0.12067669101E+03  0.18760258015E+03  0.47000000000E+01 0. -1.
        -11    1    4    4    0    0  0.14501081395E+02  0.67517813763E+02  0.46722436198E+02  0.83378190081E+02  0.00000000000E+00 0.  1.
         12    1    4    4    0    0  0.53025186704E+02  0.44054004060E+02  0.15474102688E+03  0.16940251208E+03  0.00000000000E+00 0. -1.
         -5    1    5    5    0  502 -0.54087340169E+02 -0.16221009986E+03  0.72955172445E+03  0.74933661695E+03  0.47000000000E+01 0.  1.
         11    1    6    6    0    0  0.72574113563E+01 -0.18667287340E+02  0.33133800511E+02  0.38716745376E+02  0.00000000000E+00 0. -1.
        -12    1    6    6    0    0  0.31042215429E+02 -0.64608194974E+02  0.76798753597E+03  0.77132528378E+03  0.00000000000E+00 0.  1.
</event>
<event>
12    1  0.9246030E-003  0.3982037E+03  0.7818608E-02  0.1044433E+00
         21   -1    0    0  503  502  0.00000000000E+00  0.00000000000E+00  0.34699144645E+03  0.34699144645E+03  0.00000000000E+00 0. -1.
         21   -1    0    0  501  503 -0.00000000000E+00 -0.00000000000E+00 -0.64893329508E+03  0.64893329508E+03  0.00000000000E+00 0. -1.
          6    2    1    2  501    0  0.11008041078E+03 -0.34173295214E+03 -0.42202871625E+03  0.58000767053E+03  0.17146881090E+03 0.  0.
         24    2    3    3    0    0  0.35921586210E+02 -0.16379009711E+03 -0.29618029104E+03  0.34974020204E+03  0.80485326919E+02 0.  0.
         -6    2    1    2    0  502 -0.11008041078E+03  0.34173295214E+03  0.12008686762E+03  0.41591707101E+03  0.17224124582E+03 0.  0.
        -24    2    5    5    0    0 -0.56404579413E+02  0.19001797173E+03  0.13717886067E+03  0.25401353064E+03  0.80103232008E+02 0.  0.
          5    1    3    3  501    0  0.74158824566E+02 -0.17794285503E+03 -0.12584842520E+03  0.23026746849E+03  0.47000000000E+01 0. -1.
        -11    1    4    4    0    0  0.73281332399E+01 -0.24532923079E+01  0.32717109487E+01  0.83919170910E+01  0.00000000000E+00 0.  1.
         12    1    4    4    0    0  0.28593452971E+02 -0.16133680481E+03 -0.29945200199E+03  0.34134828495E+03  0.00000000000E+00 0. -1.
         -5    1    5    5    0  502 -0.53675831364E+02  0.15171498042E+03 -0.17091993050E+02  0.16190354036E+03  0.47000000000E+01 0.  1.
         13    1    6    6    0    0 -0.58475572629E+02  0.97704979181E+02  0.10860976644E+03  0.15735862518E+03  0.00000000000E+00 0. -1.
        -14    1    6    6    0    0  0.20709932160E+01  0.92312992547E+02  0.28569094222E+02  0.96654905465E+02  0.00000000000E+00 0.  1.
</event>
<event>
12    1  0.9246030E-003  0.1833622E+03  0.7818608E-02  0.1164763E+00
         21   -1    0    0  503  502  0.00000000000E+00  0.00000000000E+00  0.42892904436E+03  0.42892904436E+03  0.00000000000E+00 0.  1.
         21   -1    0    0  501  503 -0.00000000000E+00 -0.00000000000E+00 -0.78661161313E+02  0.78661161313E+02  0.00000000000E+00 0. -1.
          6    2    1    2  501    0  0.62256847261E+02  0.37186114748E+01  0.19749204597E+03  0.26948987769E+03  0.17242953011E+03 0.  0.
         24    2    3    3    0    0  0.73496835928E+02  0.60275332459E+02  0.13759251983E+03  0.18621297053E+03  0.81906460591E+02 0.  0.
         -6    2    1    2    0  502 -0.62256847261E+02 -0.37186114748E+01  0.15277583708E+03  0.23810032799E+03  0.17164372022E+03 0.  0.
        -24    2    5    5    0    0  0.16284490090E+02  0.16154013112E+02  0.26603667513E+02  0.88083098130E+02  0.80775864551E+02 0.  0.
          5    1    3    3  501    0 -0.11239988667E+02 -0.56556720984E+02  0.59899526142E+02  0.83276907157E+02  0.47000000000E+01 0. -1.
        -11    1    4    4    0    0  0.40840787434E+02  0.52453847505E+02  0.13739496362E+03  0.15263273589E+03  0.00000000000E+00 0.  1.
         12    1    4    4    0    0  0.32656048494E+02  0.78214849540E+01  0.19755620682E+00  0.33580234642E+02  0.00000000000E+00 0. -1.
         -5    1    5    5    0  502 -0.78541337350E+02 -0.19872624587E+02  0.12617216957E+03  0.15001722986E+03  0.47000000000E+01 0.  1.
         13    1    6    6    0    0 -0.32118409496E+02  0.10498799157E+02  0.29659083197E+01  0.33920696108E+02  0.00000000000E+00 0. -1.
        -14    1    6    6    0    0  0.48402899585E+02  0.56552139552E+01  0.23637759193E+02  0.54162402022E+02  0.00000000000E+00 0.  1.
</event>
<event>
12    1  0.9246030E-003  0.2176493E+03  0.7818608E-02  0.1135920E+00
         21   -1    0    0  503  502  0.00000000000E+00  0.00000000000E+00  0.41588687704E+03  0.41588687704E+03  0.00000000000E+00 0.  1.
         21   -1    0    0  501  503 -0.00000000000E+00 -0.00000000000E+00 -0.11387410307E+03  0.11387410307E+03  0.00000000000E+00 0. -1.
          6    2    1    2  501    0 -0.12206737623E+03 -0.53307579616E+02  0.13043041281E+03  0.25373864130E+03  0.17213094759E+03 0.  0.
         24    2    3    3    0    0 -0.12945276967E+03 -0.90043748639E+02  0.12374510924E+03  0.21538667349E+03  0.78820497428E+02 0.  0.
         -6    2    1    2    0  502  0.12206737623E+03  0.53307579616E+02  0.17158236116E+03  0.27602233882E+03  0.17031054717E+03 0.  0.
        -24    2    5    5    0    0  0.38662289975E+02  0.47733184084E+02  0.16324829802E+03  0.19188537365E+03  0.79979749233E+02 0.  0.
          5    1    3    3  501    0  0.73853934389E+01  0.36736169023E+02  0.66853035689E+01  0.38351967806E+02  0.47000000000E+01 0. -1.
        -11    1    4    4    0    0 -0.71637024154E+02 -0.16375150326E+02  0.89201030344E+02  0.11557176382E+03  0.00000000000E+00 0.  1.
         12    1    4    4    0    0 -0.57815745513E+02 -0.73668598313E+02  0.34544078895E+02  0.99814909675E+02  0.00000000000E+00 0. -1.
         -5    1    5    5    0  502  0.83405086254E+02  0.55743955314E+01  0.83340631484E+01  0.84136965164E+02  0.47000000000E+01 0.  1.
         11    1    6    6    0    0  0.62382993294E+02  0.36816408192E+02  0.13635145888E+03  0.15439820628E+03  0.00000000000E+00 0. -1.
        -12    1    6    6    0    0 -0.23720703320E+02  0.10916775892E+02  0.26896839138E+02  0.37487167371E+02  0.00000000000E+00 0.  1.
</event>
<event>
12    1  0.9246030E-003  0.1761500E+03  0.7818608E-02  0.1173429E+00
         21   -1    0    0  501  502  0.00000000000E+00  0.00000000000E+00  0.74219064824E+03  0.74219064824E+03  0.00000000000E+00 0.  1.
         21   -1    0    0  502  503 -0.00000000000E+00 -0.00000000000E+00 -0.60702403876E+02  0.60702403876E+02  0.00000000000E+00 0.  1.
          6    2    1    2  501    0  0.32675944571E+02 -0.29158002571E+01  0.56983635654E+03  0.59433854722E+03  0.16567623918E+03 0.  0.
         24    2    3    3    0    0  0.26018696429E+02  0.52762260969E+02  0.46533589716E+03  0.47565071521E+03  0.79027064683E+02 0.  0.
         -6    2    1    2    0  503 -0.32675944571E+02  0.29158002571E+01  0.11165188782E+03  0.20855450489E+03  0.17306824727E+03 0.  0.
        -24    2    5    5    0    0 -0.27019313974E+02 -0.29153526462E+02  0.14306686739E+03  0.16306351537E+03  0.67391468789E+02 0.  0.
          5    1    3    3  501    0  0.66572481425E+01 -0.55678061226E+02  0.10450045938E+03  0.11868783201E+03  0.47000000000E+01 0. -1.
        -13    1    4    4    0    0  0.59349563024E+01 -0.17539476566E+02  0.18546954387E+03  0.18639154661E+03  0.00000000000E+00 0.  1.
         14    1    4    4    0    0  0.20083740127E+02  0.70301737535E+02  0.27986635329E+03  0.28925916861E+03  0.00000000000E+00 0. -1.
         -5    1    5    5    0  503 -0.56566305974E+01  0.32069326719E+02 -0.31414979578E+02  0.45490989523E+02  0.47000000000E+01 0.  1.
         11    1    6    6    0    0 -0.43512602131E+01 -0.46622781406E+02  0.66573746581E+02  0.81392143019E+02  0.00000000000E+00 0. -1.
        -12    1    6    6    0    0 -0.22668053761E+02  0.17469254944E+02  0.76493120812E+02  0.81671372348E+02  0.00000000000E+00 0.  1.
</event>
<event>
12    1  0.9246030E-003  0.1878627E+03  0.7818608E-02  0.1160670E+00
         21   -1    0    0  503  502  0.00000000000E+00  0.00000000000E+00  0.10169613310E+04  0.10169613310E+04  0.00000000000E+00 0. -1.
         21   -1    0    0  501  503 -0.00000000000E+00 -0.00000000000E+00 -0.41715084682E+02  0.41715084682E+02  0.00000000000E+00 0. -1.
          6    2    1    2  501    0  0.49194488955E+02 -0.56569533559E+02  0.26606686273E+03  0.32503632671E+03  0.17098780181E+03 0.  0.
         24    2    3    3    0    0 -0.67039985880E+01  0.59605245267E+01  0.60428892151E+02  0.10290187639E+03  0.82805034319E+02 0.  0.
         -6    2    1    2    0  502 -0.49194488955E+02  0.56569533559E+02  0.70917938357E+03  0.73364008896E+03  0.17225612375E+03 0.  0.
        -24    2    5    5    0    0 -0.73726390081E+02  0.47678874493E+01  0.59360417361E+03  0.60454731662E+03  0.87482739770E+02 0.  0.
          5    1    3    3  501    0  0.55898487543E+02 -0.62530058085E+02  0.20563797058E+03  0.22213445032E+03  0.47000000000E+01 0. -1.
        -13    1    4    4    0    0  0.74191358415E+01  0.20231933888E+02 -0.14075817365E+02  0.25739140622E+02  0.00000000000E+00 0.  1.
         14    1    4    4    0    0 -0.14123134430E+02 -0.14271409362E+02  0.74504709516E+02  0.77162735769E+02  0.00000000000E+00 0. -1.
         -5    1    5    5    0  502  0.24531901126E+02  0.51801646109E+02  0.11557520996E+03  0.12909277234E+03  0.47000000000E+01 0.  1.
         13    1    6    6    0    0 -0.73968891987E+01 -0.15899955598E+02  0.36961978848E+03  0.37003555315E+03  0.00000000000E+00 0. -1.
        -14    1    6    6    0    0 -0.66329500882E+02  0.20667843047E+02  0.22398438513E+03  0.23451176347E+03  0.00000000000E+00 0.  1.
</event>
<event>
12    1  0.9246030E-003  0.1850172E+03  0.7818608E-02  0.1163151E+00
         21   -1    0    0  503  502  0.00000000000E+00  0.00000000000E+00  0.19046362765E+03  0.19046362765E+03  0.00000000000E+00 0.  1.
         21   -1    0    0  501  503 -0.00000000000E+00 -0.00000000000E+00 -0.25075681340E+03  0.25075681340E+03  0.00000000000E+00 0. -1.
          6    2    1    2  501    0 -0.66401801939E+02  0.55601631968E+01 -0.14799161348E+03  0.23692382075E+03  0.17260146136E+03 0.  0.
         24    2    3    3    0    0 -0.16395166640E+02 -0.63621603347E+02 -0.64234332054E+02  0.11724026888E+03  0.72819786681E+02 0.  0.
         -6    2    1    2    0  502  0.66401801939E+02 -0.55601631968E+01  0.87698427734E+02  0.20429662030E+03  0.17206388384E+03 0.  0.
        -24    2    5    5    0    0  0.10682028350E+03 -0.19902102900E+02  0.41576434795E+02  0.14114067743E+03  0.79908849496E+02 0.  0.
          5    1    3    3  501    0 -0.50006635300E+02  0.69181766544E+02 -0.83757281424E+02  0.11968355187E+03  0.47000000000E+01 0. -1.
        -13    1    4    4    0    0 -0.22273625991E+02 -0.77297936377E+02 -0.42733734136E+02  0.91089282664E+02  0.00000000000E+00 0.  1.
         14    1    4    4    0    0  0.58784593515E+01  0.13676333031E+02 -0.21500597918E+02  0.26150986221E+02  0.00000000000E+00 0. -1.
         -5    1    5    5    0  502 -0.40418481566E+02  0.14341939704E+02  0.46121992939E+02  0.63155942865E+02  0.47000000000E+01 0.  1.
         11    1    6    6    0    0  0.16209576333E+00 -0.12383090443E+02 -0.15577925257E+02  0.19900727607E+02  0.00000000000E+00 0. -1.
        -12    1    6    6    0    0  0.10665818774E+03 -0.75190124573E+01  0.57154360052E+02  0.12123994983E+03  0.00000000000E+00 0.  1.
</event>
<event>
12    1  0.9246030E-003  0.1729827E+03  0.7818608E-02  0.1174804E+00
         21   -1    0    0  503  502  0.00000000000E+00  0.00000000000E+00  0.94228384714E+03  0.94228384714E+03  0.00000000000E+00 0.  1.
         21   -1    0    0  501  503 -0.00000000000E+00 -0.00000000000E+00 -0.34361500555E+02  0.34361500555E+02  0.00000000000E+00 0.  1.
          6    2    1    2  501    0  0.86283676263E+00  0.14658610653E+02  0.31905440144E+03  0.36293075528E+03  0.17235835546E+03 0.  0.
         24    2    3    3    0    0  0.56375663512E+02  0.39426226878E+02  0.18041072264E+03  0.21147360484E+03  0.86257833844E+02 0.  0.
         -6    2    1    2    0  502 -0.86283676263E+00 -0.14658610653E+02  0.58886794514E+03  0.61371459241E+03  0.17223392457E+03 0.  0.
        -24    2    5    5    0    0  0.96811025154E+01  0.21124410554E+01  0.58769212174E+03  0.59332058860E+03  0.80926539215E+02 0.  0.
          5    1    3    3  501    0 -0.55512826749E+02 -0.24767616225E+02  0.13864367880E+03  0.15145715044E+03  0.47000000000E+01 0. -1.
        -11    1    4    4    0    0 -0.13849312136E+02  0.27671881103E+02  0.96945099929E+02  0.10176388775E+03  0.00000000000E+00 0.  1.
         12    1    4    4    0    0  0.70224975647E+02  0.11754345774E+02  0.83465622709E+02  0.10970971709E+03  0.00000000000E+00 0. -1.
         -5    1    5    5    0  502 -0.10543939278E+02 -0.16771051708E+02  0.11758234045E+01  0.20394003814E+02  0.47000000000E+01 0.  1.
         11    1    6    6    0    0 -0.27700810194E+02  0.23821515660E+02  0.33147682483E+03  0.33348415989E+03  0.00000000000E+00 0. -1.
        -12    1    6    6    0    0  0.37381912709E+02 -0.21709074605E+02  0.25621529691E+03  0.25983642871E+03  0.00000000000E+00 0.  1.
</event>
<event>
12    1  0.9246030E-003  0.1849714E+03  0.7818608E-02  0.1163211E+00
         21   -1    0    0  501  502  0.00000000000E+00  0.00000000000E+00  0.30434192733E+03  0.30434192733E+03  0.00000000000E+00 0.  1.
         21   -1    0    0  502  503 -0.00000000000E+00 -0.00000000000E+00 -0.11689432399E+03  0.11689432399E+03  0.00000000000E+00 0.  1.
          6    2    1    2  501    0 -0.64260958062E+02  0.24121790322E+02  0.13635952697E+03  0.22933936370E+03  0.17114698843E+03 0.  0.
         24    2    3    3    0    0 -0.71302003417E+02  0.20667505564E+02  0.16606677994E+03  0.19825690431E+03  0.78844804728E+02 0.  0.
         -6    2    1    2    0  503  0.64260958062E+02 -0.24121790322E+02  0.51088076373E+02  0.19189688762E+03  0.17176464255E+03 0.  0.
        -24    2    5    5    0    0  0.78428031785E+02  0.22144037676E+02 -0.12136661829E+02  0.11214295142E+03  0.76075149808E+02 0.  0.
          5    1    3    3  501    0  0.70410453545E+01  0.34542847581E+01 -0.29707252967E+02  0.31082459390E+02  0.47000000000E+01 0. -1.
        -13    1    4    4    0    0 -0.58289396112E+02 -0.23026492854E+02  0.98466085299E+02  0.11671950577E+03  0.00000000000E+00 0.  1.
         14    1    4    4    0    0 -0.13012607304E+02  0.43693998417E+02  0.67600694637E+02  0.81537398548E+02  0.00000000000E+00 0. -1.
         -5    1    5    5    0  503 -0.14167073723E+02 -0.46265827998E+02  0.63224738202E+02  0.79753936197E+02  0.47000000000E+01 0.  1.
         11    1    6    6    0    0  0.45364176052E+01  0.15044582282E+02  0.24699218606E+02  0.29274048926E+02  0.00000000000E+00 0. -1.
        -12    1    6    6    0    0  0.73891614180E+02  0.70994553936E+01 -0.36835880436E+02  0.82868902493E+02  0.00000000000E+00 0.  1.
</event>
<event>
12    1  0.9246030E-003  0.1801863E+03  0.7818608E-02  0.1167697E+00
         21   -1    0    0  501  502  0.00000000000E+00  0.00000000000E+00  0.26242557710E+03  0.26242557710E+03  0.00000000000E+00 0.  1.
         21   -1    0    0  502  503 -0.00000000000E+00 -0.00000000000E+00 -0.14572693212E+03  0.14572693212E+03  0.00000000000E+00 0.  1.
          6    2    1    2  501    0  0.33660962137E+02  0.36516195846E+02  0.13799016734E+03  0.22671258286E+03  0.17288960644E+03 0.  0.
         24    2    3    3    0    0 -0.44522899973E+02  0.43434034354E+02  0.67471830199E+02  0.12109298876E+03  0.79007974882E+02 0.  0.
         -6    2    1    2    0  503 -0.33660962137E+02 -0.36516195846E+02 -0.21291522356E+02  0.18143992637E+03  0.17320688504E+03 0.  0.
        -24    2    5    5    0    0  0.15699543396E+02 -0.25733314873E+02  0.44739121639E+02  0.98164083683E+02  0.82011701379E+02 0.  0.
          5    1    3    3  501    0  0.78183862111E+02 -0.69178385083E+01  0.70518337139E+02  0.10561959410E+03  0.47000000000E+01 0. -1.
        -13    1    4    4    0    0 -0.21102514550E+01 -0.17079795811E+02  0.37666224958E+02  0.41411557430E+02  0.00000000000E+00 0.  1.
         14    1    4    4    0    0 -0.42412648518E+02  0.60513830166E+02  0.29805605240E+02  0.79681431334E+02  0.00000000000E+00 0. -1.
         -5    1    5    5    0  503 -0.49360505533E+02 -0.10782880973E+02 -0.66030643994E+02  0.83275842685E+02  0.47000000000E+01 0.  1.
         13    1    6    6    0    0  0.36874032736E+02  0.38623679249E+01 -0.40522034304E+01  0.37296548485E+02  0.00000000000E+00 0. -1.
        -14    1    6    6    0    0 -0.21174489341E+02 -0.29595682798E+02  0.48791325069E+02  0.60867535198E+02  0.00000000000E+00 0.  1.
</event>
<event>
12    1  0.9246030E-003  0.1945104E+03  0.7818608E-02  0.1155892E+00
         21   -1    0    0  503  502  0.00000000000E+00  0.00000000000E+00  0.14372182114E+04  0.14372182114E+04  0.00000000000E+00 0.  1.
         21   -1    0    0  501  503 -0.00000000000E+00 -0.00000000000E+00 -0.25458633904E+02  0.25458633904E+02  0.00000000000E+00 0.  1.
          6    2    1    2  501    0  0.71192402654E+02 -0.21590853954E+02  0.69281434389E+03  0.71788388008E+03  0.17271660898E+03 0.  0.
         24    2    3    3    0    0  0.10658972935E+03 -0.22907415751E+02  0.63826895233E+03  0.65267656598E+03  0.81934877609E+02 0.  0.
         -6    2    1    2    0  502 -0.71192402654E+02  0.21590853954E+02  0.71894523358E+03  0.74479296520E+03  0.17972142038E+03 0.  0.
        -24    2    5    5    0    0 -0.35271649606E+02  0.81834014567E+02  0.37161013840E+03  0.39041562782E+03  0.79933549139E+02 0.  0.
          5    1    3    3  501    0 -0.35397326701E+02  0.13165617967E+01  0.54545391556E+02  0.65207314103E+02  0.47000000000E+01 0. -1.
        -11    1    4    4    0    0  0.16780722410E+02  0.40430307344E+00  0.14914114227E+02  0.22454106723E+02  0.00000000000E+00 0.  1.
         12    1    4    4    0    0  0.89809006944E+02 -0.23311718824E+02  0.62335483810E+03  0.63022245926E+03  0.00000000000E+00 0. -1.
         -5    1    5    5    0  502 -0.35920753047E+02 -0.60243160613E+02  0.34733509519E+03  0.35437733738E+03  0.47000000000E+01 0.  1.
         13    1    6    6    0    0 -0.51205358484E+02  0.59760779018E+02  0.33861373955E+03  0.34763861129E+03  0.00000000000E+00 0. -1.
        -14    1    6    6    0    0  0.15933708877E+02  0.22073235549E+02  0.32996398845E+02  0.42777016527E+02  0.00000000000E+00 0.  1.
</event>
<event>
12    1  0.9246030E-003  0.2048924E+03  0.7818608E-02  0.1146858E+00
         21   -1    0    0  503  502  0.00000000000E+00  0.00000000000E+00  0.78054252916E+03  0.78054252916E+03  0.00000000000E+00 0.  1.
         21   -1    0    0  501  503 -0.00000000000E+00 -0.00000000000E+00 -0.52766641101E+02  0.52766641101E+02  0.00000000000E+00 0.  1.
          6    2    1    2  501    0 -0.97161444125E+02 -0.23175657704E+02  0.32974043710E+03  0.38821339119E+03  0.17889500805E+03 0.  0.
         24    2    3    3    0    0 -0.33378073445E+02 -0.20634990332E+02  0.86086241287E+02  0.13629231128E+03  0.98106343128E+02 0.  0.
         -6    2    1    2    0  502  0.97161444125E+02  0.23175657704E+02  0.39803545096E+03  0.44509577907E+03  0.17233854761E+03 0.  0.
        -24    2    5    5    0    0 -0.92418338997E+01 -0.11795244769E+02  0.13252732368E+03  0.15689224467E+03  0.82626543078E+02 0.  0.
          5    1    3    3  501    0 -0.63783370680E+02 -0.25406673726E+01  0.24365419581E+03  0.25192107991E+03  0.47000000000E+01 0. -1.
        -13    1    4    4    0    0 -0.11746887649E+02  0.39768800382E+02  0.32069337684E+02  0.52421267371E+02  0.00000000000E+00 0.  1.
         14    1    4    4    0    0 -0.21631185795E+02 -0.60403790713E+02  0.54016903603E+02  0.83871043909E+02  0.00000000000E+00 0. -1.
         -5    1    5    5    0  502  0.10640327802E+03  0.34970902473E+02  0.26550812728E+03  0.28820353440E+03  0.47000000000E+01 0.  1.
         11    1    6    6    0    0  0.11138820253E+02 -0.24884413189E+02  0.58037371367E+01  0.27874552932E+02  0.00000000000E+00 0. -1.
        -12    1    6    6    0    0 -0.20380654153E+02  0.13089168420E+02  0.12672358654E+03  0.12901769173E+03  0.00000000000E+00 0.  1.
</event>
<event>
12    1  0.9246030E-003  0.1774347E+03  0.7818608E-02  0.1170372E+00
         21   -1    0    0  501  502  0.00000000000E+00  0.00000000000E+00  0.80000441152E+01  0.80000441152E+01  0.00000000000E+00 0.  1.
         21   -1    0    0  502  503 -0.00000000000E+00 -0.00000000000E+00 -0.41307089025E+04  0.41307089025E+04  0.00000000000E+00 0.  1.
          6    2    1    2  501    0  0.10452290588E+02  0.43037589508E+02 -0.16062495478E+04  0.16160200119E+04  0.17181846364E+03 0.  0.
         24    2    3    3    0    0  0.30398763840E+02 -0.25473923971E+02 -0.52635990803E+03  0.53376522977E+03  0.79231067698E+02 0.  0.
         -6    2    1    2    0  503 -0.10452290588E+02 -0.43037589508E+02 -0.25164593105E+04  0.25226889347E+04  0.17155324304E+03 0.  0.
        -24    2    5    5    0    0  0.15556457045E+02 -0.88630696949E+02 -0.19677942960E+04  0.19714987910E+04  0.80595828243E+02 0.  0.
          5    1    3    3  501    0 -0.19946473252E+02  0.68511513479E+02 -0.10798896398E+04  0.10822547821E+04  0.47000000000E+01 0. -1.
        -13    1    4    4    0    0  0.42967956918E+02  0.12474095216E+02 -0.19865966364E+03  0.20363572950E+03  0.00000000000E+00 0.  1.
         14    1    4    4    0    0 -0.12569193078E+02 -0.37948019187E+02 -0.32770024439E+03  0.33012950027E+03  0.00000000000E+00 0. -1.
         -5    1    5    5    0  503 -0.26008747633E+02  0.45593107441E+02 -0.54866501454E+03  0.55119014376E+03  0.47000000000E+01 0.  1.
         13    1    6    6    0    0 -0.13214655628E+02 -0.76814018708E+02 -0.93726954806E+03  0.94050477209E+03  0.00000000000E+00 0. -1.
        -14    1    6    6    0    0  0.28771112673E+02 -0.11816678241E+02 -0.10305247479E+04  0.10309940189E+04  0.00000000000E+00 0.  1.
</event>
<event>
12    1  0.9246030E-003  0.1976310E+03  0.7818608E-02  0.1151850E+00
         21   -1    0    0  501  502  0.00000000000E+00  0.00000000000E+00  0.12719070244E+03  0.12719070244E+03  0.00000000000E+00 0.  1.
         21   -1    0    0  502  503 -0.00000000000E+00 -0.00000000000E+00 -0.32273528042E+03  0.32273528042E+03  0.00000000000E+00 0. -1.
          6    2    1    2  501    0 -0.95728912977E+02  0.20738404270E+02 -0.14830639051E+03  0.24672789327E+03  0.17113083199E+03 0.  0.
         24    2    3    3    0    0  0.27241066860E+01  0.45887672107E+01 -0.11739162117E+03  0.14217350158E+03  0.80025210328E+02 0.  0.
         -6    2    1    2    0  503  0.95728912977E+02 -0.20738404270E+02 -0.47238187469E+02  0.20319808959E+03  0.17165054927E+03 0.  0.
        -24    2    5    5    0    0  0.31332220609E+02 -0.32985663522E+02  0.31869941108E+02  0.10035298589E+03  0.83577907278E+02 0.  0.
          5    1    3    3  501    0 -0.98453019663E+02  0.16149637059E+02 -0.30914769338E+02  0.10455439169E+03  0.47000000000E+01 0. -1.
        -11    1    4    4    0    0  0.12025542566E+02  0.35985941816E+02 -0.28534012448E+02  0.47474114513E+02  0.00000000000E+00 0.  1.
         12    1    4    4    0    0 -0.93014358797E+01 -0.31397174605E+02 -0.88857608723E+02  0.94699387065E+02  0.00000000000E+00 0. -1.
         -5    1    5    5    0  503  0.64396692368E+02  0.12247259252E+02 -0.79108128577E+02  0.10284510370E+03  0.47000000000E+01 0.  1.
         13    1    6    6    0    0  0.11733960996E+02 -0.59706411746E+02  0.13007836676E+02  0.62223349792E+02  0.00000000000E+00 0. -1.
        -14    1    6    6    0    0  0.19598259612E+02  0.26720748225E+02  0.18862104432E+02  0.38129636100E+02  0.00000000000E+00 0.  1.
</event>
<event>
12    1  0.9246030E-003  0.2543267E+03  0.7818608E-02  0.1110898E+00
         21   -1    0    0  501  502  0.00000000000E+00  0.00000000000E+00  0.75132448975E+03  0.75132448975E+03  0.00000000000E+00 0.  1.
         21   -1    0    0  502  503 -0.00000000000E+00 -0.00000000000E+00 -0.93896617756E+02  0.93896617756E+02  0.00000000000E+00 0.  1.
          6    2    1    2  501    0 -0.37329171742E+02 -0.18474237851E+03  0.45438383521E+03  0.51978457163E+03  0.16789317355E+03 0.  0.
         24    2    3    3    0    0 -0.30383022462E+02 -0.15693066270E+03  0.45763799092E+03  0.49055410712E+03  0.75235897832E+02 0.  0.
         -6    2    1    2    0  503  0.37329171742E+02  0.18474237851E+03  0.20304403679E+03  0.32543653588E+03  0.17075961036E+03 0.  0.
        -24    2    5    5    0    0  0.87634434557E+02  0.10040851269E+03  0.13905189581E+03  0.20813391657E+03  0.78883673575E+02 0.  0.
          5    1    3    3  501    0 -0.69461492800E+01 -0.27811715811E+02 -0.32541557178E+01  0.29230464513E+02  0.47000000000E+01 0. -1.
        -11    1    4    4    0    0 -0.39828707737E+02 -0.50543276828E+02  0.11654804437E+03  0.13313299906E+03  0.00000000000E+00 0.  1.
         12    1    4    4    0    0  0.94456852751E+01 -0.10638738587E+03  0.34108994656E+03  0.35742110806E+03  0.00000000000E+00 0. -1.
         -5    1    5    5    0  503 -0.50305262815E+02  0.84333865817E+02  0.63992140975E+02  0.11730261931E+03  0.47000000000E+01 0.  1.
         13    1    6    6    0    0  0.28846153512E+02  0.56345599210E+02  0.11421066559E+03  0.13057949019E+03  0.00000000000E+00 0. -1.
        -14    1    6    6    0    0  0.58788281045E+02  0.44062913480E+02  0.24841230223E+02  0.77554426383E+02  0.00000000000E+00 0.  1.
</event>
<event>
12    1  0.9246030E-003  0.2299954E+03  0.7818608E-02  0.1126651E+00
         21   -1    0    0  503  502  0.00000000000E+00  0.00000000000E+00  0.12237000077E+04  0.12237000077E+04  0.00000000000E+00 0. -1.
         21   -1    0    0  501  503 -0.00000000000E+00 -0.00000000000E+00 -0.67406278379E+02  0.67406278379E+02  0.00000000000E+00 0. -1.
          6    2    1    2  501    0  0.25260060458E+02 -0.14821113265E+03  0.19148444395E+03  0.29927275274E+03  0.17404964166E+03 0.  0.
         24    2    3    3    0    0  0.22184129904E+02 -0.33563003228E+02  0.17368701022E+02  0.90725307625E+02  0.79440536650E+02 0.  0.
         -6    2    1    2    0  502 -0.25260060458E+02  0.14821113265E+03  0.96480928534E+03  0.99183353330E+03  0.17398905201E+03 0.  0.
        -24    2    5    5    0    0 -0.81087258859E+02  0.12057028726E+03  0.60242324130E+03  0.62410207241E+03  0.74008765799E+02 0.  0.
          5    1    3    3  501    0  0.30759305546E+01 -0.11464812942E+03  0.17411574293E+03  0.20854744511E+03  0.47000000000E+01 0. -1.
        -11    1    4    4    0    0  0.45981363550E+02 -0.41910543930E+01  0.24479595106E+02  0.52259939795E+02  0.00000000000E+00 0.  1.
         12    1    4    4    0    0 -0.23797233646E+02 -0.29371948835E+02 -0.71108940840E+01  0.38465367830E+02  0.00000000000E+00 0. -1.
         -5    1    5    5    0  502  0.55827198400E+02  0.27640845386E+02  0.36238604404E+03  0.36773146089E+03  0.47000000000E+01 0.  1.
         13    1    6    6    0    0 -0.29373825548E+02  0.64551722653E+02  0.42669215150E+03  0.43254588043E+03  0.00000000000E+00 0. -1.
        -14    1    6    6    0    0 -0.51713433311E+02  0.56018564611E+02  0.17573108979E+03  0.19155619198E+03  0.00000000000E+00 0.  1.
</event>
<event>
12    1  0.9246030E-003  0.1809731E+03  0.7818608E-02  0.1168072E+00
         21   -1    0    0  501  502  0.00000000000E+00  0.00000000000E+00  0.75146921382E+02  0.75146921382E+02  0.00000000000E+00 0. -1.
         21   -1    0    0  502  503 -0.00000000000E+00 -0.00000000000E+00 -0.42617736482E+03  0.42617736482E+03  0.00000000000E+00 0. -1.
          6    2    1    2  501    0  0.41538785760E+02  0.38935739941E+02 -0.19588448852E+03  0.26668708993E+03  0.17178419171E+03 0.  0.
         24    2    3    3    0    0  0.44250623517E+02 -0.79565358159E+01 -0.32958738278E+02  0.97060648347E+02  0.79454810332E+02 0.  0.
         -6    2    1    2    0  503 -0.41538785760E+02 -0.38935739941E+02 -0.15514595492E+03  0.23463719628E+03  0.16656195239E+03 0.  0.
        -24    2    5    5    0    0 -0.12525531799E+02 -0.76457143519E+02 -0.14809555328E+03  0.18645605064E+03  0.82649756050E+02 0.  0.
          5    1    3    3  501    0 -0.27118377566E+01  0.46892275757E+02 -0.16292575025E+03  0.16962644158E+03  0.47000000000E+01 0. -1.
        -11    1    4    4    0    0 -0.51022289656E+01 -0.34255701393E+02 -0.66825758892E+01  0.35272406196E+02  0.00000000000E+00 0.  1.
         12    1    4    4    0    0  0.49352852482E+02  0.26299165577E+02 -0.26276162389E+02  0.61788242151E+02  0.00000000000E+00 0. -1.
         -5    1    5    5    0  503 -0.29013253961E+02  0.37521403579E+02 -0.70504016311E+01  0.48181145639E+02  0.47000000000E+01 0.  1.
         13    1    6    6    0    0  0.19109123998E+02 -0.79665872208E+01 -0.51452657997E+00  0.20709656432E+02  0.00000000000E+00 0. -1.
        -14    1    6    6    0    0 -0.31634655797E+02 -0.68490556299E+02 -0.14758102670E+03  0.16574639421E+03  0.00000000000E+00 0.  1.
</event>
<event>
12    1  0.9246030E-003  0.1846774E+03  0.7818608E-02  0.1163385E+00
         21   -1    0    0  501  502  0.00000000000E+00  0.00000000000E+00  0.44693724490E+03  0.44693724490E+03  0.00000000000E+00 0.  1.
         21   -1    0    0  502  503 -0.00000000000E+00 -0.00000000000E+00 -0.90565820632E+02  0.90565820632E+02  0.00000000000E+00 0.  1.
          6    2    1    2  501    0  0.56416604807E+02  0.36103668822E+02  0.28508982347E+03  0.33967918460E+03  0.17210297152E+03 0.  0.
         24    2    3    3    0    0  0.27480763358E+02 -0.42455644486E+02  0.19751225659E+03  0.21843245744E+03  0.78383498618E+02 0.  0.
         -6    2    1    2    0  503 -0.56416604807E+02 -0.36103668822E+02  0.71281600800E+02  0.19782388093E+03  0.17195032147E+03 0.  0.
        -24    2    5    5    0    0 -0.46861914229E+02 -0.79237587241E+02  0.10826801251E+02  0.12279921952E+03  0.80546846329E+02 0.  0.
          5    1    3    3  501    0  0.28935841449E+02  0.78559313308E+02  0.87577566874E+02  0.12124672716E+03  0.47000000000E+01 0. -1.
        -11    1    4    4    0    0 -0.87500516295E+01  0.16688180844E+02  0.78076812294E+02  0.80318412592E+02  0.00000000000E+00 0.  1.
         12    1    4    4    0    0  0.36230814988E+02 -0.59143825330E+02  0.11943544430E+03  0.13811404485E+03  0.00000000000E+00 0. -1.
         -5    1    5    5    0  503 -0.95546905781E+01  0.43133918419E+02  0.60454799549E+02  0.75024661404E+02  0.47000000000E+01 0.  1.
         11    1    6    6    0    0  0.86764443805E+01 -0.57301488536E+01 -0.22532644375E+02  0.24816030213E+02  0.00000000000E+00 0. -1.
        -12    1    6    6    0    0 -0.55538358610E+02 -0.73507438387E+02  0.33359445626E+02  0.97983189312E+02  0.00000000000E+00 0.  1.
</event>
<event>
12    1  0.9246030E-003  0.1784921E+03  0.7818608E-02  0.1170208E+00
         21   -1    0    0  503  502  0.00000000000E+00  0.00000000000E+00  0.10169452133E+04  0.10169452133E+04  0.00000000000E+00 0.  1.
         21   -1    0    0  501  503 -0.00000000000E+00 -0.00000000000E+00 -0.31085525978E+02  0.31085525978E+02  0.00000000000E+00 0. -1.
          6    2    1    2  501    0  0.31219674040E+02 -0.34736696470E+02  0.43733570831E+03  0.47235784753E+03  0.17227335322E+03 0.  0.
         24    2    3    3    0    0  0.54446173147E+02  0.33707111582E+02  0.27941106853E+03  0.29861577729E+03  0.83667688425E+02 0.  0.
         -6    2    1    2    0  502 -0.31219674040E+02  0.34736696470E+02  0.54852397901E+03  0.57567289175E+03  0.16834315138E+03 0.  0.
        -24    2    5    5    0    0 -0.31462987160E+02  0.71961255935E+02  0.26434563957E+03  0.28902825873E+03  0.86546954141E+02 0.  0.
          5    1    3    3  501    0 -0.23226499107E+02 -0.68443808052E+02  0.15792463978E+03  0.17374207024E+03  0.47000000000E+01 0. -1.
        -11    1    4    4    0    0  0.47194194356E+02 -0.22495591874E+01  0.61061317554E+02  0.77206456977E+02  0.00000000000E+00 0.  1.
         12    1    4    4    0    0  0.72519787909E+01  0.35956670769E+02  0.21834975098E+03  0.22140932031E+03  0.00000000000E+00 0. -1.
         -5    1    5    5    0  502  0.24331311942E+00 -0.37224559464E+02  0.28417833944E+03  0.28664463302E+03  0.47000000000E+01 0.  1.
         11    1    6    6    0    0 -0.88569753893E+01  0.13435482297E+02 -0.12330820377E+01  0.16139352184E+02  0.00000000000E+00 0. -1.
        -12    1    6    6    0    0 -0.22606011770E+02  0.58525773637E+02  0.26557872160E+03  0.27288890655E+03  0.00000000000E+00 0.  1.
</event>
<event>
12    1  0.9246030E-003  0.2366933E+03  0.7818608E-02  0.1122044E+00
         21   -1    0    0  501  502  0.00000000000E+00  0.00000000000E+00  0.22762135976E+03  0.22762135976E+03  0.00000000000E+00 0.  1.
         21   -1    0    0  502  503 -0.00000000000E+00 -0.00000000000E+00 -0.26923494704E+03  0.26923494704E+03  0.00000000000E+00 0.  1.
          6    2    1    2  501    0 -0.91747737883E+02 -0.13398608403E+03 -0.93866229552E+02  0.25462639615E+03  0.17220282938E+03 0.  0.
         24    2    3    3    0    0 -0.78338588685E+01 -0.47484747326E+01 -0.46101891738E+02  0.93234262779E+02  0.80519103181E+02 0.  0.
         -6    2    1    2    0  503  0.91747737883E+02  0.13398608403E+03  0.52252642266E+02  0.24222991065E+03  0.17197404709E+03 0.  0.
        -24    2    5    5    0    0  0.13039252157E+03  0.10756587167E+03  0.47832939728E+02  0.19497453321E+03  0.84583994037E+02 0.  0.
          5    1    3    3  501    0 -0.83913879015E+02 -0.12923760929E+03 -0.47764337813E+02  0.16139213337E+03  0.47000000000E+01 0. -1.
        -11    1    4    4    0    0 -0.38272209171E+02 -0.23834785600E+02 -0.26779514621E+02  0.52440455784E+02  0.00000000000E+00 0.  1.
         12    1    4    4    0    0  0.30438350303E+02  0.19086310868E+02 -0.19322377117E+02  0.40793806995E+02  0.00000000000E+00 0. -1.
         -5    1    5    5    0  503 -0.38644783685E+02  0.26420212355E+02  0.44197025379E+01  0.47255377445E+02  0.47000000000E+01 0.  1.
         13    1    6    6    0    0  0.26305847498E+02  0.89918541092E+01 -0.22058890359E+02  0.35488669978E+02  0.00000000000E+00 0. -1.
        -14    1    6    6    0    0  0.10408667407E+03  0.98574017562E+02  0.69891830087E+02  0.15948586323E+03  0.00000000000E+00 0.  1.
</event>
<event>
12    1  0.9246030E-003  0.1922646E+03  0.7818608E-02  0.1156452E+00
         21   -1    0    0  501  502  0.00000000000E+00  0.00000000000E+00  0.23898889301E+03  0.23898889301E+03  0.00000000000E+00 0.  1.
         21   -1    0    0  502  503 -0.00000000000E+00 -0.00000000000E+00 -0.19574669273E+03  0.19574669273E+03  0.00000000000E+00 0.  1.
          6    2    1    2  501    0  0.22567919731E+02  0.81482990257E+02 -0.78025314561E+02  0.20742196091E+03  0.17258948825E+03 0.  0.
         24    2    3    3    0    0  0.26395081271E+02  0.93631618443E+02 -0.11490237177E+03  0.16812509487E+03  0.74832561077E+02 0.  0.
         -6    2    1    2    0  503 -0.22567919731E+02 -0.81482990257E+02  0.12126751484E+03  0.22731362482E+03  0.17267566467E+03 0.  0.
        -24    2    5    5    0    0 -0.52317080255E+01 -0.59967671987E+02 -0.33054164921E+01  0.99626670208E+02  0.79316172287E+02 0.  0.
          5    1    3    3  501    0 -0.38271615404E+01 -0.12148628186E+02  0.36877057213E+02  0.39296866045E+02  0.47000000000E+01 0. -1.
        -13    1    4    4    0    0  0.84105478602E+00  0.96861401058E+02 -0.87792489445E+02  0.13073010208E+03  0.00000000000E+00 0.  1.
         14    1    4    4    0    0  0.25554026485E+02 -0.32297826148E+01 -0.27109882329E+02  0.37394992783E+02  0.00000000000E+00 0. -1.
         -5    1    5    5    0  503 -0.17336211705E+02 -0.21515318270E+02  0.12457293133E+03  0.12768695461E+03  0.47000000000E+01 0.  1.
         13    1    6    6    0    0  0.13635480483E+02  0.97650509848E+01 -0.19370127685E+02  0.25621951433E+02  0.00000000000E+00 0. -1.
        -14    1    6    6    0    0 -0.18867188508E+02 -0.69732722972E+02  0.16064711193E+02  0.74004718775E+02  0.00000000000E+00 0.  1.
</event>
<event>
12    1  0.9246030E-003  0.1761036E+03  0.7818608E-02  0.1171679E+00
         21   -1    0    0  501  502  0.00000000000E+00  0.00000000000E+00  0.19222605719E+02  0.19222605719E+02  0.00000000000E+00 0.  1.
         21   -1    0    0  502  503 -0.00000000000E+00 -0.00000000000E+00 -0.23423691708E+04  0.23423691708E+04  0.00000000000E+00 0.  1.
          6    2    1    2  501    0  0.30499875508E+02  0.22807731692E+02 -0.50243988480E+03  0.53240804826E+03  0.17193620034E+03 0.  0.
         24    2    3    3    0    0  0.24851874369E+01  0.77956637122E+02 -0.35682762340E+03  0.37413219670E+03  0.81027985040E+02 0.  0.
         -6    2    1    2    0  503 -0.30499875508E+02 -0.22807731692E+02 -0.18207066803E+04  0.18291837282E+04  0.17172612225E+03 0.  0.
        -24    2    5    5    0    0  0.40480581201E+02 -0.35308943386E+02 -0.12878781995E+04  0.12914823376E+04  0.80068550465E+02 0.  0.
          5    1    3    3  501    0  0.28014688072E+02 -0.55148905430E+02 -0.14561226140E+03  0.15827585156E+03  0.47000000000E+01 0. -1.
        -13    1    4    4    0    0  0.14433965805E+02  0.71758789724E+02 -0.15039544187E+03  0.16726162802E+03  0.00000000000E+00 0.  1.
         14    1    4    4    0    0 -0.11948778368E+02  0.61978473976E+01 -0.20643218153E+03  0.20687056868E+03  0.00000000000E+00 0. -1.
         -5    1    5    5    0  503 -0.70980456709E+02  0.12501211694E+02 -0.53282848076E+03  0.53770139059E+03  0.47000000000E+01 0.  1.
         11    1    6    6    0    0  0.63904209969E+02 -0.16198301299E+02 -0.83749263279E+03  0.84008335479E+03  0.00000000000E+00 0. -1.
        -12    1    6    6    0    0 -0.23423628768E+02 -0.19110642086E+02 -0.45038556671E+03  0.45139898286E+03  0.00000000000E+00 0.  1.
</event>
<event>
12    1  0.9246030E-003  0.1836769E+03  0.7818608E-02  0.1164567E+00
         21   -1    0    0  503  502  0.00000000000E+00  0.00000000000E+00  0.96117575827E+02  0.96117575827E+02  0.00000000000E+00 0.  1.
         21   -1    0    0  501  503 -0.00000000000E+00 -0.00000000000E+00 -0.36358902489E+03  0.36358902489E+03  0.00000000000E+00 0.  1.
          6    2    1    2  501    0  0.58315882258E+02 -0.17290517979E+02 -0.17972562816E+03  0.25614698258E+03  0.17207635262E+03 0.  0.
         24    2    3    3    0    0  0.96882544558E+02 -0.33345291321E+02 -0.16680205902E+03  0.21216685267E+03  0.81815099979E+02 0.  0.
         -6    2    1    2    0  502 -0.58315882258E+02  0.17290517979E+02 -0.87745820899E+02  0.20355961813E+03  0.17331325660E+03 0.  0.
        -24    2    5    5    0    0 -0.33976505879E+02 -0.26446630668E+02 -0.11405235825E+03  0.14681926810E+03  0.81817662130E+02 0.  0.
          5    1    3    3  501    0 -0.38566662301E+02  0.16054773341E+02 -0.12923569146E+02  0.43980129917E+02  0.47000000000E+01 0. -1.
        -13    1    4    4    0    0  0.81808147643E+02 -0.50862496186E+02 -0.89523776834E+02  0.13150693198E+03  0.00000000000E+00 0.  1.
         14    1    4    4    0    0  0.15074396916E+02  0.17517204866E+02 -0.77278282181E+02  0.80659920689E+02  0.00000000000E+00 0. -1.
         -5    1    5    5    0  502 -0.24339376378E+02  0.43737148647E+02  0.26306537355E+02  0.56740350033E+02  0.47000000000E+01 0.  1.
         11    1    6    6    0    0 -0.58894168462E+02 -0.17324252171E+02 -0.98494763563E+02  0.11605977443E+03  0.00000000000E+00 0. -1.
        -12    1    6    6    0    0  0.24917662583E+02 -0.91223784963E+01 -0.15557594691E+02  0.30759493666E+02  0.00000000000E+00 0.  1.
</event>
<event>
12    1  0.9246030E-003  0.2768705E+03  0.7818608E-02  0.1097429E+00
         21   -1    0    0  501  502  0.00000000000E+00  0.00000000000E+00  0.16938008583E+03  0.16938008583E+03  0.00000000000E+00 0. -1.
         21   -1    0    0  502  503 -0.00000000000E+00 -0.00000000000E+00 -0.55577676329E+03  0.55577676329E+03  0.00000000000E+00 0. -1.
          6    2    1    2  501    0  0.11863975617E+03 -0.18176050814E+03 -0.34956246700E+03  0.44584691900E+03  0.17167784593E+03 0.  0.
         24    2    3    3    0    0  0.20049695574E+02 -0.12827305408E+02 -0.12030295531E+03  0.14444943936E+03  0.76330265415E+02 0.  0.
         -6    2    1    2    0  503 -0.11863975617E+03  0.18176050814E+03 -0.36834210462E+02  0.27930993012E+03  0.17188660198E+03 0.  0.
        -24    2    5    5    0    0 -0.12282786500E+03  0.18461409068E+03 -0.69958519204E+02  0.24547218465E+03  0.78697853393E+02 0.  0.
          5    1    3    3  501    0  0.98590060598E+02 -0.16893320273E+03 -0.22925951169E+03  0.30139747964E+03  0.47000000000E+01 0. -1.
        -11    1    4    4    0    0 -0.29090005435E+02 -0.97690488851E+01 -0.48249922395E+02  0.57181445797E+02  0.00000000000E+00 0.  1.
         12    1    4    4    0    0  0.49139701009E+02 -0.30582565227E+01 -0.72053032912E+02  0.87267993560E+02  0.00000000000E+00 0. -1.
         -5    1    5    5    0  503  0.41881088306E+01 -0.28535825410E+01  0.33124308742E+02  0.33837745470E+02  0.47000000000E+01 0.  1.
         13    1    6    6    0    0 -0.10350403338E+02  0.51782078715E+02  0.10302939220E+02  0.53802091799E+02  0.00000000000E+00 0. -1.
        -14    1    6    6    0    0 -0.11247746166E+03  0.13283201196E+03 -0.80261458424E+02  0.19167009285E+03  0.00000000000E+00 0.  1.
</event>
<event>
12    1  0.9246030E-003  0.1971131E+03  0.7818608E-02  0.1152262E+00
         21   -1    0    0  501  502  0.00000000000E+00  0.00000000000E+00  0.34068686133E+03  0.34068686133E+03  0.00000000000E+00 0.  1.
         21   -1    0    0  502  503 -0.00000000000E+00 -0.00000000000E+00 -0.11426314382E+03  0.11426314382E+03  0.00000000000E+00 0.  1.
          6    2    1    2  501    0  0.45648702452E+02 -0.85050849940E+02  0.99826105310E+02  0.22068408132E+03  0.17151898243E+03 0.  0.
         24    2    3    3    0    0  0.39576956236E+02 -0.12555154739E+03  0.85110588933E+02  0.17691412566E+03  0.82007737387E+02 0.  0.
         -6    2    1    2    0  503 -0.45648702452E+02  0.85050849940E+02  0.12659761220E+03  0.23426592383E+03  0.17186074754E+03 0.  0.
        -24    2    5    5    0    0  0.33562756745E+02  0.76043427395E+02  0.59047404197E+02  0.12966807715E+03  0.80113374662E+02 0.  0.
          5    1    3    3  501    0  0.60717462165E+01  0.40500697451E+02  0.14715516376E+02  0.43769955658E+02  0.47000000000E+01 0. -1.
        -11    1    4    4    0    0  0.24350747218E+02 -0.23529971836E+02 -0.11324461841E+02  0.35705208313E+02  0.00000000000E+00 0.  1.
         12    1    4    4    0    0  0.15226209018E+02 -0.10202157555E+03  0.96435050774E+02  0.14120891734E+03  0.00000000000E+00 0. -1.
         -5    1    5    5    0  503 -0.79211459197E+02  0.90074225453E+01  0.67550208000E+02  0.10459784668E+03  0.47000000000E+01 0.  1.
         11    1    6    6    0    0  0.32596436947E+01 -0.14419787106E+02  0.23687642236E+02  0.27922391228E+02  0.00000000000E+00 0. -1.
        -12    1    6    6    0    0  0.30303113050E+02  0.90463214500E+02  0.35359761961E+02  0.10174568592E+03  0.00000000000E+00 0.  1.
</event>
<event>
12    1  0.9246030E-003  0.1924711E+03  0.7818608E-02  0.1156309E+00
         21   -1    0    0  501  502  0.00000000000E+00  0.00000000000E+00  0.40826335437E+03  0.40826335437E+03  0.00000000000E+00 0. -1.
         21   -1    0    0  502  503 -0.00000000000E+00 -0.00000000000E+00 -0.14774327361E+03  0.14774327361E+03  0.00000000000E+00 0. -1.
          6    2    1    2  501    0  0.14864691464E+02 -0.83310351018E+02  0.30307620374E+03  0.35888699346E+03  0.17257785247E+03 0.  0.
         24    2    3    3    0    0 -0.20831350241E+02 -0.76812746239E+02  0.30004720510E+03  0.32217608100E+03  0.86226206815E+02 0.  0.
         -6    2    1    2    0  503 -0.14864691464E+02  0.83310351018E+02 -0.42556122984E+02  0.19711963452E+03  0.17286860059E+03 0.  0.
        -24    2    5    5    0    0  0.22705065247E+02  0.11300088649E+03 -0.50611951481E+02  0.14833438174E+03  0.78465271542E+02 0.  0.
          5    1    3    3  501    0  0.35696041705E+02 -0.64976047791E+01  0.30289986451E+01  0.36710912466E+02  0.47000000000E+01 0. -1.
        -11    1    4    4    0    0  0.20171404076E+02  0.79359939604E+01  0.38249720933E+02  0.43964834743E+02  0.00000000000E+00 0.  1.
         12    1    4    4    0    0 -0.41002754316E+02 -0.84748740200E+02  0.26179748416E+03  0.27821124625E+03  0.00000000000E+00 0. -1.
         -5    1    5    5    0  503 -0.37569756711E+02 -0.29690535472E+02  0.80558284970E+01  0.48785252779E+02  0.47000000000E+01 0.  1.
         11    1    6    6    0    0  0.38996324001E+02  0.34757150943E+02 -0.43714458400E+02  0.68115539347E+02  0.00000000000E+00 0. -1.
        -12    1    6    6    0    0 -0.16291258755E+02  0.78243735547E+02 -0.68974930817E+01  0.80218842394E+02  0.00000000000E+00 0.  1.
</event>
<event>
12    1  0.9246030E-003  0.1861329E+03  0.7818608E-02  0.1162846E+00
         21   -1    0    0  501  502  0.00000000000E+00  0.00000000000E+00  0.10459944375E+03  0.10459944375E+03  0.00000000000E+00 0.  1.
         21   -1    0    0  502  503 -0.00000000000E+00 -0.00000000000E+00 -0.33984931403E+03  0.33984931403E+03  0.00000000000E+00 0.  1.
          6    2    1    2  501    0 -0.62613069854E+02 -0.13487571758E+02 -0.16329591921E+03  0.24489216940E+03  0.17089267478E+03 0.  0.
         24    2    3    3    0    0 -0.43312165199E+02 -0.29600404661E+02 -0.18707753913E+03  0.20996648042E+03  0.79597673605E+02 0.  0.
         -6    2    1    2    0  503  0.62613069854E+02  0.13487571758E+02 -0.71953951066E+02  0.19955658838E+03  0.17476598578E+03 0.  0.
        -24    2    5    5    0    0  0.40294993087E+02  0.75455217249E+02 -0.27897573876E+02  0.12017686799E+03  0.79668241438E+02 0.  0.
          5    1    3    3  501    0 -0.19300904654E+02  0.16112832903E+02  0.23781619918E+02  0.34925688978E+02  0.47000000000E+01 0. -1.
        -13    1    4    4    0    0 -0.56358207936E+02 -0.82704913893E+01 -0.69994424379E+02  0.90243382437E+02  0.00000000000E+00 0.  1.
         14    1    4    4    0    0  0.13046042736E+02 -0.21329913272E+02 -0.11708311475E+03  0.11972309798E+03  0.00000000000E+00 0. -1.
         -5    1    5    5    0  503  0.22318076767E+02 -0.61967645492E+02 -0.44056377190E+02  0.79379720392E+02  0.47000000000E+01 0.  1.
         13    1    6    6    0    0 -0.11383021738E+02  0.90504467195E+00 -0.27160896695E+02  0.29463648773E+02  0.00000000000E+00 0. -1.
        -14    1    6    6    0    0  0.51678014825E+02  0.74550172577E+02 -0.73667718134E+00  0.90713219218E+02  0.00000000000E+00 0.  1.
</event>
<event>
12    1  0.9246030E-003  0.1855270E+03  0.7818608E-02  0.1163040E+00
         21   -1    0    0  503  502  0.00000000000E+00  0.00000000000E+00  0.72209497535E+02  0.72209497535E+02  0.00000000000E+00 0. -1.
         21   -1    0    0  501  503 -0.00000000000E+00 -0.00000000000E+00 -0.47756374490E+03  0.47756374490E+03  0.00000000000E+00 0.  1.
          6    2    1    2  501    0  0.44975891856E+02 -0.46882667265E+02 -0.23277550296E+03  0.29638874355E+03  0.17158390713E+03 0.  0.
         24    2    3    3    0    0  0.48180344998E+02 -0.96059524392E+02 -0.17880274549E+03  0.22315090944E+03  0.79228332784E+02 0.  0.
         -6    2    1    2    0  502 -0.44975891856E+02  0.46882667265E+02 -0.17257874440E+03  0.25338449888E+03  0.17377993531E+03 0.  0.
        -24    2    5    5    0    0 -0.59379786265E+01  0.34418442070E+02 -0.19294322199E+03  0.20738322144E+03  0.67533879486E+02 0.  0.
          5    1    3    3  501    0 -0.32044531413E+01  0.49176857127E+02 -0.53972757467E+02  0.73237834112E+02  0.47000000000E+01 0. -1.
        -11    1    4    4    0    0  0.65849443607E+02 -0.67173588203E+02 -0.15653326317E+03  0.18262284264E+03  0.00000000000E+00 0.  1.
         12    1    4    4    0    0 -0.17669098609E+02 -0.28885936189E+02 -0.22269482320E+02  0.40528066793E+02  0.00000000000E+00 0. -1.
         -5    1    5    5    0  502 -0.39037913230E+02  0.12464225195E+02  0.20364477588E+02  0.46001277444E+02  0.47000000000E+01 0.  1.
         11    1    6    6    0    0  0.10934922091E+01  0.39949768889E+01  0.52827689772E+01  0.67129139441E+01  0.00000000000E+00 0. -1.
        -12    1    6    6    0    0 -0.70314708356E+01  0.30423465181E+02 -0.19822599097E+03  0.20067030750E+03  0.00000000000E+00 0.  1.
</event>
<event>
12    1  0.9246030E-003  0.2891413E+03  0.7818608E-02  0.1090881E+00
         21   -1    0    0  501  502  0.00000000000E+00  0.00000000000E+00  0.12959349902E+03  0.12959349902E+03  0.00000000000E+00 0. -1.
         21   -1    0    0  502  503 -0.00000000000E+00 -0.00000000000E+00 -0.68899151607E+03  0.68899151607E+03  0.00000000000E+00 0. -1.
          6    2    1    2  501    0 -0.18971356793E+03 -0.13358966867E+03 -0.17506286788E+03  0.33800846824E+03  0.17252617036E+03 0.  0.
         24    2    3    3    0    0 -0.79411138059E+02 -0.37967548604E+01 -0.37655819522E+02  0.11911211503E+03  0.80306855298E+02 0.  0.
         -6    2    1    2    0  503  0.18971356793E+03  0.13358966867E+03 -0.38433514917E+03  0.48057654685E+03  0.17147265981E+03 0.  0.
        -24    2    5    5    0    0  0.18881545742E+03  0.12785715629E+03 -0.26061636771E+03  0.35663262732E+03  0.85247934748E+02 0.  0.
          5    1    3    3  501    0 -0.11030242987E+03 -0.12979291381E+03 -0.13740704836E+03  0.21889635321E+03  0.47000000000E+01 0. -1.
        -13    1    4    4    0    0 -0.65108089502E+02 -0.13834155309E+02  0.10954149747E+02  0.67456953448E+02  0.00000000000E+00 0.  1.
         14    1    4    4    0    0 -0.14303048557E+02  0.10037400449E+02 -0.48609969269E+02  0.51655161583E+02  0.00000000000E+00 0. -1.
         -5    1    5    5    0  503  0.89811050820E+00  0.57325123737E+01 -0.12371878146E+03  0.12394391952E+03  0.47000000000E+01 0.  1.
         11    1    6    6    0    0  0.92419432610E+02  0.11281084274E+03 -0.15265409957E+03  0.21111824146E+03  0.00000000000E+00 0. -1.
        -12    1    6    6    0    0  0.96396024811E+02  0.15046313555E+02 -0.10796226814E+03  0.14551438586E+03  0.00000000000E+00 0.  1.
</event>
<event>
12    1  0.9246030E-003  0.2308323E+03  0.7818608E-02  0.1126192E+00
         21   -1    0    0  501  502  0.00000000000E+00  0.00000000000E+00  0.12992449798E+03  0.12992449798E+03  0.00000000000E+00 0. -1.
         21   -1    0    0  502  503 -0.00000000000E+00 -0.00000000000E+00 -0.40883959457E+03  0.40883959457E+03  0.00000000000E+00 0. -1.
          6    2    1    2  501    0 -0.13110328149E+03  0.80211827770E+02 -0.13533221786E+03  0.26757871666E+03  0.17222529631E+03 0.  0.
         24    2    3    3    0    0 -0.31167423106E+02  0.23953346330E+02  0.13926175221E+01  0.89062714200E+02  0.79906549254E+02 0.  0.
         -6    2    1    2    0  503  0.13110328149E+03 -0.80211827770E+02 -0.14358287873E+03  0.27118537589E+03  0.17118252628E+03 0.  0.
        -24    2    5    5    0    0  0.75114435850E+02 -0.61903266004E+02 -0.10154912613E+02  0.12525708388E+03  0.78179421819E+02 0.  0.
          5    1    3    3  501    0 -0.99935858381E+02  0.56258481440E+02 -0.13672483539E+03  0.17851600246E+03  0.47000000000E+01 0. -1.
        -13    1    4    4    0    0 -0.18371075590E+02 -0.27769155722E+02  0.10702000469E+02  0.34973636384E+02  0.00000000000E+00 0.  1.
         14    1    4    4    0    0 -0.12796347515E+02  0.51722502052E+02 -0.93093829471E+01  0.54089077817E+02  0.00000000000E+00 0. -1.
         -5    1    5    5    0  503  0.55988845637E+02 -0.18308561766E+02 -0.13342796611E+03  0.14592829202E+03  0.47000000000E+01 0.  1.
         13    1    6    6    0    0  0.54095651949E+02 -0.10027708013E+02  0.23632135489E+02  0.59877978553E+02  0.00000000000E+00 0. -1.
        -14    1    6    6    0    0  0.21018783901E+02 -0.51875557990E+02 -0.33787048102E+02  0.65379105324E+02  0.00000000000E+00 0.  1.
</event>
<event>
12    1  0.9246030E-003  0.2025408E+03  0.7818608E-02  0.1147720E+00
         21   -1    0    0  503  502  0.00000000000E+00  0.00000000000E+00  0.12107802169E+03  0.12107802169E+03  0.00000000000E+00 0.  1.
         21   -1    0    0  501  503 -0.00000000000E+00 -0.00000000000E+00 -0.45903040001E+03  0.45903040001E+03  0.00000000000E+00 0. -1.
          6    2    1    2  501    0  0.10726739094E+03 -0.72929271891E+01 -0.31810458948E+03  0.37711181783E+03  0.17164880819E+03 0.  0.
         24    2    3    3    0    0  0.49899365969E+01 -0.47316151252E+02 -0.13579785227E+03  0.16422599735E+03  0.79154304281E+02 0.  0.
         -6    2    1    2    0  502 -0.10726739094E+03  0.72929271891E+01 -0.19847788829E+02  0.20299660387E+03  0.17103861118E+03 0.  0.
        -24    2    5    5    0    0 -0.65673519824E+02 -0.36698652202E+02 -0.65442219793E+02  0.12706076710E+03  0.78752473764E+02 0.  0.
          5    1    3    3  501    0  0.10227745434E+03  0.40023224063E+02 -0.18230673721E+03  0.21288582048E+03  0.47000000000E+01 0. -1.
        -13    1    4    4    0    0  0.27701809772E+02 -0.59424313797E+02 -0.85698984077E+02  0.10790252641E+03  0.00000000000E+00 0.  1.
         14    1    4    4    0    0 -0.22711873176E+02  0.12108162545E+02 -0.50098868195E+02  0.56323470931E+02  0.00000000000E+00 0. -1.
         -5    1    5    5    0  502 -0.41593871115E+02  0.43991579391E+02  0.45594430964E+02  0.75935836774E+02  0.47000000000E+01 0.  1.
         13    1    6    6    0    0  0.16863495022E+02 -0.28639204366E+01 -0.21928087407E+02  0.27810439082E+02  0.00000000000E+00 0. -1.
        -14    1    6    6    0    0 -0.82537014846E+02 -0.33834731765E+02 -0.43514132387E+02  0.99250328013E+02  0.00000000000E+00 0.  1.
</event>
<event>
12    1  0.9246030E-003  0.2817309E+03  0.7818608E-02  0.1094984E+00
         21   -1    0    0  503  502  0.00000000000E+00  0.00000000000E+00  0.14084444115E+03  0.14084444115E+03  0.00000000000E+00 0. -1.
         21   -1    0    0  501  503 -0.00000000000E+00 -0.00000000000E+00 -0.66430642233E+03  0.66430642233E+03  0.00000000000E+00 0.  1.
          6    2    1    2  501    0 -0.20161292850E+03 -0.92520612664E+02 -0.42051728026E+03  0.50520104938E+03  0.17083758543E+03 0.  0.
         24    2    3    3    0    0 -0.10038257925E+03 -0.42370494421E+02 -0.10796255964E+03  0.17282300957E+03  0.79623849053E+02 0.  0.
         -6    2    1    2    0  502  0.20161292850E+03  0.92520612664E+02 -0.10294470092E+03  0.29994981409E+03  0.17367913755E+03 0.  0.
        -24    2    5    5    0    0  0.22053940526E+03  0.88179379894E+02 -0.68151582293E+02  0.25982863604E+03  0.80330875930E+02 0.  0.
          5    1    3    3  501    0 -0.10123034925E+03 -0.50150118244E+02 -0.31255472062E+03  0.33237803982E+03  0.47000000000E+01 0. -1.
        -11    1    4    4    0    0 -0.34505888264E+02 -0.49509797914E+02 -0.81641185000E+02  0.10152418186E+03  0.00000000000E+00 0.  1.
         12    1    4    4    0    0 -0.65876690983E+02  0.71393034936E+01 -0.26321374639E+02  0.71298827705E+02  0.00000000000E+00 0. -1.
         -5    1    5    5    0  502 -0.18926476762E+02  0.43412327700E+01 -0.34793118623E+02  0.40121178050E+02  0.47000000000E+01 0.  1.
         13    1    6    6    0    0  0.21255964889E+03  0.65035328086E+02 -0.46393803910E+02  0.22707616185E+03  0.00000000000E+00 0. -1.
        -14    1    6    6    0    0  0.79797563634E+01  0.23144051809E+02 -0.21757778383E+02  0.32752474195E+02  0.00000000000E+00 0.  1.
</event>
<event>
12    1  0.9246030E-003  0.1788124E+03  0.7818608E-02  0.1170174E+00
         21   -1    0    0  503  502  0.00000000000E+00  0.00000000000E+00  0.22941026912E+03  0.22941026912E+03  0.00000000000E+00 0.  1.
         21   -1    0    0  501  503 -0.00000000000E+00 -0.00000000000E+00 -0.13701354161E+03  0.13701354161E+03  0.00000000000E+00 0.  1.
          6    2    1    2  501    0 -0.22821891478E+02 -0.15266737248E+02  0.26781624360E+02  0.17595272999E+03  0.17172127355E+03 0.  0.
         24    2    3    3    0    0 -0.25657419352E+02 -0.68666308827E+02  0.47414241031E+02  0.11844317136E+03  0.80045671048E+02 0.  0.
         -6    2    1    2    0  502  0.22821891478E+02  0.15266737248E+02  0.65615103150E+02  0.19047108075E+03  0.17669176224E+03 0.  0.
        -24    2    5    5    0    0  0.14968749776E+02  0.11988055273E+02  0.11271800275E+03  0.14237539757E+03  0.84838839871E+02 0.  0.
          5    1    3    3  501    0  0.28355278735E+01  0.53399571579E+02 -0.20632616671E+02  0.57509558630E+02  0.47000000000E+01 0. -1.
        -11    1    4    4    0    0  0.12584326565E+02  0.90087767950E+01  0.24338047999E+02  0.28842051155E+02  0.00000000000E+00 0.  1.
         12    1    4    4    0    0 -0.38241745917E+02 -0.77675085622E+02  0.23076193032E+02  0.89601120205E+02  0.00000000000E+00 0. -1.
         -5    1    5    5    0  502  0.78531417019E+01  0.32786819744E+01 -0.47102899597E+02  0.48095683180E+02  0.47000000000E+01 0.  1.
         11    1    6    6    0    0 -0.18308044466E+02  0.36917833021E+02  0.34296947420E+02  0.53613351783E+02  0.00000000000E+00 0. -1.
        -12    1    6    6    0    0  0.33276794242E+02 -0.24929777747E+02  0.78421055327E+02  0.88762045786E+02  0.00000000000E+00 0.  1.
</event>
<event>
12    1  0.9246030E-003  0.2491888E+03  0.7818608E-02  0.1114265E+00
         21   -1    0    0  501  502  0.00000000000E+00  0.00000000000E+00  0.47560558125E+03  0.47560558125E+03  0.00000000000E+00 0. -1.
         21   -1    0    0  502  503 -0.00000000000E+00 -0.00000000000E+00 -0.14522382120E+03  0.14522382120E+03  0.00000000000E+00 0.  1.
          6    2    1    2  501    0  0.17824041427E+03  0.25697453327E+02  0.26945023301E+03  0.36701294636E+03  0.17223550837E+03 0.  0.
         24    2    3    3    0    0  0.17127631729E+03  0.65453471739E+02  0.25427585640E+03  0.32363793798E+03  0.80408767715E+02 0.  0.
         -6    2    1    2    0  503 -0.17824041427E+03 -0.25697453327E+02  0.60931527038E+02  0.25381645609E+03  0.16816699440E+03 0.  0.
        -24    2    5    5    0    0 -0.70014770395E+02 -0.44909628769E+02 -0.19838073958E+02  0.11733306471E+03  0.80340251840E+02 0.  0.
          5    1    3    3  501    0  0.69640969823E+01 -0.39756018411E+02  0.15174376607E+02  0.43375008382E+02  0.47000000000E+01 0. -1.
        -13    1    4    4    0    0  0.89692812213E+02  0.11294746942E+02  0.67752898344E+02  0.11297268300E+03  0.00000000000E+00 0.  1.
         14    1    4    4    0    0  0.81583505076E+02  0.54158724796E+02  0.18652295806E+03  0.21066525498E+03  0.00000000000E+00 0. -1.
         -5    1    5    5    0  503 -0.10822564388E+03  0.19212175442E+02  0.80769600996E+02  0.13648339138E+03  0.47000000000E+01 0.  1.
         11    1    6    6    0    0 -0.49013554294E+02  0.14523174385E+02  0.42593520882E+00  0.51121742141E+02  0.00000000000E+00 0. -1.
        -12    1    6    6    0    0 -0.21001216101E+02 -0.59432803154E+02 -0.20264009167E+02  0.66211322567E+02  0.00000000000E+00 0.  1.
</event>
<event>
12    1  0.9246030E-003  0.2604736E+03  0.7818608E-02  0.1106859E+00
         21   -1    0    0  503  502  0.00000000000E+00  0.00000000000E+00  0.20385974149E+03  0.20385974149E+03  0.00000000000E+00 0. -1.
         21   -1    0    0  501  503 -0.00000000000E+00 -0.00000000000E+00 -0.52009446206E+03  0.52009446206E+03  0.00000000000E+00 0. -1.
          6    2    1    2  501    0 -0.12548148100E+03 -0.14984180459E+03 -0.37533411917E+03  0.45686010128E+03  0.17218386292E+03 0.  0.
         24    2    3    3    0    0 -0.42494889656E+02 -0.13108553193E+02 -0.43813995024E+02  0.88742675591E+02  0.63070963980E+02 0.  0.
         -6    2    1    2    0  502  0.12548148100E+03  0.14984180459E+03  0.59099398603E+02  0.26709410228E+03  0.17218696838E+03 0.  0.
        -24    2    5    5    0    0  0.68588099130E+02  0.43149885658E+02  0.86584449860E+02  0.14300727579E+03  0.79924802137E+02 0.  0.
          5    1    3    3  501    0 -0.82986591343E+02 -0.13673325139E+03 -0.33152012415E+03  0.36811742568E+03  0.47000000000E+01 0. -1.
        -13    1    4    4    0    0  0.12926389548E+02 -0.10025736517E+02  0.23767341132E+01  0.16530450826E+02  0.00000000000E+00 0.  1.
         14    1    4    4    0    0 -0.55421279204E+02 -0.30828166757E+01 -0.46190729137E+02  0.72212224765E+02  0.00000000000E+00 0. -1.
         -5    1    5    5    0  502  0.56893381869E+02  0.10669191893E+03 -0.27485051258E+02  0.12408682649E+03  0.47000000000E+01 0.  1.
         11    1    6    6    0    0  0.45966311758E+02  0.53603275439E+02  0.93478162894E+02  0.11715109855E+03  0.00000000000E+00 0. -1.
        -12    1    6    6    0    0  0.22621787372E+02 -0.10453389782E+02 -0.68937130339E+01  0.25856177235E+02  0.00000000000E+00 0.  1.
</event>
<event>
12    1  0.9246030E-003  0.1810026E+03  0.7818608E-02  0.1167301E+00
         21   -1    0    0  501  502  0.00000000000E+00  0.00000000000E+00  0.66320043170E+03  0.66320043170E+03  0.00000000000E+00 0.  1.
         21   -1    0    0  502  503 -0.00000000000E+00 -0.00000000000E+00 -0.53480892813E+02  0.53480892813E+02  0.00000000000E+00 0.  1.
          6    2    1    2  501    0 -0.37016106565E+02  0.42076092780E+02  0.41148708055E+03  0.44953703172E+03  0.17210849979E+03 0.  0.
         24    2    3    3    0    0  0.44145316796E+02  0.82728423863E+01  0.22780312347E+03  0.24584186126E+03  0.80788048442E+02 0.  0.
         -6    2    1    2    0  503  0.37016106565E+02 -0.42076092780E+02  0.19823245833E+03  0.26714429279E+03  0.17008637777E+03 0.  0.
        -24    2    5    5    0    0  0.26959954083E+02  0.35970028244E+02  0.67182209223E+02  0.11421103610E+03  0.80684753669E+02 0.  0.
          5    1    3    3  501    0 -0.81161423361E+02  0.33803250394E+02  0.18368395708E+03  0.20369517046E+03  0.47000000000E+01 0. -1.
        -11    1    4    4    0    0 -0.13776566564E+02  0.18328226128E+01  0.38375822600E+01  0.14418046422E+02  0.00000000000E+00 0.  1.
         12    1    4    4    0    0  0.57921883360E+02  0.64400197735E+01  0.22396554121E+03  0.23142381484E+03  0.00000000000E+00 0. -1.
         -5    1    5    5    0  503  0.10056152483E+02 -0.78046121024E+02  0.13105024911E+03  0.15293325669E+03  0.47000000000E+01 0.  1.
         13    1    6    6    0    0 -0.16978997635E+02  0.42256668103E+02  0.20974013113E+02  0.50138025349E+02  0.00000000000E+00 0. -1.
        -14    1    6    6    0    0  0.43938951718E+02 -0.62866398586E+01  0.46208196110E+02  0.64073010750E+02  0.00000000000E+00 0.  1.
</event>
<event>
12    1  0.9246030E-003  0.2802737E+03  0.7818608E-02  0.1095559E+00
         21   -1    0    0  503  502  0.00000000000E+00  0.00000000000E+00  0.40048342547E+03  0.40048342547E+03  0.00000000000E+00 0. -1.
         21   -1    0    0  501  503 -0.00000000000E+00 -0.00000000000E+00 -0.19626756701E+03  0.19626756701E+03  0.00000000000E+00 0. -1.
          6    2    1    2  501    0  0.17356694862E+03  0.13742998061E+03  0.11213927127E+03  0.30187508416E+03  0.17187456196E+03 0.  0.
         24    2    3    3    0    0  0.99582175437E+02  0.14101794096E+03  0.30007012994E+02  0.19117540949E+03  0.76452253239E+02 0.  0.
         -6    2    1    2    0  502 -0.17356694862E+03 -0.13742998061E+03  0.92076587190E+02  0.29487590833E+03  0.17164270500E+03 0.  0.
        -24    2    5    5    0    0 -0.18205049349E+03 -0.80234352645E+02  0.42566587466E+02  0.21860900551E+03  0.79987807807E+02 0.  0.
          5    1    3    3  501    0  0.73984773183E+02 -0.35879603487E+01  0.82132258281E+02  0.11069967467E+03  0.47000000000E+01 0. -1.
        -13    1    4    4    0    0  0.24861121441E+01 -0.76628560824E+01 -0.59239198593E+01  0.99996471653E+01  0.00000000000E+00 0.  1.
         14    1    4    4    0    0  0.97096063292E+02  0.14868079704E+03  0.35930932853E+02  0.18117576232E+03  0.00000000000E+00 0. -1.
         -5    1    5    5    0  502  0.84835448710E+01 -0.57195627968E+02  0.49509999724E+02  0.76266902815E+02  0.47000000000E+01 0.  1.
         11    1    6    6    0    0 -0.42895507409E+02  0.79135924642E+01 -0.11725625463E+02  0.45167906682E+02  0.00000000000E+00 0. -1.
        -12    1    6    6    0    0 -0.13915498608E+03 -0.88147945109E+02  0.54292212929E+02  0.17344109883E+03  0.00000000000E+00 0.  1.
</event>
<event>
12    1  0.9246030E-003  0.2152290E+03  0.7818608E-02  0.1137572E+00
         21   -1    0    0  503  502  0.00000000000E+00  0.00000000000E+00  0.28900460647E+02  0.28900460647E+02  0.00000000000E+00 0. -1.
         21   -1    0    0  501  503 -0.00000000000E+00 -0.00000000000E+00 -0.17319158662E+04  0.17319158662E+04  0.00000000000E+00 0. -1.
          6    2    1    2  501    0 -0.12783559781E+03  0.18515511570E+02 -0.10939799997E+04  0.11148692224E+04  0.17162860741E+03 0.  0.
         24    2    3    3    0    0 -0.10896968733E+03  0.29535866366E+02 -0.45534101072E+03  0.47583931766E+03  0.79629517312E+02 0.  0.
         -6    2    1    2    0  502  0.12783559781E+03 -0.18515511570E+02 -0.60903540579E+03  0.64594710447E+03  0.17215914739E+03 0.  0.
        -24    2    5    5    0    0  0.33836212784E+02  0.17211129322E+02 -0.14058368369E+03  0.16680058909E+03  0.81348338246E+02 0.  0.
          5    1    3    3  501    0 -0.18865910485E+02 -0.11020354796E+02 -0.63863898903E+03  0.63902990470E+03  0.47000000000E+01 0. -1.
        -11    1    4    4    0    0 -0.27130567585E+01 -0.47471367463E+01  0.14046952987E+01  0.56452770654E+01  0.00000000000E+00 0.  1.
         12    1    4    4    0    0 -0.10625663057E+03  0.34283003112E+02 -0.45674570602E+03  0.47019404059E+03  0.00000000000E+00 0. -1.
         -5    1    5    5    0  502  0.93999385029E+02 -0.35726640892E+02 -0.46845172210E+03  0.47914651537E+03  0.47000000000E+01 0.  1.
         11    1    6    6    0    0  0.24588826785E+02 -0.28469226815E+02 -0.92400720502E+02  0.99764725366E+02  0.00000000000E+00 0. -1.
        -12    1    6    6    0    0  0.92473859993E+01  0.45680356137E+02 -0.48182963183E+02  0.67035863728E+02  0.00000000000E+00 0.  1.
</event>
<event>
12    1  0.9246030E-003  0.1846406E+03  0.7818608E-02  0.1164178E+00
         21   -1    0    0  501  502  0.00000000000E+00  0.00000000000E+00  0.13009141616E+04  0.13009141616E+04  0.00000000000E+00 0.  1.
         21   -1    0    0  502  503 -0.00000000000E+00 -0.00000000000E+00 -0.26138258396E+02  0.26138258396E+02  0.00000000000E+00 0. -1.
          6    2    1    2  501    0 -0.59674435698E+02 -0.28179947759E+02  0.56052183149E+03  0.59014986790E+03  0.17244418016E+03 0.  0.
         24    2    3    3    0    0  0.49262997672E+01  0.41649288037E+02  0.25397438598E+03  0.26914705865E+03  0.78601646451E+02 0.  0.
         -6    2    1    2    0  503  0.59674435698E+02  0.28179947759E+02  0.71425407170E+03  0.73690255208E+03  0.16885302661E+03 0.  0.
        -24    2    5    5    0    0  0.87941492519E+02 -0.18503970874E+02  0.38205145962E+03  0.40021414980E+03  0.78306735708E+02 0.  0.
          5    1    3    3  501    0 -0.64600735465E+02 -0.69829235796E+02  0.30654744552E+03  0.32100280925E+03  0.47000000000E+01 0. -1.
        -13    1    4    4    0    0 -0.28757914708E+02 -0.50741472109E+01  0.11627874244E+03  0.11988957658E+03  0.00000000000E+00 0.  1.
         14    1    4    4    0    0  0.33684214475E+02  0.46723435248E+02  0.13769564354E+03  0.14925748207E+03  0.00000000000E+00 0. -1.
         -5    1    5    5    0  503 -0.28267056821E+02  0.46683918633E+02  0.33220261208E+03  0.33668840228E+03  0.47000000000E+01 0.  1.
         11    1    6    6    0    0  0.60961729476E+02 -0.40853421897E+02  0.32565938705E+03  0.33382535991E+03  0.00000000000E+00 0. -1.
        -12    1    6    6    0    0  0.26979763042E+02  0.22349451023E+02  0.56392072562E+02  0.66388789888E+02  0.00000000000E+00 0.  1.
</event>
<event>
12    1  0.9246030E-003  0.1746671E+03  0.7818608E-02  0.1173305E+00
         21   -1    0    0  503  502  0.00000000000E+00  0.00000000000E+00  0.51949143945E+02  0.51949143945E+02  0.00000000000E+00 0. -1.
         21   -1    0    0  501  503 -0.00000000000E+00 -0.00000000000E+00 -0.68621188620E+03  0.68621188620E+03  0.00000000000E+00 0. -1.
          6    2    1    2  501    0 -0.29326418594E+02  0.38500204465E+00 -0.45877028625E+03  0.49056013227E+03  0.17122757012E+03 0.  0.
         24    2    3    3    0    0 -0.16253512078E+02  0.34038376053E+02 -0.44170045470E+03  0.45034919326E+03  0.79324122977E+02 0.  0.
         -6    2    1    2    0  502  0.29326418594E+02 -0.38500204465E+00 -0.17549245600E+03  0.24760089787E+03  0.17218715242E+03 0.  0.
        -24    2    5    5    0    0  0.68810645219E+02 -0.44651387531E+02 -0.13225645254E+03  0.17404847417E+03  0.77925931634E+02 0.  0.
          5    1    3    3  501    0 -0.13072906516E+02 -0.33653374008E+02 -0.17069831550E+02  0.40210939010E+02  0.47000000000E+01 0. -1.
        -13    1    4    4    0    0 -0.25935173332E+02 -0.18635515160E+02 -0.21801502734E+03  0.22034170687E+03  0.00000000000E+00 0.  1.
         14    1    4    4    0    0  0.96816612541E+01  0.52673891213E+02 -0.22368542736E+03  0.23000748639E+03  0.00000000000E+00 0. -1.
         -5    1    5    5    0  502 -0.39484226625E+02  0.44266385486E+02 -0.43236003464E+02  0.73552423697E+02  0.47000000000E+01 0.  1.
         13    1    6    6    0    0 -0.11010413489E+02 -0.28837088191E+02 -0.27032213531E+02  0.41031054446E+02  0.00000000000E+00 0. -1.
        -14    1    6    6    0    0  0.79821058708E+02 -0.15814299340E+02 -0.10522423901E+03  0.13301741973E+03  0.00000000000E+00 0.  1.
</event>
<event>
12    1  0.9246030E-003  0.1736627E+03  0.7818608E-02  0.1174291E+00
         21   -1    0    0  501  502  0.00000000000E+00  0.00000000000E+00  0.55860630858E+03  0.55860630858E+03  0.00000000000E+00 0. -1.
         21   -1    0    0  502  503 -0.00000000000E+00 -0.00000000000E+00 -0.77996956197E+02  0.77996956197E+02  0.00000000000E+00 0. -1.
          6    2    1    2  501    0 -0.18141559637E+02 -0.19486635584E+02  0.41823459982E+03  0.45285638976E+03  0.17160968537E+03 0.  0.
         24    2    3    3    0    0 -0.51263361581E+02 -0.67054815873E+02  0.26865907433E+03  0.29237363878E+03  0.78615302945E+02 0.  0.
         -6    2    1    2    0  503  0.18141559637E+02  0.19486635584E+02  0.62374752561E+02  0.18374687501E+03  0.17077312191E+03 0.  0.
        -24    2    5    5    0    0  0.75540399375E+02  0.29111884812E+02  0.51097339264E+02  0.12427804051E+03  0.79247962111E+02 0.  0.
          5    1    3    3  501    0  0.33121801944E+02  0.47568180290E+02  0.14957552549E+03  0.16048275099E+03  0.47000000000E+01 0. -1.
        -11    1    4    4    0    0  0.16357979051E+02 -0.11942487094E+02  0.18464678130E+02  0.27407130734E+02  0.00000000000E+00 0.  1.
         12    1    4    4    0    0 -0.67621340632E+02 -0.55112328779E+02  0.25019439620E+03  0.26496650804E+03  0.00000000000E+00 0. -1.
         -5    1    5    5    0  503 -0.57398839738E+02 -0.96252492282E+01  0.11277413297E+02  0.59468834498E+02  0.47000000000E+01 0.  1.
         11    1    6    6    0    0  0.32323238959E+02  0.10124438802E+01 -0.18816290227E+02  0.37414831248E+02  0.00000000000E+00 0. -1.
        -12    1    6    6    0    0  0.43217160415E+02  0.28099440932E+02  0.69913629491E+02  0.86863209264E+02  0.00000000000E+00 0.  1.
</event>
<event>
12    1  0.9246030E-003  0.3660519E+03  0.7818608E-02  0.1056308E+00
         21   -1    0    0  501  502  0.00000000000E+00  0.00000000000E+00  0.12873704045E+03  0.12873704045E+03  0.00000000000E+00 0. -1.
         21   -1    0    0  502  503 -0.00000000000E+00 -0.00000000000E+00 -0.12534280047E+04  0.12534280047E+04  0.00000000000E+00 0. -1.
          6    2    1    2  501    0  0.28692669903E+03  0.14842168087E+03 -0.27649527849E+03  0.45874137985E+03  0.17215716246E+03 0.  0.
         24    2    3    3    0    0  0.14099637847E+03  0.14598057988E+03 -0.18673586416E+03  0.28733408743E+03  0.80624353586E+02 0.  0.
         -6    2    1    2    0  503 -0.28692669903E+03 -0.14842168087E+03 -0.84819568581E+03  0.92342366535E+03  0.17005710313E+03 0.  0.
        -24    2    5    5    0    0 -0.27096213634E+03 -0.86859864089E+02 -0.75108673165E+03  0.80724723260E+03  0.80942576922E+02 0.  0.
          5    1    3    3  501    0  0.14593032056E+03  0.24411009937E+01 -0.89759414330E+02  0.17140729242E+03  0.47000000000E+01 0. -1.
        -13    1    4    4    0    0  0.10802305993E+03  0.54218438865E+02 -0.10465677603E+03  0.15988014686E+03  0.00000000000E+00 0.  1.
         14    1    4    4    0    0  0.32973318540E+02  0.91762141014E+02 -0.82079088124E+02  0.12745394057E+03  0.00000000000E+00 0. -1.
         -5    1    5    5    0  503 -0.15964562690E+02 -0.61561816783E+02 -0.97108954161E+02  0.11617643275E+03  0.47000000000E+01 0.  1.
         11    1    6    6    0    0 -0.14343538919E+03 -0.83598823429E+02 -0.47318869191E+03  0.50146785769E+03  0.00000000000E+00 0. -1.
        -12    1    6    6    0    0 -0.12752674715E+03 -0.32610406603E+01 -0.27789803974E+03  0.30577937491E+03  0.00000000000E+00 0.  1.
</event>
<event>
12    1  0.9246030E-003  0.2004417E+03  0.7818608E-02  0.1150275E+00
         21   -1    0    0  501  502  0.00000000000E+00  0.00000000000E+00  0.54530749995E+02  0.54530749995E+02  0.00000000000E+00 0. -1.
         21   -1    0    0  502  503 -0.00000000000E+00 -0.00000000000E+00 -0.73688296858E+03  0.73688296858E+03  0.00000000000E+00 0. -1.
          6    2    1    2  501    0 -0.53452519653E+01 -0.95749210084E+02 -0.39537354872E+03  0.44136566819E+03  0.17113423703E+03 0.  0.
         24    2    3    3    0    0  0.27038721646E+02  0.99266933607E+01 -0.16185648082E+03  0.18296979107E+03  0.80316824832E+02 0.  0.
         -6    2    1    2    0  503  0.53452519653E+01  0.95749210084E+02 -0.28697866987E+03  0.35004805038E+03  0.17601249293E+03 0.  0.
        -24    2    5    5    0    0 -0.32986263909E+02 -0.60750611259E+01 -0.16359630301E+03  0.18547956687E+03  0.80708855710E+02 0.  0.
          5    1    3    3  501    0 -0.32383973611E+02 -0.10567590344E+03 -0.23351706790E+03  0.25839587712E+03  0.47000000000E+01 0. -1.
        -13    1    4    4    0    0 -0.21853202471E+02  0.15787801858E+02 -0.10178641029E+03  0.10529620348E+03  0.00000000000E+00 0.  1.
         14    1    4    4    0    0  0.48891924117E+02 -0.58611084975E+01 -0.60070070528E+02  0.77673587596E+02  0.00000000000E+00 0. -1.
         -5    1    5    5    0  503  0.38331515875E+02  0.10182427121E+03 -0.12338236685E+03  0.16456848352E+03  0.47000000000E+01 0. -1.
         11    1    6    6    0    0 -0.10448393584E+02  0.19013452922E+02 -0.14568804680E+03  0.14729455964E+03  0.00000000000E+00 0. -1.
        -12    1    6    6    0    0 -0.22537870326E+02 -0.25088514048E+02 -0.17908256219E+02  0.38185007225E+02  0.00000000000E+00 0.  1.
</event>
<event>
12    1  0.9246030E-003  0.1921580E+03  0.7818608E-02  0.1157143E+00
         21   -1    0    0  501  502  0.00000000000E+00  0.00000000000E+00  0.14648364390E+03  0.14648364390E+03  0.00000000000E+00 0. -1.
         21   -1    0    0  502  503 -0.00000000000E+00 -0.00000000000E+00 -0.31123331560E+03  0.31123331560E+03  0.00000000000E+00 0. -1.
          6    2    1    2  501    0 -0.42310474706E+02 -0.65945791110E+02  0.20849220808E+02  0.19056222295E+03  0.17245360876E+03 0.  0.
         24    2    3    3    0    0 -0.40139665239E+02 -0.11292874245E+03  0.11581657099E+02  0.14239493252E+03  0.76013738422E+02 0.  0.
         -6    2    1    2    0  503  0.42310474706E+02  0.65945791110E+02 -0.18559889251E+03  0.26715473655E+03  0.17545848718E+03 0.  0.
        -24    2    5    5    0    0  0.82385152270E+02  0.41704349713E+02 -0.66906934226E+02  0.13946958383E+03  0.80303554514E+02 0.  0.
          5    1    3    3  501    0 -0.21708094674E+01  0.46982951343E+02  0.92675637089E+01  0.48167290434E+02  0.47000000000E+01 0. -1.
        -11    1    4    4    0    0 -0.33797956128E+02 -0.54507981689E+01  0.16840778993E+01  0.34276072667E+02  0.00000000000E+00 0.  1.
         12    1    4    4    0    0 -0.63417091110E+01 -0.10747794428E+03  0.98975791999E+01  0.10811885985E+03  0.00000000000E+00 0. -1.
         -5    1    5    5    0  503 -0.40074677563E+02  0.24241441397E+02 -0.11869195828E+03  0.12768515271E+03  0.47000000000E+01 0.  1.
         11    1    6    6    0    0  0.67314469074E+01  0.20417559176E+01 -0.52346897784E+02  0.52817410503E+02  0.00000000000E+00 0. -1.
        -12    1    6    6    0    0  0.75653705362E+02  0.39662593796E+02 -0.14560036442E+02  0.86652173330E+02  0.00000000000E+00 0.  1.
</event>
<event>
12    1  0.9246030E-003  0.1816024E+03  0.7818608E-02  0.1166376E+00
         21   -1    0    0  503  502  0.00000000000E+00  0.00000000000E+00  0.41712216287E+02  0.41712216287E+02  0.00000000000E+00 0. -1.
         21   -1    0    0  501  503 -0.00000000000E+00 -0.00000000000E+00 -0.82569867791E+03  0.82569867791E+03  0.00000000000E+00 0.  1.
          6    2    1    2  501    0 -0.58799280644E+02 -0.34878235076E+01 -0.48348872045E+03  0.51630076997E+03  0.17127644891E+03 0.  0.
         24    2    3    3    0    0 -0.98671452772E+02  0.13351496846E+02 -0.41839725286E+03  0.43799149866E+03  0.82861170861E+02 0.  0.
         -6    2    1    2    0  502  0.58799280644E+02  0.34878235076E+01 -0.30049774118E+03  0.35111012423E+03  0.17178447708E+03 0.  0.
        -24    2    5    5    0    0  0.58411950237E+00  0.59555257134E+02 -0.18456375899E+03  0.20970524339E+03  0.79783069156E+02 0.  0.
          5    1    3    3  501    0  0.39872172128E+02 -0.16839320354E+02 -0.65091467587E+02  0.78309271309E+02  0.47000000000E+01 0. -1.
        -11    1    4    4    0    0  0.10692615222E+02 -0.12455357560E+02 -0.71012268453E+02  0.72884910805E+02  0.00000000000E+00 0.  1.
         12    1    4    4    0    0 -0.10936406799E+03  0.25806854406E+02 -0.34738498441E+03  0.36510658785E+03  0.00000000000E+00 0. -1.
         -5    1    5    5    0  502  0.58215161141E+02 -0.56067433627E+02 -0.11593398219E+03  0.14140488084E+03  0.47000000000E+01 0.  1.
         13    1    6    6    0    0 -0.24253190766E+02  0.46116904023E+02 -0.50016277072E+02  0.72226131498E+02  0.00000000000E+00 0. -1.
        -14    1    6    6    0    0  0.24837310268E+02  0.13438353111E+02 -0.13454748192E+03  0.13747911189E+03  0.00000000000E+00 0.  1.
</event>
<event>
12    1  0.9246030E-003  0.1849116E+03  0.7818608E-02  0.1163401E+00
         21   -1    0    0  503  502  0.00000000000E+00  0.00000000000E+00  0.70259274860E+03  0.70259274860E+03  0.00000000000E+00 0.  1.
         21   -1    0    0  501  503 -0.00000000000E+00 -0.00000000000E+00 -0.11418146919E+03  0.11418146919E+03  0.00000000000E+00 0.  1.
          6    2    1    2  501    0 -0.26176622107E+01 -0.67629969194E+02 -0.16239836151E+02  0.18448056634E+03  0.17084695546E+03 0.  0.
         24    2    3    3    0    0 -0.42077456143E+02 -0.52872850416E+02 -0.62836157860E+02  0.12148727234E+03  0.79023565979E+02 0.  0.
         -6    2    1    2    0  502  0.26176622107E+01  0.67629969194E+02  0.60465111556E+03  0.63229365146E+03  0.17208028719E+03 0.  0.
        -24    2    5    5    0    0 -0.83845204944E+01 -0.31757875460E+02  0.28383728360E+03  0.29622431863E+03  0.78143333374E+02 0.  0.
          5    1    3    3  501    0  0.39459793932E+02 -0.14757118778E+02  0.46596321709E+02  0.62993293997E+02  0.47000000000E+01 0. -1.
        -11    1    4    4    0    0 -0.19524648374E+01  0.84573515891E+01 -0.45306093481E+02  0.46130044671E+02  0.00000000000E+00 0.  1.
         12    1    4    4    0    0 -0.40124991305E+02 -0.61330202005E+02 -0.17530064380E+02  0.75357227671E+02  0.00000000000E+00 0. -1.
         -5    1    5    5    0  502  0.11002182705E+02  0.99387844653E+02  0.32081383196E+03  0.33606933283E+03  0.47000000000E+01 0.  1.
         11    1    6    6    0    0 -0.28342124684E+02  0.15795511243E+02  0.91057728218E+02  0.96665837167E+02  0.00000000000E+00 0. -1.
        -12    1    6    6    0    0  0.19957604189E+02 -0.47553386702E+02  0.19277955538E+03  0.19955848146E+03  0.00000000000E+00 0.  1.
</event>
<event>
12    1  0.9246030E-003  0.2795389E+03  0.7818608E-02  0.1096136E+00
         21   -1    0    0  503  502  0.00000000000E+00  0.00000000000E+00  0.21507617601E+03  0.21507617601E+03  0.00000000000E+00 0.  1.
         21   -1    0    0  501  503 -0.00000000000E+00 -0.00000000000E+00 -0.52655055682E+03  0.52655055682E+03  0.00000000000E+00 0.  1.
          6    2    1    2  501    0 -0.21394321614E+03 -0.42445691197E+02 -0.36308645257E+03  0.45736313910E+03  0.17255704139E+03 0.  0.
         24    2    3    3    0    0 -0.67446348943E+02  0.22952832023E+02 -0.19286072762E+03  0.22340334261E+03  0.87395370287E+02 0.  0.
         -6    2    1    2    0  502  0.21394321614E+03  0.42445691197E+02  0.51612071760E+02  0.28426359373E+03  0.17483892112E+03 0.  0.
        -24    2    5    5    0    0  0.34582121621E+02  0.27322073937E+02  0.49911465839E+02  0.10419663928E+03  0.80145906661E+02 0.  0.
          5    1    3    3  501    0 -0.14649686720E+03 -0.65398523220E+02 -0.17022572495E+03  0.23395979649E+03  0.47000000000E+01 0. -1.
        -13    1    4    4    0    0 -0.19770692222E+02 -0.29231566302E+02 -0.31754636990E+02  0.47473378959E+02  0.00000000000E+00 0.  1.
         14    1    4    4    0    0 -0.47675656721E+02  0.52184398325E+02 -0.16110609063E+03  0.17592996365E+03  0.00000000000E+00 0. -1.
         -5    1    5    5    0  502  0.17936109452E+03  0.15123617260E+02  0.17006059211E+01  0.18006695446E+03  0.47000000000E+01 0.  1.
         11    1    6    6    0    0  0.11612977932E+02 -0.13710913520E+02 -0.15436275643E+02  0.23688161848E+02  0.00000000000E+00 0. -1.
        -12    1    6    6    0    0  0.22969143689E+02  0.41032987457E+02  0.65347741481E+02  0.80508477430E+02  0.00000000000E+00 0.  1.
</event>
<event>
12    1  0.9246030E-003  0.2426673E+03  0.7818608E-02  0.1118080E+00
         21   -1    0    0  503  502  0.00000000000E+00  0.00000000000E+00  0.14566659085E+03  0.14566659085E+03  0.00000000000E+00 0. -1.
         21   -1    0    0  501  503 -0.00000000000E+00 -0.00000000000E+00 -0.40413682759E+03  0.40413682759E+03  0.00000000000E+00 0. -1.
          6    2    1    2  501    0  0.15556832790E+03  0.70359284138E+02 -0.13787663462E+03  0.27910102067E+03  0.17243978617E+03 0.  0.
         24    2    3    3    0    0  0.53555712806E+02 -0.17260983482E+02 -0.13448842571E+02  0.95830045414E+02  0.76396140693E+02 0.  0.
         -6    2    1    2    0  502 -0.15556832790E+03 -0.70359284138E+02 -0.12059360212E+03  0.27070239776E+03  0.17200301675E+03 0.  0.
        -24    2    5    5    0    0 -0.83373903223E+02  0.26548841484E+02 -0.82605632912E+02  0.14394122243E+03  0.78989468943E+02 0.  0.
          5    1    3    3  501    0  0.10201261510E+03  0.87620267620E+02 -0.12442779205E+03  0.18327097526E+03  0.47000000000E+01 0. -1.
        -13    1    4    4    0    0 -0.32941589527E+01 -0.35114429312E+02 -0.39239683515E+01  0.35486224887E+02  0.00000000000E+00 0.  1.
         14    1    4    4    0    0  0.56849871758E+02  0.17853445830E+02 -0.95248742199E+01  0.60343820527E+02  0.00000000000E+00 0. -1.
         -5    1    5    5    0  502 -0.72194424682E+02 -0.96908125622E+02 -0.37987969207E+02  0.12676117533E+03  0.47000000000E+01 0.  1.
         11    1    6    6    0    0 -0.81869237687E+02  0.19742032395E+02 -0.27787803077E+02  0.88681914292E+02  0.00000000000E+00 0. -1.
        -12    1    6    6    0    0 -0.15046655354E+01  0.68068090897E+01 -0.54817829836E+02  0.55259308141E+02  0.00000000000E+00 0.  1.
</event>
<event>
12    1  0.9246030E-003  0.2105220E+03  0.7818608E-02  0.1141556E+00
         21   -1    0    0  501  502  0.00000000000E+00  0.00000000000E+00  0.38122377361E+03  0.38122377361E+03  0.00000000000E+00 0.  1.
         21   -1    0    0  502  503 -0.00000000000E+00 -0.00000000000E+00 -0.11544624448E+03  0.11544624448E+03  0.00000000000E+00 0. -1.
          6    2    1    2  501    0 -0.58386321151E+02  0.10614311253E+03  0.14506664433E+03  0.25399605883E+03  0.16968896185E+03 0.  0.
         24    2    3    3    0    0 -0.37696635807E+02  0.42036888799E+02  0.15840516664E+03  0.18516527228E+03  0.77497386199E+02 0.  0.
         -6    2    1    2    0  503  0.58386321151E+02 -0.10614311253E+03  0.12071088481E+03  0.24267395926E+03  0.17217493998E+03 0.  0.
        -24    2    5    5    0    0  0.27398523979E+02  0.84900198001E+01  0.78437231252E+02  0.11653851466E+03  0.81277712809E+02 0.  0.
          5    1    3    3  501    0 -0.20689685343E+02  0.64106223727E+02 -0.13338522317E+02  0.68830786555E+02  0.47000000000E+01 0. -1.
        -11    1    4    4    0    0 -0.23105652587E+02 -0.17728416572E+02  0.82319756651E+02  0.87319586983E+02  0.00000000000E+00 0.  1.
         12    1    4    4    0    0 -0.14590983220E+02  0.59765305371E+02  0.76085409991E+02  0.97845685295E+02  0.00000000000E+00 0. -1.
         -5    1    5    5    0  503  0.30987797172E+02 -0.11463313233E+03  0.42273653559E+02  0.12613544460E+03  0.47000000000E+01 0. -1.
         11    1    6    6    0    0  0.29322075729E+02  0.37828319722E+02  0.21522924130E+02  0.52478587644E+02  0.00000000000E+00 0. -1.
        -12    1    6    6    0    0 -0.19235517501E+01 -0.29338299922E+02  0.56914307121E+02  0.64059927012E+02  0.00000000000E+00 0.  1.
</event>
<event>
12    1  0.9246030E-003  0.1877365E+03  0.7818608E-02  0.1160543E+00
         21   -1    0    0  501  502  0.00000000000E+00  0.00000000000E+00  0.24151775617E+03  0.24151775617E+03  0.00000000000E+00 0. -1.
         21   -1    0    0  502  503 -0.00000000000E+00 -0.00000000000E+00 -0.15507199938E+03  0.15507199938E+03  0.00000000000E+00 0. -1.
          6    2    1    2  501    0 -0.57076529487E+02  0.48548152236E+02  0.91594572538E+02  0.20888890342E+03  0.17213470001E+03 0.  0.
         24    2    3    3    0    0 -0.50296158635E+00  0.42218056416E+02 -0.43655644663E+01  0.97214928867E+02  0.87458944560E+02 0.  0.
         -6    2    1    2    0  503  0.57076529487E+02 -0.48548152236E+02 -0.51488157441E+01  0.18770085214E+03  0.17201873818E+03 0.  0.
        -24    2    5    5    0    0  0.33944675906E+02 -0.27941703671E+02  0.64556237120E+02  0.11127708118E+03  0.79259707409E+02 0.  0.
          5    1    3    3  501    0 -0.56573567900E+02  0.63300958192E+01  0.95960137004E+02  0.11167397455E+03  0.47000000000E+01 0. -1.
        -13    1    4    4    0    0 -0.12921835192E+02  0.15981359076E+02 -0.43722202341E+02  0.48311578738E+02  0.00000000000E+00 0.  1.
         14    1    4    4    0    0  0.12418873606E+02  0.26236697341E+02  0.39356637875E+02  0.48903350128E+02  0.00000000000E+00 0. -1.
         -5    1    5    5    0  503  0.23131853580E+02 -0.20606448565E+02 -0.69705052864E+02  0.76423770957E+02  0.47000000000E+01 0.  1.
         11    1    6    6    0    0  0.68113099772E+01 -0.16418662190E+02 -0.16975886139E+02  0.24579404426E+02  0.00000000000E+00 0. -1.
        -12    1    6    6    0    0  0.27133365929E+02 -0.11523041481E+02  0.81532123259E+02  0.86697676755E+02  0.00000000000E+00 0.  1.
</event>
<event>
12    1  0.9246030E-003  0.2095973E+03  0.7818608E-02  0.1142190E+00
         21   -1    0    0  501  502  0.00000000000E+00  0.00000000000E+00  0.15941068461E+03  0.15941068461E+03  0.00000000000E+00 0.  1.
         21   -1    0    0  502  503 -0.00000000000E+00 -0.00000000000E+00 -0.27517561140E+03  0.27517561140E+03  0.00000000000E+00 0.  1.
          6    2    1    2  501    0  0.10596561538E+03  0.48976062348E+02 -0.41094107699E+02  0.21208516530E+03  0.17223247466E+03 0.  0.
         24    2    3    3    0    0  0.93581588745E+01  0.65793981472E+02  0.84656343497E+01  0.10211198180E+03  0.77063394212E+02 0.  0.
         -6    2    1    2    0  503 -0.10596561538E+03 -0.48976062348E+02 -0.74670819091E+02  0.22250113070E+03  0.17407945201E+03 0.  0.
        -24    2    5    5    0    0 -0.77857072580E+02  0.16671935180E+02  0.13069342531E+02  0.10927491590E+03  0.73692077975E+02 0.  0.
          5    1    3    3  501    0  0.96607456509E+02 -0.16817919124E+02 -0.49559742049E+02  0.10997318350E+03  0.47000000000E+01 0. -1.
        -11    1    4    4    0    0 -0.28749268275E+02  0.37812948139E+02 -0.14344951098E+02  0.49619724862E+02  0.00000000000E+00 0.  1.
         12    1    4    4    0    0  0.38107427150E+02  0.27981033333E+02  0.22810585448E+02  0.52492256942E+02  0.00000000000E+00 0. -1.
         -5    1    5    5    0  503 -0.28108542804E+02 -0.65647997529E+02 -0.87740161622E+02  0.11322621481E+03  0.47000000000E+01 0.  1.
         13    1    6    6    0    0 -0.46947046054E+01 -0.56167126415E+01  0.30051376983E+02  0.30930130469E+02  0.00000000000E+00 0. -1.
        -14    1    6    6    0    0 -0.73162367975E+02  0.22288647822E+02 -0.16982034452E+02  0.78344785426E+02  0.00000000000E+00 0.  1.
</event>
<event>
12    1  0.9246030E-003  0.2171547E+03  0.7818608E-02  0.1136140E+00
         21   -1    0    0  503  502  0.00000000000E+00  0.00000000000E+00  0.17833591767E+03  0.17833591767E+03  0.00000000000E+00 0.  1.
         21   -1    0    0  501  503 -0.00000000000E+00 -0.00000000000E+00 -0.31044054163E+03  0.31044054163E+03  0.00000000000E+00 0. -1.
          6    2    1    2  501    0 -0.13151084022E+03  0.13263049988E+02  0.28886955630E+02  0.21845356968E+03  0.17151237947E+03 0.  0.
         24    2    3    3    0    0 -0.15265213303E+03  0.49998590532E+01 -0.11520564933E+02  0.17186932016E+03  0.77965809729E+02 0.  0.
         -6    2    1    2    0  502  0.13151084022E+03 -0.13263049988E+02 -0.16099157960E+03  0.27032288962E+03  0.17229383727E+03 0.  0.
        -24    2    5    5    0    0  0.20662185357E+02  0.23836008528E+02 -0.23941182044E+02  0.90132251966E+02  0.80966421686E+02 0.  0.
          5    1    3    3  501    0  0.21141292808E+02  0.82631909349E+01  0.40407520563E+02  0.46584249528E+02  0.47000000000E+01 0. -1.
        -13    1    4    4    0    0 -0.77179934951E+02  0.31434279436E+02  0.20350322729E+02  0.85784566898E+02  0.00000000000E+00 0.  1.
         14    1    4    4    0    0 -0.75472198074E+02 -0.26434420383E+02 -0.31870887662E+02  0.86084753258E+02  0.00000000000E+00 0. -1.
         -5    1    5    5    0  502  0.11084865486E+03 -0.37099058516E+02 -0.13705039755E+03  0.18019063765E+03  0.47000000000E+01 0.  1.
         11    1    6    6    0    0  0.30774535161E+02 -0.17183498254E+02 -0.31431392737E+02  0.47225809427E+02  0.00000000000E+00 0. -1.
        -12    1    6    6    0    0 -0.10112349804E+02  0.41019506782E+02  0.74902106929E+01  0.42906442539E+02  0.00000000000E+00 0.  1.
</event>
<event>
12    1  0.9246030E-003  0.2139541E+03  0.7818608E-02  0.1138691E+00
         21   -1    0    0  501  502  0.00000000000E+00  0.00000000000E+00  0.12565902815E+04  0.12565902815E+04  0.00000000000E+00 0.  1.
         21   -1    0    0  502  503 -0.00000000000E+00 -0.00000000000E+00 -0.36237117750E+02  0.36237117750E+02  0.00000000000E+00 0.  1.
          6    2    1    2  501    0  0.86869128025E+02  0.90564122661E+02  0.61192127268E+03  0.64824687056E+03  0.17328662819E+03 0.  0.
         24    2    3    3    0    0  0.54217149147E+02 -0.20513496874E+02  0.19882310917E+03  0.21920541337E+03  0.71833708637E+02 0.  0.
         -6    2    1    2    0  503 -0.86869128025E+02 -0.90564122661E+02  0.60843189102E+03  0.64458052864E+03  0.17189120448E+03 0.  0.
        -24    2    5    5    0    0 -0.11812992730E+03 -0.39814817032E+02  0.36108086539E+03  0.39010587475E+03  0.79141030993E+02 0.  0.
          5    1    3    3  501    0  0.32651978877E+02  0.11107761954E+03  0.41309816352E+03  0.42904145719E+03  0.47000000000E+01 0. -1.
        -13    1    4    4    0    0  0.16178658805E+02  0.19113656897E+02  0.12331181590E+03  0.12582879170E+03  0.00000000000E+00 0.  1.
         14    1    4    4    0    0  0.38038490342E+02 -0.39627153771E+02  0.75511293270E+02  0.93376621672E+02  0.00000000000E+00 0. -1.
         -5    1    5    5    0  503  0.31260799272E+02 -0.50749305629E+02  0.24735102563E+03  0.25447465389E+03  0.47000000000E+01 0.  1.
         13    1    6    6    0    0 -0.10646380353E+03 -0.58827454343E+00  0.24998308755E+03  0.27171019780E+03  0.00000000000E+00 0. -1.
        -14    1    6    6    0    0 -0.11666123768E+02 -0.39226542489E+02  0.11109777784E+03  0.11839567695E+03  0.00000000000E+00 0.  1.
</event>
<event>
12    1  0.9246030E-003  0.1791073E+03  0.7818608E-02  0.1169163E+00
         21   -1    0    0  501  502  0.00000000000E+00  0.00000000000E+00  0.82145560206E+02  0.82145560206E+02  0.00000000000E+00 0.  1.
         21   -1    0    0  502  503 -0.00000000000E+00 -0.00000000000E+00 -0.38901258356E+03  0.38901258356E+03  0.00000000000E+00 0.  1.
          6    2    1    2  501    0  0.48546458490E+02 -0.11996658967E+02 -0.13234316272E+03  0.22108215919E+03  0.16988799233E+03 0.  0.
         24    2    3    3    0    0  0.32568251271E+02 -0.55362043491E+02 -0.14057653644E+03  0.17390443009E+03  0.79720394861E+02 0.  0.
         -6    2    1    2    0  503 -0.48546458490E+02  0.11996658967E+02 -0.17452386064E+03  0.25007598458E+03  0.17198471348E+03 0.  0.
        -24    2    5    5    0    0  0.11677909229E+02  0.57237867702E+02 -0.74441605085E+02  0.12472731361E+03  0.81257634291E+02 0.  0.
          5    1    3    3  501    0  0.15978207219E+02  0.43365384524E+02  0.82333737206E+01  0.47177729107E+02  0.47000000000E+01 0. -1.
        -11    1    4    4    0    0  0.26733963616E+02 -0.97782149745E+01 -0.12039171385E+03  0.12371128915E+03  0.00000000000E+00 0.  1.
         12    1    4    4    0    0  0.58342876550E+01 -0.45583828516E+02 -0.20184822590E+02  0.50193140942E+02  0.00000000000E+00 0. -1.
         -5    1    5    5    0  503 -0.60224367719E+02 -0.45241208735E+02 -0.10008225556E+03  0.12534867096E+03  0.47000000000E+01 0.  1.
         13    1    6    6    0    0 -0.38470609562E+01  0.76983078383E+01 -0.72255345140E+02  0.72766054744E+02  0.00000000000E+00 0. -1.
        -14    1    6    6    0    0  0.15524970186E+02  0.49539559864E+02 -0.21862599442E+01  0.51961258870E+02  0.00000000000E+00 0.  1.
</event>
<event>
12    1  0.9246030E-003  0.1747377E+03  0.7818608E-02  0.1173263E+00
         21   -1    0    0  503  502  0.00000000000E+00  0.00000000000E+00  0.83536274607E+02  0.83536274607E+02  0.00000000000E+00 0. -1.
         21   -1    0    0  501  503 -0.00000000000E+00 -0.00000000000E+00 -0.37150269759E+03  0.37150269759E+03  0.00000000000E+00 0. -1.
          6    2    1    2  501    0 -0.16321641664E+02  0.21408616533E+02 -0.17738135734E+03  0.24824846023E+03  0.17157630147E+03 0.  0.
         24    2    3    3    0    0  0.54561076603E+02  0.12006400126E+02 -0.70102428889E+02  0.11923830593E+03  0.78627974295E+02 0.  0.
         -6    2    1    2    0  502  0.16321641664E+02 -0.21408616533E+02 -0.11058506565E+03  0.20679051197E+03  0.17265148203E+03 0.  0.
        -24    2    5    5    0    0  0.40117689719E+01 -0.66567699316E+02 -0.21178792398E+02  0.10576354814E+03  0.79309734497E+02 0.  0.
          5    1    3    3  501    0 -0.70882718267E+02  0.94022164074E+01 -0.10727892845E+03  0.12901015430E+03  0.47000000000E+01 0. -1.
        -11    1    4    4    0    0 -0.17223503395E+02 -0.11676226147E+02 -0.16822555594E+02  0.26757834422E+02  0.00000000000E+00 0.  1.
         12    1    4    4    0    0  0.71784579999E+02  0.23682626273E+02 -0.53279873294E+02  0.92480471512E+02  0.00000000000E+00 0. -1.
         -5    1    5    5    0  502  0.12309872692E+02  0.45159082783E+02 -0.89406273249E+02  0.10102696383E+03  0.47000000000E+01 0.  1.
         13    1    6    6    0    0  0.36180528858E+02 -0.48805143694E+02 -0.30316627732E+02  0.67897500959E+02  0.00000000000E+00 0. -1.
        -14    1    6    6    0    0 -0.32168759886E+02 -0.17762555622E+02  0.91378353340E+01  0.37866047185E+02  0.00000000000E+00 0.  1.
</event>
<event>
12    1  0.9246030E-003  0.1896305E+03  0.7818608E-02  0.1159235E+00
         21   -1    0    0  503  502  0.00000000000E+00  0.00000000000E+00  0.11066890917E+03  0.11066890917E+03  0.00000000000E+00 0.  1.
         21   -1    0    0  501  503 -0.00000000000E+00 -0.00000000000E+00 -0.33269665181E+03  0.33269665181E+03  0.00000000000E+00 0. -1.
          6    2    1    2  501    0  0.70799830463E+02  0.30942211658E+02 -0.15090655395E+03  0.24083668769E+03  0.17105404309E+03 0.  0.
         24    2    3    3    0    0  0.77137874317E+02 -0.83673863314E+01 -0.33032774407E+02  0.11633073121E+03  0.80133700973E+02 0.  0.
         -6    2    1    2    0  502 -0.70799830463E+02 -0.30942211658E+02 -0.71121188692E+02  0.20252887329E+03  0.17317530014E+03 0.  0.
        -24    2    5    5    0    0 -0.29516454282E+02  0.16363515023E+00 -0.10999551837E+03  0.13768140331E+03  0.77368642919E+02 0.  0.
          5    1    3    3  501    0 -0.63380438546E+01  0.39309597989E+02 -0.11787377955E+03  0.12450595648E+03  0.47000000000E+01 0. -1.
        -13    1    4    4    0    0  0.75913411955E+02 -0.25904390407E+02 -0.14963574443E+01  0.80225448846E+02  0.00000000000E+00 0.  1.
         14    1    4    4    0    0  0.12244623625E+01  0.17537004076E+02 -0.31536416963E+02  0.36105282368E+02  0.00000000000E+00 0. -1.
         -5    1    5    5    0  502 -0.41283376180E+02 -0.31105846808E+02  0.38874329677E+02  0.64847469976E+02  0.47000000000E+01 0.  1.
         11    1    6    6    0    0 -0.47504414894E+02  0.87163165954E+01 -0.10718822927E+03  0.11756683250E+03  0.00000000000E+00 0. -1.
        -12    1    6    6    0    0  0.17987960612E+02 -0.85526814452E+01 -0.28072890955E+01  0.20114570812E+02  0.00000000000E+00 0.  1.
</event>
<event>
12    1  0.9246030E-003  0.1754575E+03  0.7818608E-02  0.1172741E+00
         21   -1    0    0  501  502  0.00000000000E+00  0.00000000000E+00  0.51399525570E+03  0.51399525570E+03  0.00000000000E+00 0. -1.
         21   -1    0    0  502  503 -0.00000000000E+00 -0.00000000000E+00 -0.74473155376E+02  0.74473155376E+02  0.00000000000E+00 0.  1.
          6    2    1    2  501    0 -0.17876739566E+02  0.33268178742E+02  0.35180724640E+03  0.39230714440E+03  0.16944086697E+03 0.  0.
         24    2    3    3    0    0 -0.26651884046E+02 -0.49687154451E+02  0.12858981026E+03  0.15396557383E+03  0.63173747574E+02 0.  0.
         -6    2    1    2    0  503  0.17876739566E+02 -0.33268178742E+02  0.87714853926E+02  0.19616126667E+03  0.17134467429E+03 0.  0.
        -24    2    5    5    0    0 -0.60220316369E+01  0.44140533249E+02  0.56802915874E+02  0.10932292335E+03  0.82099200830E+02 0.  0.
          5    1    3    3  501    0  0.87751444805E+01  0.82955333193E+02  0.22321743614E+03  0.23834157057E+03  0.47000000000E+01 0. -1.
        -11    1    4    4    0    0 -0.21968537270E+02 -0.33477981216E+02  0.13094427382E+03  0.13692988973E+03  0.00000000000E+00 0.  1.
         12    1    4    4    0    0 -0.46833467761E+01 -0.16209173236E+02 -0.23544635633E+01  0.17035684098E+02  0.00000000000E+00 0. -1.
         -5    1    5    5    0  503  0.23898771202E+02 -0.77408711991E+02  0.30911938052E+02  0.86838343324E+02  0.47000000000E+01 0.  1.
         11    1    6    6    0    0  0.35555302239E+02  0.22937603935E+02  0.43742886843E+02  0.60858469755E+02  0.00000000000E+00 0. -1.
        -12    1    6    6    0    0 -0.41577333876E+02  0.21202929315E+02  0.13060029030E+02  0.48464453593E+02  0.00000000000E+00 0.  1.
</event>
<event>
12    1  0.9246030E-003  0.2448871E+03  0.7818608E-02  0.1117026E+00
         21   -1    0    0  503  502  0.00000000000E+00  0.00000000000E+00  0.38283923740E+03  0.38283923740E+03  0.00000000000E+00 0. -1.
         21   -1    0    0  501  503 -0.00000000000E+00 -0.00000000000E+00 -0.15961326356E+03  0.15961326356E+03  0.00000000000E+00 0.  1.
          6    2    1    2  501    0 -0.12729256984E+03 -0.11957202979E+03  0.15761469382E+03  0.28892830964E+03  0.16773880814E+03 0.  0.
         24    2    3    3    0    0 -0.11427751632E+03 -0.31894212647E+02  0.13687058461E+03  0.19777350008E+03  0.79399048278E+02 0.  0.
         -6    2    1    2    0  502  0.12729256984E+03  0.11957202979E+03  0.65611280030E+02  0.25352419133E+03  0.17166480966E+03 0.  0.
        -24    2    5    5    0    0  0.11842195930E+03  0.12019869948E+03  0.10422547759E+03  0.21362147589E+03  0.79370630472E+02 0.  0.
          5    1    3    3  501    0 -0.13015053523E+02 -0.87677817146E+02  0.20744109209E+02  0.91154809552E+02  0.47000000000E+01 0. -1.
        -11    1    4    4    0    0 -0.27415983456E+01  0.22546260638E+01  0.55350568890E+02  0.55464269369E+02  0.00000000000E+00 0.  1.
         12    1    4    4    0    0 -0.11153591798E+03 -0.34148838711E+02  0.81520015719E+02  0.14230923071E+03  0.00000000000E+00 0. -1.
         -5    1    5    5    0  502  0.88706105397E+01 -0.62666968401E+00 -0.38614197557E+02  0.39902715437E+02  0.47000000000E+01 0.  1.
         11    1    6    6    0    0  0.16867721663E+02  0.14855102021E+02  0.54710090167E+02  0.59147172851E+02  0.00000000000E+00 0. -1.
        -12    1    6    6    0    0  0.10155423764E+03  0.10534359746E+03  0.49515387420E+02  0.15447430304E+03  0.00000000000E+00 0.  1.
</event>
<event>
12    1  0.9246030E-003  0.1829390E+03  0.7818608E-02  0.1165166E+00
         21   -1    0    0  501  502  0.00000000000E+00  0.00000000000E+00  0.90786373362E+02  0.90786373362E+02  0.00000000000E+00 0. -1.
         21   -1    0    0  502  503 -0.00000000000E+00 -0.00000000000E+00 -0.38495926151E+03  0.38495926151E+03  0.00000000000E+00 0. -1.
          6    2    1    2  501    0  0.56413194035E+02  0.10000820148E+02 -0.19800004996E+03  0.26906739530E+03  0.17294732887E+03 0.  0.
         24    2    3    3    0    0 -0.31663408730E+02  0.17083905086E+02 -0.62227496197E+02  0.10700588105E+03  0.79268947452E+02 0.  0.
         -6    2    1    2    0  503 -0.56413194035E+02 -0.10000820148E+02 -0.96172838188E+02  0.20667823957E+03  0.17373604992E+03 0.  0.
        -24    2    5    5    0    0 -0.10252336173E+03  0.80168996730E+01 -0.51612564128E+02  0.13990628575E+03  0.79590210685E+02 0.  0.
          5    1    3    3  501    0  0.88076602765E+02 -0.70830849374E+01 -0.13577255377E+03  0.16206151426E+03  0.47000000000E+01 0. -1.
        -13    1    4    4    0    0 -0.50664406799E+02  0.46840877237E+01 -0.66689002965E+02  0.83882333722E+02  0.00000000000E+00 0.  1.
         14    1    4    4    0    0  0.19000998069E+02  0.12399817362E+02  0.44615067683E+01  0.23123547324E+02  0.00000000000E+00 0. -1.
         -5    1    5    5    0  503  0.46110167696E+02 -0.18017719821E+02 -0.44560274060E+02  0.66771953819E+02  0.47000000000E+01 0.  1.
         11    1    6    6    0    0 -0.52081861564E+02 -0.24869643603E+02 -0.54826941746E+02  0.79605357974E+02  0.00000000000E+00 0. -1.
        -12    1    6    6    0    0 -0.50441500167E+02  0.32886543276E+02  0.32143776182E+01  0.60300927781E+02  0.00000000000E+00 0.  1.
</event>
<event>
12    1  0.9246030E-003  0.1729332E+03  0.7818608E-02  0.1174968E+00
         21   -1    0    0  503  502  0.00000000000E+00  0.00000000000E+00  0.28272546281E+04  0.28272546281E+04  0.00000000000E+00 0. -1.
         21   -1    0    0  501  503 -0.00000000000E+00 -0.00000000000E+00 -0.10577726524E+02  0.10577726524E+02  0.00000000000E+00 0. -1.
          6    2    1    2  501    0  0.10568091692E+02  0.13363359269E+01  0.13293364239E+04  0.13405376610E+04  0.17260481545E+03 0.  0.
         24    2    3    3    0    0 -0.18612360246E+02 -0.14287120125E+02  0.12671756337E+04  0.12699568917E+04  0.80659025727E+02 0.  0.
         -6    2    1    2    0  502 -0.10568091692E+02 -0.13363359269E+01  0.14873404777E+04  0.14972946936E+04  0.17203555634E+03 0.  0.
        -24    2    5    5    0    0  0.33506854177E+02  0.53816346141E+02  0.88835484367E+03  0.89414438156E+03  0.79378450533E+02 0.  0.
          5    1    3    3  501    0  0.29180451938E+02  0.15623456051E+02  0.62160790171E+02  0.70580769258E+02  0.47000000000E+01 0. -1.
        -11    1    4    4    0    0 -0.93769858295E+01  0.33325807615E+02  0.43946856522E+03  0.44083007739E+03  0.00000000000E+00 0.  1.
         12    1    4    4    0    0 -0.92353744167E+01 -0.47612927739E+02  0.82770706848E+03  0.82912681433E+03  0.00000000000E+00 0. -1.
         -5    1    5    5    0  502 -0.44074945868E+02 -0.55152682068E+02  0.59898563400E+03  0.60315031205E+03  0.47000000000E+01 0.  1.
         13    1    6    6    0    0  0.41326486173E+02 -0.55560248092E+01  0.36114055752E+03  0.36353988798E+03  0.00000000000E+00 0. -1.
        -14    1    6    6    0    0 -0.78196319965E+01  0.59372370950E+02  0.52721428615E+03  0.53060449357E+03  0.00000000000E+00 0.  1.
</event>
<event>
12    1  0.9246030E-003  0.9685786E+03  0.7818608E-02  0.9344116E-01
         21   -1    0    0  503  502  0.00000000000E+00  0.00000000000E+00  0.63686903699E+03  0.63686903699E+03  0.00000000000E+00 0. -1.
         21   -1    0    0  501  503 -0.00000000000E+00 -0.00000000000E+00 -0.15350707907E+04  0.15350707907E+04  0.00000000000E+00 0.  1.
          6    2    1    2  501    0  0.27876950571E+03 -0.91132454074E+03 -0.67095339746E+03  0.11770597370E+04  0.16451840950E+03 0.  0.
         24    2    3    3    0    0  0.93489207406E+02 -0.38403160531E+03 -0.22189233466E+03  0.46009073014E+03  0.78909859976E+02 0.  0.
         -6    2    1    2    0  502 -0.27876950571E+03  0.91132454074E+03 -0.22724835628E+03  0.99488009070E+03  0.17297318743E+03 0.  0.
        -24    2    5    5    0    0 -0.19897775018E+03  0.78276442594E+03 -0.22976271475E+03  0.84347718661E+03  0.79690449000E+02 0.  0.
          5    1    3    3  501    0  0.18528029830E+03 -0.52729293543E+03 -0.44906106280E+03  0.71696900687E+03  0.47000000000E+01 0. -1.
        -13    1    4    4    0    0  0.78428377616E+02 -0.18874785069E+03 -0.86262257492E+02  0.22185116322E+03  0.00000000000E+00 0.  1.
         14    1    4    4    0    0  0.15060829790E+02 -0.19528375462E+03 -0.13563007717E+03  0.23823956692E+03  0.00000000000E+00 0. -1.
         -5    1    5    5    0  502 -0.79791755528E+02  0.12856011481E+03  0.25143584671E+01  0.15140290409E+03  0.47000000000E+01 0.  1.
         11    1    6    6    0    0 -0.53523422171E+02  0.13856416140E+03 -0.68939449811E+02  0.16376028604E+03  0.00000000000E+00 0. -1.
        -12    1    6    6    0    0 -0.14545432801E+03  0.64420026454E+03 -0.16082326493E+03  0.67971690056E+03  0.00000000000E+00 0.  1.
</event>
<event>
12    1  0.9246030E-003  0.2337007E+03  0.7818608E-02  0.1124208E+00
         21   -1    0    0  503  502  0.00000000000E+00  0.00000000000E+00  0.43099940692E+03  0.43099940692E+03  0.00000000000E+00 0. -1.
         21   -1    0    0  501  503 -0.00000000000E+00 -0.00000000000E+00 -0.17914061457E+03  0.17914061457E+03  0.00000000000E+00 0.  1.
          6    2    1    2  501    0  0.32164362341E+02 -0.15498714278E+03 -0.39980702590E+02  0.23625995215E+03  0.17077689475E+03 0.  0.
         24    2    3    3    0    0  0.75281834365E+00 -0.17573587313E+03 -0.20854993674E+02  0.19377374676E+03  0.78928260674E+02 0.  0.
         -6    2    1    2    0  502 -0.32164362341E+02  0.15498714278E+03  0.29183949493E+03  0.37388006933E+03  0.17193154105E+03 0.  0.
        -24    2    5    5    0    0 -0.62020224456E+01  0.16344611642E+03  0.17012523188E+03  0.24905199092E+03  0.79568848208E+02 0.  0.
          5    1    3    3  501    0  0.31411543997E+02  0.20748730343E+02 -0.19125708916E+02  0.42486205393E+02  0.47000000000E+01 0. -1.
        -11    1    4    4    0    0 -0.12708576416E+02 -0.43318498152E+02 -0.38727161107E+02  0.59479351073E+02  0.00000000000E+00 0.  1.
         12    1    4    4    0    0  0.13461394760E+02 -0.13241737498E+03  0.17872167433E+02  0.13429439569E+03  0.00000000000E+00 0. -1.
         -5    1    5    5    0  502 -0.25962339896E+02 -0.84589736398E+01  0.12171426306E+03  0.12482807841E+03  0.47000000000E+01 0.  1.
         13    1    6    6    0    0 -0.11320572621E+02  0.83500659097E+02  0.33513270106E+02  0.90684368594E+02  0.00000000000E+00 0. -1.
        -14    1    6    6    0    0  0.51185501757E+01  0.79945457327E+02  0.13661196177E+03  0.15836762233E+03  0.00000000000E+00 0.  1.
</event>
<event>
12    1  0.9246030E-003  0.1758523E+03  0.7818608E-02  0.1172547E+00
         21   -1    0    0  503  502  0.00000000000E+00  0.00000000000E+00  0.13490973407E+03  0.13490973407E+03  0.00000000000E+00 0.  1.
         21   -1    0    0  501  503 -0.00000000000E+00 -0.00000000000E+00 -0.26401890023E+03  0.26401890023E+03  0.00000000000E+00 0.  1.
          6    2    1    2  501    0  0.93393542248E+01 -0.24703527974E+02 -0.14005535072E+03  0.22273596516E+03  0.17116752344E+03 0.  0.
         24    2    3    3    0    0 -0.22547874259E+02 -0.34897080812E+02 -0.12488998364E+02  0.90766392482E+02  0.79726720999E+02 0.  0.
         -6    2    1    2    0  502 -0.93393542248E+01  0.24703527974E+02  0.10946184556E+02  0.17619266914E+03  0.17385784385E+03 0.  0.
        -24    2    5    5    0    0 -0.13360498432E+02  0.24550888981E+02  0.74865443131E+02  0.11197464584E+03  0.78436201255E+02 0.  0.
          5    1    3    3  501    0  0.31887228484E+02  0.10193552838E+02 -0.12756635236E+03  0.13196957268E+03  0.47000000000E+01 0. -1.
        -13    1    4    4    0    0 -0.11206146154E+02 -0.59758862273E+02 -0.16854309615E+02  0.63093320442E+02  0.00000000000E+00 0.  1.
         14    1    4    4    0    0 -0.11341728105E+02  0.24861781461E+02  0.43653112514E+01  0.27673072040E+02  0.00000000000E+00 0. -1.
         -5    1    5    5    0  502  0.40211442075E+01  0.15263899292E+00 -0.63919258576E+02  0.64218023298E+02  0.47000000000E+01 0.  1.
         11    1    6    6    0    0  0.32729989561E+02  0.12260948428E+02  0.25028742936E+02  0.42988615307E+02  0.00000000000E+00 0. -1.
        -12    1    6    6    0    0 -0.46090487993E+02  0.12289940553E+02  0.49836700195E+02  0.68986030532E+02  0.00000000000E+00 0.  1.
</event>
<event>
12    1  0.9246030E-003  0.3635240E+03  0.7818608E-02  0.1057244E+00
         21   -1    0    0  503  502  0.00000000000E+00  0.00000000000E+00  0.18890826794E+03  0.18890826794E+03  0.00000000000E+00 0. -1.
         21   -1    0    0  501  503 -0.00000000000E+00 -0.00000000000E+00 -0.72069322355E+03  0.72069322355E+03  0.00000000000E+00 0.  1.
          6    2    1    2  501    0 -0.15745730028E+03  0.27898487315E+03 -0.34532389686E+03  0.50104622367E+03  0.17080211840E+03 0.  0.
         24    2    3    3    0    0 -0.74325727845E+02  0.20151306151E+03 -0.14335920478E+03  0.26926061846E+03  0.76273136029E+02 0.  0.
         -6    2    1    2    0  502  0.15745730028E+03 -0.27898487315E+03 -0.18646105875E+03  0.40855526782E+03  0.17182642281E+03 0.  0.
        -24    2    5    5    0    0  0.18669319624E+03 -0.25415069862E+03 -0.15980581656E+03  0.36160778893E+03  0.75995834620E+02 0.  0.
          5    1    3    3  501    0 -0.83131572431E+02  0.77471811643E+02 -0.20196469208E+03  0.23178560521E+03  0.47000000000E+01 0. -1.
        -13    1    4    4    0    0 -0.93523506621E+01  0.81225587395E+00 -0.26470311347E+02  0.28085647675E+02  0.00000000000E+00 0.  1.
         14    1    4    4    0    0 -0.64973377183E+02  0.20070080563E+03 -0.11688889343E+03  0.24117497078E+03  0.00000000000E+00 0. -1.
         -5    1    5    5    0  502 -0.29235895965E+02 -0.24834174527E+02 -0.26655242196E+02  0.46947478887E+02  0.47000000000E+01 0.  1.
         13    1    6    6    0    0  0.51369905724E+02 -0.22679795749E+02 -0.31117675687E+02  0.64199299758E+02  0.00000000000E+00 0. -1.
        -14    1    6    6    0    0  0.13532329052E+03 -0.23147090287E+03 -0.12868814087E+03  0.29740848918E+03  0.00000000000E+00 0.  1.
</event>
<event>
12    1  0.9246030E-003  0.1773764E+03  0.7818608E-02  0.1171868E+00
         21   -1    0    0  503  502  0.00000000000E+00  0.00000000000E+00  0.40512233126E+02  0.40512233126E+02  0.00000000000E+00 0. -1.
         21   -1    0    0  501  503 -0.00000000000E+00 -0.00000000000E+00 -0.81312322653E+03  0.81312322653E+03  0.00000000000E+00 0. -1.
          6    2    1    2  501    0 -0.22050681187E+02 -0.87164399165E+01 -0.27413785905E+03  0.32651789973E+03  0.17578442540E+03 0.  0.
         24    2    3    3    0    0 -0.82051693476E+01  0.19834044732E+02 -0.57457023926E+02  0.10747566024E+03  0.88255276390E+02 0.  0.
         -6    2    1    2    0  502  0.22050681187E+02  0.87164399165E+01 -0.49847313435E+03  0.52711755992E+03  0.16975054475E+03 0.  0.
        -24    2    5    5    0    0 -0.50803292117E+02 -0.35487369772E+01 -0.32886064596E+03  0.34205372713E+03  0.79106635349E+02 0.  0.
          5    1    3    3  501    0 -0.13845511840E+02 -0.28550484648E+02 -0.21668083512E+03  0.21904223949E+03  0.47000000000E+01 0. -1.
        -11    1    4    4    0    0 -0.72365029549E+01 -0.12445713422E+02 -0.71008576834E+02  0.72453300419E+02  0.00000000000E+00 0.  1.
         12    1    4    4    0    0 -0.96866639273E+00  0.32279758154E+02  0.13551552908E+02  0.35022359819E+02  0.00000000000E+00 0. -1.
         -5    1    5    5    0  502  0.72853973304E+02  0.12265176894E+02 -0.16961248839E+03  0.18506383279E+03  0.47000000000E+01 0.  1.
         13    1    6    6    0    0  0.20575998003E+02  0.34545114257E+01 -0.10251459319E+03  0.10461618976E+03  0.00000000000E+00 0. -1.
        -14    1    6    6    0    0 -0.71379290120E+02 -0.70032484029E+01 -0.22634605277E+03  0.23743753737E+03  0.00000000000E+00 0.  1.
</event>
<event>
12    1  0.9246030E-003  0.2001881E+03  0.7818608E-02  0.1150311E+00
         21   -1    0    0  503  502  0.00000000000E+00  0.00000000000E+00  0.72046408161E+02  0.72046408161E+02  0.00000000000E+00 0.  1.
         21   -1    0    0  501  503 -0.00000000000E+00 -0.00000000000E+00 -0.54677808370E+03  0.54677808370E+03  0.00000000000E+00 0.  1.
          6    2    1    2  501    0 -0.28485500470E+02 -0.97812905826E+02 -0.23251526689E+03  0.30458883040E+03  0.16832176918E+03 0.  0.
         24    2    3    3    0    0 -0.20568786858E+02 -0.13528132894E+03 -0.19256925243E+03  0.24905207539E+03  0.78866382722E+02 0.  0.
         -6    2    1    2    0  502  0.28485500470E+02  0.97812905826E+02 -0.24221640865E+03  0.31423566147E+03  0.17232664923E+03 0.  0.
        -24    2    5    5    0    0  0.62646448626E+02  0.82686283636E+01 -0.10787915468E+03  0.14914860622E+03  0.81329250479E+02 0.  0.
          5    1    3    3  501    0 -0.79167136120E+01  0.37468423111E+02 -0.39946014469E+02  0.55536755008E+02  0.47000000000E+01 0. -1.
        -13    1    4    4    0    0  0.28546801450E+02 -0.72221170191E+02 -0.10315954168E+03  0.12912284204E+03  0.00000000000E+00 0.  1.
         14    1    4    4    0    0 -0.49115588308E+02 -0.63060158746E+02 -0.89409710748E+02  0.11992923335E+03  0.00000000000E+00 0. -1.
         -5    1    5    5    0  502 -0.34160948156E+02  0.89544277463E+02 -0.13433725397E+03  0.16508705524E+03  0.47000000000E+01 0.  1.
         11    1    6    6    0    0  0.27969505948E+01 -0.30385749518E+02 -0.22303181774E+02  0.37796145618E+02  0.00000000000E+00 0. -1.
        -12    1    6    6    0    0  0.59849498032E+02  0.38654377881E+02 -0.85575972907E+02  0.11135246061E+03  0.00000000000E+00 0.  1.
</event>
<event>
12    1  0.9246030E-003  0.3632025E+03  0.7818608E-02  0.1057467E+00
         21   -1    0    0  501  502  0.00000000000E+00  0.00000000000E+00  0.18540340206E+03  0.18540340206E+03  0.00000000000E+00 0.  1.
         21   -1    0    0  502  503 -0.00000000000E+00 -0.00000000000E+00 -0.10120771099E+04  0.10120771099E+04  0.00000000000E+00 0.  1.
          6    2    1    2  501    0 -0.16600657073E+03 -0.27127497926E+03 -0.86079925467E+02  0.37326369773E+03  0.17540735041E+03 0.  0.
         24    2    3    3    0    0 -0.23552197414E+02 -0.70644046191E+02 -0.57357348823E+02  0.12548739501E+03  0.83138039295E+02 0.  0.
         -6    2    1    2    0  503  0.16600657073E+03  0.27127497926E+03 -0.74059378232E+03  0.82421681418E+03  0.17235402658E+03 0.  0.
        -24    2    5    5    0    0  0.52592083516E+02  0.20643543263E+03 -0.51282727671E+03  0.56160172742E+03  0.83804352004E+02 0.  0.
          5    1    3    3  501    0 -0.14245437332E+03 -0.20063093306E+03 -0.28722576643E+02  0.24777630272E+03  0.47000000000E+01 0. -1.
        -13    1    4    4    0    0 -0.99994705555E+01 -0.68713520859E+02 -0.30748726474E+01  0.69505339378E+02  0.00000000000E+00 0.  1.
         14    1    4    4    0    0 -0.13552726858E+02 -0.19305253324E+01 -0.54282476176E+02  0.55982055635E+02  0.00000000000E+00 0. -1.
         -5    1    5    5    0  503  0.11341448721E+03  0.64839546626E+02 -0.22776650561E+03  0.26261508676E+03  0.47000000000E+01 0.  1.
         11    1    6    6    0    0 -0.21008787792E+02  0.22788119427E+02 -0.74640316296E+02  0.80819826579E+02  0.00000000000E+00 0. -1.
        -12    1    6    6    0    0  0.73600871308E+02  0.18364731320E+03 -0.43818696041E+03  0.48078190084E+03  0.00000000000E+00 0.  1.
</event>
<event>
12    1  0.9246030E-003  0.2033673E+03  0.7818608E-02  0.1149215E+00
         21   -1    0    0  503  502  0.00000000000E+00  0.00000000000E+00  0.11863661928E+04  0.11863661928E+04  0.00000000000E+00 0. -1.
         21   -1    0    0  501  503 -0.00000000000E+00 -0.00000000000E+00 -0.33503522496E+02  0.33503522496E+02  0.00000000000E+00 0. -1.
          6    2    1    2  501    0 -0.29891917718E+02  0.83042613409E+02  0.63262361219E+03  0.66129392181E+03  0.17119408264E+03 0.  0.
         24    2    3    3    0    0 -0.67209641860E+02  0.41869967070E+02  0.55007083936E+03  0.56167038220E+03  0.81396927628E+02 0.  0.
         -6    2    1    2    0  502  0.29891917718E+02 -0.83042613409E+02  0.52023905814E+03  0.55857579352E+03  0.18321745850E+03 0.  0.
        -24    2    5    5    0    0  0.68083423014E+02 -0.86538219940E+02  0.24156084250E+03  0.27723179018E+03  0.79884972654E+02 0.  0.
          5    1    3    3  501    0  0.37317724141E+02  0.41172646340E+02  0.82552772832E+02  0.99623539608E+02  0.47000000000E+01 0.  1.
        -11    1    4    4    0    0 -0.53083493947E+02  0.21469029438E+02  0.51782875454E+03  0.52098502434E+03  0.00000000000E+00 0.  1.
         12    1    4    4    0    0 -0.14126147913E+02  0.20400937632E+02  0.32242084821E+02  0.40685357866E+02  0.00000000000E+00 0. -1.
         -5    1    5    5    0  502 -0.38191505296E+02  0.34956065307E+01  0.27867821564E+03  0.28134400334E+03  0.47000000000E+01 0.  1.
         13    1    6    6    0    0  0.61196168187E+02 -0.50766000512E+02  0.22215651035E+03  0.23595693017E+03  0.00000000000E+00 0. -1.
        -14    1    6    6    0    0  0.68872548267E+01 -0.35772219428E+02  0.19404332155E+02  0.41274860002E+02  0.00000000000E+00 0.  1.
</event>
<event>
12    1  0.9246030E-003  0.1738384E+03  0.7818608E-02  0.1174694E+00
         21   -1    0    0  503  502  0.00000000000E+00  0.00000000000E+00  0.66022342747E+03  0.66022342747E+03  0.00000000000E+00 0. -1.
         21   -1    0    0  501  503 -0.00000000000E+00 -0.00000000000E+00 -0.45771351305E+02  0.45771351305E+02  0.00000000000E+00 0. -1.
          6    2    1    2  501    0  0.23826076589E+02 -0.17269260023E+02  0.26298315160E+03  0.31524579481E+03  0.17132969342E+03 0.  0.
         24    2    3    3    0    0  0.39639344568E+02  0.48619828491E+02  0.18898739235E+03  0.21480230912E+03  0.80552046378E+02 0.  0.
         -6    2    1    2    0  502 -0.23826076589E+02  0.17269260023E+02  0.35146892456E+03  0.39074898397E+03  0.16819171880E+03 0.  0.
        -24    2    5    5    0    0 -0.38987087158E+02  0.45341906732E+01  0.35847323649E+03  0.36922716671E+03  0.79278543801E+02 0.  0.
          5    1    3    3  501    0 -0.15813267979E+02 -0.65889088513E+02  0.73995759258E+02  0.10044348569E+03  0.47000000000E+01 0. -1.
        -13    1    4    4    0    0  0.30142318745E+02 -0.60233251370E+01  0.13101373188E+03  0.13457131108E+03  0.00000000000E+00 0.  1.
         14    1    4    4    0    0  0.94970258225E+01  0.54643153628E+02  0.57973660466E+02  0.80230998035E+02  0.00000000000E+00 0. -1.
         -5    1    5    5    0  502  0.15161010568E+02  0.12735069349E+02 -0.70043119243E+01  0.21521817263E+02  0.47000000000E+01 0.  1.
         13    1    6    6    0    0 -0.60886239896E+02  0.16939257383E+02  0.24846977170E+03  0.25638116174E+03  0.00000000000E+00 0. -1.
        -14    1    6    6    0    0  0.21899152738E+02 -0.12405066709E+02  0.11000346479E+03  0.11284600497E+03  0.00000000000E+00 0.  1.
</event>
<event>
12    1  0.9246030E-003  0.1752791E+03  0.7818608E-02  0.1172962E+00
         21   -1    0    0  503  502  0.00000000000E+00  0.00000000000E+00  0.38104613428E+02  0.38104613428E+02  0.00000000000E+00 0. -1.
         21   -1    0    0  501  503 -0.00000000000E+00 -0.00000000000E+00 -0.20718873088E+04  0.20718873088E+04  0.00000000000E+00 0. -1.
          6    2    1    2  501    0  0.25215906229E+02 -0.80444238214E+01 -0.18467268142E+04  0.18550263315E+04  0.17326918275E+03 0.  0.
         24    2    3    3    0    0  0.40125096121E+02  0.39335360689E+02 -0.65047404153E+03  0.65773358786E+03  0.79622232772E+02 0.  0.
         -6    2    1    2    0  502 -0.25215906229E+02  0.80444238214E+01 -0.18705588122E+03  0.25496559075E+03  0.17122206367E+03 0.  0.
        -24    2    5    5    0    0 -0.39691802681E+02  0.66330346152E+02 -0.15251242749E+03  0.18552395687E+03  0.71999611212E+02 0.  0.
          5    1    3    3  501    0 -0.14909189892E+02 -0.47379784510E+02 -0.11962527726E+04  0.11972927436E+04  0.47000000000E+01 0. -1.
        -11    1    4    4    0    0  0.47756203996E+02  0.54100332167E+01 -0.53455707389E+03  0.53671332080E+03  0.00000000000E+00 0.  1.
         12    1    4    4    0    0 -0.76311078745E+01  0.33925327472E+02 -0.11591696765E+03  0.12102026706E+03  0.00000000000E+00 0. -1.
         -5    1    5    5    0  502  0.14475896452E+02 -0.58285922330E+02 -0.34543453737E+02  0.69441633881E+02  0.47000000000E+01 0.  1.
         13    1    6    6    0    0 -0.69748874801E+01  0.24265088245E+00  0.69417224100E+01  0.98435483860E+01  0.00000000000E+00 0. -1.
        -14    1    6    6    0    0 -0.32716915201E+02  0.66087695269E+02 -0.15945414990E+03  0.17568040849E+03  0.00000000000E+00 0.  1.
</event>
<event>
12    1  0.9246030E-003  0.2010189E+03  0.7818608E-02  0.1149688E+00
         21   -1    0    0  501  502  0.00000000000E+00  0.00000000000E+00  0.71024686422E+03  0.71024686422E+03  0.00000000000E+00 0.  1.
         21   -1    0    0  502  503 -0.00000000000E+00 -0.00000000000E+00 -0.55962230584E+02  0.55962230584E+02  0.00000000000E+00 0. -1.
          6    2    1    2  501    0  0.10098300865E+03 -0.20896806151E+02  0.34942555849E+03  0.40312135597E+03  0.17255249107E+03 0.  0.
         24    2    3    3    0    0  0.67595331409E+02  0.15326623563E+02  0.33534167759E+03  0.35166924666E+03  0.80082358216E+02 0.  0.
         -6    2    1    2    0  503 -0.10098300865E+03  0.20896806151E+02  0.30485907515E+03  0.36308773883E+03  0.16810534152E+03 0.  0.
        -24    2    5    5    0    0 -0.54606543429E+02  0.55694852684E+02  0.96049535388E+02  0.14632705406E+03  0.78117234335E+02 0.  0.
          5    1    3    3  501    0  0.33387677236E+02 -0.36223429714E+02  0.14083880892E+02  0.51452109310E+02  0.47000000000E+01 0. -1.
        -13    1    4    4    0    0  0.37089956555E+01  0.95421040183E+01 -0.98445601596E-02  0.10237602004E+02  0.00000000000E+00 0.  1.
         14    1    4    4    0    0  0.63886335754E+02  0.57845195448E+01  0.33535152215E+03  0.34143164466E+03  0.00000000000E+00 0. -1.
         -5    1    5    5    0  503 -0.46376465216E+02 -0.34798046533E+02  0.20880953976E+03  0.21676068478E+03  0.47000000000E+01 0.  1.
         11    1    6    6    0    0 -0.49379117643E+01  0.11435359039E+02 -0.13368268896E+02  0.18271864224E+02  0.00000000000E+00 0. -1.
        -12    1    6    6    0    0 -0.49668631665E+02  0.44259493645E+02  0.10941780428E+03  0.12805518983E+03  0.00000000000E+00 0.  1.
</event>
<event>
12    1  0.9246030E-003  0.3768542E+03  0.7818608E-02  0.1052469E+00
         21   -1    0    0  503  502  0.00000000000E+00  0.00000000000E+00  0.60204383121E+03  0.60204383121E+03  0.00000000000E+00 0.  1.
         21   -1    0    0  501  503 -0.00000000000E+00 -0.00000000000E+00 -0.23382678624E+03  0.23382678624E+03  0.00000000000E+00 0. -1.
          6    2    1    2  501    0 -0.16846789974E+03  0.28978720933E+03  0.16652599353E+03  0.40843834227E+03  0.16350202744E+03 0.  0.
         24    2    3    3    0    0 -0.65028506245E+02  0.54755604352E+02  0.52512364167E+02  0.12743876727E+03  0.79096195743E+02 0.  0.
         -6    2    1    2    0  502  0.16846789974E+03 -0.28978720933E+03  0.20169105144E+03  0.42743227518E+03  0.17222371991E+03 0.  0.
        -24    2    5    5    0    0  0.81872512935E+02 -0.12481167812E+03  0.26731217289E+02  0.17179831718E+03  0.80740574931E+02 0.  0.
          5    1    3    3  501    0 -0.10343939349E+03  0.23503160498E+03  0.11401362937E+03  0.28099957500E+03  0.47000000000E+01 0. -1.
        -11    1    4    4    0    0 -0.63146616735E+02  0.62312877512E+02  0.66877018000E+02  0.11109871937E+03  0.00000000000E+00 0.  1.
         12    1    4    4    0    0 -0.18818895108E+01 -0.75572731598E+01 -0.14364653833E+02  0.16340047903E+02  0.00000000000E+00 0. -1.
         -5    1    5    5    0  502  0.86595386802E+02 -0.16497553122E+03  0.17495983415E+03  0.25563395800E+03  0.47000000000E+01 0.  1.
         11    1    6    6    0    0  0.73840640909E+02 -0.45519583744E+02  0.30662424010E+02  0.92003570585E+02  0.00000000000E+00 0. -1.
        -12    1    6    6    0    0  0.80318720261E+01 -0.79292094372E+02 -0.39312067218E+01  0.79794746597E+02  0.00000000000E+00 0.  1.
</event>
<event>
12    1  0.9246030E-003  0.1929895E+03  0.7818608E-02  0.1155952E+00
         21   -1    0    0  503  502  0.00000000000E+00  0.00000000000E+00  0.18544345500E+03  0.18544345500E+03  0.00000000000E+00 0.  1.
         21   -1    0    0  501  503 -0.00000000000E+00 -0.00000000000E+00 -0.35097222473E+03  0.35097222473E+03  0.00000000000E+00 0.  1.
          6    2    1    2  501    0 -0.67134675795E+02  0.55216803732E+02 -0.25852893661E+03  0.32218683964E+03  0.17149690510E+03 0.  0.
         24    2    3    3    0    0  0.17683352653E+02  0.66504589695E+02 -0.15767722144E+03  0.18984383636E+03  0.80268391243E+02 0.  0.
         -6    2    1    2    0  502  0.67134675795E+02 -0.55216803732E+02  0.93000166885E+02  0.21422884009E+03  0.17230497607E+03 0.  0.
        -24    2    5    5    0    0  0.86815563881E+02 -0.91129345216E+02  0.86887567623E+02  0.17255748468E+03  0.79907048632E+02 0.  0.
          5    1    3    3  501    0 -0.84818028447E+02 -0.11287785964E+02 -0.10085171518E+03  0.13234300327E+03  0.47000000000E+01 0. -1.
        -13    1    4    4    0    0 -0.30085503998E+02  0.42597951610E+02 -0.83126713141E+02  0.98131409191E+02  0.00000000000E+00 0.  1.
         14    1    4    4    0    0  0.47768856651E+02  0.23906638085E+02 -0.74550508296E+02  0.91712427170E+02  0.00000000000E+00 0. -1.
         -5    1    5    5    0  502 -0.19680888086E+02  0.35912541485E+02  0.61125992620E+01  0.41671355407E+02  0.47000000000E+01 0.  1.
         11    1    6    6    0    0  0.50593146851E+02 -0.99375265035E+02  0.59415778114E+02  0.12635404425E+03  0.00000000000E+00 0. -1.
        -12    1    6    6    0    0  0.36222417030E+02  0.82459198185E+01  0.27471789509E+02  0.46203440434E+02  0.00000000000E+00 0.  1.
</event>
<event>
12    1  0.9246030E-003  0.1862505E+03  0.7818608E-02  0.1163414E+00
         21   -1    0    0  503  502  0.00000000000E+00  0.00000000000E+00  0.23793590505E+03  0.23793590505E+03  0.00000000000E+00 0. -1.
         21   -1    0    0  501  503 -0.00000000000E+00 -0.00000000000E+00 -0.15481480088E+03  0.15481480088E+03  0.00000000000E+00 0. -1.
          6    2    1    2  501    0 -0.54032801438E+02 -0.45327453788E+02 -0.18249750796E+02  0.18070049842E+03  0.16536473333E+03 0.  0.
         24    2    3    3    0    0  0.22904657117E+02 -0.58132911382E+02 -0.19278996643E+02  0.10255639039E+03  0.79006802208E+02 0.  0.
         -6    2    1    2    0  502  0.54032801438E+02  0.45327453788E+02  0.10137085497E+03  0.21205020751E+03  0.17238073723E+03 0.  0.
        -24    2    5    5    0    0  0.17942006674E+02 -0.29915605179E+02  0.19993268476E+02  0.95394881980E+02  0.86507766628E+02 0.  0.
          5    1    3    3  501    0 -0.76937458554E+02  0.12805457595E+02  0.10292458467E+01  0.78144108032E+02  0.47000000000E+01 0. -1.
        -13    1    4    4    0    0  0.33314412122E+02  0.40217714786E+01 -0.20868344354E+02  0.39515977742E+02  0.00000000000E+00 0.  1.
         14    1    4    4    0    0 -0.10409755005E+02 -0.62154682861E+02  0.15893477115E+01  0.63040412649E+02  0.00000000000E+00 0. -1.
         -5    1    5    5    0  502  0.36090794763E+02  0.75243058966E+02  0.81377586499E+02  0.11665532553E+03  0.47000000000E+01 0.  1.
         11    1    6    6    0    0 -0.80648491723E+01  0.27095438143E+02  0.16278881405E+02  0.32622178654E+02  0.00000000000E+00 0. -1.
        -12    1    6    6    0    0  0.26006855847E+02 -0.57011043322E+02  0.37143870716E+01  0.62772703327E+02  0.00000000000E+00 0.  1.
</event>
<event>
12    1  0.9246030E-003  0.5021413E+03  0.7818608E-02  0.1013224E+00
         21   -1    0    0  503  502  0.00000000000E+00  0.00000000000E+00  0.83957460651E+03  0.83957460651E+03  0.00000000000E+00 0.  1.
         21   -1    0    0  501  503 -0.00000000000E+00 -0.00000000000E+00 -0.33918307399E+03  0.33918307399E+03  0.00000000000E+00 0. -1.
          6    2    1    2  501    0 -0.18198206560E+03  0.43541199491E+03  0.50653034493E+02  0.50468960126E+03  0.17159483153E+03 0.  0.
         24    2    3    3    0    0 -0.18758107375E+03  0.42704737237E+03  0.73724398545E+02  0.47908308565E+03  0.80803456242E+02 0.  0.
         -6    2    1    2    0  502  0.18198206560E+03 -0.43541199491E+03  0.44973849803E+03  0.67406807924E+03  0.17147005957E+03 0.  0.
        -24    2    5    5    0    0  0.77809524459E+02 -0.14520231978E+03  0.23456998795E+03  0.29804527196E+03  0.81669266691E+02 0.  0.
          5    1    3    3  501    0  0.55990081442E+01  0.83646225357E+01 -0.23071364052E+02  0.25606515608E+02  0.47000000000E+01 0. -1.
        -11    1    4    4    0    0 -0.81175474313E+02  0.25848578948E+03  0.69486905016E+02  0.27970125306E+03  0.00000000000E+00 0.  1.
         12    1    4    4    0    0 -0.10640559944E+03  0.16856158289E+03  0.42374935289E+01  0.19938183260E+03  0.00000000000E+00 0. -1.
         -5    1    5    5    0  502  0.10417254115E+03 -0.29020967513E+03  0.21516851008E+03  0.37602280728E+03  0.47000000000E+01 0.  1.
         11    1    6    6    0    0  0.22475634567E+02 -0.54714659523E+02  0.27159567590E+02  0.65088326354E+02  0.00000000000E+00 0. -1.
        -12    1    6    6    0    0  0.55333889891E+02 -0.90487660254E+02  0.20741042036E+03  0.23295694560E+03  0.00000000000E+00 0.  1.
</event>
<event>
12    1  0.9246030E-003  0.3100332E+03  0.7818608E-02  0.1080402E+00
         21   -1    0    0  503  502  0.00000000000E+00  0.00000000000E+00  0.65863526379E+03  0.65863526379E+03  0.00000000000E+00 0.  1.
         21   -1    0    0  501  503 -0.00000000000E+00 -0.00000000000E+00 -0.20124676447E+03  0.20124676447E+03  0.00000000000E+00 0. -1.
          6    2    1    2  501    0 -0.10214114870E+03 -0.23641549569E+03  0.25655656814E+01  0.30944174254E+03  0.17152990714E+03 0.  0.
         24    2    3    3    0    0 -0.84006285585E+01 -0.82566616133E+02  0.46911693040E+02  0.12384693694E+03  0.79054033326E+02 0.  0.
         -6    2    1    2    0  502  0.10214114870E+03  0.23641549569E+03  0.45482293363E+03  0.55044028571E+03  0.17261374894E+03 0.  0.
        -24    2    5    5    0    0  0.56966661895E+01  0.10185720826E+03  0.11942065598E+03  0.17637578757E+03  0.80248255338E+02 0.  0.
          5    1    3    3  501    0 -0.93740520143E+02 -0.15384887955E+03 -0.44346127359E+02  0.18559480561E+03  0.47000000000E+01 0. -1.
        -13    1    4    4    0    0 -0.34998605101E+02 -0.20208057271E+02  0.37993634874E+02  0.55468768046E+02  0.00000000000E+00 0.  1.
         14    1    4    4    0    0  0.26597976542E+02 -0.62358558861E+02  0.89180581664E+01  0.68378168891E+02  0.00000000000E+00 0. -1.
         -5    1    5    5    0  502  0.96444482512E+02  0.13455828743E+03  0.33540227765E+03  0.37406449815E+03  0.47000000000E+01 0.  1.
         11    1    6    6    0    0 -0.81126820218E+01  0.56573712326E+02  0.11550568848E+03  0.12887189223E+03  0.00000000000E+00 0. -1.
        -12    1    6    6    0    0  0.13809348211E+02  0.45283495930E+02  0.39149675055E+01  0.47503895338E+02  0.00000000000E+00 0.  1.
</event>
<event>
12    1  0.9246030E-003  0.1994021E+03  0.7818608E-02  0.1150254E+00
         21   -1    0    0  501  502  0.00000000000E+00  0.00000000000E+00  0.73369028774E+02  0.73369028774E+02  0.00000000000E+00 0.  1.
         21   -1    0    0  502  503 -0.00000000000E+00 -0.00000000000E+00 -0.57367579222E+03  0.57367579222E+03  0.00000000000E+00 0.  1.
          6    2    1    2  501    0 -0.85230412342E+02 -0.56454904445E+02 -0.32637438446E+03  0.38244389026E+03  0.17114821337E+03 0.  0.
         24    2    3    3    0    0 -0.11835293918E+03 -0.63488462645E+02 -0.21441971788E+03  0.26538616905E+03  0.80098690401E+02 0.  0.
         -6    2    1    2    0  503  0.85230412342E+02  0.56454904445E+02 -0.17393237899E+03  0.26460093074E+03  0.17120105334E+03 0.  0.
        -24    2    5    5    0    0  0.64225067796E+02  0.77836223931E+02 -0.19067584502E+03  0.22994809568E+03  0.79595927941E+02 0.  0.
          5    1    3    3  501    0  0.33122526842E+02  0.70335581994E+01 -0.11195466658E+03  0.11705772121E+03  0.47000000000E+01 0. -1.
        -13    1    4    4    0    0 -0.39559416371E+02 -0.66665804709E+02 -0.10668162445E+03  0.13187208172E+03  0.00000000000E+00 0.  1.
         14    1    4    4    0    0 -0.78793522813E+02  0.31773420649E+01 -0.10773809342E+03  0.13351408732E+03  0.00000000000E+00 0. -1.
         -5    1    5    5    0  503  0.21005344546E+02 -0.21381319486E+02  0.16743466034E+02  0.34652835054E+02  0.47000000000E+01 0.  1.
         11    1    6    6    0    0  0.24393834624E+01  0.49591683373E+02 -0.12887248621E+03  0.13810649280E+03  0.00000000000E+00 0. -1.
        -12    1    6    6    0    0  0.61785684334E+02  0.28244540558E+02 -0.61803358810E+02  0.91841602883E+02  0.00000000000E+00 0.  1.
</event>
<event>
12    1  0.9246030E-003  0.2246530E+03  0.7818608E-02  0.1130473E+00
         21   -1    0    0  503  502  0.00000000000E+00  0.00000000000E+00  0.93791715930E+03  0.93791715930E+03  0.00000000000E+00 0.  1.
         21   -1    0    0  501  503 -0.00000000000E+00 -0.00000000000E+00 -0.61268133487E+02  0.61268133487E+02  0.00000000000E+00 0. -1.
          6    2    1    2  501    0 -0.14511294008E+03 -0.61516263173E+01  0.61287905660E+03  0.65275547917E+03  0.17138660881E+03 0.  0.
         24    2    3    3    0    0 -0.17797221877E+02 -0.41047845609E+02  0.21262728951E+03  0.23126929282E+03  0.79205143909E+02 0.  0.
         -6    2    1    2    0  502  0.14511294008E+03  0.61516263173E+01  0.26376996921E+03  0.34642981362E+03  0.17129918628E+03 0.  0.
        -24    2    5    5    0    0  0.79419697926E+02 -0.63214996785E+02  0.18344851453E+03  0.22152602445E+03  0.71531795653E+02 0.  0.
          5    1    3    3  501    0 -0.12731571821E+03  0.34896219292E+02  0.40025176709E+03  0.42148618635E+03  0.47000000000E+01 0. -1.
        -11    1    4    4    0    0 -0.34954961682E+02 -0.59253442525E+01  0.16905578461E+03  0.17273337072E+03  0.00000000000E+00 0.  1.
         12    1    4    4    0    0  0.17157739804E+02 -0.35122501357E+02  0.43571504901E+02  0.58535922100E+02  0.00000000000E+00 0. -1.
         -5    1    5    5    0  502  0.65693242157E+02  0.69366623102E+02  0.80321454683E+02  0.12490378917E+03  0.47000000000E+01 0.  1.
         13    1    6    6    0    0  0.57299127776E+02 -0.15436419567E+01  0.69537873036E+02  0.90117083068E+02  0.00000000000E+00 0. -1.
        -14    1    6    6    0    0  0.22120570150E+02 -0.61671354828E+02  0.11391064150E+03  0.13140894139E+03  0.00000000000E+00 0.  1.
</event>
<event>
12    1  0.9246030E-003  0.2267885E+03  0.7818608E-02  0.1128952E+00
         21   -1    0    0  501  502  0.00000000000E+00  0.00000000000E+00  0.10961766857E+04  0.10961766857E+04  0.00000000000E+00 0.  1.
         21   -1    0    0  502  503 -0.00000000000E+00 -0.00000000000E+00 -0.46884966084E+02  0.46884966084E+02  0.00000000000E+00 0. -1.
          6    2    1    2  501    0  0.72153549543E+02  0.12918623900E+03  0.52514445787E+03  0.57195452067E+03  0.17163931084E+03 0.  0.
         24    2    3    3    0    0  0.39545506794E+02  0.47320007917E+02  0.11784917605E+03  0.15520891381E+03  0.79989676671E+02 0.  0.
         -6    2    1    2    0  503 -0.72153549543E+02 -0.12918623900E+03  0.52414726177E+03  0.57110713114E+03  0.17186559911E+03 0.  0.
        -24    2    5    5    0    0 -0.10014723980E+03 -0.74952546302E+02  0.25264688198E+03  0.29279168718E+03  0.79051699998E+02 0.  0.
          5    1    3    3  501    0  0.32608042749E+02  0.81866231085E+02  0.40729528182E+03  0.41674560686E+03  0.47000000000E+01 0. -1.
        -11    1    4    4    0    0 -0.65889638219E+01 -0.17291862332E+02  0.92596710319E+01  0.20692135095E+02  0.00000000000E+00 0.  1.
         12    1    4    4    0    0  0.46134470615E+02  0.64611870249E+02  0.10858950502E+03  0.13451677872E+03  0.00000000000E+00 0. -1.
         -5    1    5    5    0  503  0.27993690255E+02 -0.54233692700E+02  0.27150037979E+03  0.27831544396E+03  0.47000000000E+01 0.  1.
         11    1    6    6    0    0 -0.96890881306E+01  0.15530915229E+02  0.48781887865E+02  0.52103362083E+02  0.00000000000E+00 0. -1.
        -12    1    6    6    0    0 -0.90458151667E+02 -0.90483461532E+02  0.20386499412E+03  0.24068832510E+03  0.00000000000E+00 0.  1.
</event>
<event>
12    1  0.9246030E-003  0.1998225E+03  0.7818608E-02  0.1149902E+00
         21   -1    0    0  503  502  0.00000000000E+00  0.00000000000E+00  0.51409667231E+02  0.51409667231E+02  0.00000000000E+00 0. -1.
         21   -1    0    0  501  503 -0.00000000000E+00 -0.00000000000E+00 -0.85534063893E+03  0.85534063893E+03  0.00000000000E+00 0. -1.
          6    2    1    2  501    0  0.82669505356E+02  0.56321443057E+02 -0.53960893315E+03  0.57539679053E+03  0.17290839700E+03 0.  0.
         24    2    3    3    0    0  0.10507892354E+03  0.67136033264E+02 -0.29794558111E+03  0.33241036477E+03  0.78589147909E+02 0.  0.
         -6    2    1    2    0  502 -0.82669505356E+02 -0.56321443057E+02 -0.26432203855E+03  0.33135351564E+03  0.17298167590E+03 0.  0.
        -24    2    5    5    0    0 -0.66110196967E+01 -0.56610541564E+02 -0.68225529175E+02  0.12097075064E+03  0.82041091416E+02 0.  0.
          5    1    3    3  501    0 -0.22409418179E+02 -0.10814590207E+02 -0.24166335204E+03  0.24298642576E+03  0.47000000000E+01 0. -1.
        -13    1    4    4    0    0  0.68815082251E+02  0.57557347510E+02 -0.11602492723E+03  0.14666338172E+03  0.00000000000E+00 0.  1.
         14    1    4    4    0    0  0.36263841284E+02  0.95786857542E+01 -0.18192065388E+03  0.18574698305E+03  0.00000000000E+00 0. -1.
         -5    1    5    5    0  502 -0.76058485660E+02  0.28909850668E+00 -0.19609650938E+03  0.21038276500E+03  0.47000000000E+01 0.  1.
         13    1    6    6    0    0 -0.32432280515E+02  0.36992441817E+01 -0.12712488897E+02  0.35030623758E+02  0.00000000000E+00 0. -1.
        -14    1    6    6    0    0  0.25821260818E+02 -0.60309785745E+02 -0.55513040278E+02  0.85940126878E+02  0.00000000000E+00 0.  1.
</event>
<event>
12    1  0.9246030E-003  0.1778783E+03  0.7818608E-02  0.1170058E+00
         21   -1    0    0  503  502  0.00000000000E+00  0.00000000000E+00  0.20655630402E+03  0.20655630402E+03  0.00000000000E+00 0.  1.
         21   -1    0    0  501  503 -0.00000000000E+00 -0.00000000000E+00 -0.15978956812E+03  0.15978956812E+03  0.00000000000E+00 0.  1.
          6    2    1    2  501    0 -0.12936113020E+02 -0.44570667211E+02  0.62365825028E+02  0.18778493157E+03  0.17093799167E+03 0.  0.
         24    2    3    3    0    0  0.19131690438E+02  0.31861982087E+02  0.59271558979E+02  0.10470690571E+03  0.77905140515E+02 0.  0.
         -6    2    1    2    0  502  0.12936113020E+02  0.44570667211E+02 -0.15599089123E+02  0.17856094058E+03  0.17171718179E+03 0.  0.
        -24    2    5    5    0    0  0.20811231321E+01  0.84585618634E+02  0.25167589206E+02  0.12022536648E+03  0.81619074037E+02 0.  0.
          5    1    3    3  501    0 -0.32067803457E+02 -0.76432649298E+02  0.30942660490E+01  0.83078025853E+02  0.47000000000E+01 0. -1.
        -11    1    4    4    0    0  0.26159789551E+01 -0.22049694371E+02  0.38831522007E+02  0.44731638346E+02  0.00000000000E+00 0.  1.
         12    1    4    4    0    0  0.16515711483E+02  0.53911676458E+02  0.20440036972E+02  0.59975267367E+02  0.00000000000E+00 0. -1.
         -5    1    5    5    0  502  0.10854989888E+02 -0.40014951423E+02 -0.40766678330E+02  0.58335574094E+02  0.47000000000E+01 0.  1.
         11    1    6    6    0    0  0.79942153486E+01  0.55825345824E+01  0.38651167460E+02  0.39862073672E+02  0.00000000000E+00 0. -1.
        -12    1    6    6    0    0 -0.59130922165E+01  0.79003084052E+02 -0.13483578253E+02  0.80363292813E+02  0.00000000000E+00 0.  1.
</event>
<event>
12    1  0.9246030E-003  0.1751070E+03  0.7818608E-02  0.1172999E+00
         21   -1    0    0  503  502  0.00000000000E+00  0.00000000000E+00  0.89934840127E+02  0.89934840127E+02  0.00000000000E+00 0. -1.
         21   -1    0    0  501  503 -0.00000000000E+00 -0.00000000000E+00 -0.34429879540E+03  0.34429879540E+03  0.00000000000E+00 0. -1.
          6    2    1    2  501    0  0.27174114138E+02  0.18795874842E+02 -0.15588787104E+03  0.23333564003E+03  0.17044874650E+03 0.  0.
         24    2    3    3    0    0 -0.54009194642E+02  0.89735467836E+01 -0.62883213532E+02  0.10940354544E+03  0.70833040046E+02 0.  0.
         -6    2    1    2    0  502 -0.27174114138E+02 -0.18795874842E+02 -0.98476084232E+02  0.20089799549E+03  0.17196147254E+03 0.  0.
        -24    2    5    5    0    0 -0.75171738351E+02 -0.42484651384E+02 -0.87558017744E+02  0.14606894990E+03  0.78828902091E+02 0.  0.
          5    1    3    3  501    0  0.81183308780E+02  0.98223280584E+01 -0.93004657509E+02  0.12393209460E+03  0.47000000000E+01 0. -1.
        -11    1    4    4    0    0 -0.49214466249E+02  0.36553021747E+02 -0.39485974756E+02  0.72920019813E+02  0.00000000000E+00 0.  1.
         12    1    4    4    0    0 -0.47947283929E+01 -0.27579474963E+02 -0.23397238776E+02  0.36483525624E+02  0.00000000000E+00 0. -1.
         -5    1    5    5    0  502  0.47997624214E+02  0.23688776542E+02 -0.10918066487E+02  0.54829045587E+02  0.47000000000E+01 0.  1.
         13    1    6    6    0    0 -0.39561874476E+02 -0.58747999490E+02 -0.78801813510E+02  0.10595374070E+03  0.00000000000E+00 0. -1.
        -14    1    6    6    0    0 -0.35609863875E+02  0.16263348106E+02 -0.87562042345E+01  0.40115209203E+02  0.00000000000E+00 0.  1.
</event>
<event>
12    1  0.9246030E-003  0.1812327E+03  0.7818608E-02  0.1167070E+00
         21   -1    0    0  501  502  0.00000000000E+00  0.00000000000E+00  0.45884135238E+03  0.45884135238E+03  0.00000000000E+00 0.  1.
         21   -1    0    0  502  503 -0.00000000000E+00 -0.00000000000E+00 -0.70885902456E+02  0.70885902456E+02  0.00000000000E+00 0.  1.
          6    2    1    2  501    0 -0.31284635421E+02  0.50347825614E+02  0.19969710851E+03  0.26841040083E+03  0.16926776471E+03 0.  0.
         24    2    3    3    0    0 -0.44558772233E+02  0.91706325129E+02  0.11508114669E+03  0.17318078786E+03  0.79701823762E+02 0.  0.
         -6    2    1    2    0  503  0.31284635421E+02 -0.50347825614E+02  0.18825834141E+03  0.26131685400E+03  0.17126489167E+03 0.  0.
        -24    2    5    5    0    0 -0.40160671482E+02 -0.58419500903E+02  0.10041608821E+03  0.14770375939E+03  0.81898059479E+02 0.  0.
          5    1    3    3  501    0  0.13274136811E+02 -0.41358499515E+02  0.84615961829E+02  0.95229612970E+02  0.47000000000E+01 0. -1.
        -13    1    4    4    0    0 -0.31034209860E+02  0.70264506300E+02  0.26834963826E+02  0.81365461412E+02  0.00000000000E+00 0.  1.
         14    1    4    4    0    0 -0.13524562373E+02  0.21441818829E+02  0.88246182861E+02  0.91815326452E+02  0.00000000000E+00 0. -1.
         -5    1    5    5    0  503  0.71445306904E+02  0.80716752890E+01  0.87842253202E+02  0.11361309462E+03  0.47000000000E+01 0.  1.
         11    1    6    6    0    0 -0.98044699815E+01  0.13456179574E+02 -0.42245709770E+01  0.17176827422E+02  0.00000000000E+00 0. -1.
        -12    1    6    6    0    0 -0.30356201501E+02 -0.71875680477E+02  0.10464065919E+03  0.13052693197E+03  0.00000000000E+00 0.  1.
</event>
<event>
12    1  0.9246030E-003  0.2325046E+03  0.7818608E-02  0.1124913E+00
         21   -1    0    0  501  502  0.00000000000E+00  0.00000000000E+00  0.25426185642E+02  0.25426185642E+02  0.00000000000E+00 0. -1.
         21   -1    0    0  502  503 -0.00000000000E+00 -0.00000000000E+00 -0.22137065528E+04  0.22137065528E+04  0.00000000000E+00 0.  1.
          6    2    1    2  501    0 -0.26676136106E+02  0.15258264596E+03 -0.87010879851E+03  0.90063739314E+03  0.17339351944E+03 0.  0.
         24    2    3    3    0    0  0.44764359595E+02  0.54007562863E+02 -0.31529355640E+03  0.33260320903E+03  0.79336014611E+02 0.  0.
         -6    2    1    2    0  503  0.26676136106E+02 -0.15258264596E+03 -0.13181715686E+04  0.13384953453E+04  0.17320630741E+03 0.  0.
        -24    2    5    5    0    0  0.80026506780E+01 -0.15875952105E+03 -0.80205796060E+03  0.82198571397E+03  0.84231311734E+02 0.  0.
          5    1    3    3  501    0 -0.71440495701E+02  0.98575083097E+02 -0.55481524211E+03  0.56803418411E+03  0.47000000000E+01 0. -1.
        -11    1    4    4    0    0  0.47011971880E+02  0.58886946810E+02 -0.31784593981E+03  0.32665553640E+03  0.00000000000E+00 0.  1.
         12    1    4    4    0    0 -0.22476122846E+01 -0.48793839467E+01  0.25523834115E+01  0.59476726339E+01  0.00000000000E+00 0. -1.
         -5    1    5    5    0  503  0.18673485428E+02  0.61768750904E+01 -0.51611360804E+03  0.51650963132E+03  0.47000000000E+01 0.  1.
         11    1    6    6    0    0 -0.34273298635E+02 -0.38182041974E+02 -0.19594008756E+03  0.20254640269E+03  0.00000000000E+00 0. -1.
        -12    1    6    6    0    0  0.42275949313E+02 -0.12057747908E+03 -0.60611787304E+03  0.61943931128E+03  0.00000000000E+00 0.  1.
</event>
<event>
12    1  0.9246030E-003  0.1978675E+03  0.7818608E-02  0.1151562E+00
         21   -1    0    0  503  502  0.00000000000E+00  0.00000000000E+00  0.84627105297E+02  0.84627105297E+02  0.00000000000E+00 0.  1.
         21   -1    0    0  501  503 -0.00000000000E+00 -0.00000000000E+00 -0.53963712566E+03  0.53963712566E+03  0.00000000000E+00 0. -1.
          6    2    1    2  501    0  0.15985369452E+02 -0.97814426574E+02 -0.34552953582E+03  0.39817359240E+03  0.17125523488E+03 0.  0.
         24    2    3    3    0    0  0.13415970531E+02  0.67365683093E+01 -0.85444913092E+02  0.11781023295E+03  0.79706011037E+02 0.  0.
         -6    2    1    2    0  502 -0.15985369452E+02  0.97814426574E+02 -0.10948048454E+03  0.22609063856E+03  0.17119522852E+03 0.  0.
        -24    2    5    5    0    0 -0.38938193469E+02  0.55147075571E+02 -0.13559335888E+03  0.17085200011E+03  0.79040901515E+02 0.  0.
          5    1    3    3  501    0  0.25693989210E+01 -0.10455099488E+03 -0.26008462273E+03  0.28036335945E+03  0.47000000000E+01 0. -1.
        -11    1    4    4    0    0  0.26209250813E+02 -0.25562997265E+02 -0.71590112198E+02  0.80408555651E+02  0.00000000000E+00 0.  1.
         12    1    4    4    0    0 -0.12793280282E+02  0.32299565574E+02 -0.13854800893E+02  0.37401677294E+02  0.00000000000E+00 0. -1.
         -5    1    5    5    0  502  0.22952824018E+02  0.42667351003E+02  0.26112874342E+02  0.55238638455E+02  0.47000000000E+01 0.  1.
         13    1    6    6    0    0 -0.84212673229E+01  0.12536621078E+02 -0.11261798396E+03  0.11362611902E+03  0.00000000000E+00 0. -1.
        -14    1    6    6    0    0 -0.30516926146E+02  0.42610454494E+02 -0.22975374922E+02  0.57225881089E+02  0.00000000000E+00 0.  1.
</event>
<event>
12    1  0.9246030E-003  0.1936981E+03  0.7818608E-02  0.1155357E+00
         21   -1    0    0  503  502  0.00000000000E+00  0.00000000000E+00  0.11586309459E+03  0.11586309459E+03  0.00000000000E+00 0. -1.
         21   -1    0    0  501  503 -0.00000000000E+00 -0.00000000000E+00 -0.52936746683E+03  0.52936746683E+03  0.00000000000E+00 0. -1.
          6    2    1    2  501    0 -0.12074255745E+02  0.85813006645E+02 -0.40820262906E+03  0.45145994881E+03  0.17227025063E+03 0.  0.
         24    2    3    3    0    0  0.58806979816E+02  0.59584715634E+02 -0.21502497065E+03  0.24397074305E+03  0.79229958008E+02 0.  0.
         -6    2    1    2    0  502  0.12074255745E+02 -0.85813006645E+02 -0.53017431776E+01  0.19377061261E+03  0.17323187371E+03 0.  0.
        -24    2    5    5    0    0  0.26244830723E+02 -0.12457938613E+03 -0.16132979089E+02  0.15083993541E+03  0.79269152339E+02 0.  0.
          5    1    3    3  501    0 -0.70881235561E+02  0.26228291011E+02 -0.19317765840E+03  0.20748920577E+03  0.47000000000E+01 0. -1.
        -13    1    4    4    0    0 -0.18453149538E+01  0.53083433278E+02 -0.83086485459E+02  0.98613488641E+02  0.00000000000E+00 0.  1.
         14    1    4    4    0    0  0.60652294770E+02  0.65012823557E+01 -0.13193848519E+03  0.14535725441E+03  0.00000000000E+00 0. -1.
         -5    1    5    5    0  502 -0.14170574978E+02  0.38766379481E+02  0.10831235912E+02  0.42930677197E+02  0.47000000000E+01 0.  1.
         13    1    6    6    0    0 -0.34528807535E+01 -0.10792997313E+03  0.92385992666E+01  0.10837967153E+03  0.00000000000E+00 0. -1.
        -14    1    6    6    0    0  0.29697711476E+02 -0.16649412996E+02 -0.25371578356E+02  0.42460263875E+02  0.00000000000E+00 0.  1.
</event>
<event>
12    1  0.9246030E-003  0.1861701E+03  0.7818608E-02  0.1161963E+00
         21   -1    0    0  503  502  0.00000000000E+00  0.00000000000E+00  0.17946735594E+03  0.17946735594E+03  0.00000000000E+00 0.  1.
         21   -1    0    0  501  503 -0.00000000000E+00 -0.00000000000E+00 -0.37106814828E+03  0.37106814828E+03  0.00000000000E+00 0.  1.
          6    2    1    2  501    0 -0.40523413723E+02 -0.59602426483E+02 -0.28642441054E+03  0.34160770785E+03  0.17164581790E+03 0.  0.
         24    2    3    3    0    0 -0.90056858443E+02 -0.67259648625E+02 -0.22220172467E+03  0.26000600089E+03  0.74802513126E+02 0.  0.
         -6    2    1    2    0  502  0.40523413723E+02  0.59602426483E+02  0.94823618201E+02  0.20892779637E+03  0.17165287421E+03 0.  0.
        -24    2    5    5    0    0  0.56916067137E+02 -0.16417096533E+02  0.18713160743E+02  0.10001233053E+03  0.78379360264E+02 0.  0.
          5    1    3    3  501    0  0.49533444720E+02  0.76572221414E+01 -0.64222685872E+02  0.81601706951E+02  0.47000000000E+01 0. -1.
        -11    1    4    4    0    0 -0.47206246058E+02 -0.43795752760E+00 -0.13018810706E+03  0.13848308450E+03  0.00000000000E+00 0.  1.
         12    1    4    4    0    0 -0.42850612386E+02 -0.66821691097E+02 -0.92013617607E+02  0.12152291639E+03  0.00000000000E+00 0. -1.
         -5    1    5    5    0  502 -0.16392653414E+02  0.76019523016E+02  0.76110457458E+02  0.10891546584E+03  0.47000000000E+01 0.  1.
         11    1    6    6    0    0 -0.19746774397E+02 -0.13899439192E+01  0.53165940667E+00  0.19802770132E+02  0.00000000000E+00 0. -1.
        -12    1    6    6    0    0  0.76662841534E+02 -0.15027152614E+02  0.18181501336E+02  0.80209560394E+02  0.00000000000E+00 0.  1.
</event>
<event>
12    1  0.9246030E-003  0.2868668E+03  0.7818608E-02  0.1092190E+00
         21   -1    0    0  503  502  0.00000000000E+00  0.00000000000E+00  0.36999596610E+03  0.36999596610E+03  0.00000000000E+00 0.  1.
         21   -1    0    0  501  503 -0.00000000000E+00 -0.00000000000E+00 -0.29905595479E+03  0.29905595479E+03  0.00000000000E+00 0. -1.
          6    2    1    2  501    0  0.15793179201E+03 -0.16560944131E+03 -0.13519066601E+03  0.31580638998E+03  0.17055269508E+03 0.  0.
         24    2    3    3    0    0  0.30752705201E+02 -0.10779741055E+03 -0.29289956729E+02  0.14043877254E+03  0.79367100659E+02 0.  0.
         -6    2    1    2    0  502 -0.15793179201E+03  0.16560944131E+03  0.20613067731E+03  0.35324553092E+03  0.17298442417E+03 0.  0.
        -24    2    5    5    0    0 -0.83663399924E+02  0.15982135549E+03  0.93889491604E+02  0.21845135534E+03  0.79770469835E+02 0.  0.
          5    1    3    3  501    0  0.12717908681E+03 -0.57812030751E+02 -0.10590070928E+03  0.17536761744E+03  0.47000000000E+01 0. -1.
        -11    1    4    4    0    0 -0.58992155816E+01 -0.86097720042E+02 -0.42016294327E+02  0.95984306686E+02  0.00000000000E+00 0.  1.
         12    1    4    4    0    0  0.36651920783E+02 -0.21699690512E+02  0.12726337598E+02  0.44454465850E+02  0.00000000000E+00 0. -1.
         -5    1    5    5    0  502 -0.74268392087E+02  0.57880858160E+01  0.11224118571E+03  0.13479417558E+03  0.47000000000E+01 0.  1.
         11    1    6    6    0    0 -0.60173562383E+02  0.91043080533E+02  0.13314565247E+02  0.10994079211E+03  0.00000000000E+00 0. -1.
        -12    1    6    6    0    0 -0.23489837541E+02  0.68778274956E+02  0.80574926357E+02  0.10851056322E+03  0.00000000000E+00 0.  1.
</event>
<event>
12    1  0.9246030E-003  0.2539228E+03  0.7818608E-02  0.1111137E+00
         21   -1    0    0  503  502  0.00000000000E+00  0.00000000000E+00  0.17519620594E+03  0.17519620594E+03  0.00000000000E+00 0.  1.
         21   -1    0    0  501  503 -0.00000000000E+00 -0.00000000000E+00 -0.43323218784E+03  0.43323218784E+03  0.00000000000E+00 0.  1.
          6    2    1    2  501    0  0.13205040013E+03 -0.12646095268E+03 -0.82127493027E+01  0.25221432986E+03  0.17353656159E+03 0.  0.
         24    2    3    3    0    0  0.34018831295E+02  0.35855516079E+01  0.39434009230E+02  0.82465735274E+02  0.63839011171E+02 0.  0.
         -6    2    1    2    0  502 -0.13205040013E+03  0.12646095268E+03 -0.24982323260E+03  0.35621406392E+03  0.17620196100E+03 0.  0.
        -24    2    5    5    0    0 -0.13641261540E+03  0.87502802569E+02 -0.11035773501E+03  0.21126758621E+03  0.78676687835E+02 0.  0.
          5    1    3    3  501    0  0.98031568835E+02 -0.13004650429E+03 -0.47646758533E+02  0.16974859459E+03  0.47000000000E+01 0. -1.
        -11    1    4    4    0    0  0.35108333214E+02 -0.22659121707E+02  0.37469985255E+02  0.56125133876E+02  0.00000000000E+00 0.  1.
         12    1    4    4    0    0 -0.10895019191E+01  0.26244673315E+02  0.19640239747E+01  0.26340601398E+02  0.00000000000E+00 0. -1.
         -5    1    5    5    0  502  0.43622152698E+01  0.38958150113E+02 -0.13946549759E+03  0.14494647771E+03  0.47000000000E+01 0.  1.
         11    1    6    6    0    0  0.75033794173E+01 -0.50454207615E+01 -0.59194437919E+01  0.10807256273E+02  0.00000000000E+00 0. -1.
        -12    1    6    6    0    0 -0.14391599482E+03  0.92548223331E+02 -0.10443829122E+03  0.20046032994E+03  0.00000000000E+00 0.  1.
</event>
<event>
12    1  0.9246030E-003  0.3309811E+03  0.7818608E-02  0.1070814E+00
         21   -1    0    0  501  502  0.00000000000E+00  0.00000000000E+00  0.21365373396E+03  0.21365373396E+03  0.00000000000E+00 0.  1.
         21   -1    0    0  502  503 -0.00000000000E+00 -0.00000000000E+00 -0.51924030392E+03  0.51924030392E+03  0.00000000000E+00 0. -1.
          6    2    1    2  501    0  0.22243875391E+03 -0.17236523273E+03 -0.19865978600E+03  0.38602359127E+03  0.17424043661E+03 0.  0.
         24    2    3    3    0    0  0.17345370292E+03 -0.18711727400E+03 -0.12185716704E+03  0.29362288662E+03  0.79159137832E+02 0.  0.
         -6    2    1    2    0  503 -0.22243875391E+03  0.17236523273E+03 -0.10692678396E+03  0.34687044661E+03  0.17232816633E+03 0.  0.
        -24    2    5    5    0    0 -0.41260915915E+02  0.22767766650E+02 -0.34480880463E+02  0.10095316424E+03  0.82351538368E+02 0.  0.
          5    1    3    3  501    0  0.48985050985E+02  0.14752041266E+02 -0.76802618957E+02  0.92400704652E+02  0.47000000000E+01 0. -1.
        -11    1    4    4    0    0  0.73452256650E+02 -0.45225833823E+02 -0.93546067029E+01  0.86764731997E+02  0.00000000000E+00 0.  1.
         12    1    4    4    0    0  0.10000144627E+03 -0.14189144017E+03 -0.11250256034E+03  0.20685815462E+03  0.00000000000E+00 0. -1.
         -5    1    5    5    0  503 -0.18117783799E+03  0.14959746608E+03 -0.72445903493E+02  0.24591728237E+03  0.47000000000E+01 0.  1.
         11    1    6    6    0    0 -0.54214765227E+02  0.29391252078E+02 -0.50211945759E+02  0.79525630863E+02  0.00000000000E+00 0. -1.
        -12    1    6    6    0    0  0.12953849311E+02 -0.66234854277E+01  0.15731065295E+02  0.21427533374E+02  0.00000000000E+00 0.  1.
</event>
<event>
12    1  0.9246030E-003  0.1820838E+03  0.7818608E-02  0.1166213E+00
         21   -1    0    0  503  502  0.00000000000E+00  0.00000000000E+00  0.36094166502E+02  0.36094166502E+02  0.00000000000E+00 0.  1.
         21   -1    0    0  501  503 -0.00000000000E+00 -0.00000000000E+00 -0.11600354922E+04  0.11600354922E+04  0.00000000000E+00 0.  1.
          6    2    1    2  501    0  0.58376239350E+02  0.48270903246E+01 -0.84176577834E+03  0.86123407444E+03  0.17240481217E+03 0.  0.
         24    2    3    3    0    0  0.10370773291E+03  0.21945165034E+02 -0.63198258651E+03  0.64587611575E+03  0.80728452993E+02 0.  0.
         -6    2    1    2    0  502 -0.58376239350E+02 -0.48270903246E+01 -0.28217554733E+03  0.33489558424E+03  0.17058993731E+03 0.  0.
        -24    2    5    5    0    0 -0.69751804413E+02  0.41574710683E+02 -0.25640274948E+03  0.28040835889E+03  0.79326584494E+02 0.  0.
          5    1    3    3  501    0 -0.45331493558E+02 -0.17118074710E+02 -0.20978319184E+03  0.21535795868E+03  0.47000000000E+01 0. -1.
        -13    1    4    4    0    0  0.59531050699E+02 -0.27429749288E+02 -0.36175702078E+03  0.36764722116E+03  0.00000000000E+00 0.  1.
         14    1    4    4    0    0  0.44176682209E+02  0.49374914323E+02 -0.27022556573E+03  0.27822889460E+03  0.00000000000E+00 0. -1.
         -5    1    5    5    0  502  0.11375565064E+02 -0.46401801008E+02 -0.25772797850E+02  0.54487225349E+02  0.47000000000E+01 0.  1.
         11    1    6    6    0    0 -0.82261284099E+02  0.19028444394E+02 -0.22124890085E+03  0.23681232376E+03  0.00000000000E+00 0. -1.
        -12    1    6    6    0    0  0.12509479686E+02  0.22546266289E+02 -0.35153848634E+02  0.43596035134E+02  0.00000000000E+00 0.  1.
</event>
<event>
12    1  0.9246030E-003  0.1787087E+03  0.7818608E-02  0.1169365E+00
         21   -1    0    0  501  502  0.00000000000E+00  0.00000000000E+00  0.45260564927E+03  0.45260564927E+03  0.00000000000E+00 0.  1.
         21   -1    0    0  502  503 -0.00000000000E+00 -0.00000000000E+00 -0.75463713646E+02  0.75463713646E+02  0.00000000000E+00 0.  1.
          6    2    1    2  501    0  0.13765333123E+02 -0.38624900575E+02  0.25854615302E+03  0.31358915808E+03  0.17265769453E+03 0.  0.
         24    2    3    3    0    0  0.65405253543E+02 -0.28954857718E+02  0.10401282247E+03  0.15030158549E+03  0.81582279853E+02 0.  0.
         -6    2    1    2    0  503 -0.13765333123E+02  0.38624900575E+02  0.11859578260E+03  0.21448020484E+03  0.17394088443E+03 0.  0.
        -24    2    5    5    0    0  0.50434489732E+02  0.21037884758E+01  0.27652165535E+02  0.97227314176E+02  0.78360989546E+02 0.  0.
          5    1    3    3  501    0 -0.51639920420E+02 -0.96700428573E+01  0.15453333055E+03  0.16328757259E+03  0.47000000000E+01 0. -1.
        -13    1    4    4    0    0  0.32439456034E+02  0.20963743676E+02  0.73771055197E+02  0.83270435579E+02  0.00000000000E+00 0.  1.
         14    1    4    4    0    0  0.32965797509E+02 -0.49918601394E+02  0.30241767273E+02  0.67031149910E+02  0.00000000000E+00 0. -1.
         -5    1    5    5    0  503 -0.64199822854E+02  0.36521112099E+02  0.90943617063E+02  0.11725289066E+03  0.47000000000E+01 0.  1.
         13    1    6    6    0    0  0.25857826986E+02 -0.13617912786E+02  0.51720282166E+02  0.59405911764E+02  0.00000000000E+00 0. -1.
        -14    1    6    6    0    0  0.24576662745E+02  0.15721701262E+02 -0.24068116631E+02  0.37821402412E+02  0.00000000000E+00 0.  1.
</event>
<event>
12    1  0.9246030E-003  0.2165430E+03  0.7818608E-02  0.1136611E+00
         21   -1    0    0  501  502  0.00000000000E+00  0.00000000000E+00  0.43174357808E+03  0.43174357808E+03  0.00000000000E+00 0. -1.
         21   -1    0    0  502  503 -0.00000000000E+00 -0.00000000000E+00 -0.10888631006E+03  0.10888631006E+03  0.00000000000E+00 0. -1.
          6    2    1    2  501    0  0.44141886593E+02  0.12199138434E+03  0.14152074966E+03  0.25868707361E+03  0.17337957050E+03 0.  0.
         24    2    3    3    0    0  0.78527047211E+00  0.27975537435E+02  0.29987053235E+01  0.85686430846E+02  0.80931606020E+02 0.  0.
         -6    2    1    2    0  503 -0.44141886593E+02 -0.12199138434E+03  0.18133651836E+03  0.28194281452E+03  0.17256423083E+03 0.  0.
        -24    2    5    5    0    0 -0.48086273187E+02 -0.73378515096E+02  0.19746618014E+03  0.23035768846E+03  0.79844074219E+02 0.  0.
          5    1    3    3  501    0  0.43356616121E+02  0.94015846908E+02  0.13852204434E+03  0.17300064277E+03  0.47000000000E+01 0. -1.
        -11    1    4    4    0    0  0.26594213082E+02 -0.43597978188E+00 -0.26295010499E+02  0.37401468219E+02  0.00000000000E+00 0.  1.
         12    1    4    4    0    0 -0.25808942610E+02  0.28411517217E+02  0.29293715822E+02  0.48284962627E+02  0.00000000000E+00 0. -1.
         -5    1    5    5    0  503  0.39443865938E+01 -0.48612869247E+02 -0.16129661773E+02  0.51585126063E+02  0.47000000000E+01 0.  1.
         13    1    6    6    0    0 -0.57741071995E+02 -0.15320315243E+02  0.10206016281E+03  0.11825827788E+03  0.00000000000E+00 0. -1.
        -14    1    6    6    0    0  0.96547988079E+01 -0.58058199853E+02  0.95406017326E+02  0.11209941058E+03  0.00000000000E+00 0.  1.
</event>
<event>
12    1  0.9246030E-003  0.1779522E+03  0.7818608E-02  0.1169955E+00
         21   -1    0    0  503  502  0.00000000000E+00  0.00000000000E+00  0.11078401414E+03  0.11078401414E+03  0.00000000000E+00 0.  1.
         21   -1    0    0  501  503 -0.00000000000E+00 -0.00000000000E+00 -0.36029140682E+03  0.36029140682E+03  0.00000000000E+00 0.  1.
          6    2    1    2  501    0 -0.39386727463E+01  0.43930841308E+02 -0.23237152418E+03  0.29230004730E+03  0.17174795614E+03 0.  0.
         24    2    3    3    0    0  0.42446381610E+02  0.28845006892E+02 -0.22416724299E+03  0.24261548332E+03  0.77314876840E+02 0.  0.
         -6    2    1    2    0  502  0.39386727463E+01 -0.43930841308E+02 -0.17135868498E+02  0.17877537366E+03  0.17239943236E+03 0.  0.
        -24    2    5    5    0    0  0.76932100372E+01  0.42807721152E+02 -0.13536734018E+02  0.91754005384E+02  0.79648401524E+02 0.  0.
          5    1    3    3  501    0 -0.46385054356E+02  0.15085834416E+02 -0.82042811881E+01  0.49684563976E+02  0.47000000000E+01 0. -1.
        -11    1    4    4    0    0 -0.13292737001E+02 -0.15540317465E+02 -0.35898575672E+02  0.41314719643E+02  0.00000000000E+00 0.  1.
         12    1    4    4    0    0  0.55739118611E+02  0.44385324357E+02 -0.18826866732E+03  0.20130076368E+03  0.00000000000E+00 0. -1.
         -5    1    5    5    0  502 -0.37545372909E+01 -0.86738562460E+02 -0.35991344794E+01  0.87021368278E+02  0.47000000000E+01 0.  1.
         11    1    6    6    0    0 -0.29699995710E+02  0.28476089693E+02  0.13651122822E+02  0.43351246621E+02  0.00000000000E+00 0. -1.
        -12    1    6    6    0    0  0.37393205747E+02  0.14331631460E+02 -0.27187856840E+02  0.48402758763E+02  0.00000000000E+00 0.  1.
</event>
<event>
12    1  0.9246030E-003  0.2080302E+03  0.7818608E-02  0.1143255E+00
         21   -1    0    0  501  502  0.00000000000E+00  0.00000000000E+00  0.92154491657E+02  0.92154491657E+02  0.00000000000E+00 0. -1.
         21   -1    0    0  502  503 -0.00000000000E+00 -0.00000000000E+00 -0.59478024562E+03  0.59478024562E+03  0.00000000000E+00 0. -1.
          6    2    1    2  501    0  0.11047006253E+03  0.37323302991E+02 -0.41000439803E+03  0.45976097534E+03  0.17227850818E+03 0.  0.
         24    2    3    3    0    0  0.20286838973E+02 -0.23591702379E+02 -0.26434130903E+03  0.27787233582E+03  0.79803402792E+02 0.  0.
         -6    2    1    2    0  503 -0.11047006253E+03 -0.37323302991E+02 -0.92621355935E+02  0.22717376194E+03  0.17155914105E+03 0.  0.
        -24    2    5    5    0    0 -0.92455249321E+02  0.18378578049E+02 -0.11000928498E+03  0.16592294054E+03  0.80886551147E+02 0.  0.
          5    1    3    3  501    0  0.90183223553E+02  0.60915005369E+02 -0.14566308900E+03  0.18188863952E+03  0.47000000000E+01 0. -1.
        -11    1    4    4    0    0 -0.14589592555E+02  0.18827775076E+02 -0.13903616033E+03  0.14106167163E+03  0.00000000000E+00 0.  1.
         12    1    4    4    0    0  0.34876431528E+02 -0.42419477455E+02 -0.12530514870E+03  0.13681066419E+03  0.00000000000E+00 0. -1.
         -5    1    5    5    0  503 -0.18014813205E+02 -0.55701881039E+02  0.17387929044E+02  0.61250821403E+02  0.47000000000E+01 0.  1.
         11    1    6    6    0    0 -0.61009168860E+02 -0.25048192172E+02 -0.37901947405E+02  0.76066341000E+02  0.00000000000E+00 0. -1.
        -12    1    6    6    0    0 -0.31446080461E+02  0.43426770220E+02 -0.72107337574E+02  0.89856599536E+02  0.00000000000E+00 0.  1.
</event>
<event>
12    1  0.9246030E-003  0.1848316E+03  0.7818608E-02  0.1163577E+00
         21   -1    0    0  503  502  0.00000000000E+00  0.00000000000E+00  0.67176735569E+02  0.67176735569E+02  0.00000000000E+00 0.  1.
         21   -1    0    0  501  503 -0.00000000000E+00 -0.00000000000E+00 -0.50444701401E+03  0.50444701401E+03  0.00000000000E+00 0.  1.
          6    2    1    2  501    0  0.60512062665E+02  0.19230940355E+02 -0.22364850490E+03  0.28914013166E+03  0.17190643733E+03 0.  0.
         24    2    3    3    0    0  0.10056463260E+03  0.27133258944E+02 -0.12042256092E+03  0.17803504397E+03  0.79658173680E+02 0.  0.
         -6    2    1    2    0  502 -0.60512062665E+02 -0.19230940355E+02 -0.21362177354E+03  0.28248361792E+03  0.17358339054E+03 0.  0.
        -24    2    5    5    0    0 -0.64915365440E+02  0.50727173096E+02 -0.10528015950E+03  0.15335762501E+03  0.75149174342E+02 0.  0.
          5    1    3    3  501    0 -0.40052569933E+02 -0.79023185887E+01 -0.10322594399E+03  0.11110508769E+03  0.47000000000E+01 0. -1.
        -13    1    4    4    0    0  0.23203360786E+02  0.45833464049E+02 -0.51666679340E+02  0.72859784055E+02  0.00000000000E+00 0.  1.
         14    1    4    4    0    0  0.77361271811E+02 -0.18700205106E+02 -0.68755881577E+02  0.10517525992E+03  0.00000000000E+00 0. -1.
         -5    1    5    5    0  502  0.44033027757E+01 -0.69958113451E+02 -0.10834161404E+03  0.12912599291E+03  0.47000000000E+01 0.  1.
         13    1    6    6    0    0 -0.80427268249E+01  0.14910583991E+02  0.10176461705E+02  0.19762877892E+02  0.00000000000E+00 0. -1.
        -14    1    6    6    0    0 -0.56872638615E+02  0.35816589105E+02 -0.11545662120E+03  0.13359474712E+03  0.00000000000E+00 0.  1.
</event>
<event>
12    1  0.9246030E-003  0.1801284E+03  0.7818608E-02  0.1167769E+00
         21   -1    0    0  503  502  0.00000000000E+00  0.00000000000E+00  0.74480412066E+02  0.74480412066E+02  0.00000000000E+00 0.  1.
         21   -1    0    0  501  503 -0.00000000000E+00 -0.00000000000E+00 -0.44045482776E+03  0.44045482776E+03  0.00000000000E+00 0.  1.
          6    2    1    2  501    0 -0.31255069582E+02  0.39962261333E+02 -0.21214354004E+03  0.27805936443E+03  0.17244786707E+03 0.  0.
         24    2    3    3    0    0 -0.14900138915E+02 -0.19347615768E+02 -0.19806293525E+03  0.21477035503E+03  0.79379057099E+02 0.  0.
         -6    2    1    2    0  502  0.31255069582E+02 -0.39962261333E+02 -0.15383087565E+03  0.23687587539E+03  0.17283628189E+03 0.  0.
        -24    2    5    5    0    0  0.54973849647E+01 -0.66587596610E+02 -0.16781067274E+03  0.19700243157E+03  0.78647357834E+02 0.  0.
          5    1    3    3  501    0 -0.16354930666E+02  0.59309877101E+02 -0.14080604796E+02  0.63289009396E+02  0.47000000000E+01 0. -1.
        -13    1    4    4    0    0  0.93578416245E+01 -0.25109274528E+01  0.40576541174E+01  0.10504214082E+02  0.00000000000E+00 0.  1.
         14    1    4    4    0    0 -0.24257980540E+02 -0.16836688316E+02 -0.20212058936E+03  0.20426614095E+03  0.00000000000E+00 0. -1.
         -5    1    5    5    0  502  0.25757684617E+02  0.26625335277E+02  0.13979797097E+02  0.39873443823E+02  0.47000000000E+01 0.  1.
         13    1    6    6    0    0 -0.35745823882E+02 -0.20011382379E+02 -0.64813441739E+02  0.76674647569E+02  0.00000000000E+00 0. -1.
        -14    1    6    6    0    0  0.41243208847E+02 -0.46576214231E+02 -0.10299723101E+03  0.12032778400E+03  0.00000000000E+00 0.  1.
</event>
<event>
12    1  0.9246030E-003  0.1824598E+03  0.7818608E-02  0.1165902E+00
         21   -1    0    0  503  502  0.00000000000E+00  0.00000000000E+00  0.16153891895E+04  0.16153891895E+04  0.00000000000E+00 0. -1.
         21   -1    0    0  501  503 -0.00000000000E+00 -0.00000000000E+00 -0.20507173022E+02  0.20507173022E+02  0.00000000000E+00 0. -1.
          6    2    1    2  501    0 -0.48929654674E+02  0.20798430192E+02  0.86273909186E+03  0.88182216012E+03  0.17454195961E+03 0.  0.
         24    2    3    3    0    0 -0.66145408409E+02  0.15650160360E+02  0.85489613938E+03  0.86166059365E+03  0.83614753255E+02 0.  0.
         -6    2    1    2    0  502  0.48929654674E+02 -0.20798430192E+02  0.73214292463E+03  0.75407420241E+03  0.17253392375E+03 0.  0.
        -24    2    5    5    0    0  0.72657088770E+02 -0.30696321313E+02  0.29689701796E+03  0.31804433112E+03  0.82359216822E+02 0.  0.
          5    1    3    3  501    0  0.17215753734E+02  0.51482698320E+01  0.78429524792E+01  0.20161566469E+02  0.47000000000E+01 0. -1.
        -13    1    4    4    0    0 -0.26164620245E+02  0.33184183636E+02  0.68304337181E+03  0.68434934439E+03  0.00000000000E+00 0.  1.
         14    1    4    4    0    0 -0.39980788164E+02 -0.17534023277E+02  0.17185276757E+03  0.17731124926E+03  0.00000000000E+00 0. -1.
         -5    1    5    5    0  502 -0.23727434096E+02  0.98978911214E+01  0.43524590667E+03  0.43602987128E+03  0.47000000000E+01 0.  1.
         13    1    6    6    0    0  0.23072126152E+02 -0.36189381935E+02  0.23329944421E+03  0.23721430193E+03  0.00000000000E+00 0. -1.
        -14    1    6    6    0    0  0.49584962618E+02  0.54930606223E+01  0.63597573744E+02  0.80830029191E+02  0.00000000000E+00 0.  1.
</event>
<event>
12    1  0.9246030E-003  0.1756196E+03  0.7818608E-02  0.1172677E+00
         21   -1    0    0  501  502  0.00000000000E+00  0.00000000000E+00  0.28723973091E+03  0.28723973091E+03  0.00000000000E+00 0.  1.
         21   -1    0    0  502  503 -0.00000000000E+00 -0.00000000000E+00 -0.12135289820E+03  0.12135289820E+03  0.00000000000E+00 0.  1.
          6    2    1    2  501    0 -0.33562118701E+02 -0.59543111534E+01  0.10755267013E+02  0.17594860396E+03  0.17227990549E+03 0.  0.
         24    2    3    3    0    0  0.39869874388E+02 -0.51526045565E+01  0.80896158131E+01  0.10231372066E+03  0.93736328783E+02 0.  0.
         -6    2    1    2    0  503  0.33562118701E+02  0.59543111534E+01  0.15513156570E+03  0.23264402515E+03  0.16998697046E+03 0.  0.
        -24    2    5    5    0    0  0.63034300254E+02 -0.22443924789E+02  0.16035919991E+03  0.19111707668E+03  0.79583988556E+02 0.  0.
          5    1    3    3  501    0 -0.73431993089E+02 -0.80170659691E+00  0.26656511998E+01  0.73634883301E+02  0.47000000000E+01 0. -1.
        -11    1    4    4    0    0  0.12112452261E+01 -0.29365668985E+02 -0.30652511503E+02  0.42466293591E+02  0.00000000000E+00 0.  1.
         12    1    4    4    0    0  0.38658629162E+02  0.24213064428E+02  0.38742127316E+02  0.59847427068E+02  0.00000000000E+00 0. -1.
         -5    1    5    5    0  503 -0.29472181553E+02  0.28398235943E+02 -0.52276342032E+01  0.41526948473E+02  0.47000000000E+01 0.  1.
         11    1    6    6    0    0  0.75635248336E+02  0.25943678752E+01  0.12288265653E+03  0.14431759703E+03  0.00000000000E+00 0. -1.
        -12    1    6    6    0    0 -0.12600948082E+02 -0.25038292665E+02  0.37476543372E+02  0.46799479647E+02  0.00000000000E+00 0.  1.
</event>
<event>
12    1  0.9246030E-003  0.1759694E+03  0.7818608E-02  0.1172508E+00
         21   -1    0    0  503  502  0.00000000000E+00  0.00000000000E+00  0.23681446213E+03  0.23681446213E+03  0.00000000000E+00 0.  1.
         21   -1    0    0  501  503 -0.00000000000E+00 -0.00000000000E+00 -0.16326907093E+03  0.16326907093E+03  0.00000000000E+00 0.  1.
          6    2    1    2  501    0  0.31412232077E+02  0.59907018719E+01 -0.55702010274E+02  0.18174866083E+03  0.17002130728E+03 0.  0.
         24    2    3    3    0    0  0.87246551535E+01  0.56859221166E+02 -0.76860927555E+02  0.12198142748E+03  0.75251417430E+02 0.  0.
         -6    2    1    2    0  502 -0.31412232077E+02 -0.59907018719E+01  0.12924740148E+03  0.21833487224E+03  0.17303932736E+03 0.  0.
        -24    2    5    5    0    0 -0.64533444526E+02 -0.95308876439E+01  0.21337149298E+02  0.10530275222E+03  0.79862334076E+02 0.  0.
          5    1    3    3  501    0  0.22687576923E+02 -0.50868519294E+02  0.21158917282E+02  0.59767233351E+02  0.47000000000E+01 0. -1.
        -11    1    4    4    0    0 -0.29029269328E+02  0.30658294596E+02 -0.59279246683E+02  0.72778146394E+02  0.00000000000E+00 0.  1.
         12    1    4    4    0    0  0.37753924482E+02  0.26200926571E+02 -0.17581680872E+02  0.49203281082E+02  0.00000000000E+00 0. -1.
         -5    1    5    5    0  502  0.33121212449E+02  0.35401857719E+01  0.10791025218E+03  0.11303212001E+03  0.47000000000E+01 0.  1.
         11    1    6    6    0    0 -0.52166883918E+02 -0.34404003857E+02  0.37780243457E+02  0.73023051530E+02  0.00000000000E+00 0. -1.
        -12    1    6    6    0    0 -0.12366560609E+02  0.24873116213E+02 -0.16443094159E+02  0.32279700695E+02  0.00000000000E+00 0.  1.
</event>
<event>
12    1  0.9246030E-003  0.1964775E+03  0.7818608E-02  0.1152990E+00
         21   -1    0    0  503  502  0.00000000000E+00  0.00000000000E+00  0.22807163254E+02  0.22807163254E+02  0.00000000000E+00 0. -1.
         21   -1    0    0  501  503 -0.00000000000E+00 -0.00000000000E+00 -0.17259290064E+04  0.17259290064E+04  0.00000000000E+00 0. -1.
          6    2    1    2  501    0  0.88810581150E+02 -0.32214929375E+02 -0.98726314332E+03  0.10064039783E+04  0.17098342724E+03 0.  0.
         24    2    3    3    0    0  0.34902269752E+02  0.42416186671E+02 -0.63589245359E+03  0.64314186753E+03  0.79088228697E+02 0.  0.
         -6    2    1    2    0  502 -0.88810581150E+02  0.32214929375E+02 -0.71585869982E+03  0.74233219134E+03  0.17227386104E+03 0.  0.
        -24    2    5    5    0    0 -0.20601661022E+02  0.56206485812E+02 -0.26617600715E+03  0.28684929853E+03  0.88596025850E+02 0.  0.
          5    1    3    3  501    0  0.53908311397E+02 -0.74631116046E+02 -0.35137068973E+03  0.36326211077E+03  0.47000000000E+01 0. -1.
        -11    1    4    4    0    0 -0.10949437214E+02  0.34204900249E+02 -0.45261205605E+03  0.45403473288E+03  0.00000000000E+00 0.  1.
         12    1    4    4    0    0  0.45851706966E+02  0.82112864222E+01 -0.18328039753E+03  0.18910713465E+03  0.00000000000E+00 0. -1.
         -5    1    5    5    0  502 -0.68208920128E+02 -0.23991556437E+02 -0.44968269267E+03  0.45548289282E+03  0.47000000000E+01 0.  1.
         11    1    6    6    0    0 -0.36379732676E+02 -0.84626578006E+00 -0.44911103718E+02  0.57803186353E+02  0.00000000000E+00 0. -1.
        -12    1    6    6    0    0  0.15778071654E+02  0.57052751592E+02 -0.22126490344E+03  0.22904611217E+03  0.00000000000E+00 0.  1.
</event>
<event>
12    1  0.9246030E-003  0.1918587E+03  0.7818608E-02  0.1156893E+00
         21   -1    0    0  503  502  0.00000000000E+00  0.00000000000E+00  0.31868142783E+03  0.31868142783E+03  0.00000000000E+00 0.  1.
         21   -1    0    0  501  503 -0.00000000000E+00 -0.00000000000E+00 -0.12009761615E+03  0.12009761615E+03  0.00000000000E+00 0.  1.
          6    2    1    2  501    0  0.44772738210E+02  0.73457760204E+02  0.55070273185E+02  0.19918373659E+03  0.17099937225E+03 0.  0.
         24    2    3    3    0    0  0.59235648689E+02 -0.58317885831E+01 -0.63512513258E+01  0.97740639237E+02  0.77265919598E+02 0.  0.
         -6    2    1    2    0  502 -0.44772738210E+02 -0.73457760204E+02  0.14351353850E+03  0.23959530740E+03  0.17149091805E+03 0.  0.
        -24    2    5    5    0    0 -0.71207586248E+02 -0.10573021335E+03  0.99021148176E+02  0.17842362098E+03  0.76028957519E+02 0.  0.
          5    1    3    3  501    0 -0.14462910479E+02  0.79289548787E+02  0.61421524511E+02  0.10144309735E+03  0.47000000000E+01 0. -1.
        -11    1    4    4    0    0  0.40435766459E+02  0.30952782772E+02  0.12343074118E+02  0.52397303835E+02  0.00000000000E+00 0.  1.
         12    1    4    4    0    0  0.18799882230E+02 -0.36784571355E+02 -0.18694325444E+02  0.45343335402E+02  0.00000000000E+00 0. -1.
         -5    1    5    5    0  502  0.26434848038E+02  0.32272453149E+02  0.44492390322E+02  0.61171686421E+02  0.47000000000E+01 0.  1.
         11    1    6    6    0    0 -0.15397268892E+02  0.59434741227E+01 -0.35097980932E+01  0.16873631993E+02  0.00000000000E+00 0. -1.
        -12    1    6    6    0    0 -0.55810317356E+02 -0.11167368748E+03  0.10253094627E+03  0.16154998898E+03  0.00000000000E+00 0.  1.
</event>
<event>
12    1  0.9246030E-003  0.2508499E+03  0.7818608E-02  0.1112954E+00
         21   -1    0    0  503  502  0.00000000000E+00  0.00000000000E+00  0.34303789844E+03  0.34303789844E+03  0.00000000000E+00 0. -1.
         21   -1    0    0  501  503 -0.00000000000E+00 -0.00000000000E+00 -0.18269427805E+03  0.18269427805E+03  0.00000000000E+00 0. -1.
          6    2    1    2  501    0 -0.82823947500E+02 -0.16074437224E+03  0.73723555178E+02  0.26145903611E+03  0.17385944176E+03 0.  0.
         24    2    3    3    0    0 -0.54004798718E+02 -0.10710018747E+03  0.11800496291E+03  0.18601915960E+03  0.79315748917E+02 0.  0.
         -6    2    1    2    0  502  0.82823947500E+02  0.16074437224E+03  0.86620065217E+02  0.26427314037E+03  0.17215893104E+03 0.  0.
        -24    2    5    5    0    0  0.42260230421E+01  0.45333205289E+02  0.83257279645E+02  0.12452061083E+03  0.80626603148E+02 0.  0.
          5    1    3    3  501    0 -0.28819148782E+02 -0.53644184779E+02 -0.44281407736E+02  0.75439876512E+02  0.47000000000E+01 0. -1.
        -11    1    4    4    0    0 -0.25412396956E+02 -0.42756377556E+02  0.10248709880E+03  0.11391884463E+03  0.00000000000E+00 0.  1.
         12    1    4    4    0    0 -0.28592401762E+02 -0.64343809909E+02  0.15517864110E+02  0.72100314969E+02  0.00000000000E+00 0. -1.
         -5    1    5    5    0  502  0.78597924458E+02  0.11541116696E+03  0.33627855719E+01  0.13975252954E+03  0.47000000000E+01 0.  1.
         13    1    6    6    0    0  0.13333741888E+02  0.64552586760E+02  0.78900008586E+02  0.10281068274E+03  0.00000000000E+00 0. -1.
        -14    1    6    6    0    0 -0.91077188462E+01 -0.19219381471E+02  0.43572710585E+01  0.21709928093E+02  0.00000000000E+00 0.  1.
</event>
<event>
12    1  0.9246030E-003  0.2038850E+03  0.7818608E-02  0.1146747E+00
         21   -1    0    0  501  502  0.00000000000E+00  0.00000000000E+00  0.19540228027E+03  0.19540228027E+03  0.00000000000E+00 0. -1.
         21   -1    0    0  502  503 -0.00000000000E+00 -0.00000000000E+00 -0.27388096648E+03  0.27388096648E+03  0.00000000000E+00 0. -1.
          6    2    1    2  501    0 -0.13152110552E+02  0.10680870568E+03  0.72653472260E+02  0.21644307868E+03  0.17317044106E+03 0.  0.
         24    2    3    3    0    0 -0.47015576655E+02  0.97796059843E+02  0.10352349211E+03  0.16950684271E+03  0.78999509733E+02 0.  0.
         -6    2    1    2    0  503  0.13152110552E+02 -0.10680870568E+03 -0.15113215848E+03  0.25284016807E+03  0.17177352428E+03 0.  0.
        -24    2    5    5    0    0 -0.45153684000E+01  0.12656367740E+02 -0.51091711661E+02  0.95950956911E+02  0.80097758617E+02 0.  0.
          5    1    3    3  501    0  0.33863466102E+02  0.90126458373E+01 -0.30870019849E+02  0.46936235969E+02  0.47000000000E+01 0. -1.
        -11    1    4    4    0    0 -0.75168031216E+01 -0.13869673584E+02  0.12288192562E+02  0.19996746008E+02  0.00000000000E+00 0.  1.
         12    1    4    4    0    0 -0.39498773533E+02  0.11166573343E+03  0.91235299547E+02  0.14951009670E+03  0.00000000000E+00 0. -1.
         -5    1    5    5    0  503  0.17667478952E+02 -0.11946507342E+03 -0.10004044681E+03  0.15688921116E+03  0.47000000000E+01 0.  1.
         11    1    6    6    0    0  0.11410126527E+02 -0.22272171622E+02 -0.51831026771E+02  0.57556024465E+02  0.00000000000E+00 0. -1.
        -12    1    6    6    0    0 -0.15925494927E+02  0.34928539363E+02  0.73931510931E+00  0.38394932445E+02  0.00000000000E+00 0.  1.
</event>
<event>
12    1  0.9246030E-003  0.1881082E+03  0.7818608E-02  0.1160508E+00
         21   -1    0    0  501  502  0.00000000000E+00  0.00000000000E+00  0.20104344577E+03  0.20104344577E+03  0.00000000000E+00 0.  1.
         21   -1    0    0  502  503 -0.00000000000E+00 -0.00000000000E+00 -0.30258138566E+03  0.30258138566E+03  0.00000000000E+00 0.  1.
          6    2    1    2  501    0 -0.79950637665E+00 -0.69005996225E+02  0.11284526916E+03  0.21935986813E+03  0.17499208624E+03 0.  0.
         24    2    3    3    0    0 -0.39957826500E+02 -0.31657653273E+02  0.67557118216E+00  0.94730802893E+02  0.79841303290E+02 0.  0.
         -6    2    1    2    0  503  0.79950637665E+00  0.69005996225E+02 -0.21438320905E+03  0.28426496331E+03  0.17344723208E+03 0.  0.
        -24    2    5    5    0    0 -0.19530493713E+01  0.16127864190E+02 -0.20966754411E+02  0.83676607873E+02  0.79361498910E+02 0.  0.
          5    1    3    3  501    0  0.39158320123E+02 -0.37348342951E+02  0.11216969798E+03  0.12462906523E+03  0.47000000000E+01 0. -1.
        -11    1    4    4    0    0  0.32069758237E+01 -0.10277145309E+02  0.34323784983E+02  0.35972581576E+02  0.00000000000E+00 0.  1.
         12    1    4    4    0    0 -0.43164802323E+02 -0.21380507964E+02 -0.33648213801E+02  0.58758221318E+02  0.00000000000E+00 0. -1.
         -5    1    5    5    0  503  0.27525557480E+01  0.52878132034E+02 -0.19341645464E+03  0.20058835543E+03  0.47000000000E+01 0.  1.
         11    1    6    6    0    0 -0.28329901476E+02 -0.15643342563E+02 -0.26741920364E+02  0.41981279030E+02  0.00000000000E+00 0. -1.
        -12    1    6    6    0    0  0.26376852105E+02  0.31771206754E+02  0.57751659524E+01  0.41695328843E+02  0.00000000000E+00 0.  1.
</event>
<event>
12    1  0.9246030E-003  0.1942134E+03  0.7818608E-02  0.1154829E+00
         21   -1    0    0  501  502  0.00000000000E+00  0.00000000000E+00  0.39612220540E+03  0.39612220540E+03  0.00000000000E+00 0. -1.
         21   -1    0    0  502  503 -0.00000000000E+00 -0.00000000000E+00 -0.95104458986E+02  0.95104458986E+02  0.00000000000E+00 0.  1.
          6    2    1    2  501    0  0.80370616839E+02  0.37403754391E+02  0.16011897780E+03  0.25170801473E+03  0.17280150675E+03 0.  0.
         24    2    3    3    0    0 -0.12905823062E+02  0.51277872785E+02  0.58672479417E+02  0.11312061474E+03  0.80980449075E+02 0.  0.
         -6    2    1    2    0  503 -0.80370616839E+02 -0.37403754391E+02  0.14089876862E+03  0.23951864966E+03  0.17221568931E+03 0.  0.
        -24    2    5    5    0    0 -0.83333298591E+02 -0.75011004041E+02  0.14643160484E+03  0.20110270264E+03  0.80180999802E+02 0.  0.
          5    1    3    3  501    0  0.93276439901E+02 -0.13874118394E+02  0.10144649838E+03  0.13858739999E+03  0.47000000000E+01 0. -1.
        -11    1    4    4    0    0 -0.40774261370E+02  0.97769465761E+01  0.94851041306E+01  0.42989490286E+02  0.00000000000E+00 0.  1.
         12    1    4    4    0    0  0.27868438308E+02  0.41500926209E+02  0.49187375286E+02  0.70131124456E+02  0.00000000000E+00 0. -1.
         -5    1    5    5    0  503  0.29626817522E+01  0.37607249650E+02 -0.55328362186E+01  0.38415947028E+02  0.47000000000E+01 0.  1.
         13    1    6    6    0    0 -0.55637725842E+02 -0.55681781678E+02  0.14763405156E+03  0.16730759256E+03  0.00000000000E+00 0. -1.
        -14    1    6    6    0    0 -0.27695572749E+02 -0.19329222363E+02 -0.12024467170E+01  0.33795110077E+02  0.00000000000E+00 0.  1.
</event>
<event>
12    1  0.9246030E-003  0.1767283E+03  0.7818608E-02  0.1177385E+00
         21   -1    0    0  503  502  0.00000000000E+00  0.00000000000E+00  0.17019752910E+03  0.17019752910E+03  0.00000000000E+00 0. -1.
         21   -1    0    0  501  503 -0.00000000000E+00 -0.00000000000E+00 -0.16163973391E+03  0.16163973391E+03  0.00000000000E+00 0. -1.
          6    2    1    2  501    0 -0.21375865088E+02 -0.23115496180E+02 -0.14596623570E+02  0.15359863790E+03  0.14962695738E+03 0.  0.
         24    2    3    3    0    0 -0.50818641813E+02 -0.51087147772E+02  0.76440715670E+01  0.10705802215E+03  0.78807088859E+02 0.  0.
         -6    2    1    2    0  502  0.21375865088E+02  0.23115496180E+02  0.23154418758E+02  0.17823862510E+03  0.17390119781E+03 0.  0.
        -24    2    5    5    0    0 -0.14555497545E+02 -0.11448827806E+02  0.72022971485E+02  0.10826733986E+03  0.78686531830E+02 0.  0.
          5    1    3    3  501    0  0.29442776725E+02  0.27971651592E+02 -0.22240695137E+02  0.46540615749E+02  0.47000000000E+01 0. -1.
        -13    1    4    4    0    0 -0.33470990785E+02 -0.59459649266E+02 -0.22011575689E+02  0.71695652443E+02  0.00000000000E+00 0.  1.
         14    1    4    4    0    0 -0.17347651027E+02  0.83725014939E+01  0.29655647256E+02  0.35362369711E+02  0.00000000000E+00 0. -1.
         -5    1    5    5    0  502  0.35931362633E+02  0.34564323986E+02 -0.48868552727E+02  0.69971285245E+02  0.47000000000E+01 0.  1.
         11    1    6    6    0    0  0.32131100788E+02 -0.10377404071E+02  0.35397388049E+02  0.48919047761E+02  0.00000000000E+00 0. -1.
        -12    1    6    6    0    0 -0.46686598334E+02 -0.10714237349E+01  0.36625583436E+02  0.59348292097E+02  0.00000000000E+00 0.  1.
</event>
<event>
12    1  0.9246030E-003  0.2159227E+03  0.7818608E-02  0.1138077E+00
         21   -1    0    0  503  502  0.00000000000E+00  0.00000000000E+00  0.96619529404E+03  0.96619529404E+03  0.00000000000E+00 0. -1.
         21   -1    0    0  501  503 -0.00000000000E+00 -0.00000000000E+00 -0.14989202112E+03  0.14989202112E+03  0.00000000000E+00 0.  1.
          6    2    1    2  501    0  0.11721009436E+03  0.50188503496E+02 -0.55974091599E+02  0.21748261044E+03  0.16705835750E+03 0.  0.
         24    2    3    3    0    0  0.24114138238E+02  0.39353699033E+02  0.23995493685E+02  0.94188350214E+02  0.78520419690E+02 0.  0.
         -6    2    1    2    0  502 -0.11721009436E+03 -0.50188503496E+02  0.87227736453E+03  0.89860470472E+03  0.17425705892E+03 0.  0.
        -24    2    5    5    0    0 -0.12429371440E+03  0.47009348236E+01  0.74824328571E+03  0.76270190556E+03  0.79844573467E+02 0.  0.
          5    1    3    3  501    0  0.93095956121E+02  0.10834804463E+02 -0.79969585283E+02  0.12329426022E+03  0.47000000000E+01 0. -1.
        -11    1    4    4    0    0  0.36496151598E+02  0.43163071782E+02 -0.10364882726E+02  0.57466952600E+02  0.00000000000E+00 0.  1.
         12    1    4    4    0    0 -0.12382013360E+02 -0.38093727499E+01  0.34360376411E+02  0.36721397614E+02  0.00000000000E+00 0. -1.
         -5    1    5    5    0  502  0.70836200379E+01 -0.54889438319E+02  0.12403407881E+03  0.13590279916E+03  0.47000000000E+01 0.  1.
         13    1    6    6    0    0 -0.53500112193E+02 -0.79347752477E+01  0.13774457638E+03  0.14798240093E+03  0.00000000000E+00 0. -1.
        -14    1    6    6    0    0 -0.70793602204E+02  0.12635710071E+02  0.61049870934E+03  0.61471950464E+03  0.00000000000E+00 0.  1.
</event>
<event>
12    1  0.9246030E-003  0.2411018E+03  0.7818608E-02  0.1119072E+00
         21   -1    0    0  503  502  0.00000000000E+00  0.00000000000E+00  0.12017964914E+04  0.12017964914E+04  0.00000000000E+00 0. -1.
         21   -1    0    0  501  503 -0.00000000000E+00 -0.00000000000E+00 -0.53517879963E+02  0.53517879963E+02  0.00000000000E+00 0. -1.
          6    2    1    2  501    0 -0.14312189591E+03 -0.89379267844E+02  0.37914665272E+03  0.44927836269E+03  0.17212301504E+03 0.  0.
         24    2    3    3    0    0 -0.45725526001E+01 -0.39056286951E+02  0.20942222421E+03  0.22442998139E+03  0.70461668798E+02 0.  0.
         -6    2    1    2    0  502  0.14312189591E+03  0.89379267844E+02  0.76913195872E+03  0.80603600868E+03  0.17221366597E+03 0.  0.
        -24    2    5    5    0    0  0.15125505386E+03  0.11679649763E+03  0.72090761265E+03  0.74977296306E+03  0.77020756880E+02 0.  0.
          5    1    3    3  501    0 -0.13854934331E+03 -0.50322980893E+02  0.16972442851E+03  0.22484838130E+03  0.47000000000E+01 0. -1.
        -11    1    4    4    0    0 -0.33508245042E+02 -0.24085220646E+02  0.15999852653E+03  0.16523446623E+03  0.00000000000E+00 0.  1.
         12    1    4    4    0    0  0.28935692442E+02 -0.14971066306E+02  0.49423697679E+02  0.59195515165E+02  0.00000000000E+00 0. -1.
         -5    1    5    5    0  502 -0.81331579491E+01 -0.27417229786E+02  0.48224346074E+02  0.56263045612E+02  0.47000000000E+01 0.  1.
         11    1    6    6    0    0  0.14757052957E+03  0.77763176387E+02  0.57902368985E+03  0.60257166064E+03  0.00000000000E+00 0. -1.
        -12    1    6    6    0    0  0.36845242897E+01  0.39033321243E+02  0.14188392280E+03  0.14720130242E+03  0.00000000000E+00 0.  1.
</event>
<event>
12    1  0.9246030E-003  0.2636744E+03  0.7818608E-02  0.1105470E+00
         21   -1    0    0  503  502  0.00000000000E+00  0.00000000000E+00  0.22219966753E+03  0.22219966753E+03  0.00000000000E+00 0.  1.
         21   -1    0    0  501  503 -0.00000000000E+00 -0.00000000000E+00 -0.53569728554E+03  0.53569728554E+03  0.00000000000E+00 0.  1.
          6    2    1    2  501    0 -0.78272895600E+02  0.18250103188E+03 -0.40397079238E+03  0.48240709023E+03  0.17346736517E+03 0.  0.
         24    2    3    3    0    0 -0.89490902061E+02  0.52690903992E+02 -0.23281654906E+03  0.26725045431E+03  0.80214131529E+02 0.  0.
         -6    2    1    2    0  502  0.78272895600E+02 -0.18250103188E+03  0.90473174378E+02  0.27548986284E+03  0.16815468006E+03 0.  0.
        -24    2    5    5    0    0  0.10361150016E+03 -0.14131066353E+03  0.25837146073E+02  0.19462826825E+03  0.80675635051E+02 0.  0.
          5    1    3    3  501    0  0.11218006461E+02  0.12981012789E+03 -0.17115424332E+03  0.21515663592E+03  0.47000000000E+01 0. -1.
        -11    1    4    4    0    0 -0.30274626488E+02  0.10638804257E+02 -0.16429617076E+03  0.16740062393E+03  0.00000000000E+00 0.  1.
         12    1    4    4    0    0 -0.59216275574E+02  0.42052099735E+02 -0.68520378301E+02  0.99849830383E+02  0.00000000000E+00 0. -1.
         -5    1    5    5    0  502 -0.25338604557E+02 -0.41190368346E+02  0.64636028305E+02  0.80861594595E+02  0.47000000000E+01 0.  1.
         13    1    6    6    0    0 -0.10687820291E+01 -0.22807774596E+02 -0.19622685473E+02  0.30106256197E+02  0.00000000000E+00 0. -1.
        -14    1    6    6    0    0  0.10468028219E+03 -0.11850288894E+03  0.45459831545E+02  0.16452201205E+03  0.00000000000E+00 0.  1.
</event>
<event>
12    1  0.9246030E-003  0.1841181E+03  0.7818608E-02  0.1164049E+00
         21   -1    0    0  501  502  0.00000000000E+00  0.00000000000E+00  0.94866946644E+02  0.94866946644E+02  0.00000000000E+00 0. -1.
         21   -1    0    0  502  503 -0.00000000000E+00 -0.00000000000E+00 -0.35614201320E+03  0.35614201320E+03  0.00000000000E+00 0. -1.
          6    2    1    2  501    0 -0.48205054796E+02 -0.47213093370E+02 -0.12467665969E+03  0.22175236910E+03  0.17051991155E+03 0.  0.
         24    2    3    3    0    0 -0.23528432275E+02  0.38357487140E+02 -0.75332255625E+02  0.11982975061E+03  0.81604757507E+02 0.  0.
         -6    2    1    2    0  503  0.48205054796E+02  0.47213093370E+02 -0.13659840686E+03  0.22925659074E+03  0.17130865754E+03 0.  0.
        -24    2    5    5    0    0 -0.27639925802E+01  0.82278083568E+02 -0.11680610823E+03  0.16413192250E+03  0.80735979425E+02 0.  0.
          5    1    3    3  501    0 -0.24676622521E+02 -0.85570580510E+02 -0.49344404069E+02  0.10192261849E+03  0.47000000000E+01 0. -1.
        -13    1    4    4    0    0 -0.52008737474E+02  0.10397658374E+02 -0.47215810468E+02  0.71009526343E+02  0.00000000000E+00 0.  1.
         14    1    4    4    0    0  0.28480305199E+02  0.27959828767E+02 -0.28116445157E+02  0.48820224264E+02  0.00000000000E+00 0. -1.
         -5    1    5    5    0  503  0.50969047376E+02 -0.35064990198E+02 -0.19792298629E+02  0.65124668237E+02  0.47000000000E+01 0.  1.
         13    1    6    6    0    0  0.35292306361E+02  0.18490631540E+02 -0.52348115244E+02  0.65785830638E+02  0.00000000000E+00 0. -1.
        -14    1    6    6    0    0 -0.38056298941E+02  0.63787452028E+02 -0.64457992987E+02  0.98346091866E+02  0.00000000000E+00 0.  1.
</event>
<event>
12    1  0.9246030E-003  0.2835737E+03  0.7818608E-02  0.1093886E+00
         21   -1    0    0  501  502  0.00000000000E+00  0.00000000000E+00  0.18948610691E+03  0.18948610691E+03  0.00000000000E+00 0.  1.
         21   -1    0    0  502  503 -0.00000000000E+00 -0.00000000000E+00 -0.42570946886E+03  0.42570946886E+03  0.00000000000E+00 0. -1.
          6    2    1    2  501    0 -0.10704364079E+03  0.19705432369E+03 -0.93354242423E+02  0.29854485485E+03  0.17356632238E+03 0.  0.
         24    2    3    3    0    0 -0.12039887554E+03  0.15939293789E+03 -0.21614079385E+02  0.21629229703E+03  0.80082404096E+02 0.  0.
         -6    2    1    2    0  503  0.10704364079E+03 -0.19705432369E+03 -0.14286911953E+03  0.31665072091E+03  0.17195158104E+03 0.  0.
        -24    2    5    5    0    0  0.12758210673E+02 -0.16366206541E+03 -0.88390843746E+02  0.20265616939E+03  0.79426306338E+02 0.  0.
          5    1    3    3  501    0  0.13355234755E+02  0.37661385793E+02 -0.71740163038E+02  0.82252557820E+02  0.47000000000E+01 0. -1.
        -13    1    4    4    0    0 -0.49936763312E+02  0.99997463112E+02 -0.46150557827E+02  0.12092579107E+03  0.00000000000E+00 0.  1.
         14    1    4    4    0    0 -0.70462112232E+02  0.59395474780E+02  0.24536478442E+02  0.95366505960E+02  0.00000000000E+00 0. -1.
         -5    1    5    5    0  503  0.94285430116E+02 -0.33392258272E+02 -0.54478275780E+02  0.11399455152E+03  0.47000000000E+01 0.  1.
         13    1    6    6    0    0 -0.65270339064E+00 -0.48833153612E+02 -0.70361260726E+02  0.85649342813E+02  0.00000000000E+00 0. -1.
        -14    1    6    6    0    0  0.13410914064E+02 -0.11482891180E+03 -0.18029583020E+02  0.11700682658E+03  0.00000000000E+00 0.  1.
</event>
<event>
12    1  0.9246030E-003  0.2271978E+03  0.7818608E-02  0.1129036E+00
         21   -1    0    0  501  502  0.00000000000E+00  0.00000000000E+00  0.12595285517E+03  0.12595285517E+03  0.00000000000E+00 0.  1.
         21   -1    0    0  502  503 -0.00000000000E+00 -0.00000000000E+00 -0.64666770384E+03  0.64666770384E+03  0.00000000000E+00 0. -1.
          6    2    1    2  501    0 -0.75658011537E+02  0.12422230429E+03 -0.25382589135E+02  0.22861129825E+03  0.17453805964E+03 0.  0.
         24    2    3    3    0    0 -0.85278836640E+02  0.94547913524E+02  0.40084237102E+02  0.15593994846E+03  0.80614722787E+02 0.  0.
         -6    2    1    2    0  503  0.75658011537E+02 -0.12422230429E+03 -0.49533225954E+03  0.54400926076E+03  0.17157130548E+03 0.  0.
        -24    2    5    5    0    0  0.15205972890E+02 -0.17849865297E+02 -0.31753604657E+03  0.32813168411E+03  0.79318484251E+02 0.  0.
          5    1    3    3  501    0  0.96208251034E+01  0.29674390770E+02 -0.65466826237E+02  0.72671349793E+02  0.47000000000E+01 0. -1.
        -13    1    4    4    0    0 -0.34014596517E+02 -0.87908456008E+01  0.58859261597E+01  0.35621845395E+02  0.00000000000E+00 0.  1.
         14    1    4    4    0    0 -0.51264240123E+02  0.10333875912E+03  0.34198310942E+02  0.12031810306E+03  0.00000000000E+00 0. -1.
         -5    1    5    5    0  503  0.60452038647E+02 -0.10637243900E+03 -0.17779621296E+03  0.21587757665E+03  0.47000000000E+01 0.  1.
         11    1    6    6    0    0  0.19988626638E+02 -0.42684971218E+02 -0.27190877777E+03  0.27596364868E+03  0.00000000000E+00 0. -1.
        -12    1    6    6    0    0 -0.47826537485E+01  0.24835105920E+02 -0.45627268801E+02  0.52168035435E+02  0.00000000000E+00 0.  1.
</event>
<event>
12    1  0.9246030E-003  0.3168423E+03  0.7818608E-02  0.1077284E+00
         21   -1    0    0  501  502  0.00000000000E+00  0.00000000000E+00  0.15207329309E+04  0.15207329309E+04  0.00000000000E+00 0.  1.
         21   -1    0    0  502  503 -0.00000000000E+00 -0.00000000000E+00 -0.66313530914E+02  0.66313530914E+02  0.00000000000E+00 0. -1.
          6    2    1    2  501    0 -0.20604454379E+03 -0.16673379960E+03  0.80479868655E+03  0.86492193858E+03  0.17359297223E+03 0.  0.
         24    2    3    3    0    0 -0.81819524315E+02 -0.64284831074E+02  0.53669974605E+03  0.55214921196E+03  0.77428423707E+02 0.  0.
         -6    2    1    2    0  503  0.20604454379E+03  0.16673379960E+03  0.64962071345E+03  0.72212452325E+03  0.17088663428E+03 0.  0.
        -24    2    5    5    0    0  0.85656955444E+02  0.13143882086E+03  0.27429779185E+03  0.32636159872E+03  0.81604760027E+02 0.  0.
          5    1    3    3  501    0 -0.12422501948E+03 -0.10244896853E+03  0.26809894050E+03  0.31277272662E+03  0.47000000000E+01 0. -1.
        -13    1    4    4    0    0 -0.68447310885E+02 -0.15085420120E+02  0.20733176235E+03  0.21885854780E+03  0.00000000000E+00 0.  1.
         14    1    4    4    0    0 -0.13372213430E+02 -0.49199410954E+02  0.32936798370E+03  0.33329066416E+03  0.00000000000E+00 0. -1.
         -5    1    5    5    0  503  0.12038758835E+03  0.35294978741E+02  0.37532292160E+03  0.39576292453E+03  0.47000000000E+01 0.  1.
         11    1    6    6    0    0  0.10085171434E+03  0.10414069321E+03  0.23556225370E+03  0.27659704921E+03  0.00000000000E+00 0. -1.
        -12    1    6    6    0    0 -0.15194758897E+02  0.27298127658E+02  0.38735538154E+02  0.49764549507E+02  0.00000000000E+00 0.  1.
</event>
<event>
12    1  0.9246030E-003  0.2271825E+03  0.7818608E-02  0.1128642E+00
         21   -1    0    0  503  502  0.00000000000E+00  0.00000000000E+00  0.26035474400E+03  0.26035474400E+03  0.00000000000E+00 0.  1.
         21   -1    0    0  501  503 -0.00000000000E+00 -0.00000000000E+00 -0.22786982957E+03  0.22786982957E+03  0.00000000000E+00 0.  1.
          6    2    1    2  501    0 -0.11629891310E+03 -0.91090899796E+02 -0.71809551913E+02  0.23824609358E+03  0.17257346304E+03 0.  0.
         24    2    3    3    0    0 -0.26854769116E+02 -0.26790969072E+02 -0.87245645170E+02  0.12691281482E+03  0.84000745921E+02 0.  0.
         -6    2    1    2    0  502  0.11629891310E+03  0.91090899796E+02  0.10429446634E+03  0.24997848000E+03  0.17259465675E+03 0.  0.
        -24    2    5    5    0    0  0.80513875244E+02  0.94131021932E+02  0.13655475406E+03  0.20147458900E+03  0.81250696980E+02 0.  0.
          5    1    3    3  501    0 -0.89444143988E+02 -0.64299930724E+02  0.15436093258E+02  0.11133327876E+03  0.47000000000E+01 0. -1.
        -11    1    4    4    0    0 -0.44050819068E+02 -0.46072649040E+02 -0.47444487087E+02  0.79461581944E+02  0.00000000000E+00 0.  1.
         12    1    4    4    0    0  0.17196049952E+02  0.19281679967E+02 -0.39801158083E+02  0.47451232872E+02  0.00000000000E+00 0. -1.
         -5    1    5    5    0  502  0.35785037861E+02 -0.30401221361E+01 -0.32260287725E+02  0.48503890993E+02  0.47000000000E+01 0.  1.
         13    1    6    6    0    0 -0.18892311601E+01 -0.12857504743E+02  0.14143744388E+02  0.19207553928E+02  0.00000000000E+00 0. -1.
        -14    1    6    6    0    0  0.82403106404E+02  0.10698852667E+03  0.12241100968E+03  0.18226703507E+03  0.00000000000E+00 0.  1.
</event>
<event>
12    1  0.9246030E-003  0.1889063E+03  0.7818608E-02  0.1159731E+00
         21   -1    0    0  501  502  0.00000000000E+00  0.00000000000E+00  0.17827221783E+03  0.17827221783E+03  0.00000000000E+00 0. -1.
         21   -1    0    0  502  503 -0.00000000000E+00 -0.00000000000E+00 -0.25459362210E+03  0.25459362210E+03  0.00000000000E+00 0.  1.
          6    2    1    2  501    0 -0.87446945076E+01 -0.75469196355E+02 -0.13950808932E+03  0.23483628327E+03  0.17295520713E+03 0.  0.
         24    2    3    3    0    0 -0.57043641588E+02 -0.18872020854E+02 -0.33522238775E+02  0.10525573272E+03  0.79654871553E+02 0.  0.
         -6    2    1    2    0  503  0.87446945076E+01  0.75469196355E+02  0.63186685046E+02  0.19802955666E+03  0.17161316634E+03 0.  0.
        -24    2    5    5    0    0 -0.26895289982E+02  0.36503769807E+02 -0.24884782598E+02  0.95232735823E+02  0.79963364949E+02 0.  0.
          5    1    3    3  501    0  0.48298947080E+02 -0.56597175501E+02 -0.10598585054E+03  0.12958055054E+03  0.47000000000E+01 0. -1.
        -13    1    4    4    0    0 -0.73714543110E+02 -0.20585130936E+01 -0.34804012921E+02  0.81543795947E+02  0.00000000000E+00 0.  1.
         14    1    4    4    0    0  0.16670901522E+02 -0.16813507761E+02  0.12817741460E+01  0.23711936778E+02  0.00000000000E+00 0. -1.
         -5    1    5    5    0  503  0.35639984490E+02  0.38965426549E+02  0.88071467645E+02  0.10279682083E+03  0.47000000000E+01 0.  1.
         13    1    6    6    0    0 -0.99537783491E+00  0.23706343260E+02  0.26940483426E+02  0.35899458701E+02  0.00000000000E+00 0. -1.
        -14    1    6    6    0    0 -0.25899912147E+02  0.12797426547E+02 -0.51825266025E+02  0.59333277121E+02  0.00000000000E+00 0.  1.
</event>
<event>
12    1  0.9246030E-003  0.3071769E+03  0.7818608E-02  0.1082332E+00
         21   -1    0    0  503  502  0.00000000000E+00  0.00000000000E+00  0.17982749811E+03  0.17982749811E+03  0.00000000000E+00 0.  1.
         21   -1    0    0  501  503 -0.00000000000E+00 -0.00000000000E+00 -0.55134925974E+03  0.55134925974E+03  0.00000000000E+00 0.  1.
          6    2    1    2  501    0 -0.75605490356E+01 -0.25377351895E+03 -0.94685223335E+02  0.32143882041E+03  0.17291461167E+03 0.  0.
         24    2    3    3    0    0 -0.25800128699E+02 -0.25177418042E+03 -0.11808004601E+03  0.29133753557E+03  0.82938397623E+02 0.  0.
         -6    2    1    2    0  502  0.75605490356E+01  0.25377351895E+03 -0.27683653829E+03  0.40973793744E+03  0.16367207344E+03 0.  0.
        -24    2    5    5    0    0 -0.17372089763E+02  0.69053215056E+02 -0.55269752000E+02  0.12015693334E+03  0.79453175719E+02 0.  0.
          5    1    3    3  501    0  0.18239579664E+02 -0.19993385309E+01  0.23394822678E+02  0.30101284840E+02  0.47000000000E+01 0. -1.
        -11    1    4    4    0    0 -0.55789012574E+02 -0.18264133724E+03 -0.83739772816E+02  0.20852487032E+03  0.00000000000E+00 0.  1.
         12    1    4    4    0    0  0.29988883875E+02 -0.69132843181E+02 -0.34340273198E+02  0.82812665249E+02  0.00000000000E+00 0. -1.
         -5    1    5    5    0  502  0.24932638799E+02  0.18472030389E+03 -0.22156678629E+03  0.28958100410E+03  0.47000000000E+01 0.  1.
         13    1    6    6    0    0  0.31735768835E+02  0.21675813554E+02 -0.21108245385E+02  0.43846983249E+02  0.00000000000E+00 0. -1.
        -14    1    6    6    0    0 -0.49107858598E+02  0.47377401502E+02 -0.34161506615E+02  0.76309950094E+02  0.00000000000E+00 0.  1.
</event>
<event>
12    1  0.9246030E-003  0.1942162E+03  0.7818608E-02  0.1156135E+00
         21   -1    0    0  503  502  0.00000000000E+00  0.00000000000E+00  0.22182546086E+03  0.22182546086E+03  0.00000000000E+00 0. -1.
         21   -1    0    0  501  503 -0.00000000000E+00 -0.00000000000E+00 -0.17305775720E+03  0.17305775720E+03  0.00000000000E+00 0. -1.
          6    2    1    2  501    0 -0.51568558823E+02  0.73282215528E+02  0.67877221128E+02  0.19972915364E+03  0.16509033373E+03 0.  0.
         24    2    3    3    0    0  0.12132880674E+02  0.79944589500E+02  0.12165882258E+02  0.11471089736E+03  0.80450215032E+02 0.  0.
         -6    2    1    2    0  502  0.51568558823E+02 -0.73282215528E+02 -0.19109517469E+02  0.19515406443E+03  0.17230883853E+03 0.  0.
        -24    2    5    5    0    0  0.53867027741E+02 -0.37012476336E+02 -0.75853471047E+02  0.12760598372E+03  0.79107255850E+02 0.  0.
          5    1    3    3  501    0 -0.63701439497E+02 -0.66623739722E+01  0.55711338870E+02  0.85018256273E+02  0.47000000000E+01 0. -1.
        -13    1    4    4    0    0 -0.16747941554E+02 -0.38366245960E+01  0.19257501125E+02  0.25808227064E+02  0.00000000000E+00 0.  1.
         14    1    4    4    0    0  0.28880822229E+02  0.83781214096E+02 -0.70916188669E+01  0.88902670299E+02  0.00000000000E+00 0. -1.
         -5    1    5    5    0  502 -0.22984689178E+01 -0.36269739192E+02  0.56743953579E+02  0.67548080714E+02  0.47000000000E+01 0.  1.
         13    1    6    6    0    0  0.40930058854E+02 -0.13045563298E+02  0.40875193603E+01  0.43152801231E+02  0.00000000000E+00 0. -1.
        -14    1    6    6    0    0  0.12936968887E+02 -0.23966913037E+02 -0.79940990408E+02  0.84453182485E+02  0.00000000000E+00 0.  1.
</event>
<event>
12    1  0.9246030E-003  0.1734798E+03  0.7818608E-02  0.1174303E+00
         21   -1    0    0  501  502  0.00000000000E+00  0.00000000000E+00  0.55105835623E+03  0.55105835623E+03  0.00000000000E+00 0. -1.
         21   -1    0    0  502  503 -0.00000000000E+00 -0.00000000000E+00 -0.56780174003E+02  0.56780174003E+02  0.00000000000E+00 0. -1.
          6    2    1    2  501    0 -0.22937978379E+02  0.15766782273E+02  0.18725527943E+03  0.25526410804E+03  0.17123224844E+03 0.  0.
         24    2    3    3    0    0 -0.71764451050E+02 -0.24733330256E+02  0.11474614284E+03  0.15880713091E+03  0.79316791861E+02 0.  0.
         -6    2    1    2    0  503  0.22937978379E+02 -0.15766782273E+02  0.30702290279E+03  0.35257442218E+03  0.17108745736E+03 0.  0.
        -24    2    5    5    0    0  0.86308313539E+01 -0.75141135035E+02  0.17387568299E+03  0.20601289804E+03  0.80547374855E+02 0.  0.
          5    1    3    3  501    0  0.48826472671E+02  0.40500112530E+02  0.72509136592E+02  0.96456977133E+02  0.47000000000E+01 0. -1.
        -13    1    4    4    0    0 -0.34879876664E+02 -0.52885354922E+02  0.68176492360E+02  0.93067183646E+02  0.00000000000E+00 0.  1.
         14    1    4    4    0    0 -0.36884574386E+02  0.28152024665E+02  0.46569650482E+02  0.65739947265E+02  0.00000000000E+00 0. -1.
         -5    1    5    5    0  503  0.14307147025E+02  0.59374352762E+02  0.13314721979E+03  0.14656152415E+03  0.47000000000E+01 0.  1.
         13    1    6    6    0    0 -0.44606034766E+01  0.81663671421E+01 -0.32341310554E+01  0.98511998944E+01  0.00000000000E+00 0. -1.
        -14    1    6    6    0    0  0.13091434831E+02 -0.83307502177E+02  0.17710981405E+03  0.19616169814E+03  0.00000000000E+00 0.  1.
</event>
<event>
12    1  0.9246030E-003  0.2489724E+03  0.7818608E-02  0.1114140E+00
         21   -1    0    0  501  502  0.00000000000E+00  0.00000000000E+00  0.33626993116E+03  0.33626993116E+03  0.00000000000E+00 0. -1.
         21   -1    0    0  502  503 -0.00000000000E+00 -0.00000000000E+00 -0.19228572287E+03  0.19228572287E+03  0.00000000000E+00 0.  1.
          6    2    1    2  501    0 -0.15501211293E+03  0.92766741253E+02  0.12869237475E+03  0.28026595574E+03  0.17132674977E+03 0.  0.
         24    2    3    3    0    0 -0.75164256956E+02  0.11987780155E+03  0.10143937663E+03  0.19152191030E+03  0.79814423293E+02 0.  0.
         -6    2    1    2    0  503  0.15501211293E+03 -0.92766741253E+02  0.15291833540E+02  0.24828969829E+03  0.16964524947E+03 0.  0.
        -24    2    5    5    0    0  0.64715341436E+02  0.16596751316E+02 -0.12489581855E+02  0.10369447883E+03  0.78313649603E+02 0.  0.
          5    1    3    3  501    0 -0.79847855978E+02 -0.27111060295E+02  0.27252998122E+02  0.88744045441E+02  0.47000000000E+01 0. -1.
        -11    1    4    4    0    0  0.18284199830E+01  0.37030066215E+02 -0.34958554561E+01  0.37239628474E+02  0.00000000000E+00 0.  1.
         12    1    4    4    0    0 -0.76992676939E+02  0.82847735332E+02  0.10493523209E+03  0.15428228182E+03  0.00000000000E+00 0. -1.
         -5    1    5    5    0  503  0.90296771498E+02 -0.10936349257E+03  0.27781415395E+02  0.14459521946E+03  0.47000000000E+01 0.  1.
         11    1    6    6    0    0 -0.12037071871E+02 -0.14022361789E+02 -0.10022732402E+02  0.21023151385E+02  0.00000000000E+00 0. -1.
        -12    1    6    6    0    0  0.76752413306E+02  0.30619113105E+02 -0.24668494530E+01  0.82671327447E+02  0.00000000000E+00 0.  1.
</event>
<event>
12    1  0.9246030E-003  0.3327661E+03  0.7818608E-02  0.1069924E+00
         21   -1    0    0  503  502  0.00000000000E+00  0.00000000000E+00  0.20439754404E+04  0.20439754404E+04  0.00000000000E+00 0. -1.
         21   -1    0    0  501  503 -0.00000000000E+00 -0.00000000000E+00 -0.56518960211E+02  0.56518960211E+02  0.00000000000E+00 0. -1.
          6    2    1    2  501    0 -0.99266974589E+01 -0.28459797164E+03  0.77960705381E+03  0.84765583432E+03  0.17215896813E+03 0.  0.
         24    2    3    3    0    0 -0.55138661462E+02 -0.99803933730E+02  0.29506402302E+03  0.32708211540E+03  0.83179536887E+02 0.  0.
         -6    2    1    2    0  502  0.99266974589E+01  0.28459797164E+03  0.12078494264E+04  0.12528385663E+04  0.17207466871E+03 0.  0.
        -24    2    5    5    0    0 -0.33156355060E+02  0.25459474005E+03  0.85918157237E+03  0.90020886570E+03  0.79153029326E+02 0.  0.
          5    1    3    3  501    0  0.45211964003E+02 -0.18479403791E+03  0.48454303080E+03  0.52057371892E+03  0.47000000000E+01 0. -1.
        -13    1    4    4    0    0 -0.19753426222E+02 -0.41516307017E+02  0.22371099557E+03  0.22838653886E+03  0.00000000000E+00 0.  1.
         14    1    4    4    0    0 -0.35385235241E+02 -0.58287626714E+02  0.71353027448E+02  0.98695576532E+02  0.00000000000E+00 0. -1.
         -5    1    5    5    0  502  0.43083052519E+02  0.30003231596E+02  0.34866785402E+03  0.35262970060E+03  0.47000000000E+01 0.  1.
         11    1    6    6    0    0 -0.10993509629E+02 -0.19510546027E+01  0.34959534811E+02  0.36699222638E+02  0.00000000000E+00 0. -1.
        -12    1    6    6    0    0 -0.22162845431E+02  0.25654579465E+03  0.82422203756E+03  0.86350964306E+03  0.00000000000E+00 0.  1.
</event>
<event>
12    1  0.9246030E-003  0.1775742E+03  0.7818608E-02  0.1170311E+00
         21   -1    0    0  503  502  0.00000000000E+00  0.00000000000E+00  0.18068127011E+03  0.18068127011E+03  0.00000000000E+00 0.  1.
         21   -1    0    0  501  503 -0.00000000000E+00 -0.00000000000E+00 -0.18206110176E+03  0.18206110176E+03  0.00000000000E+00 0.  1.
          6    2    1    2  501    0 -0.14758369739E+02  0.41786952062E+02  0.37555071216E+02  0.18094986620E+03  0.17137243613E+03 0.  0.
         24    2    3    3    0    0  0.36083182802E+02  0.58484470769E+02  0.61993486905E+02  0.12193294696E+03  0.79385274026E+02 0.  0.
         -6    2    1    2    0  502  0.14758369739E+02 -0.41786952062E+02 -0.38934902865E+02  0.18179250567E+03  0.17195531285E+03 0.  0.
        -24    2    5    5    0    0  0.16425279406E+01  0.37731870676E+02 -0.40998869074E+02  0.10103596766E+03  0.84267238784E+02 0.  0.
          5    1    3    3  501    0 -0.50841552541E+02 -0.16697518707E+02 -0.24438415689E+02  0.59016919245E+02  0.47000000000E+01 0. -1.
        -13    1    4    4    0    0  0.87200775512E+01  0.63652545944E+02  0.67887972164E+02  0.93469049006E+02  0.00000000000E+00 0.  1.
         14    1    4    4    0    0  0.27363105251E+02 -0.51680751743E+01 -0.58944852587E+01  0.28463897949E+02  0.00000000000E+00 0. -1.
         -5    1    5    5    0  502  0.13115841798E+02 -0.79518822738E+02  0.20639662082E+01  0.80756538016E+02  0.47000000000E+01 0.  1.
         11    1    6    6    0    0 -0.17012484797E+02 -0.38172320643E+01  0.18948559280E+02  0.25749636859E+02  0.00000000000E+00 0. -1.
        -12    1    6    6    0    0  0.18655012738E+02  0.41549102740E+02 -0.59947428353E+02  0.75286330797E+02  0.00000000000E+00 0.  1.
</event>
<event>
12    1  0.9246030E-003  0.2682665E+03  0.7818608E-02  0.1102322E+00
         21   -1    0    0  501  502  0.00000000000E+00  0.00000000000E+00  0.64881406426E+02  0.64881406426E+02  0.00000000000E+00 0.  1.
         21   -1    0    0  502  503 -0.00000000000E+00 -0.00000000000E+00 -0.11525966679E+04  0.11525966679E+04  0.00000000000E+00 0. -1.
          6    2    1    2  501    0 -0.70768700751E+02 -0.19309403708E+03 -0.42425956027E+03  0.50195925938E+03  0.17225970927E+03 0.  0.
         24    2    3    3    0    0  0.11229089917E+02 -0.38103832727E+02 -0.18566315565E+03  0.20582426412E+03  0.79465878259E+02 0.  0.
         -6    2    1    2    0  503  0.70768700751E+02  0.19309403708E+03 -0.66345570121E+03  0.71551881495E+03  0.17175619616E+03 0.  0.
        -24    2    5    5    0    0  0.75806653779E+02  0.51994871084E+02 -0.37477646667E+03  0.39412785978E+03  0.80182632180E+02 0.  0.
          5    1    3    3  501    0 -0.81997790668E+02 -0.15499020435E+03 -0.23859640462E+03  0.29613499526E+03  0.47000000000E+01 0. -1.
        -11    1    4    4    0    0  0.35123283380E+02 -0.42936435966E+02 -0.79774145925E+02  0.97165307219E+02  0.00000000000E+00 0.  1.
         12    1    4    4    0    0 -0.23894193462E+02  0.48326032385E+01 -0.10588900973E+03  0.10865895691E+03  0.00000000000E+00 0. -1.
         -5    1    5    5    0  503 -0.50379530280E+01  0.14109916599E+03 -0.28867923454E+03  0.32139095518E+03  0.47000000000E+01 0.  1.
         13    1    6    6    0    0 -0.63985862131E+01  0.36126412019E+02 -0.14513779508E+03  0.14970317001E+03  0.00000000000E+00 0. -1.
        -14    1    6    6    0    0  0.82205239992E+02  0.15868459065E+02 -0.22963867159E+03  0.24442468976E+03  0.00000000000E+00 0.  1.
</event>
<event>
12    1  0.9246030E-003  0.1807652E+03  0.7818608E-02  0.1167367E+00
         21   -1    0    0  503  502  0.00000000000E+00  0.00000000000E+00  0.86575202417E+02  0.86575202417E+02  0.00000000000E+00 0.  1.
         21   -1    0    0  501  503 -0.00000000000E+00 -0.00000000000E+00 -0.42810673482E+03  0.42810673482E+03  0.00000000000E+00 0.  1.
          6    2    1    2  501    0 -0.52486533575E+02 -0.61722859443E+01 -0.26207802242E+03  0.31837231305E+03  0.17286730911E+03 0.  0.
         24    2    3    3    0    0 -0.50006824293E+01 -0.40483875978E+02 -0.23857814203E+03  0.25507519109E+03  0.80497653479E+02 0.  0.
         -6    2    1    2    0  502  0.52486533575E+02  0.61722859443E+01 -0.79453509982E+02  0.19630962419E+03  0.17155662325E+03 0.  0.
        -24    2    5    5    0    0 -0.20872754772E+02 -0.41127432807E+02 -0.32368754260E+02  0.97022601867E+02  0.78984247794E+02 0.  0.
          5    1    3    3  501    0 -0.47485851146E+02  0.34311590034E+02 -0.23499880392E+02  0.63297121958E+02  0.47000000000E+01 0. -1.
        -13    1    4    4    0    0 -0.37714537280E+02  0.56325391522E+00 -0.96234486583E+02  0.10336237219E+03  0.00000000000E+00 0.  1.
         14    1    4    4    0    0  0.32713854851E+02 -0.41047129893E+02 -0.14234365545E+03  0.15171281890E+03  0.00000000000E+00 0. -1.
         -5    1    5    5    0  502  0.73359288347E+02  0.47299718751E+02 -0.47084755722E+02  0.99287022325E+02  0.47000000000E+01 0.  1.
         13    1    6    6    0    0  0.26218757689E+02 -0.85810316893E+01  0.58395318364E+01  0.28198537049E+02  0.00000000000E+00 0. -1.
        -14    1    6    6    0    0 -0.47091512461E+02 -0.32546401117E+02 -0.38208286097E+02  0.68824064818E+02  0.00000000000E+00 0.  1.
</event>
<event>
12    1  0.9246030E-003  0.2454090E+03  0.7818608E-02  0.1116264E+00
         21   -1    0    0  501  502  0.00000000000E+00  0.00000000000E+00  0.15261848384E+03  0.15261848384E+03  0.00000000000E+00 0. -1.
         21   -1    0    0  502  503 -0.00000000000E+00 -0.00000000000E+00 -0.43097680044E+03  0.43097680044E+03  0.00000000000E+00 0.  1.
          6    2    1    2  501    0 -0.64263194197E+02  0.16230020397E+03 -0.54125115952E+02  0.25117067256E+03  0.17229644292E+03 0.  0.
         24    2    3    3    0    0 -0.11050769486E+03  0.13120669630E+03 -0.36452611981E+02  0.19252114181E+03  0.79425747381E+02 0.  0.
         -6    2    1    2    0  503  0.64263194197E+02 -0.16230020397E+03 -0.22423320064E+03  0.33242461171E+03  0.17249486909E+03 0.  0.
        -24    2    5    5    0    0 -0.38556792697E+01 -0.15881320556E+03 -0.14461098502E+03  0.22747639924E+03  0.74810926333E+02 0.  0.
          5    1    3    3  501    0  0.46244500664E+02  0.31093507666E+02 -0.17672503971E+02  0.58649530750E+02  0.47000000000E+01 0. -1.
        -11    1    4    4    0    0 -0.40288755629E+02  0.27115362934E+02 -0.45613345997E+02  0.66625851366E+02  0.00000000000E+00 0.  1.
         12    1    4    4    0    0 -0.70218939231E+02  0.10409133337E+03  0.91607340159E+01  0.12589529045E+03  0.00000000000E+00 0. -1.
         -5    1    5    5    0  503  0.68118873466E+02 -0.34869984066E+01 -0.79622215630E+02  0.10494821248E+03  0.47000000000E+01 0.  1.
         11    1    6    6    0    0 -0.34855732170E+01 -0.15894009037E+03 -0.11107354030E+03  0.19393667240E+03  0.00000000000E+00 0. -1.
        -12    1    6    6    0    0 -0.37010605267E+00  0.12688480675E+00 -0.33537444712E+02  0.33539726833E+02  0.00000000000E+00 0.  1.
</event>
<event>
12    1  0.9246030E-003  0.1847996E+03  0.7818608E-02  0.1163314E+00
         21   -1    0    0  501  502  0.00000000000E+00  0.00000000000E+00  0.17953768205E+03  0.17953768205E+03  0.00000000000E+00 0.  1.
         21   -1    0    0  502  503 -0.00000000000E+00 -0.00000000000E+00 -0.19526915403E+03  0.19526915403E+03  0.00000000000E+00 0.  1.
          6    2    1    2  501    0 -0.35149306147E+01 -0.66113850681E+02  0.23283117817E+02  0.18593376992E+03  0.17217975268E+03 0.  0.
         24    2    3    3    0    0  0.40987050589E+02 -0.56260094362E+02  0.62319919081E+02  0.12573838225E+03  0.84150055984E+02 0.  0.
         -6    2    1    2    0  503  0.35149306147E+01  0.66113850681E+02 -0.39014589799E+02  0.18887306616E+03  0.17253260826E+03 0.  0.
        -24    2    5    5    0    0 -0.43286632081E+02  0.90334824161E+02 -0.95533061972E+01  0.12831648882E+03  0.79622501039E+02 0.  0.
          5    1    3    3  501    0 -0.44501981204E+02 -0.98537563187E+01 -0.39036801265E+02  0.60195387677E+02  0.47000000000E+01 0. -1.
        -13    1    4    4    0    0  0.11581039068E+02 -0.82698888184E+01  0.67718030049E+02  0.69197132316E+02  0.00000000000E+00 0.  1.
         14    1    4    4    0    0  0.29406011522E+02 -0.47990205544E+02 -0.53981109679E+01  0.56541249931E+02  0.00000000000E+00 0. -1.
         -5    1    5    5    0  503  0.46801562696E+02 -0.24220973481E+02 -0.29461283601E+02  0.60556577335E+02  0.47000000000E+01 0.  1.
         13    1    6    6    0    0 -0.58381150399E+02  0.29768886665E+02 -0.41312742353E+01  0.65662872020E+02  0.00000000000E+00 0. -1.
        -14    1    6    6    0    0  0.15094518318E+02  0.60565937496E+02 -0.54220319619E+01  0.62653616804E+02  0.00000000000E+00 0.  1.
</event>
<event>
12    1  0.9246030E-003  0.2536773E+03  0.7818608E-02  0.1111031E+00
         21   -1    0    0  501  502  0.00000000000E+00  0.00000000000E+00  0.65747648174E+03  0.65747648174E+03  0.00000000000E+00 0. -1.
         21   -1    0    0  502  503 -0.00000000000E+00 -0.00000000000E+00 -0.10395141844E+03  0.10395141844E+03  0.00000000000E+00 0.  1.
          6    2    1    2  501    0 -0.88933960696E+02 -0.16389939105E+03  0.36922650043E+03  0.44787067463E+03  0.17171975081E+03 0.  0.
         24    2    3    3    0    0 -0.83241083961E+02 -0.18892796269E+03  0.35496518918E+03  0.41813326986E+03  0.78818098739E+02 0.  0.
         -6    2    1    2    0  503  0.88933960696E+02  0.16389939105E+03  0.18429856287E+03  0.31355722555E+03  0.17198812072E+03 0.  0.
        -24    2    5    5    0    0  0.10057559277E+03  0.68346021286E+02  0.63251032157E+02  0.15882982409E+03  0.80247065149E+02 0.  0.
          5    1    3    3  501    0 -0.56928767347E+01  0.25028571638E+02  0.14261311252E+02  0.29737404769E+02  0.47000000000E+01 0. -1.
        -13    1    4    4    0    0 -0.15734174394E+02 -0.95231854642E+02  0.10409424507E+03  0.14195873428E+03  0.00000000000E+00 0.  1.
         14    1    4    4    0    0 -0.67506909567E+02 -0.93696108044E+02  0.25087094411E+03  0.27617453557E+03  0.00000000000E+00 0. -1.
         -5    1    5    5    0  503 -0.11641632079E+02  0.95553369761E+02  0.12104753071E+03  0.15472740146E+03  0.47000000000E+01 0.  1.
         11    1    6    6    0    0  0.27217977382E+02 -0.17646595526E+02  0.10498981590E+02  0.34094709866E+02  0.00000000000E+00 0. -1.
        -12    1    6    6    0    0  0.73357615393E+02  0.85992616813E+02  0.52752050567E+02  0.12473511423E+03  0.00000000000E+00 0.  1.
</event>
<event>
12    1  0.9246030E-003  0.3606515E+03  0.7818608E-02  0.1058356E+00
         21   -1    0    0  501  502  0.00000000000E+00  0.00000000000E+00  0.20805225716E+03  0.20805225716E+03  0.00000000000E+00 0.  1.
         21   -1    0    0  502  503 -0.00000000000E+00 -0.00000000000E+00 -0.63035979245E+03  0.63035979245E+03  0.00000000000E+00 0. -1.
          6    2    1    2  501    0 -0.80041089382E+02 -0.30682219958E+03 -0.25096252427E+03  0.43912691019E+03  0.17118357552E+03 0.  0.
         24    2    3    3    0    0 -0.60487248643E+02 -0.26020860238E+03 -0.12921102013E+03  0.30721520150E+03  0.79488793587E+02 0.  0.
         -6    2    1    2    0  503  0.80041089382E+02  0.30682219958E+03 -0.17134501102E+03  0.39928513942E+03  0.17182279131E+03 0.  0.
        -24    2    5    5    0    0 -0.21286545651E+02  0.13607931206E+03 -0.10005499245E+03  0.18827618224E+03  0.80412829136E+02 0.  0.
          5    1    3    3  501    0 -0.19553840739E+02 -0.46613597194E+02 -0.12175150414E+03  0.13191170870E+03  0.47000000000E+01 0. -1.
        -13    1    4    4    0    0 -0.49281496507E+02 -0.97656160864E+02 -0.20366612728E+02  0.11126630472E+03  0.00000000000E+00 0.  1.
         14    1    4    4    0    0 -0.11205752136E+02 -0.16255244152E+03 -0.10884440740E+03  0.19594889677E+03  0.00000000000E+00 0. -1.
         -5    1    5    5    0  503  0.10132763503E+03  0.17074288752E+03 -0.71290018567E+02  0.21100895717E+03  0.47000000000E+01 0.  1.
         13    1    6    6    0    0  0.19248828273E+02  0.38255243358E+01 -0.44428563757E+01  0.20121903466E+02  0.00000000000E+00 0. -1.
        -14    1    6    6    0    0 -0.40535373924E+02  0.13225378772E+03 -0.95612136076E+02  0.16815427878E+03  0.00000000000E+00 0.  1.
</event>
<event>
12    1  0.9246030E-003  0.2083659E+03  0.7818608E-02  0.1143737E+00
         21   -1    0    0  501  502  0.00000000000E+00  0.00000000000E+00  0.38045587030E+02  0.38045587030E+02  0.00000000000E+00 0.  1.
         21   -1    0    0  502  503 -0.00000000000E+00 -0.00000000000E+00 -0.11178831089E+04  0.11178831089E+04  0.00000000000E+00 0. -1.
          6    2    1    2  501    0 -0.65418317725E+02  0.98600900105E+02 -0.54129817761E+03  0.57848520402E+03  0.16625197860E+03 0.  0.
         24    2    3    3    0    0 -0.14230485057E+02  0.71404022423E+02 -0.48586096224E+03  0.49814070068E+03  0.82354367948E+02 0.  0.
         -6    2    1    2    0  503  0.65418317725E+02 -0.98600900105E+02 -0.53853934425E+03  0.57744349190E+03  0.17150704720E+03 0.  0.
        -24    2    5    5    0    0 -0.14157456669E+02 -0.71249366441E+02 -0.40607796724E+03  0.42044503120E+03  0.81226861222E+02 0.  0.
          5    1    3    3  501    0 -0.51187832668E+02  0.27196877682E+02 -0.55437215373E+02  0.80344503342E+02  0.47000000000E+01 0. -1.
        -13    1    4    4    0    0 -0.36060742478E+02  0.43684304965E+01 -0.11371651117E+03  0.11937715546E+03  0.00000000000E+00 0.  1.
         14    1    4    4    0    0  0.21830257420E+02  0.67035591926E+02 -0.37214445107E+03  0.37876354522E+03  0.00000000000E+00 0. -1.
         -5    1    5    5    0  503  0.79575774394E+02 -0.27351533664E+02 -0.13246137701E+03  0.15699846071E+03  0.47000000000E+01 0.  1.
         11    1    6    6    0    0 -0.24608961003E+02  0.10345929625E+02 -0.96630428105E+02  0.10025008158E+03  0.00000000000E+00 0. -1.
        -12    1    6    6    0    0  0.10451504334E+02 -0.81595296066E+02 -0.30944753913E+03  0.32019494961E+03  0.00000000000E+00 0.  1.
</event>
<event>
12    1  0.9246030E-003  0.2015886E+03  0.7818608E-02  0.1148727E+00
         21   -1    0    0  503  502  0.00000000000E+00  0.00000000000E+00  0.99676713703E+02  0.99676713703E+02  0.00000000000E+00 0.  1.
         21   -1    0    0  501  503 -0.00000000000E+00 -0.00000000000E+00 -0.41221204090E+03  0.41221204090E+03  0.00000000000E+00 0.  1.
          6    2    1    2  501    0 -0.99365974549E+02 -0.39669435879E+02 -0.19162825522E+03  0.27813549060E+03  0.17085286620E+03 0.  0.
         24    2    3    3    0    0 -0.34966753853E+02  0.43551880236E+02 -0.10406801312E+03  0.14116128471E+03  0.77310521913E+02 0.  0.
         -6    2    1    2    0  502  0.99365974549E+02  0.39669435879E+02 -0.12090707197E+03  0.23375326400E+03  0.16904084518E+03 0.  0.
        -24    2    5    5    0    0  0.91651176489E+02  0.82341316799E+02 -0.12075145584E+03  0.19013535774E+03  0.79940662818E+02 0.  0.
          5    1    3    3  501    0 -0.64399220696E+02 -0.83221316115E+02 -0.87560242103E+02  0.13697420589E+03  0.47000000000E+01 0. -1.
        -13    1    4    4    0    0  0.17183252352E+02  0.35057540111E+02 -0.63517196071E+02  0.74556887520E+02  0.00000000000E+00 0.  1.
         14    1    4    4    0    0 -0.52150006205E+02  0.84943401245E+01 -0.40550817046E+02  0.66604397186E+02  0.00000000000E+00 0. -1.
         -5    1    5    5    0  502  0.77147980609E+01 -0.42671880920E+02 -0.15561613179E+00  0.43617906262E+02  0.47000000000E+01 0.  1.
         13    1    6    6    0    0  0.25659748498E+02  0.33070847226E+02 -0.95056276589E+02  0.10386433145E+03  0.00000000000E+00 0. -1.
        -14    1    6    6    0    0  0.65991427990E+02  0.49270469573E+02 -0.25695179253E+02  0.86271026289E+02  0.00000000000E+00 0.  1.
</event>
<event>
12    1  0.9246030E-003  0.2454238E+03  0.7818608E-02  0.1116302E+00
         21   -1    0    0  501  502  0.00000000000E+00  0.00000000000E+00  0.77556252033E+02  0.77556252033E+02  0.00000000000E+00 0.  1.
         21   -1    0    0  502  503 -0.00000000000E+00 -0.00000000000E+00 -0.79828570054E+03  0.79828570054E+03  0.00000000000E+00 0.  1.
          6    2    1    2  501    0  0.64310327568E+02  0.16345817923E+03 -0.28630214701E+03  0.37709647077E+03  0.17140138359E+03 0.  0.
         24    2    3    3    0    0 -0.32328886437E+02  0.77333719067E+02 -0.11948010756E+03  0.16588983459E+03  0.78856072147E+02 0.  0.
         -6    2    1    2    0  503 -0.64310327568E+02 -0.16345817923E+03 -0.43442730149E+03  0.49874548180E+03  0.17077933347E+03 0.  0.
        -24    2    5    5    0    0 -0.60182798394E+02 -0.44362590268E+02 -0.14444901295E+03  0.18520075830E+03  0.88565201371E+02 0.  0.
          5    1    3    3  501    0  0.96639214005E+02  0.86124460165E+02 -0.16682203945E+03  0.21120663619E+03  0.47000000000E+01 0. -1.
        -13    1    4    4    0    0 -0.11510482956E+02  0.81490681401E+02 -0.57558372726E+02  0.10043001864E+03  0.00000000000E+00 0.  1.
         14    1    4    4    0    0 -0.20818403482E+02 -0.41569623347E+01 -0.61921734830E+02  0.65459815947E+02  0.00000000000E+00 0. -1.
         -5    1    5    5    0  503 -0.41275291737E+01 -0.11909558896E+03 -0.28997828854E+03  0.31354472350E+03  0.47000000000E+01 0.  1.
         11    1    6    6    0    0 -0.42423014750E+01  0.25810036790E+02 -0.33419638418E+02  0.42438512614E+02  0.00000000000E+00 0. -1.
        -12    1    6    6    0    0 -0.55940496919E+02 -0.70172627057E+02 -0.11102937453E+03  0.14276224568E+03  0.00000000000E+00 0.  1.
</event>
<event>
12    1  0.9246030E-003  0.1848884E+03  0.7818608E-02  0.1163606E+00
         21   -1    0    0  501  502  0.00000000000E+00  0.00000000000E+00  0.52725215932E+03  0.52725215932E+03  0.00000000000E+00 0.  1.
         21   -1    0    0  502  503 -0.00000000000E+00 -0.00000000000E+00 -0.73849682689E+02  0.73849682689E+02  0.00000000000E+00 0.  1.
          6    2    1    2  501    0  0.66596275662E+02  0.87581597819E+01  0.33452965757E+03  0.38129628945E+03  0.17019106693E+03 0.  0.
         24    2    3    3    0    0  0.30905118657E+02  0.67513705354E+01  0.60329757874E+02  0.10473605934E+03  0.79556615543E+02 0.  0.
         -6    2    1    2    0  503 -0.66596275662E+02 -0.87581597819E+01  0.11887281906E+03  0.21980555255E+03  0.17225552103E+03 0.  0.
        -24    2    5    5    0    0  0.84502900156E+01  0.22175506023E+02  0.11659417253E+02  0.85248195907E+02  0.81044138752E+02 0.  0.
          5    1    3    3  501    0  0.35691157006E+02  0.20067892465E+01  0.27419989969E+03  0.27656023012E+03  0.47000000000E+01 0. -1.
        -11    1    4    4    0    0 -0.95363024704E+00  0.28947625418E+02  0.59183620416E+02  0.65890631759E+02  0.00000000000E+00 0.  1.
         12    1    4    4    0    0  0.31858748904E+02 -0.22196254883E+02  0.11461374578E+01  0.38845427576E+02  0.00000000000E+00 0. -1.
         -5    1    5    5    0  503 -0.75046565678E+02 -0.30933665805E+02  0.10721340181E+03  0.13455735664E+03  0.47000000000E+01 0.  1.
         11    1    6    6    0    0  0.28855038858E+02 -0.40067293169E+01  0.34349849317E+02  0.45039752391E+02  0.00000000000E+00 0. -1.
        -12    1    6    6    0    0 -0.20404748842E+02  0.26182235340E+02 -0.22690432064E+02  0.40208443516E+02  0.00000000000E+00 0.  1.
</event>
<event>
12    1  0.9246030E-003  0.1866114E+03  0.7818608E-02  0.1161898E+00
         21   -1    0    0  503  502  0.00000000000E+00  0.00000000000E+00  0.88283497841E+02  0.88283497841E+02  0.00000000000E+00 0. -1.
         21   -1    0    0  501  503 -0.00000000000E+00 -0.00000000000E+00 -0.50107913175E+03  0.50107913175E+03  0.00000000000E+00 0.  1.
          6    2    1    2  501    0  0.26947872657E+02  0.65159563172E+02 -0.34367077924E+03  0.39035993110E+03  0.17117042617E+03 0.  0.
         24    2    3    3    0    0 -0.75482726539E+01  0.10031157138E+03 -0.29150111875E+03  0.31846131361E+03  0.79531869458E+02 0.  0.
         -6    2    1    2    0  502 -0.26947872657E+02 -0.65159563172E+02 -0.69124854669E+02  0.19900269849E+03  0.17277694279E+03 0.  0.
        -24    2    5    5    0    0  0.43356750719E+02 -0.23983207285E+02  0.73931684383E+00  0.91572140388E+02  0.77005897445E+02 0.  0.
          5    1    3    3  501    0  0.34496145311E+02 -0.35152008205E+02 -0.52169660486E+02  0.71898617493E+02  0.47000000000E+01 0. -1.
        -11    1    4    4    0    0 -0.30718772890E+02  0.52136701242E+02 -0.22575700858E+03  0.23372656150E+03  0.00000000000E+00 0.  1.
         12    1    4    4    0    0  0.23170500236E+02  0.48174870135E+02 -0.65744110170E+02  0.84734752114E+02  0.00000000000E+00 0. -1.
         -5    1    5    5    0  502 -0.70304623376E+02 -0.41176355887E+02 -0.69864171513E+02  0.10743055810E+03  0.47000000000E+01 0.  1.
         13    1    6    6    0    0  0.24413706933E+02 -0.19797864434E+02  0.38149819593E+02  0.49430691451E+02  0.00000000000E+00 0. -1.
        -14    1    6    6    0    0  0.18943043786E+02 -0.41853428512E+01 -0.37410502749E+02  0.42141448938E+02  0.00000000000E+00 0.  1.
</event>
<event>
12    1  0.9246030E-003  0.3086074E+03  0.7818608E-02  0.1081163E+00
         21   -1    0    0  503  502  0.00000000000E+00  0.00000000000E+00  0.15901898632E+03  0.15901898632E+03  0.00000000000E+00 0.  1.
         21   -1    0    0  501  503 -0.00000000000E+00 -0.00000000000E+00 -0.59761384765E+03  0.59761384765E+03  0.00000000000E+00 0. -1.
          6    2    1    2  501    0 -0.25516307985E+03 -0.21314096103E+02 -0.20284068170E+03  0.36827915272E+03  0.17006676384E+03 0.  0.
         24    2    3    3    0    0 -0.17308277448E+03 -0.80068468076E+02 -0.13130117608E+03  0.24446783005E+03  0.78459637322E+02 0.  0.
         -6    2    1    2    0  502  0.25516307985E+03  0.21314096103E+02 -0.23575417963E+03  0.38835368125E+03  0.17226740990E+03 0.  0.
        -24    2    5    5    0    0  0.43548621779E+02 -0.60197000660E-01 -0.10312598196E+03  0.13765492160E+03  0.80108821009E+02 0.  0.
          5    1    3    3  501    0 -0.82080305378E+02  0.58754371973E+02 -0.71539505618E+02  0.12381132267E+03  0.47000000000E+01 0. -1.
        -11    1    4    4    0    0 -0.12101441705E+03 -0.31442080335E+02 -0.45757092662E+02  0.13314204850E+03  0.00000000000E+00 0.  1.
         12    1    4    4    0    0 -0.52068357424E+02 -0.48626387741E+02 -0.85544083416E+02  0.11132578155E+03  0.00000000000E+00 0. -1.
         -5    1    5    5    0  502  0.21161445807E+03  0.21374293104E+02 -0.13262819768E+03  0.25069875965E+03  0.47000000000E+01 0.  1.
         13    1    6    6    0    0  0.61346972340E+02  0.19376569296E+02 -0.79414021895E+02  0.10220317669E+03  0.00000000000E+00 0. -1.
        -14    1    6    6    0    0 -0.17798350562E+02 -0.19436766296E+02 -0.23711960061E+02  0.35451744904E+02  0.00000000000E+00 0.  1.
</event>
<event>
12    1  0.9246030E-003  0.1982035E+03  0.7818608E-02  0.1151567E+00
         21   -1    0    0  503  502  0.00000000000E+00  0.00000000000E+00  0.11279756456E+03  0.11279756456E+03  0.00000000000E+00 0.  1.
         21   -1    0    0  501  503 -0.00000000000E+00 -0.00000000000E+00 -0.76307708253E+03  0.76307708253E+03  0.00000000000E+00 0. -1.
          6    2    1    2  501    0  0.38848190218E+02  0.85349157129E+02 -0.64951737992E+03  0.67908575770E+03  0.17461666296E+03 0.  0.
         24    2    3    3    0    0  0.41783198139E+01 -0.11815560020E+02 -0.15549910624E+03  0.17438869321E+03  0.77938299078E+02 0.  0.
         -6    2    1    2    0  502 -0.38848190218E+02 -0.85349157129E+02 -0.76213804490E+00  0.19678888939E+03  0.17300758836E+03 0.  0.
        -24    2    5    5    0    0 -0.19075844091E+01 -0.51194227186E+02 -0.64283672224E+02  0.11562089754E+03  0.81309984986E+02 0.  0.
          5    1    3    3  501    0  0.34669870404E+02  0.97164717149E+02 -0.49401827368E+03  0.50469706448E+03  0.47000000000E+01 0. -1.
        -13    1    4    4    0    0  0.20942507452E+01 -0.39686913578E+02 -0.13206513001E+03  0.13791532026E+03  0.00000000000E+00 0.  1.
         14    1    4    4    0    0  0.20840690687E+01  0.27871353558E+02 -0.23433976230E+02  0.36473372958E+02  0.00000000000E+00 0. -1.
         -5    1    5    5    0  502 -0.36940605808E+02 -0.34154929944E+02  0.63521534179E+02  0.81167991853E+02  0.47000000000E+01 0.  1.
         11    1    6    6    0    0  0.17148573843E+02  0.16664330320E+02 -0.26333630269E+02  0.35570121915E+02  0.00000000000E+00 0. -1.
        -12    1    6    6    0    0 -0.19056158252E+02 -0.67858557506E+02 -0.37950041955E+02  0.80050775627E+02  0.00000000000E+00 0.  1.
</event>
<event>
12    1  0.9246030E-003  0.1937300E+03  0.7818608E-02  0.1155150E+00
         21   -1    0    0  501  502  0.00000000000E+00  0.00000000000E+00  0.19296524877E+03  0.19296524877E+03  0.00000000000E+00 0. -1.
         21   -1    0    0  502  503 -0.00000000000E+00 -0.00000000000E+00 -0.19961724128E+03  0.19961724128E+03  0.00000000000E+00 0. -1.
          6    2    1    2  501    0 -0.87234863305E+02  0.20860311849E+02  0.28252192916E+02  0.19577917701E+03  0.17171553733E+03 0.  0.
         24    2    3    3    0    0  0.15422476608E+02  0.29500083669E+02 -0.98636586262E+01  0.85833357473E+02  0.78498189612E+02 0.  0.
         -6    2    1    2    0  503  0.87234863305E+02 -0.20860311849E+02 -0.34904185428E+02  0.19680331304E+03  0.17166294846E+03 0.  0.
        -24    2    5    5    0    0  0.28278381071E+02  0.30556541098E+02  0.26226017299E+02  0.97412411794E+02  0.84071427657E+02 0.  0.
          5    1    3    3  501    0 -0.10265733991E+03 -0.86397718198E+01  0.38115851543E+02  0.10994581954E+03  0.47000000000E+01 0. -1.
        -13    1    4    4    0    0 -0.22007554342E+02 -0.55184132395E+01  0.16633037396E+02  0.28132601476E+02  0.00000000000E+00 0.  1.
         14    1    4    4    0    0  0.37430030949E+02  0.35018496908E+02 -0.26496696022E+02  0.57700755997E+02  0.00000000000E+00 0. -1.
         -5    1    5    5    0  503  0.58956482234E+02 -0.51416852947E+02 -0.61130202727E+02  0.99390901243E+02  0.47000000000E+01 0.  1.
         11    1    6    6    0    0  0.36208753941E+02 -0.26408861207E+01  0.45504547881E+02  0.58212644840E+02  0.00000000000E+00 0. -1.
        -12    1    6    6    0    0 -0.79303728705E+01  0.33197427219E+02 -0.19278530582E+02  0.39199766954E+02  0.00000000000E+00 0.  1.
</event>
<event>
12    1  0.9246030E-003  0.1931265E+03  0.7818608E-02  0.1155902E+00
         21   -1    0    0  503  502  0.00000000000E+00  0.00000000000E+00  0.11522177386E+03  0.11522177386E+03  0.00000000000E+00 0. -1.
         21   -1    0    0  501  503 -0.00000000000E+00 -0.00000000000E+00 -0.36681827754E+03  0.36681827754E+03  0.00000000000E+00 0. -1.
          6    2    1    2  501    0  0.69672069511E+02 -0.50877262638E+02 -0.21038181926E+03  0.28558423705E+03  0.17278643887E+03 0.  0.
         24    2    3    3    0    0  0.16154896898E+02  0.32634683228E+02 -0.13508979256E+03  0.16096757624E+03  0.79594631138E+02 0.  0.
         -6    2    1    2    0  502 -0.69672069511E+02  0.50877262638E+02 -0.41214684429E+02  0.19645581434E+03  0.17162034743E+03 0.  0.
        -24    2    5    5    0    0  0.46483636729E+01  0.60615281913E+02  0.15159015785E+02  0.10254926567E+03  0.81183350776E+02 0.  0.
          5    1    3    3  501    0  0.53517172613E+02 -0.83511945866E+02 -0.75292026700E+02  0.12461666081E+03  0.47000000000E+01 0. -1.
        -13    1    4    4    0    0  0.21962560424E+02  0.54070048134E+02 -0.64580188180E+02  0.87043235642E+02  0.00000000000E+00 0.  1.
         14    1    4    4    0    0 -0.58076635255E+01 -0.21435364906E+02 -0.70509604376E+02  0.73924340602E+02  0.00000000000E+00 0. -1.
         -5    1    5    5    0  502 -0.74320433184E+02 -0.97380192749E+01 -0.56373700214E+02  0.93906548674E+02  0.47000000000E+01 0.  1.
         11    1    6    6    0    0 -0.14370986474E+02  0.19470643231E+01  0.34899657755E+02  0.37792888526E+02  0.00000000000E+00 0. -1.
        -12    1    6    6    0    0  0.19019350147E+02  0.58668217590E+02 -0.19740641970E+02  0.64756377142E+02  0.00000000000E+00 0.  1.
</event>
<event>
12    1  0.9246030E-003  0.1901743E+03  0.7818608E-02  0.1158478E+00
         21   -1    0    0  501  502  0.00000000000E+00  0.00000000000E+00  0.64263167495E+03  0.64263167495E+03  0.00000000000E+00 0.  1.
         21   -1    0    0  502  503 -0.00000000000E+00 -0.00000000000E+00 -0.85517697859E+02  0.85517697859E+02  0.00000000000E+00 0.  1.
          6    2    1    2  501    0  0.23428246332E+01  0.82111032304E+02  0.49264089256E+03  0.52807319593E+03  0.17151833950E+03 0.  0.
         24    2    3    3    0    0 -0.10825061084E+00  0.12320323874E+03  0.34001608094E+03  0.36992453068E+03  0.77808568590E+02 0.  0.
         -6    2    1    2    0  503 -0.23428246332E+01 -0.82111032304E+02  0.64473084535E+02  0.20007617688E+03  0.17066337473E+03 0.  0.
        -24    2    5    5    0    0  0.39249174514E+02 -0.83146423122E+02  0.89280493070E+02  0.15140930986E+03  0.80622250602E+02 0.  0.
          5    1    3    3  501    0  0.24510752440E+01 -0.41092206434E+02  0.15262481162E+03  0.15814866525E+03  0.47000000000E+01 0. -1.
        -11    1    4    4    0    0  0.19941631450E+02  0.55154755646E+02  0.24152974655E+03  0.24854845444E+03  0.00000000000E+00 0.  1.
         12    1    4    4    0    0 -0.20049882061E+02  0.68048483092E+02  0.98486334390E+02  0.12137607624E+03  0.00000000000E+00 0. -1.
         -5    1    5    5    0  503 -0.41591999147E+02  0.10353908176E+01 -0.24807408536E+02  0.48666867019E+02  0.47000000000E+01 0.  1.
         11    1    6    6    0    0  0.11335642668E+02 -0.20571609524E+02 -0.14091615423E+02  0.27390902473E+02  0.00000000000E+00 0. -1.
        -12    1    6    6    0    0  0.27913531846E+02 -0.62574813598E+02  0.10337210849E+03  0.12401840739E+03  0.00000000000E+00 0.  1.
</event>
<event>
12    1  0.9246030E-003  0.1831426E+03  0.7818608E-02  0.1164968E+00
         21   -1    0    0  501  502  0.00000000000E+00  0.00000000000E+00  0.59379030466E+03  0.59379030466E+03  0.00000000000E+00 0.  1.
         21   -1    0    0  502  503 -0.00000000000E+00 -0.00000000000E+00 -0.67011186571E+02  0.67011186571E+02  0.00000000000E+00 0.  1.
          6    2    1    2  501    0 -0.36914448094E+02 -0.47467940157E+02  0.39615329578E+03  0.43643858400E+03  0.17298936969E+03 0.  0.
         24    2    3    3    0    0 -0.50973893712E+02 -0.39225291207E+02  0.40459596490E+03  0.41749187097E+03  0.80402774815E+02 0.  0.
         -6    2    1    2    0  503  0.36914448094E+02  0.47467940157E+02  0.13062582231E+03  0.22436290723E+03  0.17221999555E+03 0.  0.
        -24    2    5    5    0    0 -0.15710358434E+02  0.18090211285E+02  0.14031620391E+03  0.16313860886E+03  0.79696282941E+02 0.  0.
          5    1    3    3  501    0  0.14059445618E+02 -0.82426489505E+01 -0.84426691235E+01  0.18946713032E+02  0.47000000000E+01 0. -1.
        -13    1    4    4    0    0 -0.27239471220E+02 -0.24048690954E+02  0.50161268451E+02  0.61939334688E+02  0.00000000000E+00 0.  1.
         14    1    4    4    0    0 -0.23734422492E+02 -0.15176600253E+02  0.35443469645E+03  0.35555253628E+03  0.00000000000E+00 0. -1.
         -5    1    5    5    0  503  0.52624806528E+02  0.29377728873E+02 -0.96903815975E+01  0.61224298373E+02  0.47000000000E+01 0.  1.
         11    1    6    6    0    0  0.18841688086E+02  0.21585986622E+02  0.11897598075E+03  0.12237748168E+03  0.00000000000E+00 0. -1.
        -12    1    6    6    0    0 -0.34552046520E+02 -0.34957753367E+01  0.21340223157E+02  0.40761127172E+02  0.00000000000E+00 0.  1.
</event>
<event>
12    1  0.9246030E-003  0.1904300E+03  0.7818608E-02  0.1158364E+00
         21   -1    0    0  503  502  0.00000000000E+00  0.00000000000E+00  0.12726027931E+04  0.12726027931E+04  0.00000000000E+00 0.  1.
         21   -1    0    0  501  503 -0.00000000000E+00 -0.00000000000E+00 -0.28575575864E+02  0.28575575864E+02  0.00000000000E+00 0.  1.
          6    2    1    2  501    0 -0.77155223243E+02 -0.23281860681E+02  0.68339228040E+03  0.70908451887E+03  0.17111654649E+03 0.  0.
         24    2    3    3    0    0 -0.63590194575E+02 -0.29651127304E+02  0.20938280322E+03  0.23481492042E+03  0.79837249270E+02 0.  0.
         -6    2    1    2    0  502  0.77155223243E+02  0.23281860681E+02  0.56063493683E+03  0.59209385009E+03  0.17253585541E+03 0.  0.
        -24    2    5    5    0    0  0.55523419848E+01  0.66496430852E+02  0.30313931276E+03  0.32131615881E+03  0.83054362624E+02 0.  0.
          5    1    3    3  501    0 -0.13565028668E+02  0.63692666230E+01  0.47400947718E+03  0.47426959845E+03  0.47000000000E+01 0. -1.
        -13    1    4    4    0    0 -0.13678738023E+02 -0.95389123235E+01  0.16277037723E+03  0.16362241419E+03  0.00000000000E+00 0.  1.
         14    1    4    4    0    0 -0.49911456552E+02 -0.20112214980E+02  0.46612425992E+02  0.71192506231E+02  0.00000000000E+00 0. -1.
         -5    1    5    5    0  502  0.71602881258E+02 -0.43214570172E+02  0.25749562407E+03  0.27077769128E+03  0.47000000000E+01 0.  1.
         13    1    6    6    0    0  0.19208045906E+02  0.26443635980E+02  0.28284868990E+02  0.43223242881E+02  0.00000000000E+00 0. -1.
        -14    1    6    6    0    0 -0.13655703921E+02  0.40052794872E+02  0.27485444377E+03  0.27809291593E+03  0.00000000000E+00 0.  1.
</event>
<event>
12    1  0.9246030E-003  0.2053492E+03  0.7818608E-02  0.1146931E+00
         21   -1    0    0  501  502  0.00000000000E+00  0.00000000000E+00  0.26784444293E+03  0.26784444293E+03  0.00000000000E+00 0.  1.
         21   -1    0    0  502  503 -0.00000000000E+00 -0.00000000000E+00 -0.19497421859E+03  0.19497421859E+03  0.00000000000E+00 0. -1.
          6    2    1    2  501    0 -0.22233701517E+02 -0.95875824171E+02  0.14625010355E+03  0.25210593838E+03  0.18022707965E+03 0.  0.
         24    2    3    3    0    0 -0.84294821627E+02 -0.59360138180E+02  0.11505332043E+03  0.17349100832E+03  0.78946947163E+02 0.  0.
         -6    2    1    2    0  503  0.22233701517E+02  0.95875824171E+02 -0.73379879208E+02  0.21071272314E+03  0.17125633967E+03 0.  0.
        -24    2    5    5    0    0 -0.50309186823E+02  0.26109922728E+02 -0.29967110720E+02  0.10100169306E+03  0.78042116400E+02 0.  0.
          5    1    3    3  501    0  0.62061120111E+02 -0.36515685992E+02  0.31196783114E+02  0.78614930067E+02  0.47000000000E+01 0. -1.
        -13    1    4    4    0    0 -0.34069477144E+02 -0.55529473149E+02  0.23989684486E+02  0.69424467033E+02  0.00000000000E+00 0.  1.
         14    1    4    4    0    0 -0.50225344483E+02 -0.38306650309E+01  0.91063635946E+02  0.10406654128E+03  0.00000000000E+00 0. -1.
         -5    1    5    5    0  503  0.72542888340E+02  0.69765901444E+02 -0.43412768488E+02  0.10971103008E+03  0.47000000000E+01 0.  1.
         11    1    6    6    0    0 -0.39040437049E+02 -0.97568567766E+01 -0.45128506963E+02  0.60464321048E+02  0.00000000000E+00 0. -1.
        -12    1    6    6    0    0 -0.11268749775E+02  0.35866779504E+02  0.15161396243E+02  0.40537372011E+02  0.00000000000E+00 0.  1.
</event>
<event>
12    1  0.9246030E-003  0.1763725E+03  0.7818608E-02  0.1171813E+00
         21   -1    0    0  501  502  0.00000000000E+00  0.00000000000E+00  0.17093857514E+03  0.17093857514E+03  0.00000000000E+00 0.  1.
         21   -1    0    0  502  503 -0.00000000000E+00 -0.00000000000E+00 -0.43674966513E+03  0.43674966513E+03  0.00000000000E+00 0.  1.
          6    2    1    2  501    0  0.20721043021E+02 -0.33841041882E+02  0.10028688550E+03  0.20132018529E+03  0.16999347005E+03 0.  0.
         24    2    3    3    0    0 -0.28592524609E+02 -0.34104874739E+02  0.39408102806E+01  0.92984808929E+02  0.81547346747E+02 0.  0.
         -6    2    1    2    0  503 -0.20721043021E+02  0.33841041882E+02 -0.36609797549E+03  0.40636805498E+03  0.17185078037E+03 0.  0.
        -24    2    5    5    0    0  0.23602964992E+01  0.37101795955E+02 -0.81510126640E+02  0.12078844356E+03  0.81017486317E+02 0.  0.
          5    1    3    3  501    0  0.49313567629E+02  0.26383285678E+00  0.96346075219E+02  0.10833537636E+03  0.47000000000E+01 0. -1.
        -13    1    4    4    0    0 -0.46725181684E+02 -0.28122839155E+02  0.28772926037E+02  0.61660505660E+02  0.00000000000E+00 0.  1.
         14    1    4    4    0    0  0.18132657075E+02 -0.59820355843E+01 -0.24832115757E+02  0.31324303269E+02  0.00000000000E+00 0. -1.
         -5    1    5    5    0  503 -0.23081339520E+02 -0.32607540731E+01 -0.28458784885E+03  0.28557961143E+03  0.47000000000E+01 0.  1.
         11    1    6    6    0    0  0.14908287629E+02  0.58049080051E+02 -0.74032598535E+02  0.95251133225E+02  0.00000000000E+00 0. -1.
        -12    1    6    6    0    0 -0.12547991130E+02 -0.20947284095E+02 -0.74775281044E+01  0.25537310331E+02  0.00000000000E+00 0.  1.
</event>
<event>
12    1  0.9246030E-003  0.2262835E+03  0.7818608E-02  0.1129597E+00
         21   -1    0    0  503  502  0.00000000000E+00  0.00000000000E+00  0.12385947786E+03  0.12385947786E+03  0.00000000000E+00 0.  1.
         21   -1    0    0  501  503 -0.00000000000E+00 -0.00000000000E+00 -0.41500519392E+03  0.41500519392E+03  0.00000000000E+00 0.  1.
          6    2    1    2  501    0 -0.93363059603E+02 -0.11186172284E+03 -0.17502388019E+03  0.28607267946E+03  0.17313149153E+03 0.  0.
         24    2    3    3    0    0 -0.11394670645E+03 -0.72044920804E+02 -0.18245408595E+03  0.24039596548E+03  0.79538696345E+02 0.  0.
         -6    2    1    2    0  502  0.93363059603E+02  0.11186172284E+03 -0.11612183586E+03  0.25279199232E+03  0.17085024052E+03 0.  0.
        -24    2    5    5    0    0  0.11108715969E+03  0.11545719584E+03 -0.52510912289E+02  0.18649334416E+03  0.79697242035E+02 0.  0.
          5    1    3    3  501    0  0.20583646851E+02 -0.39816802032E+02  0.74302057582E+01  0.45676713973E+02  0.47000000000E+01 0. -1.
        -11    1    4    4    0    0 -0.72619242040E+02 -0.75641292791E+01 -0.53883105510E+02  0.90742269233E+02  0.00000000000E+00 0.  1.
         12    1    4    4    0    0 -0.41327464415E+02 -0.64480791525E+02 -0.12857098044E+03  0.14965369625E+03  0.00000000000E+00 0. -1.
         -5    1    5    5    0  502 -0.17724100086E+02 -0.35954730047E+01 -0.63610923576E+02  0.66298648162E+02  0.47000000000E+01 0.  1.
         11    1    6    6    0    0  0.68844620321E+02  0.17881385217E+02 -0.93535138524E+01  0.71741298467E+02  0.00000000000E+00 0. -1.
        -12    1    6    6    0    0  0.42242539368E+02  0.97575810624E+02 -0.43157398436E+02  0.11475204569E+03  0.00000000000E+00 0.  1.
</event>
<event>
12    1  0.9246030E-003  0.1874800E+03  0.7818608E-02  0.1161186E+00
         21   -1    0    0  501  502  0.00000000000E+00  0.00000000000E+00  0.21435250352E+03  0.21435250352E+03  0.00000000000E+00 0.  1.
         21   -1    0    0  502  503 -0.00000000000E+00 -0.00000000000E+00 -0.17679254424E+03  0.17679254424E+03  0.00000000000E+00 0.  1.
          6    2    1    2  501    0 -0.45891561806E+02 -0.55017508323E+02 -0.37221483891E+02  0.18930099798E+03  0.17122052245E+03 0.  0.
         24    2    3    3    0    0  0.33166775201E+02 -0.24762342835E+02 -0.56389358794E+02  0.10238095934E+03  0.74758895460E+02 0.  0.
         -6    2    1    2    0  503  0.45891561806E+02  0.55017508323E+02  0.74781443166E+02  0.20184404977E+03  0.17325066961E+03 0.  0.
        -24    2    5    5    0    0  0.83918179372E+02  0.19003988313E+02  0.89676319268E+02  0.14719110291E+03  0.78866761926E+02 0.  0.
          5    1    3    3  501    0 -0.79058337007E+02 -0.30255165489E+02  0.19167874903E+02  0.86920038641E+02  0.47000000000E+01 0. -1.
        -13    1    4    4    0    0 -0.80979153729E+01  0.50024664595E+01 -0.50237117558E+02  0.51130899509E+02  0.00000000000E+00 0.  1.
         14    1    4    4    0    0  0.41264690574E+02 -0.29764809294E+02 -0.61522412359E+01  0.51250059832E+02  0.00000000000E+00 0. -1.
         -5    1    5    5    0  503 -0.38026617566E+02  0.36013520010E+02 -0.14894876103E+02  0.54652946866E+02  0.47000000000E+01 0.  1.
         11    1    6    6    0    0  0.14549870929E+02 -0.18539370675E+02  0.57247491793E+02  0.61908661153E+02  0.00000000000E+00 0. -1.
        -12    1    6    6    0    0  0.69368308443E+02  0.37543358988E+02  0.32428827475E+02  0.85282441755E+02  0.00000000000E+00 0.  1.
</event>
<event>
12    1  0.9246030E-003  0.1877403E+03  0.7818608E-02  0.1160805E+00
         21   -1    0    0  501  502  0.00000000000E+00  0.00000000000E+00  0.12420864592E+04  0.12420864592E+04  0.00000000000E+00 0. -1.
         21   -1    0    0  502  503 -0.00000000000E+00 -0.00000000000E+00 -0.52440811106E+02  0.52440811106E+02  0.00000000000E+00 0. -1.
          6    2    1    2  501    0  0.31669643352E+02  0.67617829140E+02  0.10339340790E+04  0.10506164116E+04  0.17088015509E+03 0.  0.
         24    2    3    3    0    0  0.32467345072E+02  0.92273402547E+02  0.10026734925E+04  0.10105184329E+04  0.78897789986E+02 0.  0.
         -6    2    1    2    0  503 -0.31669643352E+02 -0.67617829140E+02  0.15571156911E+03  0.24391085876E+03  0.17225352576E+03 0.  0.
        -24    2    5    5    0    0  0.11419187433E+02 -0.64487763307E+02  0.23759333929E+02  0.10498668153E+03  0.78540613004E+02 0.  0.
          5    1    3    3  501    0 -0.79770172074E+00 -0.24655573407E+02  0.31260586494E+02  0.40097978702E+02  0.47000000000E+01 0. -1.
        -11    1    4    4    0    0  0.65589521389E+01 -0.14292374132E+02  0.14962779578E+03  0.15045188294E+03  0.00000000000E+00 0.  1.
         12    1    4    4    0    0  0.25908392934E+02  0.10656577668E+03  0.85304569672E+03  0.86006654991E+03  0.00000000000E+00 0. -1.
         -5    1    5    5    0  503 -0.43088830785E+02 -0.31300658326E+01  0.13195223518E+03  0.13892417723E+03  0.47000000000E+01 0.  1.
         11    1    6    6    0    0  0.18232931522E+02 -0.21915291154E+01 -0.21059185997E+02  0.27941580245E+02  0.00000000000E+00 0. -1.
        -12    1    6    6    0    0 -0.68137440893E+01 -0.62296234192E+02  0.44818519926E+02  0.77045101281E+02  0.00000000000E+00 0.  1.
</event>
<event>
12    1  0.9246030E-003  0.2777448E+03  0.7818608E-02  0.1097739E+00
         21   -1    0    0  503  502  0.00000000000E+00  0.00000000000E+00  0.86897778984E+02  0.86897778984E+02  0.00000000000E+00 0.  1.
         21   -1    0    0  501  503 -0.00000000000E+00 -0.00000000000E+00 -0.94271809092E+03  0.94271809092E+03  0.00000000000E+00 0. -1.
          6    2    1    2  501    0 -0.20859368288E+03 -0.13666507910E+02 -0.57581141282E+03  0.63929722474E+03  0.18287717313E+03 0.  0.
         24    2    3    3    0    0 -0.16027856358E+03 -0.68589540889E+02 -0.32379151779E+03  0.37683387912E+03  0.82274433423E+02 0.  0.
         -6    2    1    2    0  502  0.20859368288E+03  0.13666507910E+02 -0.28000889912E+03  0.39031864516E+03  0.17391251594E+03 0.  0.
        -24    2    5    5    0    0  0.20710889398E+03  0.49004912779E+02 -0.20051537585E+03  0.30318473846E+03  0.80118626049E+02 0.  0.
          5    1    3    3  501    0 -0.48315119301E+02  0.54923032978E+02 -0.25201989503E+03  0.26246334562E+03  0.47000000000E+01 0. -1.
        -11    1    4    4    0    0 -0.96792277498E+02 -0.80292569556E+02 -0.24109425195E+03  0.27192293032E+03  0.00000000000E+00 0.  1.
         12    1    4    4    0    0 -0.63486286086E+02  0.11703028668E+02 -0.82697265842E+02  0.10491094880E+03  0.00000000000E+00 0. -1.
         -5    1    5    5    0  502  0.14847889077E+01 -0.35338404869E+02 -0.79493523263E+02  0.87133906705E+02  0.47000000000E+01 0.  1.
         11    1    6    6    0    0  0.92076462534E+01 -0.90978148868E+01  0.31500713687E+01  0.13321934352E+02  0.00000000000E+00 0. -1.
        -12    1    6    6    0    0  0.19790124772E+03  0.58102727666E+02 -0.20366544722E+03  0.28986280411E+03  0.00000000000E+00 0.  1.
</event>
<event>
12    1  0.9246030E-003  0.1838360E+03  0.7818608E-02  0.1164392E+00
         21   -1    0    0  501  502  0.00000000000E+00  0.00000000000E+00  0.51415648779E+02  0.51415648779E+02  0.00000000000E+00 0.  1.
         21   -1    0    0  502  503 -0.00000000000E+00 -0.00000000000E+00 -0.87893245269E+03  0.87893245269E+03  0.00000000000E+00 0.  1.
          6    2    1    2  501    0  0.58749187752E+02 -0.37854584022E+02 -0.17729175709E+03  0.25463491945E+03  0.16888498595E+03 0.  0.
         24    2    3    3    0    0 -0.22618282324E+02 -0.42639384496E+02 -0.10000780557E+03  0.14221401986E+03  0.88845722829E+02 0.  0.
         -6    2    1    2    0  503 -0.58749187752E+02  0.37854584022E+02 -0.65022504683E+03  0.67571318202E+03  0.17003310337E+03 0.  0.
        -24    2    5    5    0    0 -0.32145088168E+02 -0.19296720311E+02 -0.17364213574E+03  0.19495605952E+03  0.80315650585E+02 0.  0.
          5    1    3    3  501    0  0.81367470076E+02  0.47848004743E+01 -0.77283951518E+02  0.11242089959E+03  0.47000000000E+01 0. -1.
        -11    1    4    4    0    0  0.16668101840E+02 -0.12408272720E+02  0.88614776264E+01  0.22590188945E+02  0.00000000000E+00 0.  1.
         12    1    4    4    0    0 -0.39286384164E+02 -0.30231111776E+02 -0.10886928319E+03  0.11962383092E+03  0.00000000000E+00 0. -1.
         -5    1    5    5    0  503 -0.26604099583E+02  0.57151304332E+02 -0.47658291108E+03  0.48075712251E+03  0.47000000000E+01 0.  1.
         11    1    6    6    0    0  0.14533113554E+02  0.15109641439E+02 -0.14265412232E+02  0.25357733340E+02  0.00000000000E+00 0. -1.
        -12    1    6    6    0    0 -0.46678201722E+02 -0.34406361750E+02 -0.15937672351E+03  0.16959832618E+03  0.00000000000E+00 0.  1.
</event>
<event>
12    1  0.9246030E-003  0.2705333E+03  0.7818608E-02  0.1101741E+00
         21   -1    0    0  503  502  0.00000000000E+00  0.00000000000E+00  0.18428080993E+03  0.18428080993E+03  0.00000000000E+00 0. -1.
         21   -1    0    0  501  503 -0.00000000000E+00 -0.00000000000E+00 -0.65195738462E+03  0.65195738462E+03  0.00000000000E+00 0.  1.
          6    2    1    2  501    0 -0.82940737463E+02  0.19125372228E+03 -0.50055988173E+03  0.56898897543E+03  0.17242710559E+03 0.  0.
         24    2    3    3    0    0 -0.45846667296E+02  0.91204014814E+02 -0.40685355124E+03  0.42690139546E+03  0.79340406307E+02 0.  0.
         -6    2    1    2    0  502  0.82940737463E+02 -0.19125372228E+03  0.32883307046E+02  0.26724921912E+03  0.16396243783E+03 0.  0.
        -24    2    5    5    0    0  0.10038333423E+03 -0.20304590374E+03  0.17254640848E+02  0.24061005748E+03  0.79315977671E+02 0.  0.
          5    1    3    3  501    0 -0.37094070167E+02  0.10004970747E+03 -0.93706330494E+02  0.14208757997E+03  0.47000000000E+01 0. -1.
        -11    1    4    4    0    0  0.19452395351E+02  0.43604166506E+02 -0.17365177516E+03  0.18009624660E+03  0.00000000000E+00 0.  1.
         12    1    4    4    0    0 -0.65299062647E+02  0.47599848307E+02 -0.23320177607E+03  0.24680514886E+03  0.00000000000E+00 0. -1.
         -5    1    5    5    0  502 -0.17442596768E+02  0.11792181458E+02  0.15628666198E+02  0.26639161636E+02  0.47000000000E+01 0.  1.
         13    1    6    6    0    0  0.44603716243E+02 -0.12722370386E+03 -0.25532041702E+02  0.13721241737E+03  0.00000000000E+00 0. -1.
        -14    1    6    6    0    0  0.55779617988E+02 -0.75822199882E+02  0.42786682550E+02  0.10339764012E+03  0.00000000000E+00 0.  1.
</event>
<event>
12    1  0.9246030E-003  0.1732254E+03  0.7818608E-02  0.1174580E+00
         21   -1    0    0  503  502  0.00000000000E+00  0.00000000000E+00  0.94238436682E+03  0.94238436682E+03  0.00000000000E+00 0.  1.
         21   -1    0    0  501  503 -0.00000000000E+00 -0.00000000000E+00 -0.34608162250E+02  0.34608162250E+02  0.00000000000E+00 0.  1.
          6    2    1    2  501    0  0.39898757340E+01  0.15028065566E+02  0.31505474982E+03  0.35953655494E+03  0.17252616350E+03 0.  0.
         24    2    3    3    0    0 -0.41594924615E+02  0.37855001208E+02  0.10617719269E+03  0.14447617531E+03  0.80228611574E+02 0.  0.
         -6    2    1    2    0  502 -0.39898757340E+01 -0.15028065566E+02  0.59272145475E+03  0.61745597413E+03  0.17231191254E+03 0.  0.
        -24    2    5    5    0    0  0.15631534076E+02  0.53014560975E+02  0.26226854520E+03  0.27946778768E+03  0.79136376061E+02 0.  0.
          5    1    3    3  501    0  0.45584800349E+02 -0.22826935642E+02  0.20887755713E+03  0.21506037963E+03  0.47000000000E+01 0. -1.
        -11    1    4    4    0    0 -0.52979136657E+02 -0.25444954914E+00  0.36799637317E+02  0.64506332806E+02  0.00000000000E+00 0.  1.
         12    1    4    4    0    0  0.11384212042E+02  0.38109450757E+02  0.69377555375E+02  0.79969842507E+02  0.00000000000E+00 0. -1.
         -5    1    5    5    0  502 -0.19621409810E+02 -0.68042626541E+02  0.33045290955E+03  0.33798818645E+03  0.47000000000E+01 0.  1.
         11    1    6    6    0    0 -0.16468629904E+02 -0.13798467271E+02  0.44191321491E+02  0.49137423264E+02  0.00000000000E+00 0. -1.
        -12    1    6    6    0    0  0.32100163980E+02  0.66813028246E+02  0.21807722371E+03  0.23033036442E+03  0.00000000000E+00 0.  1.
</event>
<event>
12    1  0.9246030E-003  0.1794129E+03  0.7818608E-02  0.1168744E+00
         21   -1    0    0  501  502  0.00000000000E+00  0.00000000000E+00  0.44367209998E+03  0.44367209998E+03  0.00000000000E+00 0.  1.
         21   -1    0    0  502  503 -0.00000000000E+00 -0.00000000000E+00 -0.73247692578E+02  0.73247692578E+02  0.00000000000E+00 0.  1.
          6    2    1    2  501    0  0.29456659725E+01  0.44501756832E+02  0.21900212453E+03  0.28214820089E+03  0.17221089806E+03 0.  0.
         24    2    3    3    0    0 -0.61154248541E+02  0.31290062788E+02  0.17059851209E+03  0.20061080090E+03  0.80136951319E+02 0.  0.
         -6    2    1    2    0  503 -0.29456659725E+01 -0.44501756832E+02  0.15142228287E+03  0.23477159166E+03  0.17378121070E+03 0.  0.
        -24    2    5    5    0    0  0.39510433078E+02 -0.82746690093E+02  0.97633331574E+02  0.15615520311E+03  0.80275095651E+02 0.  0.
          5    1    3    3  501    0  0.64099914514E+02  0.13211694044E+02  0.48403612436E+02  0.81537399989E+02  0.47000000000E+01 0. -1.
        -13    1    4    4    0    0 -0.45524373380E+02  0.56876915851E+02  0.98397164776E+02  0.12243142638E+03  0.00000000000E+00 0.  1.
         14    1    4    4    0    0 -0.15629875161E+02 -0.25586853062E+02  0.72201347317E+02  0.78179374528E+02  0.00000000000E+00 0. -1.
         -5    1    5    5    0  503 -0.42456099051E+02  0.38244933261E+02  0.53788951294E+02  0.78616388547E+02  0.47000000000E+01 0.  1.
         13    1    6    6    0    0 -0.14716329885E+02 -0.26713690387E+01 -0.43823831312E+01  0.15585629911E+02  0.00000000000E+00 0. -1.
        -14    1    6    6    0    0  0.54226762963E+02 -0.80075321055E+02  0.10201571471E+03  0.14056957320E+03  0.00000000000E+00 0.  1.
</event>
<event>
12    1  0.9246030E-003  0.2408590E+03  0.7818608E-02  0.1119293E+00
         21   -1    0    0  501  502  0.00000000000E+00  0.00000000000E+00  0.69541438354E+03  0.69541438354E+03  0.00000000000E+00 0.  1.
         21   -1    0    0  502  503 -0.00000000000E+00 -0.00000000000E+00 -0.89483455720E+02  0.89483455720E+02  0.00000000000E+00 0.  1.
          6    2    1    2  501    0 -0.11829295781E+03  0.12037788903E+03  0.40659015656E+03  0.47257655764E+03  0.17184000518E+03 0.  0.
         24    2    3    3    0    0 -0.14812148342E+03  0.10906497923E+03  0.29857745591E+03  0.35985319551E+03  0.80688794735E+02 0.  0.
         -6    2    1    2    0  503  0.11829295781E+03 -0.12037788903E+03  0.19934077126E+03  0.31232128162E+03  0.17124187523E+03 0.  0.
        -24    2    5    5    0    0  0.85886265447E+02 -0.10580672251E+03  0.61431544916E+02  0.16983072996E+03  0.80604770369E+02 0.  0.
          5    1    3    3  501    0  0.29828525604E+02  0.11312909800E+02  0.10801270065E+03  0.11272336213E+03  0.47000000000E+01 0. -1.
        -11    1    4    4    0    0 -0.48756798122E+02  0.85956423098E+02  0.14972915986E+03  0.17940053888E+03  0.00000000000E+00 0.  1.
         12    1    4    4    0    0 -0.99364685295E+02  0.23108556131E+02  0.14884829604E+03  0.18045265663E+03  0.00000000000E+00 0. -1.
         -5    1    5    5    0  503  0.32406692365E+02 -0.14571166522E+02  0.13790922634E+03  0.14249055167E+03  0.47000000000E+01 0.  1.
         11    1    6    6    0    0  0.88121081058E+02 -0.49786454267E+02  0.30043821638E+02  0.10557768312E+03  0.00000000000E+00 0. -1.
        -12    1    6    6    0    0 -0.22348156109E+01 -0.56020268240E+02  0.31387723278E+02  0.64253046831E+02  0.00000000000E+00 0.  1.
</event>
<event>
12    1  0.9246030E-003  0.1803776E+03  0.7818608E-02  0.1167788E+00
         21   -1    0    0  503  502  0.00000000000E+00  0.00000000000E+00  0.36199527718E+03  0.36199527718E+03  0.00000000000E+00 0.  1.
         21   -1    0    0  501  503 -0.00000000000E+00 -0.00000000000E+00 -0.10948948535E+03  0.10948948535E+03  0.00000000000E+00 0.  1.
          6    2    1    2  501    0 -0.32885159971E+02 -0.41598880222E+02  0.25088011851E+02  0.18211398267E+03  0.17240705833E+03 0.  0.
         24    2    3    3    0    0 -0.73657395438E+01 -0.93192067510E+02  0.14498629183E+02  0.12340007615E+03  0.79236058578E+02 0.  0.
         -6    2    1    2    0  502  0.32885159971E+02  0.41598880222E+02  0.22741777998E+03  0.28937077986E+03  0.17089382963E+03 0.  0.
        -24    2    5    5    0    0  0.45956542127E+02  0.61527436278E+02  0.23789904778E+03  0.26291411052E+03  0.81426306559E+02 0.  0.
          5    1    3    3  501    0 -0.25519420427E+02  0.51593187288E+02  0.10589382668E+02  0.58713906520E+02  0.47000000000E+01 0. -1.
        -11    1    4    4    0    0 -0.26526549530E+00 -0.10832533032E+02 -0.28306682337E+02  0.30309774044E+02  0.00000000000E+00 0.  1.
         12    1    4    4    0    0 -0.71004740485E+01 -0.82359534478E+02  0.42805311520E+02  0.93090302102E+02  0.00000000000E+00 0. -1.
         -5    1    5    5    0  502 -0.13071382155E+02 -0.19928556057E+02 -0.10481267796E+02  0.26456669340E+02  0.47000000000E+01 0.  1.
         11    1    6    6    0    0  0.33303040447E+02  0.30648231621E+01  0.24954517591E+02  0.41727851517E+02  0.00000000000E+00 0. -1.
        -12    1    6    6    0    0  0.12653501680E+02  0.58462613116E+02  0.21294453019E+03  0.22118625901E+03  0.00000000000E+00 0.  1.
</event>
<event>
12    1  0.9246030E-003  0.1858932E+03  0.7818608E-02  0.1162391E+00
         21   -1    0    0  501  502  0.00000000000E+00  0.00000000000E+00  0.41804045331E+02  0.41804045331E+02  0.00000000000E+00 0. -1.
         21   -1    0    0  502  503 -0.00000000000E+00 -0.00000000000E+00 -0.15253312810E+04  0.15253312810E+04  0.00000000000E+00 0. -1.
          6    2    1    2  501    0 -0.21336107422E+02  0.64827000131E+02 -0.21099131046E+03  0.28120029804E+03  0.17291184199E+03 0.  0.
         24    2    3    3    0    0  0.24507255518E+02  0.12804375006E+02 -0.19130800329E+03  0.20896810278E+03  0.79399989079E+02 0.  0.
         -6    2    1    2    0  503  0.21336107422E+02 -0.64827000131E+02 -0.12725359252E+04  0.12859350283E+04  0.17211463221E+03 0.  0.
        -24    2    5    5    0    0  0.71192347738E+02 -0.19420216882E+02 -0.57880765918E+03  0.58892109891E+03  0.79776307378E+02 0.  0.
          5    1    3    3  501    0 -0.45843362940E+02  0.52022625125E+02 -0.19683307175E+02  0.72232195258E+02  0.47000000000E+01 0. -1.
        -13    1    4    4    0    0 -0.14666794844E+02  0.33029148095E+02 -0.11814512752E+03  0.12354881890E+03  0.00000000000E+00 0.  1.
         14    1    4    4    0    0  0.39174050362E+02 -0.20224773088E+02 -0.73162875767E+02  0.85419283881E+02  0.00000000000E+00 0. -1.
         -5    1    5    5    0  503 -0.49856240316E+02 -0.45406783249E+02 -0.69372826605E+03  0.69701392941E+03  0.47000000000E+01 0.  1.
         11    1    6    6    0    0  0.17949744434E+02  0.18260764767E+02 -0.35173193286E+03  0.35266273045E+03  0.00000000000E+00 0. -1.
        -12    1    6    6    0    0  0.53242603305E+02 -0.37680981650E+02 -0.22707572632E+03  0.23625836846E+03  0.00000000000E+00 0.  1.
</event>
<event>
12    1  0.9246030E-003  0.2320617E+03  0.7818608E-02  0.1125436E+00
         21   -1    0    0  501  502  0.00000000000E+00  0.00000000000E+00  0.22242153890E+03  0.22242153890E+03  0.00000000000E+00 0. -1.
         21   -1    0    0  502  503 -0.00000000000E+00 -0.00000000000E+00 -0.87049250682E+03  0.87049250682E+03  0.00000000000E+00 0. -1.
          6    2    1    2  501    0 -0.75248874745E+02 -0.13597391147E+03  0.14103691685E+03  0.27039116192E+03  0.17049536879E+03 0.  0.
         24    2    3    3    0    0 -0.57580327949E+02 -0.16378770644E+03  0.14012134667E+03  0.23709381960E+03  0.80234534672E+02 0.  0.
         -6    2    1    2    0  503  0.75248874745E+02  0.13597391147E+03 -0.78910788477E+03  0.82252288380E+03  0.17234077528E+03 0.  0.
        -24    2    5    5    0    0  0.32868863966E+02  0.13070712126E+03 -0.74329672550E+03  0.75971717780E+03  0.80718364348E+02 0.  0.
          5    1    3    3  501    0 -0.17668546796E+02  0.27813794972E+02  0.91557018113E+00  0.33297342317E+02  0.47000000000E+01 0. -1.
        -13    1    4    4    0    0 -0.31093389152E+02 -0.69847530855E+02  0.14180672471E+02  0.77759680344E+02  0.00000000000E+00 0.  1.
         14    1    4    4    0    0 -0.26486938797E+02 -0.93940175584E+02  0.12594067420E+03  0.15933413926E+03  0.00000000000E+00 0. -1.
         -5    1    5    5    0  503  0.42380010779E+02  0.52667902090E+01 -0.45811159273E+02  0.62805706004E+02  0.47000000000E+01 0.  1.
         13    1    6    6    0    0 -0.86137896563E+01  0.93168440567E+01 -0.23979332732E+03  0.24012880040E+03  0.00000000000E+00 0. -1.
        -14    1    6    6    0    0  0.41482653622E+02  0.12139027720E+03 -0.50350339818E+03  0.51958837740E+03  0.00000000000E+00 0.  1.
</event>
<event>
12    1  0.9246030E-003  0.1920083E+03  0.7818608E-02  0.1157149E+00
         21   -1    0    0  501  502  0.00000000000E+00  0.00000000000E+00  0.18459230603E+02  0.18459230603E+02  0.00000000000E+00 0.  1.
         21   -1    0    0  502  503 -0.00000000000E+00 -0.00000000000E+00 -0.19770444699E+04  0.19770444699E+04  0.00000000000E+00 0. -1.
          6    2    1    2  501    0  0.74600665099E+02 -0.41292969596E+02 -0.95019570694E+03  0.96940140501E+03  0.17203730403E+03 0.  0.
         24    2    3    3    0    0  0.34465692655E+02 -0.51929605353E+02 -0.30096741199E+03  0.31882979251E+03  0.84773142132E+02 0.  0.
         -6    2    1    2    0  503 -0.74600665099E+02  0.41292969596E+02 -0.10083895323E+04  0.10261022955E+04  0.16960572890E+03 0.  0.
        -24    2    5    5    0    0 -0.36558706459E+02 -0.41107908738E+02 -0.59828994642E+03  0.60605366051E+03  0.79522199716E+02 0.  0.
          5    1    3    3  501    0  0.40134972445E+02  0.10636635757E+02 -0.64922829494E+03  0.65057161250E+03  0.47000000000E+01 0. -1.
        -13    1    4    4    0    0  0.45958878383E+02 -0.13676930990E+02 -0.72668008378E+02  0.87062715241E+02  0.00000000000E+00 0.  1.
         14    1    4    4    0    0 -0.11493185728E+02 -0.38252674362E+02 -0.22829940362E+03  0.23176707727E+03  0.00000000000E+00 0. -1.
         -5    1    5    5    0  503 -0.38041958640E+02  0.82400878334E+02 -0.41009958592E+03  0.42004863496E+03  0.47000000000E+01 0.  1.
         11    1    6    6    0    0 -0.32537461286E+02 -0.10031057722E+02 -0.81657788942E+02  0.88472046437E+02  0.00000000000E+00 0. -1.
        -12    1    6    6    0    0 -0.40212451727E+01 -0.31076851016E+02 -0.51663215748E+03  0.51758161407E+03  0.00000000000E+00 0.  1.
</event>
<event>
12    1  0.9246030E-003  0.2040177E+03  0.7818608E-02  0.1146828E+00
         21   -1    0    0  501  502  0.00000000000E+00  0.00000000000E+00  0.26736567378E+03  0.26736567378E+03  0.00000000000E+00 0.  1.
         21   -1    0    0  502  503 -0.00000000000E+00 -0.00000000000E+00 -0.16394483914E+03  0.16394483914E+03  0.00000000000E+00 0.  1.
          6    2    1    2  501    0 -0.10789133611E+03 -0.81560386562E+01  0.10487261127E+03  0.22939377646E+03  0.17296294027E+03 0.  0.
         24    2    3    3    0    0 -0.13133706097E+03 -0.33817698377E+02  0.11220590281E+03  0.19355957549E+03  0.80511392555E+02 0.  0.
         -6    2    1    2    0  503  0.10789133611E+03  0.81560386562E+01 -0.14517766303E+01  0.20191673646E+03  0.17047345668E+03 0.  0.
        -24    2    5    5    0    0  0.58220896726E+02  0.68595400153E+02 -0.15503732443E+02  0.12229502818E+03  0.81367723707E+02 0.  0.
          5    1    3    3  501    0  0.23445724864E+02  0.25661659720E+02 -0.73332915348E+01  0.35834200964E+02  0.47000000000E+01 0. -1.
        -13    1    4    4    0    0 -0.23401195351E+02 -0.15935252160E+02  0.71369107110E+02  0.76779539299E+02  0.00000000000E+00 0.  1.
         14    1    4    4    0    0 -0.10793586562E+03 -0.17882446217E+02  0.40836795695E+02  0.11678003619E+03  0.00000000000E+00 0. -1.
         -5    1    5    5    0  503  0.49670439383E+02 -0.60439361496E+02  0.14051955812E+02  0.79621708276E+02  0.47000000000E+01 0.  1.
         11    1    6    6    0    0  0.37442867416E+02  0.46383554798E+01  0.23602474190E+02  0.44503476828E+02  0.00000000000E+00 0. -1.
        -12    1    6    6    0    0  0.20778029310E+02  0.63957044673E+02 -0.39106206632E+02  0.77791551357E+02  0.00000000000E+00 0.  1.
</event>
<event>
12    1  0.9246030E-003  0.1851527E+03  0.7818608E-02  0.1163003E+00
         21   -1    0    0  501  502  0.00000000000E+00  0.00000000000E+00  0.13187153872E+03  0.13187153872E+03  0.00000000000E+00 0. -1.
         21   -1    0    0  502  503 -0.00000000000E+00 -0.00000000000E+00 -0.30208460320E+03  0.30208460320E+03  0.00000000000E+00 0. -1.
          6    2    1    2  501    0 -0.34788409418E+02 -0.59140053559E+02 -0.36141860853E+01  0.18518798559E+03  0.17197019596E+03 0.  0.
         24    2    3    3    0    0 -0.58858522231E+02 -0.17709317790E+02  0.50246162727E+02  0.11294600768E+03  0.80337900191E+02 0.  0.
         -6    2    1    2    0  503  0.34788409418E+02  0.59140053559E+02 -0.16659887839E+03  0.24876815633E+03  0.17153025960E+03 0.  0.
        -24    2    5    5    0    0  0.79867096716E+02  0.61765361817E+02 -0.15680296790E+03  0.20232431762E+03  0.78449000637E+02 0.  0.
          5    1    3    3  501    0  0.24070112813E+02 -0.41430735769E+02 -0.53860348812E+02  0.72241977903E+02  0.47000000000E+01 0. -1.
        -11    1    4    4    0    0 -0.28638245205E+01 -0.28971064408E+02 -0.91768192600E+01  0.30524384933E+02  0.00000000000E+00 0.  1.
         12    1    4    4    0    0 -0.55994697711E+02  0.11261746618E+02  0.59422981987E+02  0.82421622750E+02  0.00000000000E+00 0. -1.
         -5    1    5    5    0  503 -0.45078687297E+02 -0.26253082579E+01 -0.97959104930E+01  0.46443838712E+02  0.47000000000E+01 0.  1.
         11    1    6    6    0    0  0.26514646574E+01  0.26422501328E+02 -0.91281132037E+02  0.95065366497E+02  0.00000000000E+00 0. -1.
        -12    1    6    6    0    0  0.77215632058E+02  0.35342860489E+02 -0.65521835864E+02  0.10725895113E+03  0.00000000000E+00 0.  1.
</event>
<event>
12    1  0.9246030E-003  0.1958118E+03  0.7818608E-02  0.1153550E+00
         21   -1    0    0  501  502  0.00000000000E+00  0.00000000000E+00  0.33688782808E+03  0.33688782808E+03  0.00000000000E+00 0. -1.
         21   -1    0    0  502  503 -0.00000000000E+00 -0.00000000000E+00 -0.13194091028E+03  0.13194091028E+03  0.00000000000E+00 0. -1.
          6    2    1    2  501    0  0.57763105304E+02 -0.73836143944E+02  0.19057793456E+03  0.27249041480E+03  0.17071240299E+03 0.  0.
         24    2    3    3    0    0  0.23742680163E+02 -0.77671348472E+02  0.20573837814E+03  0.23475413027E+03  0.78642661481E+02 0.  0.
         -6    2    1    2    0  503 -0.57763105304E+02  0.73836143944E+02  0.14368983250E+02  0.19633832356E+03  0.17191252755E+03 0.  0.
        -24    2    5    5    0    0 -0.32056070183E+02  0.38230836795E+02 -0.58518045448E+02  0.11111392268E+03  0.80204449086E+02 0.  0.
          5    1    3    3  501    0  0.34020425142E+02  0.38352045274E+01 -0.15160443585E+02  0.37736284532E+02  0.47000000000E+01 0. -1.
        -11    1    4    4    0    0  0.19616464107E+02 -0.67481274732E+02  0.72164382586E+02  0.10072847769E+03  0.00000000000E+00 0.  1.
         12    1    4    4    0    0  0.41262160561E+01 -0.10190073740E+02  0.13357399556E+03  0.13402565258E+03  0.00000000000E+00 0. -1.
         -5    1    5    5    0  503 -0.25707035121E+02  0.35605307149E+02  0.72887028698E+02  0.85224400874E+02  0.47000000000E+01 0.  1.
         11    1    6    6    0    0  0.79550231970E+01 -0.11763213192E+02  0.99723885603E+01  0.17352351779E+02  0.00000000000E+00 0. -1.
        -12    1    6    6    0    0 -0.40011093380E+02  0.49994049988E+02 -0.68490434008E+02  0.93761570903E+02  0.00000000000E+00 0.  1.
</event>
<event>
12    1  0.9246030E-003  0.3142438E+03  0.7818608E-02  0.1078330E+00
         21   -1    0    0  501  502  0.00000000000E+00  0.00000000000E+00  0.11858889646E+03  0.11858889646E+03  0.00000000000E+00 0. -1.
         21   -1    0    0  502  503 -0.00000000000E+00 -0.00000000000E+00 -0.90538912014E+03  0.90538912014E+03  0.00000000000E+00 0. -1.
          6    2    1    2  501    0 -0.20310814980E+03  0.16735924013E+03 -0.53847662445E+03  0.62346115519E+03  0.17171109803E+03 0.  0.
         24    2    3    3    0    0 -0.49677945150E+02  0.12123735593E+03 -0.25572870432E+03  0.29844341378E+03  0.80652999354E+02 0.  0.
         -6    2    1    2    0  503  0.20310814980E+03 -0.16735924013E+03 -0.24832359923E+03  0.40051686141E+03  0.17171811371E+03 0.  0.
        -24    2    5    5    0    0  0.12648533029E+03 -0.75334771087E+02 -0.22169749091E+03  0.27775449334E+03  0.79523044336E+02 0.  0.
          5    1    3    3  501    0 -0.15343020464E+03  0.46121884197E+02 -0.28274792013E+03  0.32501774142E+03  0.47000000000E+01 0. -1.
        -11    1    4    4    0    0 -0.69087969352E+00  0.60324914258E+02 -0.17907266180E+03  0.18896187658E+03  0.00000000000E+00 0.  1.
         12    1    4    4    0    0 -0.48987065457E+02  0.60912441672E+02 -0.76656042521E+02  0.10948153720E+03  0.00000000000E+00 0. -1.
         -5    1    5    5    0  503  0.76622819507E+02 -0.92024469040E+02 -0.26626108315E+02  0.12276236807E+03  0.47000000000E+01 0.  1.
         13    1    6    6    0    0  0.20082395778E+02 -0.22344803849E+02 -0.11215645455E+03  0.11611056445E+03  0.00000000000E+00 0. -1.
        -14    1    6    6    0    0  0.10640293451E+03 -0.52989967238E+02 -0.10954103637E+03  0.16164392889E+03  0.00000000000E+00 0.  1.
</event>
<event>
12    1  0.9246030E-003  0.1755148E+03  0.7818608E-02  0.1173531E+00
         21   -1    0    0  501  502  0.00000000000E+00  0.00000000000E+00  0.12302700211E+03  0.12302700211E+03  0.00000000000E+00 0.  1.
         21   -1    0    0  502  503 -0.00000000000E+00 -0.00000000000E+00 -0.25123150228E+03  0.25123150228E+03  0.00000000000E+00 0.  1.
          6    2    1    2  501    0  0.26566026983E+02 -0.24812581943E+02 -0.29436757228E+02  0.17286207619E+03  0.16641321070E+03 0.  0.
         24    2    3    3    0    0 -0.37697451362E+02  0.19611748338E+02 -0.31594192433E+02  0.94567374598E+02  0.78352261172E+02 0.  0.
         -6    2    1    2    0  503 -0.26566026983E+02  0.24812581943E+02 -0.98767742939E+02  0.20139642820E+03  0.17170916176E+03 0.  0.
        -24    2    5    5    0    0 -0.76776316630E+02 -0.78936423399E+01 -0.43246620839E+02  0.11957066641E+03  0.80436071924E+02 0.  0.
          5    1    3    3  501    0  0.64263478346E+02 -0.44424330281E+02  0.21574352053E+01  0.78294701588E+02  0.47000000000E+01 0. -1.
        -11    1    4    4    0    0  0.34328489047E+00  0.29202539097E+02 -0.44535309047E+02  0.53256923364E+02  0.00000000000E+00 0.  1.
         12    1    4    4    0    0 -0.38040736253E+02 -0.95907907584E+01  0.12941116614E+02  0.41310451235E+02  0.00000000000E+00 0. -1.
         -5    1    5    5    0  503  0.50210289646E+02  0.32706224283E+02 -0.55521122100E+02  0.81825761790E+02  0.47000000000E+01 0.  1.
         13    1    6    6    0    0 -0.89293745262E+02 -0.33357705002E+01 -0.52232057677E+02  0.10350211668E+03  0.00000000000E+00 0. -1.
        -14    1    6    6    0    0  0.12517428632E+02 -0.45578718397E+01  0.89854368381E+01  0.16068549730E+02  0.00000000000E+00 0.  1.
</event>
<event>
12    1  0.9246030E-003  0.2263526E+03  0.7818608E-02  0.1129337E+00
         21   -1    0    0  503  502  0.00000000000E+00  0.00000000000E+00  0.29719023577E+02  0.29719023577E+02  0.00000000000E+00 0.  1.
         21   -1    0    0  501  503 -0.00000000000E+00 -0.00000000000E+00 -0.17701807627E+04  0.17701807627E+04  0.00000000000E+00 0.  1.
          6    2    1    2  501    0  0.31296771822E+02 -0.14430639870E+03 -0.10212369607E+04  0.10458972919E+04  0.17079927043E+03 0.  0.
         24    2    3    3    0    0 -0.31218603334E+01 -0.15044285420E+03 -0.60591542257E+03  0.62908034369E+03  0.77238469133E+02 0.  0.
         -6    2    1    2    0  502 -0.31296771822E+02  0.14430639870E+03 -0.71922477848E+03  0.75400249438E+03  0.17155656480E+03 0.  0.
        -24    2    5    5    0    0 -0.63127459096E+02  0.50308338898E+02 -0.25428136494E+03  0.27856238701E+03  0.80137293754E+02 0.  0.
          5    1    3    3  501    0  0.34418632155E+02  0.61364555007E+01 -0.41532153812E+03  0.41681694825E+03  0.47000000000E+01 0. -1.
        -11    1    4    4    0    0 -0.34899740102E+02 -0.11680122980E+03 -0.46757550547E+03  0.48320531088E+03  0.00000000000E+00 0.  1.
         12    1    4    4    0    0  0.31777879769E+02 -0.33641624395E+02 -0.13833991710E+03  0.14587503281E+03  0.00000000000E+00 0. -1.
         -5    1    5    5    0  502  0.31830687275E+02  0.93998059799E+02 -0.46494341354E+03  0.47544010737E+03  0.47000000000E+01 0.  1.
         11    1    6    6    0    0 -0.27447675670E+02 -0.16894316585E+02 -0.11968337253E+03  0.12394717622E+03  0.00000000000E+00 0. -1.
        -12    1    6    6    0    0 -0.35679783426E+02  0.67202655483E+02 -0.13459799241E+03  0.15461521080E+03  0.00000000000E+00 0.  1.
</event>
<event>
12    1  0.9246030E-003  0.1939384E+03  0.7818608E-02  0.1155274E+00
         21   -1    0    0  501  502  0.00000000000E+00  0.00000000000E+00  0.35786676557E+03  0.35786676557E+03  0.00000000000E+00 0. -1.
         21   -1    0    0  502  503 -0.00000000000E+00 -0.00000000000E+00 -0.10518922793E+03  0.10518922793E+03  0.00000000000E+00 0. -1.
          6    2    1    2  501    0 -0.32855724851E+02  0.83279357439E+02  0.14690501485E+03  0.24214896185E+03  0.17041152046E+03 0.  0.
         24    2    3    3    0    0 -0.14778225929E+02  0.84298144172E+02  0.17373982256E+03  0.20943763662E+03  0.79712135935E+02 0.  0.
         -6    2    1    2    0  503  0.32855724851E+02 -0.83279357439E+02  0.10577252278E+03  0.22090703165E+03  0.17203819350E+03 0.  0.
        -24    2    5    5    0    0  0.19967585587E+02  0.18213179026E+02  0.83658863053E+02  0.11613135203E+03  0.75876618224E+02 0.  0.
          5    1    3    3  501    0 -0.18077498923E+02 -0.10187867329E+01 -0.26834807709E+02  0.32711325233E+02  0.47000000000E+01 0. -1.
        -13    1    4    4    0    0  0.55079354989E+00 -0.65386810659E+01 -0.50702929448E+01  0.82925022859E+01  0.00000000000E+00 0.  1.
         14    1    4    4    0    0 -0.15329019478E+02  0.90836825238E+02  0.17881011551E+03  0.20114513433E+03  0.00000000000E+00 0. -1.
         -5    1    5    5    0  503  0.12888139265E+02 -0.10149253646E+03  0.22113659731E+02  0.10477567961E+03  0.47000000000E+01 0.  1.
         11    1    6    6    0    0  0.21272934430E+01 -0.13472828810E+02 -0.91691620193E+01  0.16435206895E+02  0.00000000000E+00 0. -1.
        -12    1    6    6    0    0  0.17840292144E+02  0.31686007836E+02  0.92828025073E+02  0.99696145137E+02  0.00000000000E+00 0.  1.
</event>
<event>
12    1  0.9246030E-003  0.2137694E+03  0.7818608E-02  0.1138665E+00
         21   -1    0    0  501  502  0.00000000000E+00  0.00000000000E+00  0.41911521600E+02  0.41911521600E+02  0.00000000000E+00 0.  1.
         21   -1    0    0  502  503 -0.00000000000E+00 -0.00000000000E+00 -0.13905839942E+04  0.13905839942E+04  0.00000000000E+00 0. -1.
          6    2    1    2  501    0 -0.47587256755E+02 -0.11720307099E+03 -0.34047346671E+03  0.40188278790E+03  0.17200722899E+03 0.  0.
         24    2    3    3    0    0 -0.31339181039E+01  0.41761396505E+01 -0.86653246622E+02  0.11700420637E+03  0.78447036736E+02 0.  0.
         -6    2    1    2    0  503  0.47587256755E+02  0.11720307099E+03 -0.10081990059E+04  0.10306127279E+04  0.17232600665E+03 0.  0.
        -24    2    5    5    0    0  0.92148480736E+02  0.11516443798E+03 -0.76456464704E+03  0.78288374388E+03  0.81201395659E+02 0.  0.
          5    1    3    3  501    0 -0.44453338651E+02 -0.12137921064E+03 -0.25382022008E+03  0.28487858153E+03  0.47000000000E+01 0. -1.
        -13    1    4    4    0    0  0.42507230997E+01 -0.33323653546E+02 -0.17227736904E+02  0.37753535614E+02  0.00000000000E+00 0.  1.
         14    1    4    4    0    0 -0.73846412037E+01  0.37499793196E+02 -0.69425509718E+02  0.79250670755E+02  0.00000000000E+00 0. -1.
         -5    1    5    5    0  503 -0.44561223981E+02  0.20386330096E+01 -0.24363435886E+03  0.24772898402E+03  0.47000000000E+01 0.  1.
         11    1    6    6    0    0  0.48683654438E+02  0.11309584906E+03 -0.51194911612E+03  0.52654787701E+03  0.00000000000E+00 0. -1.
        -12    1    6    6    0    0  0.43464826298E+02  0.20685889155E+01 -0.25261553092E+03  0.25633586688E+03  0.00000000000E+00 0.  1.
</event>
<event>
12    1  0.9246030E-003  0.2564272E+03  0.7818608E-02  0.1109749E+00
         21   -1    0    0  503  502  0.00000000000E+00  0.00000000000E+00  0.35609830560E+03  0.35609830560E+03  0.00000000000E+00 0. -1.
         21   -1    0    0  501  503 -0.00000000000E+00 -0.00000000000E+00 -0.20279916976E+03  0.20279916976E+03  0.00000000000E+00 0. -1.
          6    2    1    2  501    0  0.16105515116E+03 -0.96151356978E+02 -0.11932215456E+02  0.25384617143E+03  0.17062138149E+03 0.  0.
         24    2    3    3    0    0  0.18814508088E+03 -0.79129373781E+02  0.27687069976E+00  0.21928081322E+03  0.80149667093E+02 0.  0.
         -6    2    1    2    0  502 -0.16105515116E+03  0.96151356978E+02  0.16523135129E+03  0.30505130392E+03  0.17484579895E+03 0.  0.
        -24    2    5    5    0    0 -0.11308343431E+03  0.11138827688E+02  0.15244396268E+03  0.20649156031E+03  0.80546049708E+02 0.  0.
          5    1    3    3  501    0 -0.27089929715E+02 -0.17021983197E+02 -0.12209086156E+02  0.34565358217E+02  0.47000000000E+01 0. -1.
        -13    1    4    4    0    0  0.55421355197E+02 -0.34398916479E+01  0.30762889990E+02  0.63480035184E+02  0.00000000000E+00 0.  1.
         14    1    4    4    0    0  0.13272372568E+03 -0.75689482133E+02 -0.30486019290E+02  0.15580077803E+03  0.00000000000E+00 0. -1.
         -5    1    5    5    0  502 -0.47971716855E+02  0.85012529291E+02  0.12787388611E+02  0.98559743617E+02  0.47000000000E+01 0.  1.
         11    1    6    6    0    0 -0.10670246771E+03 -0.19078909852E+02  0.11925481028E+03  0.16115561173E+03  0.00000000000E+00 0. -1.
        -12    1    6    6    0    0 -0.63809666008E+01  0.30217737540E+02  0.33189152398E+02  0.45335948580E+02  0.00000000000E+00 0.  1.
</event>
<event>
12    1  0.9246030E-003  0.1935709E+03  0.7818608E-02  0.1155697E+00
         21   -1    0    0  501  502  0.00000000000E+00  0.00000000000E+00  0.19606923217E+04  0.19606923217E+04  0.00000000000E+00 0.  1.
         21   -1    0    0  502  503 -0.00000000000E+00 -0.00000000000E+00 -0.19250448101E+02  0.19250448101E+02  0.00000000000E+00 0. -1.
          6    2    1    2  501    0 -0.81649680079E+02  0.24941516912E+02  0.84657513383E+03  0.86842338130E+03  0.17372668896E+03 0.  0.
         24    2    3    3    0    0 -0.10317703699E+03  0.28368550953E+02  0.82996021224E+03  0.84061479850E+03  0.79680674630E+02 0.  0.
         -6    2    1    2    0  503  0.81649680079E+02 -0.24941516912E+02  0.10948667398E+04  0.11115193885E+04  0.17161999775E+03 0.  0.
        -24    2    5    5    0    0  0.78562641109E+02 -0.91814079384E+01  0.37815317099E+03  0.39461050969E+03  0.80381881011E+02 0.  0.
          5    1    3    3  501    0  0.21527356916E+02 -0.34270340413E+01  0.16614921586E+02  0.27808582801E+02  0.47000000000E+01 0. -1.
        -13    1    4    4    0    0 -0.70587848557E+02  0.18400968393E+02  0.27190916867E+03  0.28152413042E+03  0.00000000000E+00 0.  1.
         14    1    4    4    0    0 -0.32589188438E+02  0.99675825609E+01  0.55805104357E+03  0.55909066808E+03  0.00000000000E+00 0. -1.
         -5    1    5    5    0  503  0.30870389696E+01 -0.15760108974E+02  0.71671356882E+03  0.71690887885E+03  0.47000000000E+01 0.  1.
         13    1    6    6    0    0  0.37869630080E+02  0.84344153984E+01  0.31536831780E+03  0.31774584831E+03  0.00000000000E+00 0. -1.
        -14    1    6    6    0    0  0.40693011029E+02 -0.17615823337E+02  0.62784853189E+02  0.76864661376E+02  0.00000000000E+00 0.  1.
</event>
<event>
12    1  0.9246030E-003  0.2125446E+03  0.7818608E-02  0.1140039E+00
         21   -1    0    0  501  502  0.00000000000E+00  0.00000000000E+00  0.11155135494E+03  0.11155135494E+03  0.00000000000E+00 0. -1.
         21   -1    0    0  502  503 -0.00000000000E+00 -0.00000000000E+00 -0.69290474878E+03  0.69290474878E+03  0.00000000000E+00 0.  1.
          6    2    1    2  501    0  0.41148878407E+02 -0.11781162077E+03 -0.30296602626E+02  0.21469297481E+03  0.17205342519E+03 0.  0.
         24    2    3    3    0    0 -0.16575310383E+01 -0.99764166839E+02 -0.76342850623E+02  0.14911518712E+03  0.80321054497E+02 0.  0.
         -6    2    1    2    0  503 -0.41148878407E+02  0.11781162077E+03 -0.55105679121E+03  0.58976312891E+03  0.16906848584E+03 0.  0.
        -24    2    5    5    0    0  0.18386927255E+02  0.19157479908E+02 -0.14829476874E+03  0.17081624874E+03  0.80509404834E+02 0.  0.
          5    1    3    3  501    0  0.42806409446E+02 -0.18047453935E+02  0.46046247997E+02  0.65577787686E+02  0.47000000000E+01 0. -1.
        -11    1    4    4    0    0 -0.36580755416E+02 -0.22131359955E+02 -0.21543233151E+02  0.47875459839E+02  0.00000000000E+00 0.  1.
         12    1    4    4    0    0  0.34923224377E+02 -0.77632806884E+02 -0.54799617473E+02  0.10123972728E+03  0.00000000000E+00 0. -1.
         -5    1    5    5    0  503 -0.59535805662E+02  0.98654140866E+02 -0.40276202247E+03  0.41894688017E+03  0.47000000000E+01 0.  1.
         13    1    6    6    0    0  0.26831719407E+02  0.40939624694E+02 -0.13573693056E+03  0.14429313343E+03  0.00000000000E+00 0. -1.
        -14    1    6    6    0    0 -0.84447921519E+01 -0.21782144786E+02 -0.12557838180E+02  0.26523115310E+02  0.00000000000E+00 0.  1.
</event>
<event>
12    1  0.9246030E-003  0.2115328E+03  0.7818608E-02  0.1140456E+00
         21   -1    0    0  501  502  0.00000000000E+00  0.00000000000E+00  0.26009628047E+03  0.26009628047E+03  0.00000000000E+00 0.  1.
         21   -1    0    0  502  503 -0.00000000000E+00 -0.00000000000E+00 -0.38060796419E+03  0.38060796419E+03  0.00000000000E+00 0.  1.
          6    2    1    2  501    0 -0.19821542729E+01 -0.12238788973E+03  0.17708773299E+03  0.27587350713E+03  0.17252072998E+03 0.  0.
         24    2    3    3    0    0  0.18686365337E+02 -0.98514610798E+02  0.39127034953E+02  0.13426713244E+03  0.80264744439E+02 0.  0.
         -6    2    1    2    0  503  0.19821542729E+01  0.12238788973E+03 -0.29759941671E+03  0.36483073752E+03  0.17191081910E+03 0.  0.
        -24    2    5    5    0    0  0.13386275455E+02  0.10812728068E+03 -0.31248353974E+03  0.34080895430E+03  0.81449858950E+02 0.  0.
          5    1    3    3  501    0 -0.20668519610E+02 -0.23873278934E+02  0.13796069804E+03  0.14160637469E+03  0.47000000000E+01 0. -1.
        -13    1    4    4    0    0  0.32777664515E+02 -0.10241922593E+03  0.47341014585E+02  0.11749572245E+03  0.00000000000E+00 0.  1.
         14    1    4    4    0    0 -0.14091299178E+02  0.39046151322E+01 -0.82139796319E+01  0.16771409996E+02  0.00000000000E+00 0. -1.
         -5    1    5    5    0  503 -0.11404121182E+02  0.14260609050E+02  0.14884123033E+02  0.24021783216E+02  0.47000000000E+01 0.  1.
         13    1    6    6    0    0 -0.29276901450E+02  0.64078059592E+02 -0.20861179069E+03  0.22018631632E+03  0.00000000000E+00 0. -1.
        -14    1    6    6    0    0  0.42663176905E+02  0.44049221090E+02 -0.10387174906E+03  0.12062263799E+03  0.00000000000E+00 0.  1.
</event>
<event>
12    1  0.9246030E-003  0.1945077E+03  0.7818608E-02  0.1155521E+00
         21   -1    0    0  501  502  0.00000000000E+00  0.00000000000E+00  0.49961017818E+03  0.49961017818E+03  0.00000000000E+00 0.  1.
         21   -1    0    0  502  503 -0.00000000000E+00 -0.00000000000E+00 -0.79952285216E+02  0.79952285216E+02  0.00000000000E+00 0.  1.
          6    2    1    2  501    0 -0.47145495345E+02  0.65617180296E+02  0.12747843670E+03  0.22856091876E+03  0.17164215589E+03 0.  0.
         24    2    3    3    0    0  0.27041232761E+02  0.73155112416E+02  0.51287964028E+02  0.12184836479E+03  0.78317750265E+02 0.  0.
         -6    2    1    2    0  503  0.47145495345E+02 -0.65617180296E+02  0.29217945626E+03  0.35100154463E+03  0.17693201404E+03 0.  0.
        -24    2    5    5    0    0 -0.22697433169E+02 -0.84401022479E+02  0.19518092461E+03  0.22991615108E+03  0.84422373378E+02 0.  0.
          5    1    3    3  501    0 -0.74186728106E+02 -0.75379321192E+01  0.76190472674E+02  0.10671255397E+03  0.47000000000E+01 0. -1.
        -13    1    4    4    0    0  0.33524779157E+02 -0.10337493689E+01  0.28370548597E+02  0.43930257033E+02  0.00000000000E+00 0.  1.
         14    1    4    4    0    0 -0.64835463959E+01  0.74188861785E+02  0.22917415431E+02  0.77918107759E+02  0.00000000000E+00 0. -1.
         -5    1    5    5    0  503  0.69842928514E+02  0.18783842182E+02  0.96998531645E+02  0.12108539355E+03  0.47000000000E+01 0.  1.
         11    1    6    6    0    0 -0.25802399608E+02 -0.65832167511E+01  0.90097366856E+01  0.28111882247E+02  0.00000000000E+00 0. -1.
        -12    1    6    6    0    0  0.31049664394E+01 -0.77817805728E+02  0.18617118793E+03  0.20180426883E+03  0.00000000000E+00 0.  1.
</event>
<event>
12    1  0.9246030E-003  0.1959782E+03  0.7818608E-02  0.1153621E+00
         21   -1    0    0  503  502  0.00000000000E+00  0.00000000000E+00  0.80779571988E+03  0.80779571988E+03  0.00000000000E+00 0. -1.
         21   -1    0    0  501  503 -0.00000000000E+00 -0.00000000000E+00 -0.50206934884E+02  0.50206934884E+02  0.00000000000E+00 0. -1.
          6    2    1    2  501    0  0.75099270649E+01  0.88559780921E+02  0.48446036042E+03  0.52183810613E+03  0.17237730240E+03 0.  0.
         24    2    3    3    0    0  0.14483347034E+02  0.12867173238E+03  0.34293493621E+03  0.37449791156E+03  0.76668984832E+02 0.  0.
         -6    2    1    2    0  502 -0.75099270649E+01 -0.88559780921E+02  0.27312842457E+03  0.33616454864E+03  0.17466606325E+03 0.  0.
        -24    2    5    5    0    0 -0.52079795440E+02 -0.10705753295E+03  0.17153187803E+03  0.22359195754E+03  0.79978483620E+02 0.  0.
          5    1    3    3  501    0 -0.69734199696E+01 -0.40111951457E+02  0.14152542421E+03  0.14734019456E+03  0.47000000000E+01 0. -1.
        -11    1    4    4    0    0  0.24399806939E+02  0.58492525444E+01  0.37256059661E+02  0.44917461142E+02  0.00000000000E+00 0.  1.
         12    1    4    4    0    0 -0.99164599046E+01  0.12282247983E+03  0.30567887655E+03  0.32958045042E+03  0.00000000000E+00 0. -1.
         -5    1    5    5    0  502  0.44569868375E+02  0.18497752028E+02  0.10159654654E+03  0.11257259109E+03  0.47000000000E+01 0.  1.
         11    1    6    6    0    0 -0.46094865283E+02 -0.14201830005E+02  0.41083056634E+02  0.63358078596E+02  0.00000000000E+00 0. -1.
        -12    1    6    6    0    0 -0.59849301570E+01 -0.92855702944E+02  0.13044882140E+03  0.16023387895E+03  0.00000000000E+00 0.  1.
</event>
<event>
12    1  0.9246030E-003  0.1830030E+03  0.7818608E-02  0.1167564E+00
         21   -1    0    0  503  502  0.00000000000E+00  0.00000000000E+00  0.37979565665E+02  0.37979565665E+02  0.00000000000E+00 0.  1.
         21   -1    0    0  501  503 -0.00000000000E+00 -0.00000000000E+00 -0.99676939717E+03  0.99676939717E+03  0.00000000000E+00 0.  1.
          6    2    1    2  501    0 -0.32657576297E+02  0.91629314921E+01 -0.67842036138E+03  0.69993988244E+03  0.16885252646E+03 0.  0.
         24    2    3    3    0    0  0.25640350638E+01  0.54449600957E+02 -0.55919747556E+03  0.56754792332E+03  0.80234003171E+02 0.  0.
         -6    2    1    2    0  502  0.32657576297E+02 -0.91629314921E+01 -0.28036947012E+03  0.33480908039E+03  0.17983215489E+03 0.  0.
        -24    2    5    5    0    0 -0.17368995403E+02  0.27403319254E+02 -0.25271274980E+03  0.26678898962E+03  0.79120207059E+02 0.  0.
          5    1    3    3  501    0 -0.35221611361E+02 -0.45286669465E+02 -0.11922288581E+03  0.13239195912E+03  0.47000000000E+01 0. -1.
        -11    1    4    4    0    0  0.10084380682E+02 -0.17195563934E+02 -0.21323801506E+03  0.21416776887E+03  0.00000000000E+00 0.  1.
         12    1    4    4    0    0 -0.75203456180E+01  0.71645164892E+02 -0.34595946050E+03  0.35338015445E+03  0.00000000000E+00 0. -1.
         -5    1    5    5    0  502  0.50026571700E+02 -0.36566250746E+02 -0.27656720328E+02  0.68020090774E+02  0.47000000000E+01 0.  1.
         11    1    6    6    0    0 -0.10491326419E+02 -0.27126016614E+02 -0.11223659675E+03  0.11594370340E+03  0.00000000000E+00 0. -1.
        -12    1    6    6    0    0 -0.68776689838E+01  0.54529335868E+02 -0.14047615304E+03  0.15084528622E+03  0.00000000000E+00 0.  1.
</event>
<event>
12    1  0.9246030E-003  0.1746003E+03  0.7818608E-02  0.1173571E+00
         21   -1    0    0  503  502  0.00000000000E+00  0.00000000000E+00  0.95792024962E+03  0.95792024962E+03  0.00000000000E+00 0.  1.
         21   -1    0    0  501  503 -0.00000000000E+00 -0.00000000000E+00 -0.46272004047E+02  0.46272004047E+02  0.00000000000E+00 0.  1.
          6    2    1    2  501    0  0.40310535250E+01 -0.21266498438E+02  0.17068633750E+03  0.24293683812E+03  0.17151083977E+03 0.  0.
         24    2    3    3    0    0 -0.15555709253E+02  0.67123148622E+01  0.16125373613E+02  0.84577636217E+02  0.81279232358E+02 0.  0.
         -6    2    1    2    0  502 -0.40310535250E+01  0.21266498438E+02  0.74096190808E+03  0.76125541555E+03  0.17325341305E+03 0.  0.
        -24    2    5    5    0    0 -0.72298553101E+02  0.33511356636E+02  0.45943897957E+03  0.47127673128E+03  0.68319028841E+02 0.  0.
          5    1    3    3  501    0  0.19586762778E+02 -0.27978813300E+02  0.15456096388E+03  0.15835920190E+03  0.47000000000E+01 0. -1.
        -13    1    4    4    0    0  0.25119190761E+02  0.17098915980E+02  0.27608033710E+02  0.41055452714E+02  0.00000000000E+00 0.  1.
         14    1    4    4    0    0 -0.40674900014E+02 -0.10386601118E+02 -0.11482660097E+02  0.43522183503E+02  0.00000000000E+00 0. -1.
         -5    1    5    5    0  502  0.68267499576E+02 -0.12244858198E+02  0.28152292851E+03  0.28997868427E+03  0.47000000000E+01 0.  1.
         11    1    6    6    0    0 -0.64708122463E+01 -0.43062397809E+00  0.61572619108E+00  0.65142894378E+01  0.00000000000E+00 0. -1.
        -12    1    6    6    0    0 -0.65827740855E+02  0.33941980614E+02  0.45882325337E+03  0.46476244185E+03  0.00000000000E+00 0.  1.
</event>
<event>
12    1  0.9246030E-003  0.2280794E+03  0.7818608E-02  0.1128657E+00
         21   -1    0    0  501  502  0.00000000000E+00  0.00000000000E+00  0.73260712494E+03  0.73260712494E+03  0.00000000000E+00 0.  1.
         21   -1    0    0  502  503 -0.00000000000E+00 -0.00000000000E+00 -0.73108251971E+02  0.73108251971E+02  0.00000000000E+00 0.  1.
          6    2    1    2  501    0 -0.14404434729E+03 -0.18861218574E+01  0.24751615254E+03  0.33657758241E+03  0.17682729362E+03 0.  0.
         24    2    3    3    0    0 -0.39371736796E+02 -0.51257933832E+02  0.15789430947E+03  0.19012589768E+03  0.83903126075E+02 0.  0.
         -6    2    1    2    0  503  0.14404434729E+03  0.18861218574E+01  0.41198272043E+03  0.46913779450E+03  0.17207026721E+03 0.  0.
        -24    2    5    5    0    0  0.11862911660E+03  0.55598270131E+02  0.22143687726E+03  0.26948625513E+03  0.80153079478E+02 0.  0.
          5    1    3    3  501    0 -0.10467261050E+03  0.49371811975E+02  0.89621843072E+02  0.14645168473E+03  0.47000000000E+01 0. -1.
        -11    1    4    4    0    0  0.14695779688E+02  0.79389696352E+00 -0.63251178471E+00  0.14730793739E+02  0.00000000000E+00 0.  1.
         12    1    4    4    0    0 -0.54067516485E+02 -0.52051830796E+02  0.15852682126E+03  0.17539510394E+03  0.00000000000E+00 0. -1.
         -5    1    5    5    0  503  0.25415230696E+02 -0.53712148274E+02  0.19054584317E+03  0.19965153937E+03  0.47000000000E+01 0.  1.
         13    1    6    6    0    0  0.21669535684E+02 -0.16087819399E+02  0.16284971257E+02  0.31521215057E+02  0.00000000000E+00 0. -1.
        -14    1    6    6    0    0  0.96959580911E+02  0.71686089530E+02  0.20515190600E+03  0.23796504008E+03  0.00000000000E+00 0.  1.
</event>
<event>
12    1  0.9246030E-003  0.2529221E+03  0.7818608E-02  0.1111483E+00
         21   -1    0    0  501  502  0.00000000000E+00  0.00000000000E+00  0.23003967356E+04  0.23003967356E+04  0.00000000000E+00 0. -1.
         21   -1    0    0  502  503 -0.00000000000E+00 -0.00000000000E+00 -0.36017113290E+02  0.36017113290E+02  0.00000000000E+00 0. -1.
          6    2    1    2  501    0  0.81753099864E+02 -0.16772660215E+03  0.16900504792E+04  0.17088602314E+04  0.17063670727E+03 0.  0.
         24    2    3    3    0    0 -0.13048898213E+01 -0.47385394864E+02  0.95186619086E+03  0.95631869145E+03  0.79051349978E+02 0.  0.
         -6    2    1    2    0  503 -0.81753099864E+02  0.16772660215E+03  0.57432914309E+03  0.62755361745E+03  0.17074482648E+03 0.  0.
        -24    2    5    5    0    0  0.17235039092E+02  0.95060049703E+02  0.35066451028E+03  0.37235362241E+03  0.79675352094E+02 0.  0.
          5    1    3    3  501    0  0.83057989685E+02 -0.12034120729E+03  0.73818428833E+03  0.75254153996E+03  0.47000000000E+01 0. -1.
        -13    1    4    4    0    0 -0.30380039887E+02 -0.54159554143E+02  0.67313329049E+03  0.67599159085E+03  0.00000000000E+00 0.  1.
         14    1    4    4    0    0  0.29075150065E+02  0.67741592794E+01  0.27873290036E+03  0.28032710060E+03  0.00000000000E+00 0. -1.
         -5    1    5    5    0  503 -0.98988138956E+02  0.72666552447E+02  0.22366463281E+03  0.25519999504E+03  0.47000000000E+01 0.  1.
         13    1    6    6    0    0 -0.17902631195E+02  0.85095318740E+02  0.27331123310E+03  0.28681134498E+03  0.00000000000E+00 0. -1.
        -14    1    6    6    0    0  0.35137670288E+02  0.99647309629E+01  0.77353277181E+02  0.85542277425E+02  0.00000000000E+00 0.  1.
</event>
<event>
12    1  0.9246030E-003  0.1796732E+03  0.7818608E-02  0.1168636E+00
         21   -1    0    0  501  502  0.00000000000E+00  0.00000000000E+00  0.66573926493E+02  0.66573926493E+02  0.00000000000E+00 0.  1.
         21   -1    0    0  502  503 -0.00000000000E+00 -0.00000000000E+00 -0.48112261739E+03  0.48112261739E+03  0.00000000000E+00 0.  1.
          6    2    1    2  501    0 -0.50520855716E+02 -0.96976351493E+01 -0.19127044851E+03  0.26242494961E+03  0.17215129600E+03 0.  0.
         24    2    3    3    0    0  0.10031834206E+02 -0.47262991700E+02 -0.56236137989E+02  0.10966978837E+03  0.80811702014E+02 0.  0.
         -6    2    1    2    0  503  0.50520855716E+02  0.96976351493E+01 -0.22327824239E+03  0.28527159427E+03  0.16994207244E+03 0.  0.
        -24    2    5    5    0    0  0.58810716218E+02  0.34987672413E+02 -0.51774291739E+02  0.11165131072E+03  0.71432487969E+02 0.  0.
          5    1    3    3  501    0 -0.60552689923E+02  0.37565356550E+02 -0.13503431052E+03  0.15275516125E+03  0.47000000000E+01 0. -1.
        -13    1    4    4    0    0 -0.97646578599E+01  0.20049681011E+02 -0.51755941319E+01  0.22893777023E+02  0.00000000000E+00 0.  1.
         14    1    4    4    0    0  0.19796492066E+02 -0.67312672711E+02 -0.51060543857E+02  0.86776011343E+02  0.00000000000E+00 0. -1.
         -5    1    5    5    0  503 -0.82898605011E+01 -0.25290037263E+02 -0.17150395065E+03  0.17362028355E+03  0.47000000000E+01 0.  1.
         11    1    6    6    0    0 -0.17480761806E+01  0.75989916944E+01  0.15332396999E+02  0.17201245386E+02  0.00000000000E+00 0. -1.
        -12    1    6    6    0    0  0.60558792398E+02  0.27388680718E+02 -0.67106688738E+02  0.94450065334E+02  0.00000000000E+00 0.  1.
</event>
<event>
12    1  0.9246030E-003  0.2028798E+03  0.7818608E-02  0.1150685E+00
         21   -1    0    0  501  502  0.00000000000E+00  0.00000000000E+00  0.81040534853E+03  0.81040534853E+03  0.00000000000E+00 0.  1.
         21   -1    0    0  502  503 -0.00000000000E+00 -0.00000000000E+00 -0.52575701315E+02  0.52575701315E+02  0.00000000000E+00 0.  1.
          6    2    1    2  501    0  0.10145347009E+03  0.31729623134E+02  0.50614370486E+03  0.53970711779E+03  0.15428139046E+03 0.  0.
         24    2    3    3    0    0  0.13114134144E+03  0.34216444582E+02  0.42940547784E+03  0.45725471047E+03  0.79523514348E+02 0.  0.
         -6    2    1    2    0  503 -0.10145347009E+03 -0.31729623134E+02  0.25168594236E+03  0.32327393206E+03  0.17280233213E+03 0.  0.
        -24    2    5    5    0    0  0.10178774863E+01 -0.51645293264E+02  0.14665062092E+03  0.17511347937E+03  0.80560869224E+02 0.  0.
          5    1    3    3  501    0 -0.29687871347E+02 -0.24868214486E+01  0.76738227018E+02  0.82452407314E+02  0.47000000000E+01 0. -1.
        -11    1    4    4    0    0  0.21996511824E+02  0.26837057061E+02  0.20136333359E+03  0.20433126604E+03  0.00000000000E+00 0.  1.
         12    1    4    4    0    0  0.10914482962E+03  0.73793875215E+01  0.22804214425E+03  0.25292344444E+03  0.00000000000E+00 0. -1.
         -5    1    5    5    0  503 -0.10247134758E+03  0.19915670131E+02  0.10503532143E+03  0.14816045269E+03  0.47000000000E+01 0.  1.
         13    1    6    6    0    0 -0.12504537640E+02 -0.60651446698E+02  0.57536902504E+02  0.84530802657E+02  0.00000000000E+00 0. -1.
        -14    1    6    6    0    0  0.13522415127E+02  0.90061534334E+01  0.89113718419E+02  0.90582676716E+02  0.00000000000E+00 0.  1.
</event>
<event>
12    1  0.9246030E-003  0.1976362E+03  0.7818608E-02  0.1152426E+00
         21   -1    0    0  503  502  0.00000000000E+00  0.00000000000E+00  0.11564090222E+03  0.11564090222E+03  0.00000000000E+00 0. -1.
         21   -1    0    0  501  503 -0.00000000000E+00 -0.00000000000E+00 -0.33729673244E+03  0.33729673244E+03  0.00000000000E+00 0. -1.
          6    2    1    2  501    0 -0.82872393573E+02  0.37857788792E+02 -0.82766500849E+02  0.21137953824E+03  0.17184286349E+03 0.  0.
         24    2    3    3    0    0 -0.39750455258E+02 -0.92598262362E+01 -0.10988445601E+03  0.14183067267E+03  0.79846746717E+02 0.  0.
         -6    2    1    2    0  502  0.82872393573E+02 -0.37857788792E+02 -0.13888932937E+03  0.24155809643E+03  0.17538250297E+03 0.  0.
        -24    2    5    5    0    0 -0.31618390451E+01  0.11225991002E+02 -0.11341269528E+03  0.13917520965E+03  0.79820294603E+02 0.  0.
          5    1    3    3  501    0 -0.43121938315E+02  0.47117615028E+02  0.27117955160E+02  0.69548865570E+02  0.47000000000E+01 0. -1.
        -13    1    4    4    0    0 -0.16916868240E+00  0.28141961762E+02 -0.66482855906E+02  0.72193966225E+02  0.00000000000E+00 0.  1.
         14    1    4    4    0    0 -0.39581286576E+02 -0.37401787998E+02 -0.43401600104E+02  0.69636706441E+02  0.00000000000E+00 0. -1.
         -5    1    5    5    0  502  0.86034232618E+02 -0.49083779794E+02 -0.25476634091E+02  0.10238288678E+03  0.47000000000E+01 0.  1.
         11    1    6    6    0    0  0.36178464440E+02  0.17043089927E+01 -0.32321156046E+02  0.48543208449E+02  0.00000000000E+00 0. -1.
        -12    1    6    6    0    0 -0.39340303485E+02  0.95216820097E+01 -0.81091539229E+02  0.90632001198E+02  0.00000000000E+00 0.  1.
</event>
<event>
12    1  0.9246030E-003  0.2804558E+03  0.7818608E-02  0.1095614E+00
         21   -1    0    0  503  502  0.00000000000E+00  0.00000000000E+00  0.15635521262E+03  0.15635521262E+03  0.00000000000E+00 0.  1.
         21   -1    0    0  501  503 -0.00000000000E+00 -0.00000000000E+00 -0.60775790215E+03  0.60775790215E+03  0.00000000000E+00 0.  1.
          6    2    1    2  501    0 -0.18154936785E+03 -0.12598680147E+03 -0.38556975251E+03  0.47603423192E+03  0.17062153673E+03 0.  0.
         24    2    3    3    0    0 -0.17879253958E+03 -0.63320635204E+02 -0.34349459596E+03  0.40035690839E+03  0.79503720633E+02 0.  0.
         -6    2    1    2    0  502  0.18154936785E+03  0.12598680147E+03 -0.65832937022E+02  0.28807888286E+03  0.17269226977E+03 0.  0.
        -24    2    5    5    0    0  0.38761940595E+02  0.60471017984E+02  0.20149385439E+02  0.10892638624E+03  0.79370824808E+02 0.  0.
          5    1    3    3  501    0 -0.27568282756E+01 -0.62666166271E+02 -0.42075156550E+02  0.75677323525E+02  0.47000000000E+01 0. -1.
        -13    1    4    4    0    0 -0.63450279924E+02 -0.37192547599E+02 -0.66428063119E+02  0.99105555793E+02  0.00000000000E+00 0.  1.
         14    1    4    4    0    0 -0.11534225965E+03 -0.26128087605E+02 -0.27706653284E+03  0.30125135260E+03  0.00000000000E+00 0. -1.
         -5    1    5    5    0  502  0.14278742726E+03  0.65515783490E+02 -0.85982322462E+02  0.17915249662E+03  0.47000000000E+01 0.  1.
         11    1    6    6    0    0  0.55538119525E+02  0.65775931911E+02  0.26729742986E+02  0.90141195351E+02  0.00000000000E+00 0. -1.
        -12    1    6    6    0    0 -0.16776178930E+02 -0.53049139266E+01 -0.65803575470E+01  0.18785190888E+02  0.00000000000E+00 0.  1.
</event>
<event>
12    1  0.9246030E-003  0.2032027E+03  0.7818608E-02  0.1147140E+00
         21   -1    0    0  501  502  0.00000000000E+00  0.00000000000E+00  0.88410212384E+02  0.88410212384E+02  0.00000000000E+00 0. -1.
         21   -1    0    0  502  503 -0.00000000000E+00 -0.00000000000E+00 -0.49710950774E+03  0.49710950774E+03  0.00000000000E+00 0. -1.
          6    2    1    2  501    0 -0.61976043786E+02 -0.88223821920E+02 -0.13153168025E+03  0.24205766970E+03  0.17224070306E+03 0.  0.
         24    2    3    3    0    0 -0.65564419081E+02  0.31820988627E+00 -0.10960440807E+03  0.15064944742E+03  0.79895778576E+02 0.  0.
         -6    2    1    2    0  503  0.61976043786E+02  0.88223821920E+02 -0.27716761511E+03  0.34346205043E+03  0.17181333028E+03 0.  0.
        -24    2    5    5    0    0  0.10602309311E+03  0.76590075529E+02 -0.24305851927E+03  0.28635682275E+03  0.76261721753E+02 0.  0.
          5    1    3    3  501    0  0.35883752952E+01 -0.88542031807E+02 -0.21927272184E+02  0.91408222273E+02  0.47000000000E+01 0. -1.
        -11    1    4    4    0    0  0.85107880522E+01  0.11357309481E+02 -0.57969505329E+02  0.59681534330E+02  0.00000000000E+00 0.  1.
         12    1    4    4    0    0 -0.74075207134E+02 -0.11039099595E+02 -0.51634902736E+02  0.90967913092E+02  0.00000000000E+00 0. -1.
         -5    1    5    5    0  503 -0.44047049324E+02  0.11633746392E+02 -0.34109095839E+02  0.57105227678E+02  0.47000000000E+01 0.  1.
         13    1    6    6    0    0  0.16646778196E+02  0.55468495050E+02 -0.11515141703E+03  0.12889421248E+03  0.00000000000E+00 0. -1.
        -14    1    6    6    0    0  0.89376314914E+02  0.21121580479E+02 -0.12790710224E+03  0.15746261027E+03  0.00000000000E+00 0.  1.
</event>
<event>
12    1  0.9246030E-003  0.1862456E+03  0.7818608E-02  0.1162059E+00
         21   -1    0    0  501  502  0.00000000000E+00  0.00000000000E+00  0.31313181062E+03  0.31313181062E+03  0.00000000000E+00 0. -1.
         21   -1    0    0  502  503 -0.00000000000E+00 -0.00000000000E+00 -0.18515611220E+03  0.18515611220E+03  0.00000000000E+00 0.  1.
          6    2    1    2  501    0 -0.26909124052E+01 -0.70360279732E+02  0.22227790964E+03  0.28952885701E+03  0.17164405015E+03 0.  0.
         24    2    3    3    0    0  0.32552940677E+02 -0.90263050340E+02  0.21250916483E+03  0.24762697360E+03  0.83377819069E+02 0.  0.
         -6    2    1    2    0  503  0.26909124052E+01  0.70360279732E+02 -0.94302211216E+02  0.20875906581E+03  0.17242282489E+03 0.  0.
        -24    2    5    5    0    0 -0.57985964131E+02  0.62919735351E+02 -0.89183444802E+02  0.14723397486E+03  0.80018069162E+02 0.  0.
          5    1    3    3  501    0 -0.35243853082E+02  0.19902770608E+02  0.97687448037E+01  0.41901883407E+02  0.47000000000E+01 0. -1.
        -13    1    4    4    0    0  0.30931765281E+02  0.38490179826E+01  0.36241431357E+02  0.47801991482E+02  0.00000000000E+00 0.  1.
         14    1    4    4    0    0  0.16211753962E+01 -0.94112068323E+02  0.17626773348E+03  0.19982498212E+03  0.00000000000E+00 0. -1.
         -5    1    5    5    0  503  0.60676876536E+02  0.74405443808E+01 -0.51187664144E+01  0.61525090950E+02  0.47000000000E+01 0.  1.
         11    1    6    6    0    0 -0.70089644963E+02  0.20794956771E+02 -0.51434998035E+02  0.89389862853E+02  0.00000000000E+00 0. -1.
        -12    1    6    6    0    0  0.12103680832E+02  0.42124778580E+02 -0.37748446767E+02  0.57844112003E+02  0.00000000000E+00 0.  1.
</event>
<event>
12    1  0.9246030E-003  0.1752983E+03  0.7818608E-02  0.1172725E+00
         21   -1    0    0  503  502  0.00000000000E+00  0.00000000000E+00  0.15632296516E+04  0.15632296516E+04  0.00000000000E+00 0.  1.
         21   -1    0    0  501  503 -0.00000000000E+00 -0.00000000000E+00 -0.19748662037E+02  0.19748662037E+02  0.00000000000E+00 0. -1.
          6    2    1    2  501    0  0.14321850565E+01 -0.34883157004E+02  0.85804512495E+03  0.87576875723E+03  0.17178647759E+03 0.  0.
         24    2    3    3    0    0  0.24395828357E+02 -0.66905146620E+02  0.78733869694E+03  0.79468715824E+03  0.80956782792E+02 0.  0.
         -6    2    1    2    0  502 -0.14321850565E+01  0.34883157004E+02  0.68543586457E+03  0.70720955637E+03  0.17059937394E+03 0.  0.
        -24    2    5    5    0    0 -0.13447702892E+01  0.87275735928E+02  0.52007364043E+03  0.53368219501E+03  0.81983116033E+02 0.  0.
          5    1    3    3  501    0 -0.22963643300E+02  0.32021989616E+02  0.70706428012E+02  0.81081598990E+02  0.47000000000E+01 0. -1.
        -13    1    4    4    0    0 -0.34904830058E+01 -0.74131572566E+02  0.65840897726E+03  0.66257833866E+03  0.00000000000E+00 0.  1.
         14    1    4    4    0    0  0.27886311362E+02  0.72264259462E+01  0.12892971968E+03  0.13210881958E+03  0.00000000000E+00 0. -1.
         -5    1    5    5    0  502 -0.87414767279E-01 -0.52392578924E+02  0.16536222414E+03  0.17352736136E+03  0.47000000000E+01 0.  1.
         13    1    6    6    0    0 -0.31068443757E+02  0.88240732641E+01  0.93053692946E+02  0.98499249932E+02  0.00000000000E+00 0. -1.
        -14    1    6    6    0    0  0.29723673467E+02  0.78451662664E+02  0.42701994748E+03  0.43518294508E+03  0.00000000000E+00 0.  1.
</event>
<event>
12    1  0.9246030E-003  0.1932991E+03  0.7818608E-02  0.1155579E+00
         21   -1    0    0  503  502  0.00000000000E+00  0.00000000000E+00  0.58708335194E+02  0.58708335194E+02  0.00000000000E+00 0.  1.
         21   -1    0    0  501  503 -0.00000000000E+00 -0.00000000000E+00 -0.66905125701E+03  0.66905125701E+03  0.00000000000E+00 0.  1.
          6    2    1    2  501    0 -0.85432365941E+02  0.16142172297E+02 -0.38638762509E+03  0.43192090569E+03  0.17233981859E+03 0.  0.
         24    2    3    3    0    0 -0.72513585424E+02  0.75845982432E+02 -0.25651291009E+03  0.28832086588E+03  0.79493493704E+02 0.  0.
         -6    2    1    2    0  502  0.85432365941E+02 -0.16142172297E+02 -0.22395529673E+03  0.29583868651E+03  0.17264209982E+03 0.  0.
        -24    2    5    5    0    0 -0.13847877828E+02  0.20041109835E+02 -0.11043435450E+03  0.14067783116E+03  0.83672550599E+02 0.  0.
          5    1    3    3  501    0 -0.12918780517E+02 -0.59703810135E+02 -0.12987471501E+03  0.14360003981E+03  0.47000000000E+01 0. -1.
        -11    1    4    4    0    0 -0.25806922965E+02  0.18121563281E+02 -0.13652256670E+02  0.34362369546E+02  0.00000000000E+00 0.  1.
         12    1    4    4    0    0 -0.46706662459E+02  0.57724419152E+02 -0.24286065342E+03  0.25395849634E+03  0.00000000000E+00 0. -1.
         -5    1    5    5    0  502  0.99280243769E+02 -0.36183282132E+02 -0.11352094223E+03  0.15516085535E+03  0.47000000000E+01 0.  1.
         13    1    6    6    0    0 -0.33588700128E+02  0.31590734240E+02 -0.25445718495E+02  0.52665547143E+02  0.00000000000E+00 0. -1.
        -14    1    6    6    0    0  0.19740822300E+02 -0.11549624404E+02 -0.84988636003E+02  0.88012284021E+02  0.00000000000E+00 0.  1.
</event>
<event>
12    1  0.9246030E-003  0.2430345E+03  0.7818608E-02  0.1117962E+00
         21   -1    0    0  501  502  0.00000000000E+00  0.00000000000E+00  0.38789858270E+03  0.38789858270E+03  0.00000000000E+00 0.  1.
         21   -1    0    0  502  503 -0.00000000000E+00 -0.00000000000E+00 -0.16468845479E+03  0.16468845479E+03  0.00000000000E+00 0.  1.
          6    2    1    2  501    0 -0.16999941151E+03 -0.11698982731E+02  0.18925436355E+03  0.30719194473E+03  0.17179351174E+03 0.  0.
         24    2    3    3    0    0 -0.29411992565E+02 -0.36114417801E+02  0.11074156588E+03  0.14425856807E+03  0.79859398735E+02 0.  0.
         -6    2    1    2    0  503  0.16999941151E+03  0.11698982731E+02  0.33955764361E+02  0.24539509275E+03  0.17328904035E+03 0.  0.
        -24    2    5    5    0    0  0.78803710196E+02  0.20396993176E+02  0.85279923185E+02  0.14028291172E+03  0.76030046366E+02 0.  0.
          5    1    3    3  501    0 -0.14058741894E+03  0.24415435070E+02  0.78512797666E+02  0.16293337667E+03  0.47000000000E+01 0. -1.
        -11    1    4    4    0    0 -0.43192053802E+02 -0.51506178828E+02  0.10122961943E+03  0.12151492015E+03  0.00000000000E+00 0.  1.
         12    1    4    4    0    0  0.13780061238E+02  0.15391761027E+02  0.95119464573E+01  0.22743647919E+02  0.00000000000E+00 0. -1.
         -5    1    5    5    0  503  0.91195701309E+02 -0.86980104444E+01 -0.51324158824E+02  0.10511218104E+03  0.47000000000E+01 0.  1.
         11    1    6    6    0    0  0.25045416466E+02  0.44953463855E+02  0.48232619953E+02  0.70529939926E+02  0.00000000000E+00 0. -1.
        -12    1    6    6    0    0  0.53758293731E+02 -0.24556470679E+02  0.37047303232E+02  0.69752971792E+02  0.00000000000E+00 0.  1.
</event>
<event>
12    1  0.9246030E-003  0.2007257E+03  0.7818608E-02  0.1149295E+00
         21   -1    0    0  501  502  0.00000000000E+00  0.00000000000E+00  0.15622970564E+03  0.15622970564E+03  0.00000000000E+00 0. -1.
         21   -1    0    0  502  503 -0.00000000000E+00 -0.00000000000E+00 -0.27232623102E+03  0.27232623102E+03  0.00000000000E+00 0. -1.
          6    2    1    2  501    0 -0.10358845309E+03  0.18689584117E+00 -0.71223949533E+01  0.20085198650E+03  0.17193076929E+03 0.  0.
         24    2    3    3    0    0 -0.33544639186E+02  0.64441926223E+02 -0.93672949821E+01  0.10565758345E+03  0.76143115596E+02 0.  0.
         -6    2    1    2    0  503  0.10358845309E+03 -0.18689584117E+00 -0.10897413043E+03  0.22770395016E+03  0.17100621413E+03 0.  0.
        -24    2    5    5    0    0  0.11805425926E+03  0.32308675703E+02 -0.12394626362E+03  0.18882623815E+03  0.72883559833E+02 0.  0.
          5    1    3    3  501    0 -0.70043813901E+02 -0.64255030382E+02  0.22449000289E+01  0.95194403046E+02  0.47000000000E+01 0. -1.
        -13    1    4    4    0    0 -0.66759109054E+01  0.25842135247E+02 -0.41040412765E+02  0.48956094824E+02  0.00000000000E+00 0.  1.
         14    1    4    4    0    0 -0.26868728280E+02  0.38599790977E+02  0.31673117782E+02  0.56701488630E+02  0.00000000000E+00 0. -1.
         -5    1    5    5    0  503 -0.14465806179E+02 -0.32495571544E+02  0.14972133189E+02  0.38877712003E+02  0.47000000000E+01 0.  1.
         13    1    6    6    0    0  0.92325398470E+02 -0.10033433089E+02 -0.78761992164E+02  0.12177068774E+03  0.00000000000E+00 0. -1.
        -14    1    6    6    0    0  0.25728860794E+02  0.42342108792E+02 -0.45184271453E+02  0.67055550415E+02  0.00000000000E+00 0.  1.
</event>
<event>
12    1  0.9246030E-003  0.1905065E+03  0.7818608E-02  0.1159091E+00
         21   -1    0    0  501  502  0.00000000000E+00  0.00000000000E+00  0.10735508554E+03  0.10735508554E+03  0.00000000000E+00 0.  1.
         21   -1    0    0  502  503 -0.00000000000E+00 -0.00000000000E+00 -0.33537868026E+03  0.33537868026E+03  0.00000000000E+00 0.  1.
          6    2    1    2  501    0 -0.72309069403E+02  0.36513596416E+02 -0.83687151227E+02  0.20372387530E+03  0.16714674345E+03 0.  0.
         24    2    3    3    0    0 -0.61413786105E+02 -0.10619185492E+02  0.70060463713E+01  0.10082804245E+03  0.78948016020E+02 0.  0.
         -6    2    1    2    0  503  0.72309069403E+02 -0.36513596416E+02 -0.14433644350E+03  0.23900989049E+03  0.17242643240E+03 0.  0.
        -24    2    5    5    0    0  0.10021855697E+03 -0.63449075616E+02 -0.80705157884E+02  0.16434068637E+03  0.80156062340E+02 0.  0.
          5    1    3    3  501    0 -0.10895283297E+02  0.47132781908E+02 -0.90693197598E+02  0.10289583286E+03  0.47000000000E+01 0. -1.
        -13    1    4    4    0    0 -0.69965051701E+02  0.11978896759E+02 -0.94285842786E+01  0.71606568334E+02  0.00000000000E+00 0.  1.
         14    1    4    4    0    0  0.85512655957E+01 -0.22598082251E+02  0.16434630650E+02  0.29221474113E+02  0.00000000000E+00 0. -1.
         -5    1    5    5    0  503 -0.27909487563E+02  0.26935479200E+02 -0.63631285615E+02  0.74669204126E+02  0.47000000000E+01 0.  1.
         13    1    6    6    0    0  0.84800248329E+02 -0.65006727084E+02 -0.29508336242E+02  0.11084989215E+03  0.00000000000E+00 0. -1.
        -14    1    6    6    0    0  0.15418308636E+02  0.15576514680E+01 -0.51196821642E+02  0.53490794213E+02  0.00000000000E+00 0.  1.
</event>
<event>
12    1  0.9246030E-003  0.2053681E+03  0.7818608E-02  0.1145386E+00
         21   -1    0    0  503  502  0.00000000000E+00  0.00000000000E+00  0.14928562169E+03  0.14928562169E+03  0.00000000000E+00 0. -1.
         21   -1    0    0  501  503 -0.00000000000E+00 -0.00000000000E+00 -0.36096518971E+03  0.36096518971E+03  0.00000000000E+00 0. -1.
          6    2    1    2  501    0 -0.24859354695E+02  0.10910518416E+03 -0.22537446789E+03  0.30490934364E+03  0.17220374077E+03 0.  0.
         24    2    3    3    0    0 -0.18900358479E+02  0.10380202113E+03 -0.71323378007E+02  0.15058027487E+03  0.80344954960E+02 0.  0.
         -6    2    1    2    0  502  0.24859354695E+02 -0.10910518416E+03  0.13694899867E+02  0.20534146777E+03  0.17162645302E+03 0.  0.
        -24    2    5    5    0    0  0.48292229492E+02 -0.11669039068E+03  0.52499121005E+02  0.15914089897E+03  0.81368798137E+02 0.  0.
          5    1    3    3  501    0 -0.59589962161E+01  0.53031630276E+01 -0.15405108988E+03  0.15432906877E+03  0.47000000000E+01 0. -1.
        -11    1    4    4    0    0 -0.30162856493E+02  0.57522001733E+02 -0.79067392674E+02  0.10232414759E+03  0.00000000000E+00 0.  1.
         12    1    4    4    0    0  0.11262498014E+02  0.46280019395E+02  0.77440146675E+01  0.48256127279E+02  0.00000000000E+00 0. -1.
         -5    1    5    5    0  502 -0.23432874797E+02  0.75852065271E+01 -0.38804221138E+02  0.46200568800E+02  0.47000000000E+01 0.  1.
         13    1    6    6    0    0 -0.17715263536E+02 -0.62051992230E+02  0.21503724892E+02  0.68019780110E+02  0.00000000000E+00 0. -1.
        -14    1    6    6    0    0  0.66007493029E+02 -0.54638398452E+02  0.30995396113E+02  0.91121118856E+02  0.00000000000E+00 0.  1.
</event>
<event>
12    1  0.9246030E-003  0.1952757E+03  0.7818608E-02  0.1154800E+00
         21   -1    0    0  503  502  0.00000000000E+00  0.00000000000E+00  0.46813542871E+03  0.46813542871E+03  0.00000000000E+00 0.  1.
         21   -1    0    0  501  503 -0.00000000000E+00 -0.00000000000E+00 -0.79690617349E+02  0.79690617349E+02  0.00000000000E+00 0.  1.
          6    2    1    2  501    0 -0.52056309187E+02 -0.61616069710E+02  0.18504061836E+03  0.26902163519E+03  0.17783759553E+03 0.  0.
         24    2    3    3    0    0 -0.34667600891E+02  0.38784769791E+02  0.10664434420E+03  0.14037187207E+03  0.75000969323E+02 0.  0.
         -6    2    1    2    0  502  0.52056309187E+02  0.61616069710E+02  0.20340419301E+03  0.27880441087E+03  0.17277799170E+03 0.  0.
        -24    2    5    5    0    0  0.34694692160E+02  0.35963619397E+02  0.24435751071E+02  0.97114380431E+02  0.79605234576E+02 0.  0.
          5    1    3    3  501    0 -0.17388708296E+02 -0.10040083950E+03  0.78396274154E+02  0.12864976312E+03  0.47000000000E+01 0. -1.
        -11    1    4    4    0    0  0.21417265752E+02 -0.24310136472E+01  0.22229743814E+02  0.30964021213E+02  0.00000000000E+00 0.  1.
         12    1    4    4    0    0 -0.56084866643E+02  0.41215783438E+02  0.84414600388E+02  0.10940785086E+03  0.00000000000E+00 0. -1.
         -5    1    5    5    0  502  0.17361617027E+02  0.25652450314E+02  0.17896844194E+03  0.18169003044E+03  0.47000000000E+01 0.  1.
         13    1    6    6    0    0  0.36162677440E+02 -0.17191273868E+02  0.43678704221E+01  0.40278498344E+02  0.00000000000E+00 0. -1.
        -14    1    6    6    0    0 -0.14679852806E+01  0.53154893265E+02  0.20067880649E+02  0.56835882087E+02  0.00000000000E+00 0.  1.
</event>
<event>
12    1  0.9246030E-003  0.2353320E+03  0.7818608E-02  0.1123004E+00
         21   -1    0    0  501  502  0.00000000000E+00  0.00000000000E+00  0.64124805809E+03  0.64124805809E+03  0.00000000000E+00 0. -1.
         21   -1    0    0  502  503 -0.00000000000E+00 -0.00000000000E+00 -0.86431479722E+02  0.86431479722E+02  0.00000000000E+00 0.  1.
          6    2    1    2  501    0  0.14322387277E+03 -0.70789656670E+02  0.29469070114E+03  0.37689949391E+03  0.17229731847E+03 0.  0.
         24    2    3    3    0    0  0.47148393093E+02  0.27652341980E+02  0.13787727187E+03  0.16825178486E+03  0.79441160760E+02 0.  0.
         -6    2    1    2    0  503 -0.14322387277E+03  0.70789656670E+02  0.26012587723E+03  0.35078004390E+03  0.17279153328E+03 0.  0.
        -24    2    5    5    0    0  0.11523800324E+00  0.21631495190E+02  0.83538353757E+02  0.11804012691E+03  0.80541170513E+02 0.  0.
          5    1    3    3  501    0  0.96075479673E+02 -0.98441998651E+02  0.15681342926E+03  0.20864770905E+03  0.47000000000E+01 0. -1.
        -13    1    4    4    0    0  0.45388507075E+02  0.22703135742E+02  0.14821133685E+03  0.15665934163E+03  0.00000000000E+00 0.  1.
         14    1    4    4    0    0  0.17598860183E+01  0.49492062388E+01 -0.10334064981E+02  0.11592443238E+02  0.00000000000E+00 0. -1.
         -5    1    5    5    0  503 -0.14333911077E+03  0.49158161480E+02  0.17658752348E+03  0.23273991700E+03  0.47000000000E+01 0.  1.
         11    1    6    6    0    0  0.31880000649E+02  0.77806308274E+01  0.75706763468E+02  0.82512948634E+02  0.00000000000E+00 0. -1.
        -12    1    6    6    0    0 -0.31764762646E+02  0.13850864362E+02  0.78315902888E+01  0.35527178272E+02  0.00000000000E+00 0.  1.
</event>
<event>
12    1  0.9246030E-003  0.2247369E+03  0.7818608E-02  0.1130426E+00
         21   -1    0    0  503  502  0.00000000000E+00  0.00000000000E+00  0.14177583030E+03  0.14177583030E+03  0.00000000000E+00 0. -1.
         21   -1    0    0  501  503 -0.00000000000E+00 -0.00000000000E+00 -0.35950529131E+03  0.35950529131E+03  0.00000000000E+00 0.  1.
          6    2    1    2  501    0  0.13199195454E+03  0.60656533449E+02 -0.13359384611E+03  0.26144592895E+03  0.17148051474E+03 0.  0.
         24    2    3    3    0    0  0.12842506722E+03  0.14327563379E+02 -0.14822190805E+03  0.21250549221E+03  0.80564093940E+02 0.  0.
         -6    2    1    2    0  502 -0.13199195454E+03 -0.60656533449E+02 -0.84135614892E+02  0.23983519265E+03  0.17129222641E+03 0.  0.
        -24    2    5    5    0    0 -0.10148778813E+03 -0.10115873238E+03 -0.90753475968E+02  0.18848523284E+03  0.82204801103E+02 0.  0.
          5    1    3    3  501    0  0.35668873236E+01  0.46328970071E+02  0.14628061932E+02  0.48940436746E+02  0.47000000000E+01 0. -1.
        -11    1    4    4    0    0  0.42874852981E+02 -0.11280277594E+02 -0.10357804018E+03  0.11266724496E+03  0.00000000000E+00 0.  1.
         12    1    4    4    0    0  0.85550214234E+02  0.25607840973E+02 -0.44643867871E+02  0.99838247247E+02  0.00000000000E+00 0. -1.
         -5    1    5    5    0  502 -0.30504166413E+02  0.40502198932E+02  0.66178610769E+01  0.51349959806E+02  0.47000000000E+01 0.  1.
         13    1    6    6    0    0 -0.80306654149E+02 -0.41138935876E+02 -0.18339260656E+02  0.92075508291E+02  0.00000000000E+00 0. -1.
        -14    1    6    6    0    0 -0.21181133976E+02 -0.60019796505E+02 -0.72414215313E+02  0.96409724553E+02  0.00000000000E+00 0.  1.
</event>
<event>
12    1  0.9246030E-003  0.2033284E+03  0.7818608E-02  0.1148896E+00
         21   -1    0    0  501  502  0.00000000000E+00  0.00000000000E+00  0.58203630292E+03  0.58203630292E+03  0.00000000000E+00 0. -1.
         21   -1    0    0  502  503 -0.00000000000E+00 -0.00000000000E+00 -0.78469958513E+02  0.78469958513E+02  0.00000000000E+00 0.  1.
          6    2    1    2  501    0 -0.44672544839E+02  0.10128845188E+03  0.13545384611E+03  0.24431573091E+03  0.17055041835E+03 0.  0.
         24    2    3    3    0    0 -0.78198249371E+01  0.51072668782E+02  0.15309931901E+03  0.17940655938E+03  0.77959892933E+02 0.  0.
         -6    2    1    2    0  503  0.44672544839E+02 -0.10128845188E+03  0.36811249830E+03  0.41619053052E+03  0.15953921006E+03 0.  0.
        -24    2    5    5    0    0  0.63108365952E+02 -0.12228817418E+03  0.34135209330E+03  0.37721519072E+03  0.82661872194E+02 0.  0.
          5    1    3    3  501    0 -0.36852719902E+02  0.50215783097E+02 -0.17645472899E+02  0.64909171540E+02  0.47000000000E+01 0. -1.
        -11    1    4    4    0    0  0.61897841794E+01 -0.18481310057E+02  0.16737912101E+02  0.25691048073E+02  0.00000000000E+00 0.  1.
         12    1    4    4    0    0 -0.14009609116E+02  0.69553978838E+02  0.13636140691E+03  0.15371551130E+03  0.00000000000E+00 0. -1.
         -5    1    5    5    0  503 -0.18435821113E+02  0.20999722299E+02  0.26760404997E+02  0.38975339798E+02  0.47000000000E+01 0.  1.
         11    1    6    6    0    0  0.49203304296E+00  0.95125868004E+01  0.55097452393E+02  0.55914762490E+02  0.00000000000E+00 0. -1.
        -12    1    6    6    0    0  0.62616332909E+02 -0.13180076098E+03  0.28625464091E+03  0.32130042823E+03  0.00000000000E+00 0.  1.
</event>
<event>
12    1  0.9246030E-003  0.1792272E+03  0.7818608E-02  0.1168881E+00
         21   -1    0    0  501  502  0.00000000000E+00  0.00000000000E+00  0.83388791305E+02  0.83388791305E+02  0.00000000000E+00 0. -1.
         21   -1    0    0  502  503 -0.00000000000E+00 -0.00000000000E+00 -0.43469029425E+03  0.43469029425E+03  0.00000000000E+00 0. -1.
          6    2    1    2  501    0 -0.19982657793E+02 -0.46020935002E+02 -0.85171440432E+02  0.19722458668E+03  0.17066379305E+03 0.  0.
         24    2    3    3    0    0  0.18843035373E+02  0.50982888703E+01 -0.10153488070E+03  0.13081327984E+03  0.80135695257E+02 0.  0.
         -6    2    1    2    0  503  0.19982657793E+02  0.46020935002E+02 -0.26613006251E+03  0.32085449887E+03  0.17206151865E+03 0.  0.
        -24    2    5    5    0    0 -0.38093573494E+02  0.23507525428E+02 -0.79046867470E+02  0.12361881721E+03  0.83841997942E+02 0.  0.
          5    1    3    3  501    0 -0.38825693165E+02 -0.51119223872E+02  0.16363440264E+02  0.66411306841E+02  0.47000000000E+01 0. -1.
        -11    1    4    4    0    0 -0.19282490512E+02 -0.25803579737E+02 -0.51375131536E+02  0.60638628843E+02  0.00000000000E+00 0.  1.
         12    1    4    4    0    0  0.38125525884E+02  0.30901868608E+02 -0.50159749159E+02  0.70174651001E+02  0.00000000000E+00 0. -1.
         -5    1    5    5    0  503  0.58076231287E+02  0.22513409574E+02 -0.18708319504E+03  0.19723568165E+03  0.47000000000E+01 0.  1.
         13    1    6    6    0    0 -0.37758929119E+02  0.27201755889E+01 -0.91751243532E+02  0.99254353925E+02  0.00000000000E+00 0. -1.
        -14    1    6    6    0    0 -0.33464437454E+00  0.20787349839E+02  0.12704376062E+02  0.24364463288E+02  0.00000000000E+00 0.  1.
</event>
<event>
12    1  0.9246030E-003  0.1855871E+03  0.7818608E-02  0.1162821E+00
         21   -1    0    0  501  502  0.00000000000E+00  0.00000000000E+00  0.27911660675E+03  0.27911660675E+03  0.00000000000E+00 0. -1.
         21   -1    0    0  502  503 -0.00000000000E+00 -0.00000000000E+00 -0.12286878074E+03  0.12286878074E+03  0.00000000000E+00 0. -1.
          6    2    1    2  501    0 -0.44988013675E+01 -0.67385172829E+02  0.88922728623E+02  0.20456388417E+03  0.17140049682E+03 0.  0.
         24    2    3    3    0    0  0.28786713635E+02 -0.29488940570E+01  0.99248520774E+02  0.13115631293E+03  0.80711453266E+02 0.  0.
         -6    2    1    2    0  503  0.44988013675E+01  0.67385172829E+02  0.67325097389E+02  0.19742150332E+03  0.17286289510E+03 0.  0.
        -24    2    5    5    0    0 -0.50657119338E+02  0.66690130716E+02  0.79958412421E+02  0.14063814906E+03  0.79824958368E+02 0.  0.
          5    1    3    3  501    0 -0.33285515002E+02 -0.64436278772E+02 -0.10325792150E+02  0.73407571234E+02  0.47000000000E+01 0. -1.
        -11    1    4    4    0    0  0.52680369981E+02 -0.10686582341E+01  0.36809325390E+02  0.64275110637E+02  0.00000000000E+00 0.  1.
         12    1    4    4    0    0 -0.23893656347E+02 -0.18802358230E+01  0.62439195384E+02  0.66881202296E+02  0.00000000000E+00 0. -1.
         -5    1    5    5    0  503  0.55155920705E+02  0.69504211363E+00 -0.12633315033E+02  0.56783354261E+02  0.47000000000E+01 0.  1.
         13    1    6    6    0    0  0.99532233264E+01  0.38564555196E+02  0.57894590054E+02  0.70271438932E+02  0.00000000000E+00 0. -1.
        -14    1    6    6    0    0 -0.60610342664E+02  0.28125575519E+02  0.22063822368E+02  0.70366710124E+02  0.00000000000E+00 0.  1.
</event>
<event>
12    1  0.9246030E-003  0.2378192E+03  0.7818608E-02  0.1121308E+00
         21   -1    0    0  503  502  0.00000000000E+00  0.00000000000E+00  0.39193912763E+03  0.39193912763E+03  0.00000000000E+00 0.  1.
         21   -1    0    0  501  503 -0.00000000000E+00 -0.00000000000E+00 -0.16273880219E+03  0.16273880219E+03  0.00000000000E+00 0.  1.
          6    2    1    2  501    0  0.13326061559E+03  0.93904189909E+02  0.20850246997E+03  0.31627713858E+03  0.17315184047E+03 0.  0.
         24    2    3    3    0    0  0.19522909703E+02  0.75846854454E+02  0.12915084119E+03  0.17634464023E+03  0.91014301216E+02 0.  0.
         -6    2    1    2    0  502 -0.13326061559E+03 -0.93904189909E+02  0.20697855474E+02  0.23840079123E+03  0.17271406281E+03 0.  0.
        -24    2    5    5    0    0 -0.65502469581E+02 -0.11499230819E+03  0.49065902881E+02  0.16183244793E+03  0.79173694577E+02 0.  0.
          5    1    3    3  501    0  0.11373770588E+03  0.18057335455E+02  0.79351628779E+02  0.13993249835E+03  0.47000000000E+01 0. -1.
        -13    1    4    4    0    0  0.34384521385E+02 -0.57477636991E+01  0.23559309695E+02  0.42075802686E+02  0.00000000000E+00 0.  1.
         14    1    4    4    0    0 -0.14861611682E+02  0.81594618153E+02  0.10559153149E+03  0.13426883755E+03  0.00000000000E+00 0. -1.
         -5    1    5    5    0  502 -0.67758146005E+02  0.21088118283E+02 -0.28368047406E+02  0.76568343305E+02  0.47000000000E+01 0.  1.
         11    1    6    6    0    0 -0.55084104202E+01 -0.45067269953E+01  0.34548252887E+02  0.35273714733E+02  0.00000000000E+00 0. -1.
        -12    1    6    6    0    0 -0.59994059161E+02 -0.11048558120E+03  0.14517649994E+02  0.12655873320E+03  0.00000000000E+00 0.  1.
</event>
<event>
12    1  0.9246030E-003  0.1869882E+03  0.7818608E-02  0.1161875E+00
         21   -1    0    0  501  502  0.00000000000E+00  0.00000000000E+00  0.39611457011E+02  0.39611457011E+02  0.00000000000E+00 0.  1.
         21   -1    0    0  502  503 -0.00000000000E+00 -0.00000000000E+00 -0.87346633752E+03  0.87346633752E+03  0.00000000000E+00 0.  1.
          6    2    1    2  501    0 -0.46862754627E+02  0.49069313565E+02 -0.38159158467E+03  0.42368360447E+03  0.17114830965E+03 0.  0.
         24    2    3    3    0    0 -0.71603376268E+02  0.72591326068E+02 -0.19604308810E+03  0.23496233377E+03  0.79861516316E+02 0.  0.
         -6    2    1    2    0  503  0.46862754627E+02 -0.49069313565E+02 -0.45226329584E+03  0.48939419006E+03  0.17424313244E+03 0.  0.
        -24    2    5    5    0    0  0.37897335417E+02 -0.79286577757E+02 -0.19356841048E+03  0.22874385819E+03  0.84453855324E+02 0.  0.
          5    1    3    3  501    0  0.24740621641E+02 -0.23522012503E+02 -0.18554849658E+03  0.18872127070E+03  0.47000000000E+01 0. -1.
        -11    1    4    4    0    0 -0.35108212423E+02  0.21496707160E+01 -0.12007651957E+03  0.12512225308E+03  0.00000000000E+00 0.  1.
         12    1    4    4    0    0 -0.36495163846E+02  0.70441655352E+02 -0.75966568524E+02  0.10984008069E+03  0.00000000000E+00 0. -1.
         -5    1    5    5    0  503  0.89654192098E+01  0.30217264192E+02 -0.25869488536E+03  0.26065033187E+03  0.47000000000E+01 0.  1.
         11    1    6    6    0    0 -0.69027367209E+01 -0.40236703031E+02 -0.14890980698E+03  0.15440456813E+03  0.00000000000E+00 0. -1.
        -12    1    6    6    0    0  0.44800072138E+02 -0.39049874726E+02 -0.44658603501E+02  0.74339290058E+02  0.00000000000E+00 0.  1.
</event>
<event>
12    1  0.9246030E-003  0.1861630E+03  0.7818608E-02  0.1162068E+00
         21   -1    0    0  503  502  0.00000000000E+00  0.00000000000E+00  0.10207774464E+03  0.10207774464E+03  0.00000000000E+00 0.  1.
         21   -1    0    0  501  503 -0.00000000000E+00 -0.00000000000E+00 -0.34246965880E+03  0.34246965880E+03  0.00000000000E+00 0.  1.
          6    2    1    2  501    0 -0.10989120078E+02 -0.68171469550E+02 -0.96816594860E+02  0.20945052658E+03  0.17241798057E+03 0.  0.
         24    2    3    3    0    0  0.11434562318E+02  0.17820152716E+02 -0.59212507378E+01  0.82244260168E+02  0.79251183348E+02 0.  0.
         -6    2    1    2    0  502  0.10989120078E+02  0.68171469550E+02 -0.14357531931E+03  0.23509687686E+03  0.17288307949E+03 0.  0.
        -24    2    5    5    0    0  0.43992341755E+02  0.10202995004E+03 -0.95251996145E+02  0.16732636038E+03  0.81115542723E+02 0.  0.
          5    1    3    3  501    0 -0.22423682396E+02 -0.85991622266E+02 -0.90895344122E+02  0.12720626641E+03  0.47000000000E+01 0. -1.
        -13    1    4    4    0    0 -0.11721948483E+02 -0.51703272354E+01  0.30657026648E+02  0.33226339595E+02  0.00000000000E+00 0.  1.
         14    1    4    4    0    0  0.23156510801E+02  0.22990479951E+02 -0.36578277386E+02  0.49017920574E+02  0.00000000000E+00 0. -1.
         -5    1    5    5    0  502 -0.33003221677E+02 -0.33858480489E+02 -0.48323323162E+02  0.67770516477E+02  0.47000000000E+01 0.  1.
         13    1    6    6    0    0  0.67037522228E+02  0.66432008938E+02 -0.73775798711E+02  0.11979194327E+03  0.00000000000E+00 0. -1.
        -14    1    6    6    0    0 -0.23045180472E+02  0.35597941101E+02 -0.21476197433E+02  0.47534417108E+02  0.00000000000E+00 0.  1.
</event>
<event>
12    1  0.9246030E-003  0.1954897E+03  0.7818608E-02  0.1153833E+00
         21   -1    0    0  501  502  0.00000000000E+00  0.00000000000E+00  0.16972620305E+03  0.16972620305E+03  0.00000000000E+00 0.  1.
         21   -1    0    0  502  503 -0.00000000000E+00 -0.00000000000E+00 -0.25433411703E+03  0.25433411703E+03  0.00000000000E+00 0.  1.
          6    2    1    2  501    0 -0.79553134769E+02  0.45777085640E+02  0.30893161467E+02  0.19791563358E+03  0.17260349872E+03 0.  0.
         24    2    3    3    0    0 -0.10773273218E+03  0.31347774271E+02 -0.18777692016E+02  0.13882605394E+03  0.79567876682E+02 0.  0.
         -6    2    1    2    0  503  0.79553134769E+02 -0.45777085640E+02 -0.11550107545E+03  0.22614468649E+03  0.17139626010E+03 0.  0.
        -24    2    5    5    0    0  0.11362616627E+03 -0.20077265114E+02 -0.87227329320E+02  0.17473508650E+03  0.98029287667E+02 0.  0.
          5    1    3    3  501    0  0.28179597413E+02  0.14429311369E+02  0.49670853482E+02  0.59089579645E+02  0.47000000000E+01 0. -1.
        -11    1    4    4    0    0 -0.80666568949E+02  0.53895825668E+02  0.36178759882E+01  0.97082152825E+02  0.00000000000E+00 0.  1.
         12    1    4    4    0    0 -0.27066163233E+02 -0.22548051398E+02 -0.22395568004E+02  0.41743901114E+02  0.00000000000E+00 0. -1.
         -5    1    5    5    0  503 -0.34073031499E+02 -0.25699820525E+02 -0.28273746129E+02  0.51409599986E+02  0.47000000000E+01 0.  1.
         13    1    6    6    0    0  0.43536106065E+01 -0.33993125117E+02 -0.45452682188E+02  0.56924799504E+02  0.00000000000E+00 0. -1.
        -14    1    6    6    0    0  0.10927255566E+03  0.13915860002E+02 -0.41774647132E+02  0.11781028700E+03  0.00000000000E+00 0.  1.
</event>
<event>
12    1  0.9246030E-003  0.1848342E+03  0.7818608E-02  0.1163425E+00
         21   -1    0    0  501  502  0.00000000000E+00  0.00000000000E+00  0.62958966744E+03  0.62958966744E+03  0.00000000000E+00 0. -1.
         21   -1    0    0  502  503 -0.00000000000E+00 -0.00000000000E+00 -0.54337256025E+02  0.54337256025E+02  0.00000000000E+00 0. -1.
          6    2    1    2  501    0  0.64137617135E+02  0.92291539558E+01  0.31576428610E+03  0.36588356117E+03  0.17310368207E+03 0.  0.
         24    2    3    3    0    0  0.55126525808E+02 -0.49288830177E+02  0.26590992031E+03  0.28833936718E+03  0.83445684836E+02 0.  0.
         -6    2    1    2    0  503 -0.64137617135E+02 -0.92291539558E+01  0.25948812531E+03  0.31804336229E+03  0.17210078996E+03 0.  0.
        -24    2    5    5    0    0 -0.91216682613E+02 -0.31301691347E+02  0.10861720286E+03  0.16310918938E+03  0.74206683222E+02 0.  0.
          5    1    3    3  501    0  0.90110913264E+01  0.58517984133E+02  0.49854365793E+02  0.77544193996E+02  0.47000000000E+01 0. -1.
        -13    1    4    4    0    0  0.74626934776E+02 -0.46268427758E+02  0.24139867874E+03  0.25687208665E+03  0.00000000000E+00 0.  1.
         14    1    4    4    0    0 -0.19500408968E+02 -0.30204024188E+01  0.24511241566E+02  0.31467280527E+02  0.00000000000E+00 0. -1.
         -5    1    5    5    0  503  0.27079065478E+02  0.22072537391E+02  0.15087092245E+03  0.15493417291E+03  0.47000000000E+01 0.  1.
         13    1    6    6    0    0 -0.44359592521E+02 -0.43623758137E+02  0.93588704686E+02  0.11238172168E+03  0.00000000000E+00 0. -1.
        -14    1    6    6    0    0 -0.46857090093E+02  0.12322066791E+02  0.15028498172E+02  0.50727467700E+02  0.00000000000E+00 0.  1.
</event>
<event>
12    1  0.9246030E-003  0.2284660E+03  0.7818608E-02  0.1127903E+00
         21   -1    0    0  501  502  0.00000000000E+00  0.00000000000E+00  0.41330451502E+03  0.41330451502E+03  0.00000000000E+00 0. -1.
         21   -1    0    0  502  503 -0.00000000000E+00 -0.00000000000E+00 -0.13156256009E+03  0.13156256009E+03  0.00000000000E+00 0.  1.
          6    2    1    2  501    0 -0.14064387167E+03 -0.52397334319E+02  0.19850099237E+03  0.30265384989E+03  0.17225135587E+03 0.  0.
         24    2    3    3    0    0 -0.93312736105E+02 -0.83858760437E+02  0.75396705055E+02  0.16698213846E+03  0.80366740696E+02 0.  0.
         -6    2    1    2    0  503  0.14064387167E+03  0.52397334319E+02  0.83240962565E+02  0.24221322522E+03  0.17091521096E+03 0.  0.
        -24    2    5    5    0    0  0.14715448234E+03  0.14471557289E+02  0.21447078198E+02  0.16926580059E+03  0.79542859159E+02 0.  0.
          5    1    3    3  501    0 -0.47331135567E+02  0.31461426118E+02  0.12310428732E+03  0.13567171143E+03  0.47000000000E+01 0. -1.
        -11    1    4    4    0    0 -0.64876050312E+02 -0.26799030004E+02  0.26364430534E+01  0.70242727347E+02  0.00000000000E+00 0.  1.
         12    1    4    4    0    0 -0.28436685794E+02 -0.57059730433E+02  0.72760262001E+02  0.96739411113E+02  0.00000000000E+00 0. -1.
         -5    1    5    5    0  503 -0.65106106638E+01  0.37925777031E+02  0.61793884368E+02  0.72947424628E+02  0.47000000000E+01 0.  1.
         13    1    6    6    0    0  0.77143967937E+02 -0.31406653690E+02  0.19477319498E+02  0.85539088491E+02  0.00000000000E+00 0. -1.
        -14    1    6    6    0    0  0.70010514400E+02  0.45878210979E+02  0.19697586995E+01  0.83726712096E+02  0.00000000000E+00 0.  1.
</event>
<event>
12    1  0.9246030E-003  0.1917027E+03  0.7818608E-02  0.1156966E+00
         21   -1    0    0  503  502  0.00000000000E+00  0.00000000000E+00  0.57108681843E+03  0.57108681843E+03  0.00000000000E+00 0.  1.
         21   -1    0    0  501  503 -0.00000000000E+00 -0.00000000000E+00 -0.64570930476E+02  0.64570930476E+02  0.00000000000E+00 0. -1.
          6    2    1    2  501    0  0.65161662569E+01 -0.85485371546E+02  0.23270258621E+03  0.30140684624E+03  0.17130494494E+03 0.  0.
         24    2    3    3    0    0  0.38224073114E+02  0.51646109897E+01  0.74724294150E+02  0.11646890678E+03  0.80582461722E+02 0.  0.
         -6    2    1    2    0  502 -0.65161662569E+01  0.85485371546E+02  0.27381330174E+03  0.33425090266E+03  0.17146350209E+03 0.  0.
        -24    2    5    5    0    0 -0.10957241944E+02  0.49338209180E+02  0.42752381829E+02  0.10029026663E+03  0.75339573887E+02 0.  0.
          5    1    3    3  501    0 -0.31707906857E+02 -0.90649982536E+02  0.15797829206E+03  0.18493793947E+03  0.47000000000E+01 0. -1.
        -11    1    4    4    0    0 -0.21949335354E+02  0.95956615848E+00  0.43064394021E+02  0.48344969977E+02  0.00000000000E+00 0.  1.
         12    1    4    4    0    0  0.60173408468E+02  0.42050448312E+01  0.31659900129E+02  0.68123936798E+02  0.00000000000E+00 0. -1.
         -5    1    5    5    0  502  0.44410756872E+01  0.36147162366E+02  0.23106091991E+03  0.23396063603E+03  0.47000000000E+01 0.  1.
         13    1    6    6    0    0  0.17967964149E+02 -0.47398369035E+00  0.38551645095E+02  0.42535887622E+02  0.00000000000E+00 0. -1.
        -14    1    6    6    0    0 -0.28925206093E+02  0.49812192870E+02  0.42007367331E+01  0.57754379013E+02  0.00000000000E+00 0.  1.
</event>
<event>
12    1  0.9246030E-003  0.2157130E+03  0.7818608E-02  0.1138311E+00
         21   -1    0    0  503  502  0.00000000000E+00  0.00000000000E+00  0.42586496152E+03  0.42586496152E+03  0.00000000000E+00 0.  1.
         21   -1    0    0  501  503 -0.00000000000E+00 -0.00000000000E+00 -0.10627288071E+03  0.10627288071E+03  0.00000000000E+00 0.  1.
          6    2    1    2  501    0 -0.73653092673E+02  0.10734225642E+03  0.15427650795E+03  0.26520435754E+03  0.17200282636E+03 0.  0.
         24    2    3    3    0    0 -0.11754858218E+02  0.10745679421E+02  0.13058730690E+02  0.83196553496E+02  0.80607008060E+02 0.  0.
         -6    2    1    2    0  502  0.73653092673E+02 -0.10734225642E+03  0.16531557286E+03  0.26693348469E+03  0.16424709600E+03 0.  0.
        -24    2    5    5    0    0  0.72883475576E+02 -0.13058163035E+03  0.98401900570E+02  0.19593918667E+03  0.79659698977E+02 0.  0.
          5    1    3    3  501    0 -0.61898234455E+02  0.96596576996E+02  0.14121777726E+03  0.18200780404E+03  0.47000000000E+01 0. -1.
        -13    1    4    4    0    0  0.16244554760E+02  0.36941586295E+02  0.18634641542E+02  0.44450154361E+02  0.00000000000E+00 0.  1.
         14    1    4    4    0    0 -0.27999412978E+02 -0.26195906874E+02 -0.55759108514E+01  0.38746399134E+02  0.00000000000E+00 0. -1.
         -5    1    5    5    0  502  0.76961709671E+00  0.23239373937E+02  0.66913672286E+02  0.70994298012E+02  0.47000000000E+01 0.  1.
         13    1    6    6    0    0  0.48827764596E+02 -0.42193629451E+02  0.79519980663E+02  0.10241035244E+03  0.00000000000E+00 0. -1.
        -14    1    6    6    0    0  0.24055710980E+02 -0.88388000904E+02  0.18881919907E+02  0.93528834238E+02  0.00000000000E+00 0.  1.
</event>
<event>
12    1  0.9246030E-003  0.1813935E+03  0.7818608E-02  0.1166782E+00
         21   -1    0    0  501  502  0.00000000000E+00  0.00000000000E+00  0.27591229917E+02  0.27591229917E+02  0.00000000000E+00 0.  1.
         21   -1    0    0  502  503 -0.00000000000E+00 -0.00000000000E+00 -0.15413475576E+04  0.15413475576E+04  0.00000000000E+00 0.  1.
          6    2    1    2  501    0 -0.47230890155E+02  0.24711010313E+02 -0.37689202718E+03  0.41769422596E+03  0.17198684612E+03 0.  0.
         24    2    3    3    0    0  0.17654411171E+02  0.20165198044E+02 -0.76003526712E+02  0.10981966312E+03  0.74602338355E+02 0.  0.
         -6    2    1    2    0  503  0.47230890155E+02 -0.24711010313E+02 -0.11368643005E+04  0.11512445616E+04  0.17338457753E+03 0.  0.
        -24    2    5    5    0    0  0.75684865976E+02  0.13263726266E+02 -0.47481593951E+03  0.48748117626E+03  0.79269132849E+02 0.  0.
          5    1    3    3  501    0 -0.64885301326E+02  0.45458122688E+01 -0.30088850046E+03  0.30787456285E+03  0.47000000000E+01 0. -1.
        -11    1    4    4    0    0  0.27054864252E+02 -0.10817611429E+02 -0.21926751789E+01  0.29219757377E+02  0.00000000000E+00 0.  1.
         12    1    4    4    0    0 -0.94004530810E+01  0.30982809473E+02 -0.73810851533E+02  0.80599905739E+02  0.00000000000E+00 0. -1.
         -5    1    5    5    0  503 -0.28453975821E+02 -0.37974736579E+02 -0.66204836101E+03  0.66376338531E+03  0.47000000000E+01 0.  1.
         11    1    6    6    0    0 -0.64669264448E+01 -0.10131223231E+02 -0.12502237021E+02  0.17342685845E+02  0.00000000000E+00 0. -1.
        -12    1    6    6    0    0  0.82151792421E+02  0.23394949498E+02 -0.46231370249E+03  0.47013849042E+03  0.00000000000E+00 0.  1.
</event>
<event>
12    1  0.9246030E-003  0.1766924E+03  0.7818608E-02  0.1173380E+00
         21   -1    0    0  501  502  0.00000000000E+00  0.00000000000E+00  0.24105168727E+03  0.24105168727E+03  0.00000000000E+00 0.  1.
         21   -1    0    0  502  503 -0.00000000000E+00 -0.00000000000E+00 -0.17201966217E+03  0.17201966217E+03  0.00000000000E+00 0.  1.
          6    2    1    2  501    0 -0.39551811471E+02  0.18354438134E+02  0.14421207736E+03  0.22104983765E+03  0.16175498841E+03 0.  0.
         24    2    3    3    0    0 -0.23770488536E+02  0.65536439368E+02  0.13602428362E+03  0.17041070890E+03  0.75346817857E+02 0.  0.
         -6    2    1    2    0  503  0.39551811471E+02 -0.18354438134E+02 -0.75180052268E+02  0.19202151179E+03  0.17122788775E+03 0.  0.
        -24    2    5    5    0    0  0.90934938687E+02 -0.17811702544E+02 -0.39154976968E+02  0.12908967267E+03  0.80898773463E+02 0.  0.
          5    1    3    3  501    0 -0.15781322935E+02 -0.47182001234E+02  0.81877937406E+01  0.50639128749E+02  0.47000000000E+01 0. -1.
        -13    1    4    4    0    0 -0.14136968173E+02  0.13182683613E+02  0.10901978501E+03  0.11072014514E+03  0.00000000000E+00 0.  1.
         14    1    4    4    0    0 -0.96335203623E+01  0.52353755756E+02  0.27004498616E+02  0.59690563758E+02  0.00000000000E+00 0. -1.
         -5    1    5    5    0  503 -0.51383127216E+02 -0.54273558978E+00 -0.36025075300E+02  0.62931839118E+02  0.47000000000E+01 0.  1.
         13    1    6    6    0    0  0.45070380008E+02  0.23337659976E+01  0.21859165687E+02  0.50145874630E+02  0.00000000000E+00 0. -1.
        -14    1    6    6    0    0  0.45864558679E+02 -0.20145468541E+02 -0.61014142655E+02  0.78943798043E+02  0.00000000000E+00 0.  1.
</event>
<event>
12    1  0.9246030E-003  0.1955947E+03  0.7818608E-02  0.1154203E+00
         21   -1    0    0  503  502  0.00000000000E+00  0.00000000000E+00  0.80906719698E+03  0.80906719698E+03  0.00000000000E+00 0.  1.
         21   -1    0    0  501  503 -0.00000000000E+00 -0.00000000000E+00 -0.59754388470E+02  0.59754388470E+02  0.00000000000E+00 0.  1.
          6    2    1    2  501    0  0.17935622441E+02 -0.88058688143E+02  0.16787281578E+03  0.25536437378E+03  0.17015775623E+03 0.  0.
         24    2    3    3    0    0  0.64936915304E+02 -0.91455599314E+02  0.90337658217E+02  0.16451036344E+03  0.79509984096E+02 0.  0.
         -6    2    1    2    0  502 -0.17935622441E+02  0.88058688143E+02  0.58143999273E+03  0.61345721167E+03  0.17372756345E+03 0.  0.
        -24    2    5    5    0    0 -0.75121590344E+01  0.32700895858E+02  0.12501805517E+03  0.15354829804E+03  0.82594095364E+02 0.  0.
          5    1    3    3  501    0 -0.47001292863E+02  0.33969111713E+01  0.77535157563E+02  0.90854010338E+02  0.47000000000E+01 0. -1.
        -11    1    4    4    0    0  0.22968901876E+02 -0.11548102078E+02 -0.11731076400E+02  0.28258578671E+02  0.00000000000E+00 0.  1.
         12    1    4    4    0    0  0.41968013428E+02 -0.79907497236E+02  0.10206873462E+03  0.13625178477E+03  0.00000000000E+00 0. -1.
         -5    1    5    5    0  502 -0.10423463406E+02  0.55357792285E+02  0.45642193756E+03  0.45990891363E+03  0.47000000000E+01 0.  1.
         11    1    6    6    0    0 -0.19419180890E+02  0.47676170406E+02  0.12414613595E+03  0.13439637228E+03  0.00000000000E+00 0. -1.
        -12    1    6    6    0    0  0.11907021855E+02 -0.14975274547E+02  0.87191922341E+00  0.19151925761E+02  0.00000000000E+00 0.  1.
</event>
<event>
12    1  0.9246030E-003  0.2844661E+03  0.7818608E-02  0.1093364E+00
         21   -1    0    0  501  502  0.00000000000E+00  0.00000000000E+00  0.14633510320E+03  0.14633510320E+03  0.00000000000E+00 0.  1.
         21   -1    0    0  502  503 -0.00000000000E+00 -0.00000000000E+00 -0.55331336544E+03  0.55331336544E+03  0.00000000000E+00 0.  1.
          6    2    1    2  501    0  0.15273311293E+03 -0.16673037017E+03 -0.22273294120E+03  0.36129063747E+03  0.17261095419E+03 0.  0.
         24    2    3    3    0    0  0.15477721837E+03 -0.18988629501E+03 -0.21742765035E+03  0.33698814103E+03  0.79204997932E+02 0.  0.
         -6    2    1    2    0  503 -0.15273311293E+03  0.16673037017E+03 -0.18424532104E+03  0.33835783117E+03  0.17150295469E+03 0.  0.
        -24    2    5    5    0    0 -0.16757866293E+03  0.17657012784E+03 -0.14386992167E+03  0.29397907432E+03  0.80408478775E+02 0.  0.
          5    1    3    3  501    0 -0.20441054401E+01  0.23155924842E+02 -0.53052908525E+01  0.24302496443E+02  0.47000000000E+01 0. -1.
        -11    1    4    4    0    0  0.14439507724E+03 -0.15045236134E+03 -0.20921312497E+03  0.29539123721E+03  0.00000000000E+00 0.  1.
         12    1    4    4    0    0  0.10382141134E+02 -0.39433933675E+02 -0.82145253724E+01  0.41596903812E+02  0.00000000000E+00 0. -1.
         -5    1    5    5    0  503  0.14845550001E+02 -0.98397576692E+01 -0.40375399366E+02  0.44378756853E+02  0.47000000000E+01 0.  1.
         13    1    6    6    0    0 -0.10037903170E+03  0.50117144891E+02 -0.75979372535E+02  0.13550108216E+03  0.00000000000E+00 0. -1.
        -14    1    6    6    0    0 -0.67199631232E+02  0.12645298295E+03 -0.67890549139E+02  0.15847799215E+03  0.00000000000E+00 0.  1.
</event>
<event>
12    1  0.9246030E-003  0.1749558E+03  0.7818608E-02  0.1174400E+00
         21   -1    0    0  501  502  0.00000000000E+00  0.00000000000E+00  0.67131775199E+02  0.67131775199E+02  0.00000000000E+00 0.  1.
         21   -1    0    0  502  503 -0.00000000000E+00 -0.00000000000E+00 -0.55263639064E+03  0.55263639064E+03  0.00000000000E+00 0.  1.
          6    2    1    2  501    0  0.69566179509E+01 -0.30274610156E+02 -0.10617748985E+03  0.20465379897E+03  0.17217598999E+03 0.  0.
         24    2    3    3    0    0 -0.56281799141E+02 -0.31648141054E+02 -0.33330311898E+02  0.10806298513E+03  0.79984081649E+02 0.  0.
         -6    2    1    2    0  503 -0.69566179509E+01  0.30274610156E+02 -0.37932712560E+03  0.41511436687E+03  0.16572846109E+03 0.  0.
        -24    2    5    5    0    0  0.53175383821E+02  0.45320449733E+02 -0.25509391232E+03  0.27619634714E+03  0.79561004643E+02 0.  0.
          5    1    3    3  501    0  0.63238417092E+02  0.13735308983E+01 -0.72847177948E+02  0.96590813841E+02  0.47000000000E+01 0. -1.
        -11    1    4    4    0    0 -0.35010557987E+02 -0.56857275983E+02 -0.34295691176E+02  0.75064528481E+02  0.00000000000E+00 0.  1.
         12    1    4    4    0    0 -0.21271241154E+02  0.25209134929E+02  0.96537927796E+00  0.32998456650E+02  0.00000000000E+00 0. -1.
         -5    1    5    5    0  503 -0.60132001772E+02 -0.15045839577E+02 -0.12423321327E+03  0.13891801973E+03  0.47000000000E+01 0.  1.
         13    1    6    6    0    0  0.12180220604E+01  0.33710172875E+02 -0.30825544840E+02  0.45695443401E+02  0.00000000000E+00 0. -1.
        -14    1    6    6    0    0  0.51957361761E+02  0.11610276858E+02 -0.22426836748E+03  0.23050090374E+03  0.00000000000E+00 0.  1.
</event>
<event>
12    1  0.9246030E-003  0.2472806E+03  0.7818608E-02  0.1115316E+00
         21   -1    0    0  503  502  0.00000000000E+00  0.00000000000E+00  0.10498006112E+03  0.10498006112E+03  0.00000000000E+00 0.  1.
         21   -1    0    0  501  503 -0.00000000000E+00 -0.00000000000E+00 -0.65311179116E+03  0.65311179116E+03  0.00000000000E+00 0. -1.
          6    2    1    2  501    0 -0.17358569323E+03  0.29624594814E+02 -0.40314313992E+03  0.47293983847E+03  0.17360325467E+03 0.  0.
         24    2    3    3    0    0 -0.13903050410E+03  0.85547302283E+02 -0.30029982911E+03  0.35079137600E+03  0.78909949369E+02 0.  0.
         -6    2    1    2    0  502  0.17358569323E+03 -0.29624594814E+02 -0.14498859011E+03  0.28515201381E+03  0.17111507884E+03 0.  0.
        -24    2    5    5    0    0  0.26033891443E+02  0.23215002498E+02 -0.38438029158E+02  0.95577043700E+02  0.80254528546E+02 0.  0.
          5    1    3    3  501    0 -0.34555189124E+02 -0.55922707469E+02 -0.10284331081E+03  0.12214846247E+03  0.47000000000E+01 0. -1.
        -11    1    4    4    0    0  0.22067314302E+01  0.13332084438E+02 -0.69076504516E+02  0.70385919155E+02  0.00000000000E+00 0.  1.
         12    1    4    4    0    0 -0.14123723553E+03  0.72215217844E+02 -0.23122332460E+03  0.28040545684E+03  0.00000000000E+00 0. -1.
         -5    1    5    5    0  502  0.14755180178E+03 -0.52839597312E+02 -0.10655056095E+03  0.18957497011E+03  0.47000000000E+01 0.  1.
         11    1    6    6    0    0  0.16720851411E+02 -0.16997004917E+02 -0.47652588047E+02  0.53284652534E+02  0.00000000000E+00 0. -1.
        -12    1    6    6    0    0  0.93130400324E+01  0.40212007416E+02  0.92145588890E+01  0.42292391166E+02  0.00000000000E+00 0.  1.
</event>
<event>
12    1  0.9246030E-003  0.2301073E+03  0.7818608E-02  0.1126877E+00
         21   -1    0    0  501  502  0.00000000000E+00  0.00000000000E+00  0.24769233462E+02  0.24769233462E+02  0.00000000000E+00 0. -1.
         21   -1    0    0  502  503 -0.00000000000E+00 -0.00000000000E+00 -0.23875062226E+04  0.23875062226E+04  0.00000000000E+00 0.  1.
          6    2    1    2  501    0 -0.25321269992E+02  0.14449892886E+03 -0.77456065512E+03  0.80751583605E+03  0.17497574077E+03 0.  0.
         24    2    3    3    0    0  0.19628079531E+02  0.15718291483E+03 -0.53895549368E+03  0.56728009845E+03  0.79006048562E+02 0.  0.
         -6    2    1    2    0  503  0.25321269992E+02 -0.14449892886E+03 -0.15881763340E+04  0.16047596200E+04  0.17728018199E+03 0.  0.
        -24    2    5    5    0    0  0.15820819377E+02 -0.54372599279E+01 -0.27850708029E+03  0.28768557103E+03  0.70120837761E+02 0.  0.
          5    1    3    3  501    0 -0.44949349523E+02 -0.12683985976E+02 -0.23560516144E+03  0.24023573760E+03  0.47000000000E+01 0. -1.
        -11    1    4    4    0    0 -0.30830093146E+02  0.63083812738E+02 -0.20917184324E+03  0.22064206779E+03  0.00000000000E+00 0.  1.
         12    1    4    4    0    0  0.50458172677E+02  0.94099102094E+02 -0.32978365044E+03  0.34663803067E+03  0.00000000000E+00 0. -1.
         -5    1    5    5    0  503  0.95004506151E+01 -0.13906166893E+03 -0.13096692537E+04  0.13170740490E+04  0.47000000000E+01 0.  1.
         11    1    6    6    0    0  0.12836645673E+02 -0.21348482519E+02 -0.31551387676E+02  0.40199841321E+02  0.00000000000E+00 0. -1.
        -12    1    6    6    0    0  0.29841737044E+01  0.15911222591E+02 -0.24695569261E+03  0.24748572971E+03  0.00000000000E+00 0.  1.
</event>
<event>
12    1  0.9246030E-003  0.1826177E+03  0.7818608E-02  0.1166284E+00
         21   -1    0    0  503  502  0.00000000000E+00  0.00000000000E+00  0.83452338162E+02  0.83452338162E+02  0.00000000000E+00 0. -1.
         21   -1    0    0  501  503 -0.00000000000E+00 -0.00000000000E+00 -0.39067354843E+03  0.39067354843E+03  0.00000000000E+00 0. -1.
          6    2    1    2  501    0  0.39315610491E+02 -0.29903833841E+02 -0.15694160437E+03  0.24079010235E+03  0.17581026620E+03 0.  0.
         24    2    3    3    0    0 -0.25047314752E+02  0.33177391781E+02 -0.97400512098E+02  0.13267415144E+03  0.79921607853E+02 0.  0.
         -6    2    1    2    0  502 -0.39315610491E+02  0.29903833841E+02 -0.15027960589E+03  0.23333578424E+03  0.17152746647E+03 0.  0.
        -24    2    5    5    0    0  0.25294734429E+02  0.29535495613E+02 -0.14226609590E+03  0.16805991821E+03  0.80574964940E+02 0.  0.
          5    1    3    3  501    0  0.64362925243E+02 -0.63081225622E+02 -0.59541092274E+02  0.10811595091E+03  0.47000000000E+01 0. -1.
        -13    1    4    4    0    0 -0.36345390524E+02  0.52356102035E+02 -0.52556060975E+02  0.82609251164E+02  0.00000000000E+00 0.  1.
         14    1    4    4    0    0  0.11298075773E+02 -0.19178710254E+02 -0.44844451123E+02  0.50064900276E+02  0.00000000000E+00 0. -1.
         -5    1    5    5    0  502 -0.64610344920E+02  0.36833822851E+00 -0.80135099941E+01  0.65275866031E+02  0.47000000000E+01 0.  1.
         13    1    6    6    0    0 -0.66492867040E+01 -0.19654871643E+02 -0.79464751400E+02  0.82129006496E+02  0.00000000000E+00 0. -1.
        -14    1    6    6    0    0  0.31944021133E+02  0.49190367255E+02 -0.62801344497E+02  0.85930911711E+02  0.00000000000E+00 0.  1.
</event>
<event>
12    1  0.9246030E-003  0.1956786E+03  0.7818608E-02  0.1153589E+00
         21   -1    0    0  503  502  0.00000000000E+00  0.00000000000E+00  0.25130193110E+03  0.25130193110E+03  0.00000000000E+00 0.  1.
         21   -1    0    0  501  503 -0.00000000000E+00 -0.00000000000E+00 -0.16875054156E+03  0.16875054156E+03  0.00000000000E+00 0.  1.
          6    2    1    2  501    0  0.92456389352E+02  0.56098093658E+01  0.10786118512E+03  0.22343711873E+03  0.17236721520E+03 0.  0.
         24    2    3    3    0    0  0.12057473447E+03  0.19715793817E+02  0.85958437663E+02  0.18481794634E+03  0.10882022406E+03 0.  0.
         -6    2    1    2    0  502 -0.92456389352E+02 -0.56098093658E+01 -0.25309795589E+02  0.19661535393E+03  0.17157318484E+03 0.  0.
        -24    2    5    5    0    0  0.12861916905E+02  0.28224193958E+02  0.73157904412E+01  0.81189168526E+02  0.74673464264E+02 0.  0.
          5    1    3    3  501    0 -0.28118345121E+02 -0.14105984451E+02  0.21902747461E+02  0.38619172389E+02  0.47000000000E+01 0. -1.
        -13    1    4    4    0    0  0.53538724136E+02 -0.42845816911E+02  0.18624260355E+02  0.71056471081E+02  0.00000000000E+00 0.  1.
         14    1    4    4    0    0  0.67036010337E+02  0.62561610728E+02  0.67334177309E+02  0.11376147526E+03  0.00000000000E+00 0. -1.
         -5    1    5    5    0  502 -0.10531830626E+03 -0.33834003324E+02 -0.32625586030E+02  0.11542618541E+03  0.47000000000E+01 0.  1.
         13    1    6    6    0    0  0.96855595239E+01  0.21389895877E+02 -0.32818548732E+02  0.40353374701E+02  0.00000000000E+00 0. -1.
        -14    1    6    6    0    0  0.31763573812E+01  0.68342980812E+01  0.40134339173E+02  0.40835793825E+02  0.00000000000E+00 0.  1.
</event>
<event>
12    1  0.9246030E-003  0.2159763E+03  0.7818608E-02  0.1139057E+00
         21   -1    0    0  503  502  0.00000000000E+00  0.00000000000E+00  0.44942487237E+02  0.44942487237E+02  0.00000000000E+00 0.  1.
         21   -1    0    0  501  503 -0.00000000000E+00 -0.00000000000E+00 -0.99108612135E+03  0.99108612135E+03  0.00000000000E+00 0.  1.
          6    2    1    2  501    0 -0.11856122934E+03 -0.97748611279E+01 -0.52156034406E+03  0.56450949680E+03  0.18025944210E+03 0.  0.
         24    2    3    3    0    0 -0.65171385977E+02 -0.10039154967E+02 -0.11515429866E+03  0.15458449272E+03  0.79295388947E+02 0.  0.
         -6    2    1    2    0  502  0.11856122934E+03  0.97748611279E+01 -0.42458329005E+03  0.47151911179E+03  0.16705385234E+03 0.  0.
        -24    2    5    5    0    0  0.64427767192E+02  0.61064393766E+02 -0.21133457557E+03  0.24555860173E+03  0.88073416409E+02 0.  0.
          5    1    3    3  501    0 -0.53389843358E+02  0.26429383963E+00 -0.40640604540E+03  0.40992500407E+03  0.47000000000E+01 0. -1.
        -13    1    4    4    0    0 -0.79370879101E+02 -0.17579502414E+02 -0.11168214736E+03  0.13813644484E+03  0.00000000000E+00 0.  1.
         14    1    4    4    0    0  0.14199493124E+02  0.75403474467E+01 -0.34721513042E+01  0.16448047886E+02  0.00000000000E+00 0. -1.
         -5    1    5    5    0  502  0.54133462143E+02 -0.51289532638E+02 -0.21324871448E+03  0.22596051006E+03  0.47000000000E+01 0.  1.
         11    1    6    6    0    0 -0.11046320628E+00  0.12966217243E+02  0.56366100981E+01  0.14138824743E+02  0.00000000000E+00 0. -1.
        -12    1    6    6    0    0  0.64538230398E+02  0.48098176523E+02 -0.21697118567E+03  0.23141977698E+03  0.00000000000E+00 0.  1.
</event>
<event>
12    1  0.9246030E-003  0.2388222E+03  0.7818608E-02  0.1121794E+00
         21   -1    0    0  503  502  0.00000000000E+00  0.00000000000E+00  0.12569349911E+03  0.12569349911E+03  0.00000000000E+00 0. -1.
         21   -1    0    0  501  503 -0.00000000000E+00 -0.00000000000E+00 -0.47475795700E+03  0.47475795700E+03  0.00000000000E+00 0.  1.
          6    2    1    2  501    0 -0.86814503797E+02  0.12995427201E+03 -0.91247830872E+02  0.24901802770E+03  0.17105244985E+03 0.  0.
         24    2    3    3    0    0 -0.62310866232E+02  0.29110477789E+02  0.67935658921E+01  0.10617509100E+03  0.80603557262E+02 0.  0.
         -6    2    1    2    0  502  0.86814503797E+02 -0.12995427201E+03 -0.25781662702E+03  0.35143342841E+03  0.18058563218E+03 0.  0.
        -24    2    5    5    0    0  0.95688359914E+02 -0.69940292176E+02 -0.81106356747E+02  0.16454032335E+03  0.80295517998E+02 0.  0.
          5    1    3    3  501    0 -0.24503637564E+02  0.10084379422E+03 -0.98041396764E+02  0.14284293670E+03  0.47000000000E+01 0. -1.
        -11    1    4    4    0    0  0.19784538291E+02  0.56207063999E+01  0.12313912868E+01  0.20604286456E+02  0.00000000000E+00 0.  1.
         12    1    4    4    0    0 -0.82095404524E+02  0.23489771389E+02  0.55621746053E+01  0.85570804543E+02  0.00000000000E+00 0. -1.
         -5    1    5    5    0  502 -0.88738561172E+01 -0.60013979831E+02 -0.17671027027E+03  0.18689310506E+03  0.47000000000E+01 0.  1.
         11    1    6    6    0    0  0.30087904715E+02  0.12549081271E+02 -0.39538689533E+02  0.51245189246E+02  0.00000000000E+00 0. -1.
        -12    1    6    6    0    0  0.65600455199E+02 -0.82489373446E+02 -0.41567667214E+02  0.11329513410E+03  0.00000000000E+00 0.  1.
</event>
<event>
12    1  0.9246030E-003  0.1712186E+03  0.7818608E-02  0.1176593E+00
         21   -1    0    0  503  502  0.00000000000E+00  0.00000000000E+00  0.12791040569E+04  0.12791040569E+04  0.00000000000E+00 0. -1.
         21   -1    0    0  501  503 -0.00000000000E+00 -0.00000000000E+00 -0.29419255547E+02  0.29419255547E+02  0.00000000000E+00 0. -1.
          6    2    1    2  501    0  0.78348341461E+01 -0.10115770197E+01  0.31711849971E+03  0.36036946198E+03  0.17099590158E+03 0.  0.
         24    2    3    3    0    0  0.46980040684E+02  0.14517190490E+02  0.91366273603E+02  0.13067477896E+03  0.79436948973E+02 0.  0.
         -6    2    1    2    0  502 -0.78348341461E+01  0.10115770197E+01  0.93256630168E+03  0.94815385050E+03  0.17103628059E+03 0.  0.
        -24    2    5    5    0    0 -0.60075370568E+02 -0.37094306624E+02  0.60607006556E+03  0.61528298333E+03  0.79165569975E+02 0.  0.
          5    1    3    3  501    0 -0.39145206538E+02 -0.15528767510E+02  0.22575222611E+03  0.22969468302E+03  0.47000000000E+01 0. -1.
        -13    1    4    4    0    0  0.20140382368E+02 -0.31871021476E+02  0.24420382825E+02  0.44919395690E+02  0.00000000000E+00 0.  1.
         14    1    4    4    0    0  0.26839658317E+02  0.46388211966E+02  0.66945890777E+02  0.85755383271E+02  0.00000000000E+00 0. -1.
         -5    1    5    5    0  502  0.52240536422E+02  0.38105883643E+02  0.32649623612E+03  0.33287086717E+03  0.47000000000E+01 0.  1.
         13    1    6    6    0    0 -0.75743226948E+02 -0.15606230974E+02  0.39095225830E+03  0.39852761403E+03  0.00000000000E+00 0. -1.
        -14    1    6    6    0    0  0.15667856380E+02 -0.21488075649E+02  0.21511780726E+03  0.21675536929E+03  0.00000000000E+00 0.  1.
</event>
<event>
12    1  0.9246030E-003  0.2384618E+03  0.7818608E-02  0.1121190E+00
         21   -1    0    0  503  502  0.00000000000E+00  0.00000000000E+00  0.41599886153E+02  0.41599886153E+02  0.00000000000E+00 0. -1.
         21   -1    0    0  501  503 -0.00000000000E+00 -0.00000000000E+00 -0.14198174618E+04  0.14198174618E+04  0.00000000000E+00 0.  1.
          6    2    1    2  501    0 -0.14217113782E+03  0.81894064519E+02 -0.53534519731E+03  0.58605332629E+03  0.17304551635E+03 0.  0.
         24    2    3    3    0    0 -0.55842791374E+02  0.12879900530E+02 -0.39705481142E+03  0.40896052840E+03  0.79447349441E+02 0.  0.
         -6    2    1    2    0  502  0.14217113782E+03 -0.81894064519E+02 -0.84287237835E+03  0.87536402169E+03  0.17002662745E+03 0.  0.
        -24    2    5    5    0    0  0.60690524564E+02 -0.90126636376E+02 -0.33747517161E+03  0.36335299430E+03  0.79559767860E+02 0.  0.
          5    1    3    3  501    0 -0.86328346449E+02  0.69014163989E+02 -0.13829038590E+03  0.17709279789E+03  0.47000000000E+01 0. -1.
        -11    1    4    4    0    0 -0.56638807288E+02  0.15639767160E+02 -0.13924602489E+03  0.15113574116E+03  0.00000000000E+00 0.  1.
         12    1    4    4    0    0  0.79601591452E+00 -0.27598666303E+01 -0.25780878653E+03  0.25782478724E+03  0.00000000000E+00 0. -1.
         -5    1    5    5    0  502  0.81480613260E+02  0.82325718569E+01 -0.50539720675E+03  0.51201102738E+03  0.47000000000E+01 0.  1.
         13    1    6    6    0    0  0.67416597159E+02 -0.49856281209E+02 -0.15356415792E+03  0.17496455912E+03  0.00000000000E+00 0. -1.
        -14    1    6    6    0    0 -0.67260725950E+01 -0.40270355166E+02 -0.18391101368E+03  0.18838843518E+03  0.00000000000E+00 0.  1.
</event>
<event>
12    1  0.9246030E-003  0.2407980E+03  0.7818608E-02  0.1119420E+00
         21   -1    0    0  501  502  0.00000000000E+00  0.00000000000E+00  0.11647210635E+03  0.11647210635E+03  0.00000000000E+00 0. -1.
         21   -1    0    0  502  503 -0.00000000000E+00 -0.00000000000E+00 -0.74127382173E+03  0.74127382173E+03  0.00000000000E+00 0. -1.
          6    2    1    2  501    0 -0.40044185581E+02  0.16207351423E+03 -0.66053972736E+02  0.24969344129E+03  0.17352903646E+03 0.  0.
         24    2    3    3    0    0  0.20936977287E+02  0.14806123035E+03 -0.15808961919E+02  0.16930875720E+03  0.77814182757E+02 0.  0.
         -6    2    1    2    0  503  0.40044185581E+02 -0.16207351423E+03 -0.55874774264E+03  0.60805248680E+03  0.17221331533E+03 0.  0.
        -24    2    5    5    0    0  0.37289162736E+02 -0.20887582091E+02 -0.15166002920E+03  0.17714234068E+03  0.80943632632E+02 0.  0.
          5    1    3    3  501    0 -0.60981162868E+02  0.14012283881E+02 -0.50245010817E+02  0.80384684090E+02  0.47000000000E+01 0. -1.
        -11    1    4    4    0    0  0.45918941855E+02  0.10795465167E+03 -0.27792752316E+02  0.12056198870E+03  0.00000000000E+00 0.  1.
         12    1    4    4    0    0 -0.24981964568E+02  0.40106578675E+02  0.11983790397E+02  0.48746768498E+02  0.00000000000E+00 0. -1.
         -5    1    5    5    0  503  0.27550228453E+01 -0.14118593214E+03 -0.40708771345E+03  0.43091014611E+03  0.47000000000E+01 0.  1.
         13    1    6    6    0    0 -0.12379479695E+02 -0.11358191513E+02  0.48926472948E+00  0.16807718820E+02  0.00000000000E+00 0. -1.
        -14    1    6    6    0    0  0.49668642431E+02 -0.95293905782E+01 -0.15214929393E+03  0.16033462186E+03  0.00000000000E+00 0.  1.
</event>
<event>
12    1  0.9246030E-003  0.2033603E+03  0.7818608E-02  0.1148447E+00
         21   -1    0    0  501  502  0.00000000000E+00  0.00000000000E+00  0.21553157954E+04  0.21553157954E+04  0.00000000000E+00 0.  1.
         21   -1    0    0  502  503 -0.00000000000E+00 -0.00000000000E+00 -0.18516011429E+02  0.18516011429E+02  0.00000000000E+00 0. -1.
          6    2    1    2  501    0 -0.24170029946E+02 -0.10458798463E+03  0.10539954584E+04  0.10720965319E+04  0.16420021463E+03 0.  0.
         24    2    3    3    0    0  0.44584894567E+02 -0.87907917604E+02  0.64056728627E+03  0.65263210218E+03  0.76724166697E+02 0.  0.
         -6    2    1    2    0  503  0.24170029946E+02  0.10458798463E+03  0.10828043256E+04  0.11017352749E+04  0.17272108063E+03 0.  0.
        -24    2    5    5    0    0  0.27676418406E+02  0.14021857906E+03  0.94753886934E+03  0.96173289042E+03  0.81688491057E+02 0.  0.
          5    1    3    3  501    0 -0.68754924513E+02 -0.16680067030E+02  0.41342817212E+03  0.41946442970E+03  0.47000000000E+01 0. -1.
        -11    1    4    4    0    0 -0.84494890028E+01 -0.57476820549E+01  0.24299328004E+03  0.24320806701E+03  0.00000000000E+00 0.  1.
         12    1    4    4    0    0  0.53034383570E+02 -0.82160235549E+02  0.39757400622E+03  0.40942403517E+03  0.00000000000E+00 0. -1.
         -5    1    5    5    0  503 -0.35063884593E+01 -0.35630594431E+02  0.13526545624E+03  0.14000238453E+03  0.47000000000E+01 0.  1.
         11    1    6    6    0    0 -0.22779439495E+02  0.10336630043E+02  0.16504192630E+03  0.16692688885E+03  0.00000000000E+00 0. -1.
        -12    1    6    6    0    0  0.50455857900E+02  0.12988194902E+03  0.78249694304E+03  0.79480600158E+03  0.00000000000E+00 0.  1.
</event>
<event>
12    1  0.9246030E-003  0.2078663E+03  0.7818608E-02  0.1143376E+00
         21   -1    0    0  503  502  0.00000000000E+00  0.00000000000E+00  0.11011727875E+03  0.11011727875E+03  0.00000000000E+00 0.  1.
         21   -1    0    0  501  503 -0.00000000000E+00 -0.00000000000E+00 -0.42694472858E+03  0.42694472858E+03  0.00000000000E+00 0.  1.
          6    2    1    2  501    0 -0.11671096537E+03 -0.98673999984E+01 -0.23574720774E+03  0.31394228265E+03  0.17106781070E+03 0.  0.
         24    2    3    3    0    0 -0.91258738396E+02  0.54065075497E+02 -0.17951357738E+03  0.22495077483E+03  0.84418818466E+02 0.  0.
         -6    2    1    2    0  502  0.11671096537E+03  0.98673999984E+01 -0.81080242096E+02  0.22311972468E+03  0.17172533553E+03 0.  0.
        -24    2    5    5    0    0  0.84449439432E+02 -0.55118526730E+02 -0.79765341913E+02  0.15040249364E+03  0.78029741203E+02 0.  0.
          5    1    3    3  501    0 -0.25452226971E+02 -0.63932475495E+02 -0.56233630363E+02  0.88991507822E+02  0.47000000000E+01 0. -1.
        -11    1    4    4    0    0 -0.33428368194E+02 -0.21478440908E+02 -0.42895586061E+02  0.58470595408E+02  0.00000000000E+00 0.  1.
         12    1    4    4    0    0 -0.57830370203E+02  0.75543516405E+02 -0.13661799131E+03  0.16648017942E+03  0.00000000000E+00 0. -1.
         -5    1    5    5    0  502  0.32261525936E+02  0.64985926729E+02 -0.13149001826E+01  0.72717231046E+02  0.47000000000E+01 0.  1.
         11    1    6    6    0    0  0.58658905078E+02 -0.11466300167E+02 -0.48805935060E+01  0.59968019622E+02  0.00000000000E+00 0. -1.
        -12    1    6    6    0    0  0.25790534354E+02 -0.43652226563E+02 -0.74884748407E+02  0.90434474014E+02  0.00000000000E+00 0.  1.
</event>
<event>
12    1  0.9246030E-003  0.1932731E+03  0.7818608E-02  0.1157426E+00
         21   -1    0    0  501  502  0.00000000000E+00  0.00000000000E+00  0.14574260712E+03  0.14574260712E+03  0.00000000000E+00 0.  1.
         21   -1    0    0  502  503 -0.00000000000E+00 -0.00000000000E+00 -0.24825452847E+03  0.24825452847E+03  0.00000000000E+00 0.  1.
          6    2    1    2  501    0  0.17173878221E+02 -0.66434342868E+02 -0.31105114293E+02  0.19576009797E+03  0.18068210708E+03 0.  0.
         24    2    3    3    0    0 -0.64372513195E+02 -0.54735281797E+02  0.12597175240E+02  0.10238632171E+03  0.56431361148E+02 0.  0.
         -6    2    1    2    0  503 -0.17173878221E+02  0.66434342868E+02 -0.71406807060E+02  0.19823703762E+03  0.17172806114E+03 0.  0.
        -24    2    5    5    0    0  0.18847495598E+02  0.10228336448E+03 -0.61024774456E+02  0.14615471505E+03  0.82583672080E+02 0.  0.
          5    1    3    3  501    0  0.81546391416E+02 -0.11699061071E+02 -0.43702289533E+02  0.93373776262E+02  0.47000000000E+01 0. -1.
        -13    1    4    4    0    0 -0.55381283845E+02 -0.19041385213E+02 -0.96846737224E+01  0.59358688128E+02  0.00000000000E+00 0.  1.
         14    1    4    4    0    0 -0.89912293502E+01 -0.35693896584E+02  0.22281848963E+02  0.43027633583E+02  0.00000000000E+00 0. -1.
         -5    1    5    5    0  503 -0.36021373820E+02 -0.35849021615E+02 -0.10382032605E+02  0.52082322564E+02  0.47000000000E+01 0.  1.
         11    1    6    6    0    0  0.33542056598E+02  0.23417827875E+02  0.63435610291E+01  0.41396920052E+02  0.00000000000E+00 0. -1.
        -12    1    6    6    0    0 -0.14694561000E+02  0.78865536608E+02 -0.67368335485E+02  0.10475779500E+03  0.00000000000E+00 0.  1.
</event>
<event>
12    1  0.9246030E-003  0.1876317E+03  0.7818608E-02  0.1160922E+00
         21   -1    0    0  501  502  0.00000000000E+00  0.00000000000E+00  0.27560884768E+02  0.27560884768E+02  0.00000000000E+00 0. -1.
         21   -1    0    0  502  503 -0.00000000000E+00 -0.00000000000E+00 -0.13057826745E+04  0.13057826745E+04  0.00000000000E+00 0. -1.
          6    2    1    2  501    0  0.41352514331E+01 -0.74239132234E+02 -0.75427203006E+03  0.77725926410E+03  0.17227048280E+03 0.  0.
         24    2    3    3    0    0 -0.49139853158E+02 -0.89043852879E+02 -0.46226173049E+03  0.48002278993E+03  0.79952726501E+02 0.  0.
         -6    2    1    2    0  503 -0.41352514331E+01  0.74239132234E+02 -0.52394975967E+03  0.55608429516E+03  0.17081523237E+03 0.  0.
        -24    2    5    5    0    0  0.10762688498E+01  0.10503649140E+03 -0.49827594895E+03  0.51537960462E+03  0.79393908319E+02 0.  0.
          5    1    3    3  501    0  0.53275104591E+02  0.14804720645E+02 -0.29201029957E+03  0.29723647417E+03  0.47000000000E+01 0. -1.
        -13    1    4    4    0    0 -0.16744411905E+02  0.10881842044E+02 -0.37741497511E+02  0.42699068499E+02  0.00000000000E+00 0.  1.
         14    1    4    4    0    0 -0.32395441253E+02 -0.99925694923E+02 -0.42452023298E+03  0.43732372143E+03  0.00000000000E+00 0. -1.
         -5    1    5    5    0  503 -0.52115202829E+01 -0.30797359164E+02 -0.25673810720E+02  0.40704690541E+02  0.47000000000E+01 0.  1.
         11    1    6    6    0    0  0.34576284486E+02  0.85908692782E+02 -0.33075688230E+03  0.34347625556E+03  0.00000000000E+00 0. -1.
        -12    1    6    6    0    0 -0.33500015636E+02  0.19127798616E+02 -0.16751906665E+03  0.17190334906E+03  0.00000000000E+00 0.  1.
</event>
<event>
12    1  0.9246030E-003  0.3054792E+03  0.7818608E-02  0.1082583E+00
         21   -1    0    0  503  502  0.00000000000E+00  0.00000000000E+00  0.55945785768E+03  0.55945785768E+03  0.00000000000E+00 0. -1.
         21   -1    0    0  501  503 -0.00000000000E+00 -0.00000000000E+00 -0.18464174009E+03  0.18464174009E+03  0.00000000000E+00 0. -1.
          6    2    1    2  501    0 -0.18086972395E+03 -0.17659065262E+03  0.70927622006E+02  0.31321010396E+03  0.17079732440E+03 0.  0.
         24    2    3    3    0    0 -0.20196803827E+03 -0.13899368670E+03  0.78806525002E+02  0.26913246988E+03  0.78175984394E+02 0.  0.
         -6    2    1    2    0  502  0.18086972395E+03  0.17659065262E+03  0.30388849558E+03  0.43088949381E+03  0.17152090980E+03 0.  0.
        -24    2    5    5    0    0  0.19423505303E+03  0.15307501023E+03  0.30810561875E+03  0.40311375645E+03  0.80077548383E+02 0.  0.
          5    1    3    3  501    0  0.21098314320E+02 -0.37596965914E+02 -0.78789029968E+01  0.44077634074E+02  0.47000000000E+01 0. -1.
        -13    1    4    4    0    0 -0.11954296963E+03 -0.67093899197E+02  0.49871604285E+01  0.13717501473E+03  0.00000000000E+00 0.  1.
         14    1    4    4    0    0 -0.82425068640E+02 -0.71899787505E+02  0.73819364574E+02  0.13195745515E+03  0.00000000000E+00 0. -1.
         -5    1    5    5    0  502 -0.13365329076E+02  0.23515642385E+02 -0.42171231703E+01  0.27775737361E+02  0.47000000000E+01 0.  1.
         13    1    6    6    0    0  0.23223826177E+02  0.36641436277E+02  0.18403212732E+02  0.47123446326E+02  0.00000000000E+00 0. -1.
        -14    1    6    6    0    0  0.17101122685E+03  0.11643357395E+03  0.28970240602E+03  0.35599031013E+03  0.00000000000E+00 0.  1.
</event>
<event>
12    1  0.9246030E-003  0.2723919E+03  0.7818608E-02  0.1100102E+00
         21   -1    0    0  501  502  0.00000000000E+00  0.00000000000E+00  0.10596029979E+04  0.10596029979E+04  0.00000000000E+00 0. -1.
         21   -1    0    0  502  503 -0.00000000000E+00 -0.00000000000E+00 -0.71098070723E+02  0.71098070723E+02  0.00000000000E+00 0. -1.
          6    2    1    2  501    0  0.16134555049E+03  0.13527659666E+03  0.57261641936E+03  0.63354856336E+03  0.17076906671E+03 0.  0.
         24    2    3    3    0    0  0.71535162404E+02  0.12614867822E+03  0.26078473987E+03  0.30887902207E+03  0.79792238049E+02 0.  0.
         -6    2    1    2    0  503 -0.16134555049E+03 -0.13527659666E+03  0.41588850783E+03  0.49715250527E+03  0.17281556149E+03 0.  0.
        -24    2    5    5    0    0 -0.79945148053E+02 -0.39142038717E+02  0.30927206843E+03  0.33205546140E+03  0.81781973819E+02 0.  0.
          5    1    3    3  501    0  0.89810388082E+02  0.91279184402E+01  0.31183167949E+03  0.32466954129E+03  0.47000000000E+01 0. -1.
        -13    1    4    4    0    0  0.25098741639E+02 -0.12832445601E+01  0.73232487187E+02  0.77424742351E+02  0.00000000000E+00 0.  1.
         14    1    4    4    0    0  0.46436420765E+02  0.12743192278E+03  0.18755225268E+03  0.23145427972E+03  0.00000000000E+00 0. -1.
         -5    1    5    5    0  503 -0.81400402432E+02 -0.96134557942E+02  0.10661643940E+03  0.16509704388E+03  0.47000000000E+01 0.  1.
         13    1    6    6    0    0 -0.66689582159E+02 -0.63859556248E+02  0.24927525316E+03  0.26582643799E+03  0.00000000000E+00 0. -1.
        -14    1    6    6    0    0 -0.13255565894E+02  0.24717517531E+02  0.59996815265E+02  0.66229023412E+02  0.00000000000E+00 0.  1.
</event>
<event>
12    1  0.9246030E-003  0.1852534E+03  0.7818608E-02  0.1163653E+00
         21   -1    0    0  503  502  0.00000000000E+00  0.00000000000E+00  0.10415096217E+03  0.10415096217E+03  0.00000000000E+00 0.  1.
         21   -1    0    0  501  503 -0.00000000000E+00 -0.00000000000E+00 -0.32438390098E+03  0.32438390098E+03  0.00000000000E+00 0.  1.
          6    2    1    2  501    0  0.61386459582E+02  0.47833025165E+01 -0.12414229055E+03  0.22300253938E+03  0.17472162678E+03 0.  0.
         24    2    3    3    0    0 -0.17997734352E+02 -0.61744770894E+01 -0.11736230897E+03  0.14244211901E+03  0.78446179583E+02 0.  0.
         -6    2    1    2    0  502 -0.61386459582E+02 -0.47833025165E+01 -0.96090648263E+02  0.20553232376E+03  0.17093550253E+03 0.  0.
        -24    2    5    5    0    0 -0.43517054939E+02 -0.41470050341E+02 -0.12211840092E+03  0.15690345377E+03  0.78053128170E+02 0.  0.
          5    1    3    3  501    0  0.79384193934E+02  0.10957779606E+02 -0.67799815762E+01  0.80560420373E+02  0.47000000000E+01 0. -1.
        -11    1    4    4    0    0  0.15359720953E+01  0.33295299102E+02 -0.71348541092E+02  0.78749923610E+02  0.00000000000E+00 0.  1.
         12    1    4    4    0    0 -0.19533706447E+02 -0.39469776191E+02 -0.46013767880E+02  0.63692195399E+02  0.00000000000E+00 0. -1.
         -5    1    5    5    0  502 -0.17869404643E+02  0.36686747825E+02  0.26027752653E+02  0.48628869990E+02  0.47000000000E+01 0.  1.
         11    1    6    6    0    0 -0.43844671841E+02  0.66372352056E+01 -0.85951916892E+02  0.96716803904E+02  0.00000000000E+00 0. -1.
        -12    1    6    6    0    0  0.32761690214E+00 -0.48107285547E+02 -0.36166484024E+02  0.60186649867E+02  0.00000000000E+00 0.  1.
</event>
<event>
12    1  0.9246030E-003  0.1870009E+03  0.7818608E-02  0.1161198E+00
         21   -1    0    0  501  502  0.00000000000E+00  0.00000000000E+00  0.27875528973E+03  0.27875528973E+03  0.00000000000E+00 0.  1.
         21   -1    0    0  502  503 -0.00000000000E+00 -0.00000000000E+00 -0.12547381128E+03  0.12547381128E+03  0.00000000000E+00 0.  1.
          6    2    1    2  501    0 -0.65298877855E+02 -0.33341025539E+02  0.73175787288E+02  0.20079293095E+03  0.17201028411E+03 0.  0.
         24    2    3    3    0    0  0.29515817012E+02 -0.25400425526E+02  0.30864691944E+02  0.96556669115E+02  0.82790072298E+02 0.  0.
         -6    2    1    2    0  503  0.65298877855E+02  0.33341025539E+02  0.80105691161E+02  0.20343617006E+03  0.17202844562E+03 0.  0.
        -24    2    5    5    0    0  0.30515372723E+02  0.79632715285E+02  0.86801273747E+02  0.14495768175E+03  0.78776335656E+02 0.  0.
          5    1    3    3  501    0 -0.94814694867E+02 -0.79406000124E+01  0.42311095345E+02  0.10423626183E+03  0.47000000000E+01 0. -1.
        -13    1    4    4    0    0 -0.12986211326E+02 -0.95953220275E+01  0.46000247819E+02  0.48751766008E+02  0.00000000000E+00 0.  1.
         14    1    4    4    0    0  0.42502028338E+02 -0.15805103499E+02 -0.15135555876E+02  0.47804903108E+02  0.00000000000E+00 0. -1.
         -5    1    5    5    0  503  0.34783505131E+02 -0.46291689747E+02 -0.66955825855E+01  0.58478488309E+02  0.47000000000E+01 0.  1.
         11    1    6    6    0    0  0.41382090387E+02  0.13972267012E+02  0.57580520877E+02  0.72271834312E+02  0.00000000000E+00 0. -1.
        -12    1    6    6    0    0 -0.10866717664E+02  0.65660448273E+02  0.29220752870E+02  0.72685847443E+02  0.00000000000E+00 0.  1.
</event>
<event>
12    1  0.9246030E-003  0.2062189E+03  0.7818608E-02  0.1144663E+00
         21   -1    0    0  503  502  0.00000000000E+00  0.00000000000E+00  0.52861222851E+02  0.52861222851E+02  0.00000000000E+00 0. -1.
         21   -1    0    0  501  503 -0.00000000000E+00 -0.00000000000E+00 -0.80595212404E+03  0.80595212404E+03  0.00000000000E+00 0.  1.
          6    2    1    2  501    0 -0.17511623051E+02  0.11166283054E+03 -0.40200718274E+03  0.45181414316E+03  0.17248478287E+03 0.  0.
         24    2    3    3    0    0 -0.71393411049E+02  0.10521269393E+03 -0.26864988403E+03  0.30776168585E+03  0.79860910210E+02 0.  0.
         -6    2    1    2    0  502  0.17511623051E+02 -0.11166283054E+03 -0.35108371845E+03  0.40699920373E+03  0.17208523995E+03 0.  0.
        -24    2    5    5    0    0 -0.51180832185E+02 -0.38055482373E+02 -0.12491039299E+03  0.15938426423E+03  0.75716841501E+02 0.  0.
          5    1    3    3  501    0  0.53881787998E+02  0.64501366081E+01 -0.13335729871E+03  0.14405245731E+03  0.47000000000E+01 0. -1.
        -13    1    4    4    0    0 -0.14393889538E+02  0.79086230618E+02 -0.19571017076E+03  0.21157572372E+03  0.00000000000E+00 0.  1.
         14    1    4    4    0    0 -0.56999521512E+02  0.26126463314E+02 -0.72939713271E+02  0.96185962125E+02  0.00000000000E+00 0. -1.
         -5    1    5    5    0  502  0.68692455236E+02 -0.73607348168E+02 -0.22617332546E+03  0.24761493950E+03  0.47000000000E+01 0.  1.
         11    1    6    6    0    0 -0.34030885104E+02 -0.50216020407E+02 -0.41830143530E+02  0.73685213945E+02  0.00000000000E+00 0. -1.
        -12    1    6    6    0    0 -0.17149947081E+02  0.12160538034E+02 -0.83080249457E+02  0.85699050287E+02  0.00000000000E+00 0.  1.
</event>
<event>
12    1  0.9246030E-003  0.2797873E+03  0.7818608E-02  0.1095841E+00
         21   -1    0    0  501  502  0.00000000000E+00  0.00000000000E+00  0.22206782157E+03  0.22206782157E+03  0.00000000000E+00 0. -1.
         21   -1    0    0  502  503 -0.00000000000E+00 -0.00000000000E+00 -0.35260487611E+03  0.35260487611E+03  0.00000000000E+00 0. -1.
          6    2    1    2  501    0 -0.13632109792E+03 -0.17310262911E+03 -0.75195509290E+02  0.28946466256E+03  0.17201007038E+03 0.  0.
         24    2    3    3    0    0  0.26571626920E+01 -0.64142449237E+02 -0.16761632476E+02  0.10338971616E+03  0.79291656408E+02 0.  0.
         -6    2    1    2    0  503  0.13632109792E+03  0.17310262911E+03 -0.55341545253E+02  0.28520803512E+03  0.17243252223E+03 0.  0.
        -24    2    5    5    0    0  0.11867767424E+03  0.13289414222E+03  0.21730571331E+02  0.19638115871E+03  0.79674954450E+02 0.  0.
          5    1    3    3  501    0 -0.13897826061E+03 -0.10896017988E+03 -0.58433876814E+02  0.18607494641E+03  0.47000000000E+01 0. -1.
        -11    1    4    4    0    0 -0.15580953589E+02  0.11635811408E+02 -0.16412871359E+02  0.25446818428E+02  0.00000000000E+00 0.  1.
         12    1    4    4    0    0  0.18238116281E+02 -0.75778260645E+02 -0.34876111647E+00  0.77942897728E+02  0.00000000000E+00 0. -1.
         -5    1    5    5    0  503  0.17643423677E+02  0.40208486888E+02 -0.77072116585E+02  0.88826876404E+02  0.47000000000E+01 0.  1.
         13    1    6    6    0    0  0.43283656287E+02  0.80644645468E+01 -0.14066189184E+02  0.46220862911E+02  0.00000000000E+00 0. -1.
        -14    1    6    6    0    0  0.75394017952E+02  0.12482967768E+03  0.35796760515E+02  0.15016029580E+03  0.00000000000E+00 0.  1.
</event>
<event>
12    1  0.9246030E-003  0.2294496E+03  0.7818608E-02  0.1127163E+00
         21   -1    0    0  501  502  0.00000000000E+00  0.00000000000E+00  0.18328292507E+03  0.18328292507E+03  0.00000000000E+00 0.  1.
         21   -1    0    0  502  503 -0.00000000000E+00 -0.00000000000E+00 -0.29261475200E+03  0.29261475200E+03  0.00000000000E+00 0.  1.
          6    2    1    2  501    0  0.98707257618E+02  0.11379490703E+03 -0.19594174171E+02  0.22952407490E+03  0.17206093608E+03 0.  0.
         24    2    3    3    0    0  0.11245003728E+03  0.60524209543E+02  0.32230196655E+02  0.15379768177E+03  0.79415052205E+02 0.  0.
         -6    2    1    2    0  503 -0.98707257618E+02 -0.11379490703E+03 -0.89737652757E+02  0.24637360217E+03  0.17307426716E+03 0.  0.
        -24    2    5    5    0    0 -0.31246158132E+01 -0.18459576333E+02  0.51651190910E+01  0.81287282938E+02  0.78933039533E+02 0.  0.
          5    1    3    3  501    0 -0.13742779666E+02  0.53270697489E+02 -0.51824370826E+02  0.75726393123E+02  0.47000000000E+01 0. -1.
        -11    1    4    4    0    0  0.86550128970E+02  0.63318546640E+02 -0.61463275325E+01  0.10741480585E+03  0.00000000000E+00 0.  1.
         12    1    4    4    0    0  0.25899908315E+02 -0.27943370964E+01  0.38376524187E+02  0.46382875927E+02  0.00000000000E+00 0. -1.
         -5    1    5    5    0  503 -0.95582641805E+02 -0.95335330700E+02 -0.94902771848E+02  0.16508631923E+03  0.47000000000E+01 0.  1.
         11    1    6    6    0    0 -0.70145767500E+01  0.30824718365E+02  0.36935348260E+01  0.31827814075E+02  0.00000000000E+00 0. -1.
        -12    1    6    6    0    0  0.38899609367E+01 -0.49284294698E+02  0.14715842651E+01  0.49459468864E+02  0.00000000000E+00 0.  1.
</event>
<event>
12    1  0.9246030E-003  0.1826191E+03  0.7818608E-02  0.1166069E+00
         21   -1    0    0  501  502  0.00000000000E+00  0.00000000000E+00  0.18307280364E+03  0.18307280364E+03  0.00000000000E+00 0.  1.
         21   -1    0    0  502  503 -0.00000000000E+00 -0.00000000000E+00 -0.23704853732E+03  0.23704853732E+03  0.00000000000E+00 0.  1.
          6    2    1    2  501    0  0.70202030081E+01  0.50094990979E+02 -0.13079979012E+03  0.22200096369E+03  0.17209605286E+03 0.  0.
         24    2    3    3    0    0 -0.17540681939E+02  0.32807110123E+02 -0.15754608515E+03  0.18150945604E+03  0.82103177078E+02 0.  0.
         -6    2    1    2    0  503 -0.70202030081E+01 -0.50094990979E+02  0.76824056444E+02  0.19812037728E+03  0.17547352186E+03 0.  0.
        -24    2    5    5    0    0  0.25166253638E+02  0.13841238793E+02 -0.11329697147E+02  0.84467468203E+02  0.78622331011E+02 0.  0.
          5    1    3    3  501    0  0.24560884948E+02  0.17287880856E+02  0.26746295031E+02  0.40491507650E+02  0.47000000000E+01 0. -1.
        -13    1    4    4    0    0  0.23636452457E+02 -0.14183008879E+02 -0.44471116526E+02  0.52321313350E+02  0.00000000000E+00 0.  1.
         14    1    4    4    0    0 -0.41177134396E+02  0.46990119002E+02 -0.11307496863E+03  0.12918814269E+03  0.00000000000E+00 0. -1.
         -5    1    5    5    0  503 -0.32186456646E+02 -0.63936229771E+02  0.88153753591E+02  0.11365290907E+03  0.47000000000E+01 0.  1.
         11    1    6    6    0    0  0.52750592610E+02  0.13880352635E+02  0.26111408596E+00  0.54546836668E+02  0.00000000000E+00 0. -1.
        -12    1    6    6    0    0 -0.27584338972E+02 -0.39113841904E-01 -0.11590811233E+02  0.29920631535E+02  0.00000000000E+00 0.  1.
</event>
<event>
12    1  0.9246030E-003  0.1828411E+03  0.7818608E-02  0.1165258E+00
         21   -1    0    0  501  502  0.00000000000E+00  0.00000000000E+00  0.36513181535E+03  0.36513181535E+03  0.00000000000E+00 0.  1.
         21   -1    0    0  502  503 -0.00000000000E+00 -0.00000000000E+00 -0.91341973143E+02  0.91341973143E+02  0.00000000000E+00 0.  1.
          6    2    1    2  501    0  0.58417712838E+02 -0.15133091905E+02  0.14655793079E+03  0.23432899897E+03  0.17259551859E+03 0.  0.
         24    2    3    3    0    0  0.62405637398E+02 -0.66302209398E+02  0.60333918565E+02  0.13387576402E+03  0.77408603608E+02 0.  0.
         -6    2    1    2    0  503 -0.58417712838E+02  0.15133091905E+02  0.12723191142E+03  0.22214478953E+03  0.17181009454E+03 0.  0.
        -24    2    5    5    0    0 -0.26671918842E+02  0.50558388546E+01  0.15662193664E+03  0.17747701538E+03  0.78934828753E+02 0.  0.
          5    1    3    3  501    0 -0.39879245603E+01  0.51169117493E+02  0.86224012222E+02  0.10045323495E+03  0.47000000000E+01 0. -1.
        -13    1    4    4    0    0  0.10590864599E+02 -0.14321793246E+02 -0.18832460450E+02  0.25921839081E+02  0.00000000000E+00 0.  1.
         14    1    4    4    0    0  0.51814772799E+02 -0.51980416152E+02  0.79166379015E+02  0.10795392494E+03  0.00000000000E+00 0. -1.
         -5    1    5    5    0  503 -0.31745793996E+02  0.10077253050E+02 -0.29390025216E+02  0.44667774151E+02  0.47000000000E+01 0.  1.
         13    1    6    6    0    0 -0.25763943553E+02 -0.13017689861E+02  0.11246231930E+02  0.30979328098E+02  0.00000000000E+00 0. -1.
        -14    1    6    6    0    0 -0.90797528848E+00  0.18073528716E+02  0.14537570471E+03  0.14649768728E+03  0.00000000000E+00 0.  1.
</event>
<event>
12    1  0.9246030E-003  0.2059492E+03  0.7818608E-02  0.1145841E+00
         21   -1    0    0  503  502  0.00000000000E+00  0.00000000000E+00  0.27419857048E+03  0.27419857048E+03  0.00000000000E+00 0.  1.
         21   -1    0    0  501  503 -0.00000000000E+00 -0.00000000000E+00 -0.15260553263E+03  0.15260553263E+03  0.00000000000E+00 0.  1.
          6    2    1    2  501    0  0.27447073315E+02 -0.11069924626E+03  0.37929526204E+02  0.20450999879E+03  0.16546306443E+03 0.  0.
         24    2    3    3    0    0 -0.13873794079E+02 -0.71662734546E+02  0.79182567000E+02  0.13411705380E+03  0.79934194929E+02 0.  0.
         -6    2    1    2    0  502 -0.27447073315E+02  0.11069924626E+03  0.83663511650E+02  0.22229410432E+03  0.17148591976E+03 0.  0.
        -24    2    5    5    0    0 -0.18148567382E+01  0.62295964141E+02 -0.21257717812E+02  0.10384393489E+03  0.80296895287E+02 0.  0.
          5    1    3    3  501    0  0.41320867395E+02 -0.39036511718E+02 -0.41253040796E+02  0.70392944989E+02  0.47000000000E+01 0. -1.
        -11    1    4    4    0    0  0.11250002890E+01 -0.36939867364E+02 -0.91105084893E+01  0.38063378613E+02  0.00000000000E+00 0.  1.
         12    1    4    4    0    0 -0.14998794368E+02 -0.34722867182E+02  0.88293075489E+02  0.96053675188E+02  0.00000000000E+00 0. -1.
         -5    1    5    5    0  502 -0.25632216577E+02  0.48403282123E+02  0.10492122946E+03  0.11845016943E+03  0.47000000000E+01 0.  1.
         13    1    6    6    0    0 -0.27201191943E+02 -0.43026761189E+01  0.48044309472E+01  0.27955329038E+02  0.00000000000E+00 0. -1.
        -14    1    6    6    0    0  0.25386335205E+02  0.66598640259E+02 -0.26062148759E+02  0.75888605848E+02  0.00000000000E+00 0.  1.
</event>
<event>
12    1  0.9246030E-003  0.1762849E+03  0.7818608E-02  0.1172053E+00
         21   -1    0    0  503  502  0.00000000000E+00  0.00000000000E+00  0.25322878536E+02  0.25322878536E+02  0.00000000000E+00 0. -1.
         21   -1    0    0  501  503 -0.00000000000E+00 -0.00000000000E+00 -0.12774818843E+04  0.12774818843E+04  0.00000000000E+00 0. -1.
          6    2    1    2  501    0  0.22244481866E+02  0.10385847873E+02 -0.47274578158E+03  0.50370443328E+03  0.17212466208E+03 0.  0.
         24    2    3    3    0    0  0.20860205104E+02 -0.40894050805E+02 -0.14116038441E+03  0.16814145879E+03  0.78979899280E+02 0.  0.
         -6    2    1    2    0  502 -0.22244481866E+02 -0.10385847873E+02 -0.77941322414E+03  0.79910032951E+03  0.17456712133E+03 0.  0.
        -24    2    5    5    0    0 -0.81220915615E+02 -0.12283710681E+02 -0.57110571331E+03  0.58254564660E+03  0.80311692297E+02 0.  0.
          5    1    3    3  501    0  0.13842767621E+01  0.51279898678E+02 -0.33158539717E+03  0.33556297449E+03  0.47000000000E+01 0. -1.
        -11    1    4    4    0    0  0.17951726902E+02  0.23294063383E+00 -0.12085791223E+03  0.12218409761E+03  0.00000000000E+00 0.  1.
         12    1    4    4    0    0  0.29084782017E+01 -0.41126991439E+02 -0.20302472177E+02  0.45957361181E+02  0.00000000000E+00 0. -1.
         -5    1    5    5    0  502  0.58976433749E+02  0.18978628074E+01 -0.20830751084E+03  0.21655468291E+03  0.47000000000E+01 0.  1.
         13    1    6    6    0    0 -0.17221971542E+02 -0.40676287895E+02 -0.25287781881E+03  0.25670673530E+03  0.00000000000E+00 0. -1.
        -14    1    6    6    0    0 -0.63998944074E+02  0.28392577214E+02 -0.31822789449E+03  0.32583891130E+03  0.00000000000E+00 0.  1.
</event>
<event>
12    1  0.9246030E-003  0.1944156E+03  0.7818608E-02  0.1154677E+00
         21   -1    0    0  503  502  0.00000000000E+00  0.00000000000E+00  0.42480975669E+03  0.42480975669E+03  0.00000000000E+00 0. -1.
         21   -1    0    0  501  503 -0.00000000000E+00 -0.00000000000E+00 -0.88930877763E+02  0.88930877763E+02  0.00000000000E+00 0. -1.
          6    2    1    2  501    0 -0.53410120720E+02 -0.71919143943E+02  0.18117033840E+03  0.26528102535E+03  0.17183226308E+03 0.  0.
         24    2    3    3    0    0 -0.10011091173E+03 -0.40849631747E+02  0.15317604375E+03  0.20241570103E+03  0.76277969202E+02 0.  0.
         -6    2    1    2    0  502  0.53410120720E+02  0.71919143943E+02  0.15470854053E+03  0.24845960910E+03  0.17254692284E+03 0.  0.
        -24    2    5    5    0    0 -0.38871547644E+02  0.29135687569E+02  0.73908384511E+02  0.11847081855E+03  0.78822585859E+02 0.  0.
          5    1    3    3  501    0  0.46700791009E+02 -0.31069512197E+02  0.27994294651E+02  0.62865324321E+02  0.47000000000E+01 0. -1.
        -11    1    4    4    0    0 -0.19088559591E+02  0.48939762209E+01 -0.36736108452E+01  0.20045436566E+02  0.00000000000E+00 0.  1.
         12    1    4    4    0    0 -0.81022352139E+02 -0.45743607967E+02  0.15684965459E+03  0.18237026447E+03  0.00000000000E+00 0. -1.
         -5    1    5    5    0  502  0.92281668364E+02  0.42783456374E+02  0.80800156023E+02  0.12998879055E+03  0.47000000000E+01 0.  1.
         13    1    6    6    0    0 -0.47647109464E+02  0.20502458118E+02  0.92974868721E+01  0.52697638384E+02  0.00000000000E+00 0. -1.
        -14    1    6    6    0    0  0.87755618195E+01  0.86332294513E+01  0.64610897639E+02  0.65773180170E+02  0.00000000000E+00 0.  1.
</event>
<event>
12    1  0.9246030E-003  0.2246447E+03  0.7818608E-02  0.1130549E+00
         21   -1    0    0  501  502  0.00000000000E+00  0.00000000000E+00  0.46024437284E+02  0.46024437284E+02  0.00000000000E+00 0. -1.
         21   -1    0    0  502  503 -0.00000000000E+00 -0.00000000000E+00 -0.11441400494E+04  0.11441400494E+04  0.00000000000E+00 0.  1.
          6    2    1    2  501    0  0.54044659926E+02 -0.13333985590E+03 -0.42432242672E+03  0.47990926046E+03  0.17193904161E+03 0.  0.
         24    2    3    3    0    0  0.10191881026E+03 -0.95770814750E+02 -0.26667476422E+03  0.31085825451E+03  0.77187639463E+02 0.  0.
         -6    2    1    2    0  503 -0.54044659926E+02  0.13333985590E+03 -0.67379318539E+03  0.71025522621E+03  0.17252503367E+03 0.  0.
        -24    2    5    5    0    0  0.19812188193E+02  0.19034239076E+02 -0.32473347813E+03  0.33557485939E+03  0.80023930011E+02 0.  0.
          5    1    3    3  501    0 -0.47874150330E+02 -0.37569041147E+02 -0.15764766250E+03  0.16905100595E+03  0.47000000000E+01 0. -1.
        -11    1    4    4    0    0  0.22003270175E+02  0.12332527296E+02 -0.38572814175E+02  0.46087928151E+02  0.00000000000E+00 0.  1.
         12    1    4    4    0    0  0.79915540082E+02 -0.10810334205E+03 -0.22810195004E+03  0.26477032636E+03  0.00000000000E+00 0. -1.
         -5    1    5    5    0  503 -0.73856848120E+02  0.11430561682E+03 -0.34905970725E+03  0.37468036682E+03  0.47000000000E+01 0.  1.
         11    1    6    6    0    0 -0.32601896227E+01  0.23475892274E+02 -0.23330542554E+02  0.33257488936E+02  0.00000000000E+00 0. -1.
        -12    1    6    6    0    0  0.23072377816E+02 -0.44416531987E+01 -0.30140293558E+03  0.30231737045E+03  0.00000000000E+00 0.  1.
</event>
<event>
12    1  0.9246030E-003  0.1769507E+03  0.7818608E-02  0.1171817E+00
         21   -1    0    0  503  502  0.00000000000E+00  0.00000000000E+00  0.10368648522E+03  0.10368648522E+03  0.00000000000E+00 0.  1.
         21   -1    0    0  501  503 -0.00000000000E+00 -0.00000000000E+00 -0.43403546057E+03  0.43403546057E+03  0.00000000000E+00 0.  1.
          6    2    1    2  501    0 -0.36969075341E+02  0.16013164025E+02 -0.31601166940E+03  0.36019139459E+03  0.16808132430E+03 0.  0.
         24    2    3    3    0    0 -0.68234112095E+02  0.38145675140E+02 -0.29700335080E+03  0.31717097214E+03  0.79217729048E+02 0.  0.
         -6    2    1    2    0  502  0.36969075341E+02 -0.16013164025E+02 -0.14337305942E+02  0.17753055121E+03  0.17230323362E+03 0.  0.
        -24    2    5    5    0    0  0.78053578452E+02 -0.18999248165E+02  0.28999107313E+02  0.11755565806E+03  0.80777793836E+02 0.  0.
          5    1    3    3  501    0  0.31265036753E+02 -0.22132511115E+02 -0.19008318606E+02  0.43020422449E+02  0.47000000000E+01 0. -1.
        -13    1    4    4    0    0 -0.57903920434E+02  0.39459357111E+02 -0.11360072666E+03  0.13347295592E+03  0.00000000000E+00 0.  1.
         14    1    4    4    0    0 -0.10330191661E+02 -0.13136819707E+01 -0.18340262414E+03  0.18369801621E+03  0.00000000000E+00 0. -1.
         -5    1    5    5    0  502 -0.41084503110E+02  0.29860841396E+01 -0.43336413255E+02  0.59974893148E+02  0.47000000000E+01 0.  1.
         13    1    6    6    0    0 -0.87624663340E+01 -0.25248422899E+02  0.42220723374E+01  0.27057153767E+02  0.00000000000E+00 0. -1.
        -14    1    6    6    0    0  0.86816044786E+02  0.62491747344E+01  0.24777034975E+02  0.90498504293E+02  0.00000000000E+00 0.  1.
</event>
<event>
12    1  0.9246030E-003  0.2326109E+03  0.7818608E-02  0.1124832E+00
         21   -1    0    0  501  502  0.00000000000E+00  0.00000000000E+00  0.93074865363E+03  0.93074865363E+03  0.00000000000E+00 0. -1.
         21   -1    0    0  502  503 -0.00000000000E+00 -0.00000000000E+00 -0.64435996606E+02  0.64435996606E+02  0.00000000000E+00 0. -1.
          6    2    1    2  501    0  0.15339300322E+03 -0.30359693687E+02  0.58914623570E+03  0.63340436965E+03  0.17221116113E+03 0.  0.
         24    2    3    3    0    0  0.48379121363E+02 -0.12674453162E+02  0.44112472232E+03  0.45099510032E+03  0.79400117900E+02 0.  0.
         -6    2    1    2    0  503 -0.15339300322E+03  0.30359693687E+02  0.27716642132E+03  0.36178028058E+03  0.17208318300E+03 0.  0.
        -24    2    5    5    0    0 -0.11747966736E+03 -0.45004893959E+02  0.18336587943E+03  0.23612113677E+03  0.79392901246E+02 0.  0.
          5    1    3    3  501    0  0.10501388186E+03 -0.17685240525E+02  0.14802151338E+03  0.18240926933E+03  0.47000000000E+01 0. -1.
        -11    1    4    4    0    0  0.37953317826E+02 -0.45574727282E+02  0.27473594937E+03  0.28106467579E+03  0.00000000000E+00 0.  1.
         12    1    4    4    0    0  0.10425803538E+02  0.32900274120E+02  0.16638877295E+03  0.16993042452E+03  0.00000000000E+00 0. -1.
         -5    1    5    5    0  503 -0.35913335867E+02  0.75364587646E+02  0.93800541896E+02  0.12565914381E+03  0.47000000000E+01 0.  1.
         13    1    6    6    0    0 -0.10866382590E+03 -0.84190143508E+01  0.11752182945E+03  0.16028127545E+03  0.00000000000E+00 0. -1.
        -14    1    6    6    0    0 -0.88158414522E+01 -0.36585879609E+02  0.65844049980E+02  0.75839861320E+02  0.00000000000E+00 0.  1.
</event>
<event>
12    1  0.9246030E-003  0.1950823E+03  0.7818608E-02  0.1154113E+00
         21   -1    0    0  501  502  0.00000000000E+00  0.00000000000E+00  0.46943684284E+02  0.46943684284E+02  0.00000000000E+00 0. -1.
         21   -1    0    0  502  503 -0.00000000000E+00 -0.00000000000E+00 -0.83058479581E+03  0.83058479581E+03  0.00000000000E+00 0.  1.
          6    2    1    2  501    0  0.75716077388E+02 -0.51796074105E+02 -0.46392842254E+03  0.50299767730E+03  0.17135146471E+03 0.  0.
         24    2    3    3    0    0 -0.25032237450E+02 -0.22885259974E+02 -0.25581836092E+03  0.26993556999E+03  0.79194886989E+02 0.  0.
         -6    2    1    2    0  503 -0.75716077388E+02  0.51796074105E+02 -0.31971268898E+03  0.37453080279E+03  0.17216666656E+03 0.  0.
        -24    2    5    5    0    0 -0.47229685465E+02  0.97825016174E+02 -0.27265288011E+03  0.30264997333E+03  0.73871756084E+02 0.  0.
          5    1    3    3  501    0  0.10074831484E+03 -0.28910814131E+02 -0.20811006162E+03  0.23306210731E+03  0.47000000000E+01 0. -1.
        -13    1    4    4    0    0 -0.19495331406E+02 -0.47089162918E+02 -0.22318664456E+03  0.22893172677E+03  0.00000000000E+00 0.  1.
         14    1    4    4    0    0 -0.55369060445E+01  0.24203902944E+02 -0.32631716361E+02  0.41003843222E+02  0.00000000000E+00 0. -1.
         -5    1    5    5    0  503 -0.28486391923E+02 -0.46028942069E+02 -0.47059808874E+02  0.71880829461E+02  0.47000000000E+01 0.  1.
         13    1    6    6    0    0 -0.25074335599E+01  0.54346658042E+02 -0.59792562371E+02  0.80839328166E+02  0.00000000000E+00 0. -1.
        -14    1    6    6    0    0 -0.44722251905E+02  0.43478358132E+02 -0.21286031773E+03  0.22181064516E+03  0.00000000000E+00 0.  1.
</event>
<event>
12    1  0.9246030E-003  0.2608195E+03  0.7818608E-02  0.1107170E+00
         21   -1    0    0  503  502  0.00000000000E+00  0.00000000000E+00  0.11280107020E+04  0.11280107020E+04  0.00000000000E+00 0. -1.
         21   -1    0    0  501  503 -0.00000000000E+00 -0.00000000000E+00 -0.90220188823E+02  0.90220188823E+02  0.00000000000E+00 0.  1.
          6    2    1    2  501    0  0.10234938010E+03  0.16226357978E+03  0.16581816095E+03  0.30906706951E+03  0.17669727226E+03 0.  0.
         24    2    3    3    0    0 -0.14074746539E+02  0.69773626176E+02  0.46795879586E+02  0.11854840312E+03  0.82446419788E+02 0.  0.
         -6    2    1    2    0  502 -0.10234938010E+03 -0.16226357978E+03  0.87197235218E+03  0.90916382127E+03  0.17157565682E+03 0.  0.
        -24    2    5    5    0    0 -0.41301178524E+02 -0.64498670175E+01  0.28717354682E+03  0.30087398184E+03  0.79429961760E+02 0.  0.
          5    1    3    3  501    0  0.11642412664E+03  0.92489953602E+02  0.11902228137E+03  0.19051866639E+03  0.47000000000E+01 0. -1.
        -11    1    4    4    0    0 -0.14025586646E+02 -0.12046108695E+02  0.29664554208E+02  0.34954421635E+02  0.00000000000E+00 0.  1.
         12    1    4    4    0    0 -0.49159892856E-01  0.81819734871E+02  0.17131325378E+02  0.83593981484E+02  0.00000000000E+00 0. -1.
         -5    1    5    5    0  502 -0.61048201576E+02 -0.15581371276E+03  0.58479880536E+03  0.60828983943E+03  0.47000000000E+01 0.  1.
         13    1    6    6    0    0  0.16446315155E+02 -0.22324093084E+02  0.62876192831E+02  0.68718716803E+02  0.00000000000E+00 0. -1.
        -14    1    6    6    0    0 -0.57747493679E+02  0.15874226066E+02  0.22429735399E+03  0.23215526504E+03  0.00000000000E+00 0.  1.
</event>
<event>
12    1  0.9246030E-003  0.2134534E+03  0.7818608E-02  0.1139127E+00
         21   -1    0    0  501  502  0.00000000000E+00  0.00000000000E+00  0.41489613848E+03  0.41489613848E+03  0.00000000000E+00 0. -1.
         21   -1    0    0  502  503 -0.00000000000E+00 -0.00000000000E+00 -0.10940231197E+03  0.10940231197E+03  0.00000000000E+00 0.  1.
          6    2    1    2  501    0 -0.99973056111E+01 -0.12456067855E+03  0.13974158360E+03  0.25512751792E+03  0.17305210618E+03 0.  0.
         24    2    3    3    0    0 -0.24772061089E+02 -0.89608656542E+02  0.10600980171E+02  0.12044521509E+03  0.75837343835E+02 0.  0.
         -6    2    1    2    0  503  0.99973056111E+01  0.12456067855E+03  0.16575224292E+03  0.26917093253E+03  0.17135891027E+03 0.  0.
        -24    2    5    5    0    0  0.16912752977E+02  0.61125673848E+02  0.17713549045E+03  0.20418253697E+03  0.79316689358E+02 0.  0.
          5    1    3    3  501    0  0.14774755478E+02 -0.34952022005E+02  0.12914060343E+03  0.13468230283E+03  0.47000000000E+01 0. -1.
        -13    1    4    4    0    0 -0.18114682022E+02  0.90108148165E+01 -0.37138912107E+01  0.20570111238E+02  0.00000000000E+00 0.  1.
         14    1    4    4    0    0 -0.66573790671E+01 -0.98619471359E+02  0.14314871381E+02  0.99875103854E+02  0.00000000000E+00 0. -1.
         -5    1    5    5    0  503 -0.69154473658E+01  0.63435004699E+02 -0.11383247532E+02  0.64988395563E+02  0.47000000000E+01 0.  1.
         11    1    6    6    0    0  0.11408918804E+02 -0.14494669339E+02  0.73460214374E+02  0.75740754970E+02  0.00000000000E+00 0. -1.
        -12    1    6    6    0    0  0.55038341726E+01  0.75620343187E+02  0.10367527607E+03  0.12844178200E+03  0.00000000000E+00 0.  1.
</event>
<event>
12    1  0.9246030E-003  0.1765747E+03  0.7818608E-02  0.1171273E+00
         21   -1    0    0  503  502  0.00000000000E+00  0.00000000000E+00  0.82683242391E+02  0.82683242391E+02  0.00000000000E+00 0. -1.
         21   -1    0    0  501  503 -0.00000000000E+00 -0.00000000000E+00 -0.39033289947E+03  0.39033289947E+03  0.00000000000E+00 0. -1.
          6    2    1    2  501    0 -0.16396240965E+02 -0.32493709255E+02 -0.19915466864E+03  0.26616013453E+03  0.17278297750E+03 0.  0.
         24    2    3    3    0    0  0.28036433799E+02 -0.12958186140E+02 -0.19951680058E+03  0.21739415879E+03  0.80618300379E+02 0.  0.
         -6    2    1    2    0  502  0.16396240965E+02  0.32493709255E+02 -0.10849498844E+03  0.20685600733E+03  0.17231821550E+03 0.  0.
        -24    2    5    5    0    0 -0.47965254490E+01  0.72392635995E+02 -0.21297768070E+02  0.10853763192E+03  0.77866053036E+02 0.  0.
          5    1    3    3  501    0 -0.44432674764E+02 -0.19535523115E+02  0.36213193939E+00  0.48765975737E+02  0.47000000000E+01 0. -1.
        -13    1    4    4    0    0  0.27191890855E+02  0.19155499685E+02 -0.29783018028E+02  0.44647063278E+02  0.00000000000E+00 0.  1.
         14    1    4    4    0    0  0.84454294395E+00 -0.32113685825E+02 -0.16973378255E+03  0.17274709551E+03  0.00000000000E+00 0. -1.
         -5    1    5    5    0  502  0.21192766414E+02 -0.39898926740E+02 -0.87197220368E+02  0.98318375410E+02  0.47000000000E+01 0.  1.
         13    1    6    6    0    0 -0.18860834951E+02  0.19660507336E+02  0.24994825662E+02  0.36973070654E+02  0.00000000000E+00 0. -1.
        -14    1    6    6    0    0  0.14064309502E+02  0.52732128659E+02 -0.46292593732E+02  0.71564561265E+02  0.00000000000E+00 0.  1.
</event>
<event>
12    1  0.9246030E-003  0.1958359E+03  0.7818608E-02  0.1153532E+00
         21   -1    0    0  503  502  0.00000000000E+00  0.00000000000E+00  0.10961771933E+04  0.10961771933E+04  0.00000000000E+00 0. -1.
         21   -1    0    0  501  503 -0.00000000000E+00 -0.00000000000E+00 -0.63443500982E+02  0.63443500982E+02  0.00000000000E+00 0. -1.
          6    2    1    2  501    0  0.40454678861E+02  0.82974284032E+02  0.12599120357E+03  0.23197117604E+03  0.17150956325E+03 0.  0.
         24    2    3    3    0    0  0.86422406192E+02  0.40254570835E+02  0.11342682197E+03  0.16779984649E+03  0.78752027117E+02 0.  0.
         -6    2    1    2    0  502 -0.40454678861E+02 -0.82974284032E+02  0.90674248879E+03  0.92764951828E+03  0.17271472124E+03 0.  0.
        -24    2    5    5    0    0 -0.76754273180E+02 -0.65364195571E+01  0.44403666161E+03  0.45724630806E+03  0.77276685706E+02 0.  0.
          5    1    3    3  501    0 -0.45967727331E+02  0.42719713197E+02  0.12564381597E+02  0.64171329552E+02  0.47000000000E+01 0. -1.
        -13    1    4    4    0    0  0.42930985385E+02 -0.14161793717E+02  0.76748644892E+02  0.89072893745E+02  0.00000000000E+00 0.  1.
         14    1    4    4    0    0  0.43491420807E+02  0.54416364552E+02  0.36678177081E+02  0.78726952747E+02  0.00000000000E+00 0. -1.
         -5    1    5    5    0  502  0.36299594319E+02 -0.76437864475E+02  0.46270582718E+03  0.47040321022E+03  0.47000000000E+01 0.  1.
         11    1    6    6    0    0 -0.71262722750E+02 -0.71832669963E+01  0.44574203651E+03  0.45145978568E+03  0.00000000000E+00 0. -1.
        -12    1    6    6    0    0 -0.54915504299E+01  0.64684743915E+00 -0.17053748986E+01  0.57865223821E+01  0.00000000000E+00 0.  1.
</event>
<event>
12    1  0.9246030E-003  0.2709407E+03  0.7818608E-02  0.1101105E+00
         21   -1    0    0  501  502  0.00000000000E+00  0.00000000000E+00  0.90307971502E+03  0.90307971502E+03  0.00000000000E+00 0. -1.
         21   -1    0    0  502  503 -0.00000000000E+00 -0.00000000000E+00 -0.91938476318E+02  0.91938476318E+02  0.00000000000E+00 0.  1.
          6    2    1    2  501    0 -0.82263514260E+02 -0.18867578315E+03  0.57916385548E+03  0.63833577076E+03  0.17226708278E+03 0.  0.
         24    2    3    3    0    0 -0.12141245418E+03 -0.11602406843E+03  0.41116761593E+03  0.45110399554E+03  0.78952124214E+02 0.  0.
         -6    2    1    2    0  503  0.82263514260E+02  0.18867578315E+03  0.23197738322E+03  0.35668242058E+03  0.17619025483E+03 0.  0.
        -24    2    5    5    0    0  0.11150246163E+03  0.12196173756E+03  0.10524201214E+03  0.21043050023E+03  0.76796158291E+02 0.  0.
          5    1    3    3  501    0  0.39148939917E+02 -0.72651714726E+02  0.16799623955E+03  0.18723177522E+03  0.47000000000E+01 0. -1.
        -11    1    4    4    0    0 -0.76238731290E+02 -0.10386309183E+03  0.35696370219E+03  0.37950358453E+03  0.00000000000E+00 0.  1.
         12    1    4    4    0    0 -0.45173722887E+02 -0.12160976599E+02  0.54203913738E+02  0.71600411003E+02  0.00000000000E+00 0. -1.
         -5    1    5    5    0  503 -0.29238947375E+02  0.66714045591E+02  0.12673537108E+03  0.14625192035E+03  0.47000000000E+01 0.  1.
         11    1    6    6    0    0  0.54351409714E+01  0.42884281227E+02  0.52494946125E+02  0.68002365418E+02  0.00000000000E+00 0. -1.
        -12    1    6    6    0    0  0.10606732066E+03  0.79077456333E+02  0.52747066015E+02  0.14242813481E+03  0.00000000000E+00 0.  1.
</event>
<event>
12    1  0.9246030E-003  0.1744463E+03  0.7818608E-02  0.1174671E+00
         21   -1    0    0  501  502  0.00000000000E+00  0.00000000000E+00  0.97713715046E+02  0.97713715046E+02  0.00000000000E+00 0.  1.
         21   -1    0    0  502  503 -0.00000000000E+00 -0.00000000000E+00 -0.31235398186E+03  0.31235398186E+03  0.00000000000E+00 0.  1.
          6    2    1    2  501    0  0.19556241850E+02  0.11181158186E+02 -0.14322384183E+03  0.22156885530E+03  0.16754767643E+03 0.  0.
         24    2    3    3    0    0  0.43101565950E+02  0.44879723051E+02 -0.33208824097E+02  0.10403005452E+03  0.76468893793E+02 0.  0.
         -6    2    1    2    0  503 -0.19556241850E+02 -0.11181158186E+02 -0.71416424980E+02  0.18849884160E+03  0.17298567176E+03 0.  0.
        -24    2    5    5    0    0 -0.37211532646E+02 -0.57755643825E+02  0.17670674969E+01  0.99848937051E+02  0.72431175244E+02 0.  0.
          5    1    3    3  501    0 -0.23545324100E+02 -0.33698564865E+02 -0.11001501774E+03  0.11753880078E+03  0.47000000000E+01 0. -1.
        -13    1    4    4    0    0 -0.13966922625E+02  0.65885021236E+01 -0.31731561309E+02  0.35289874907E+02  0.00000000000E+00 0.  1.
         14    1    4    4    0    0  0.57068488576E+02  0.38291220928E+02 -0.14772627873E+01  0.68740179617E+02  0.00000000000E+00 0. -1.
         -5    1    5    5    0  503  0.17655290795E+02  0.46574485640E+02 -0.73183492477E+02  0.88649904550E+02  0.47000000000E+01 0.  1.
         13    1    6    6    0    0 -0.12402412428E+02 -0.25648997196E+02 -0.34975042982E+02  0.45110359373E+02  0.00000000000E+00 0. -1.
        -14    1    6    6    0    0 -0.24809120217E+02 -0.32106646629E+02  0.36742110479E+02  0.54738577678E+02  0.00000000000E+00 0.  1.
</event>
<event>
12    1  0.9246030E-003  0.2251376E+03  0.7818608E-02  0.1130233E+00
         21   -1    0    0  501  502  0.00000000000E+00  0.00000000000E+00  0.41708090323E+02  0.41708090323E+02  0.00000000000E+00 0.  1.
         21   -1    0    0  502  503 -0.00000000000E+00 -0.00000000000E+00 -0.12123030037E+04  0.12123030037E+04  0.00000000000E+00 0. -1.
          6    2    1    2  501    0 -0.12457477390E+03 -0.73950851468E+02 -0.60128507838E+03  0.64205191727E+03  0.17233489566E+03 0.  0.
         24    2    3    3    0    0 -0.85860673008E+02 -0.11351937941E+03 -0.50679785334E+03  0.53244180958E+03  0.79946930950E+02 0.  0.
         -6    2    1    2    0  503  0.12457477390E+03  0.73950851468E+02 -0.56930983497E+03  0.61195917673E+03  0.17144311904E+03 0.  0.
        -24    2    5    5    0    0  0.98467561837E+02  0.61862824693E+02 -0.22354717804E+03  0.26496982266E+03  0.81931656248E+02 0.  0.
          5    1    3    3  501    0 -0.38714100887E+02  0.39568527945E+02 -0.94487225038E+02  0.10961010768E+03  0.47000000000E+01 0. -1.
        -11    1    4    4    0    0 -0.64900545834E+02 -0.11463536648E+03 -0.34510870794E+03  0.36939595070E+03  0.00000000000E+00 0.  1.
         12    1    4    4    0    0 -0.20960127175E+02  0.11159870651E+01 -0.16168914540E+03  0.16304585888E+03  0.00000000000E+00 0. -1.
         -5    1    5    5    0  503  0.26107212058E+02  0.12088026775E+02 -0.34576265693E+03  0.34698935407E+03  0.47000000000E+01 0.  1.
         13    1    6    6    0    0  0.93468189522E+02  0.23980813941E+02 -0.19398042330E+03  0.21665591733E+03  0.00000000000E+00 0. -1.
        -14    1    6    6    0    0  0.49993723152E+01  0.37882010752E+02 -0.29566754742E+02  0.48313905329E+02  0.00000000000E+00 0.  1.
</event>
<event>
12    1  0.9246030E-003  0.2846339E+03  0.7818608E-02  0.1093824E+00
         21   -1    0    0  503  502  0.00000000000E+00  0.00000000000E+00  0.31695310214E+03  0.31695310214E+03  0.00000000000E+00 0. -1.
         21   -1    0    0  501  503 -0.00000000000E+00 -0.00000000000E+00 -0.37367801504E+03  0.37367801504E+03  0.00000000000E+00 0. -1.
          6    2    1    2  501    0  0.16383708983E+03  0.15261051498E+03 -0.22607745328E+03  0.36349343584E+03  0.17573816241E+03 0.  0.
         24    2    3    3    0    0  0.96899380780E+02  0.14977700225E+03 -0.97062915806E+02  0.21804404063E+03  0.79368467472E+02 0.  0.
         -6    2    1    2    0  502 -0.16383708983E+03 -0.15261051498E+03  0.16935254039E+03  0.32713768134E+03  0.16794707003E+03 0.  0.
        -24    2    5    5    0    0 -0.10014806366E+03 -0.15028572469E+03  0.17379271450E+03  0.26307909994E+03  0.79945428336E+02 0.  0.
          5    1    3    3  501    0  0.66937709055E+02  0.28335127287E+01 -0.12901453748E+03  0.14544939521E+03  0.47000000000E+01 0. -1.
        -13    1    4    4    0    0  0.28791595271E+02  0.23922633738E+02 -0.59159851452E+02  0.70008116580E+02  0.00000000000E+00 0.  1.
         14    1    4    4    0    0  0.68107785508E+02  0.12585436851E+03 -0.37903064354E+02  0.14803592405E+03  0.00000000000E+00 0. -1.
         -5    1    5    5    0  502 -0.63689026175E+02 -0.23247902874E+01 -0.44401741125E+01  0.64058581402E+02  0.47000000000E+01 0.  1.
         11    1    6    6    0    0 -0.84585345725E+02 -0.98905245387E+02  0.73863918834E+02  0.14964226269E+03  0.00000000000E+00 0. -1.
        -12    1    6    6    0    0 -0.15562717934E+02 -0.51380479306E+02  0.99928795665E+02  0.11343683725E+03  0.00000000000E+00 0.  1.
</event>
<event>
12    1  0.9246030E-003  0.2326765E+03  0.7818608E-02  0.1126641E+00
         21   -1    0    0  501  502  0.00000000000E+00  0.00000000000E+00  0.14326768895E+04  0.14326768895E+04  0.00000000000E+00 0. -1.
         21   -1    0    0  502  503 -0.00000000000E+00 -0.00000000000E+00 -0.36442747704E+02  0.36442747704E+02  0.00000000000E+00 0. -1.
          6    2    1    2  501    0 -0.61487173325E+02 -0.12396037444E+03  0.75358032213E+03  0.78564157404E+03  0.17378876272E+03 0.  0.
         24    2    3    3    0    0 -0.32222710272E+02 -0.12532911600E+03  0.35840158173E+03  0.38935050789E+03  0.79977708338E+02 0.  0.
         -6    2    1    2    0  503  0.61487173325E+02  0.12396037444E+03  0.64265381962E+03  0.68347806312E+03  0.18706010791E+03 0.  0.
        -24    2    5    5    0    0  0.13087272032E+02  0.13956614176E+03  0.31316623150E+03  0.35005603153E+03  0.69398501758E+02 0.  0.
          5    1    3    3  501    0 -0.29264463054E+02  0.13687415583E+01  0.39517874039E+03  0.39629106615E+03  0.47000000000E+01 0. -1.
        -13    1    4    4    0    0  0.23755422542E+02 -0.66015153858E+02  0.15159823565E+03  0.16704593887E+03  0.00000000000E+00 0.  1.
         14    1    4    4    0    0 -0.55978132814E+02 -0.59313962140E+02  0.20680334608E+03  0.22230456902E+03  0.00000000000E+00 0. -1.
         -5    1    5    5    0  503  0.48399901293E+02 -0.15605767316E+02  0.32948758813E+03  0.33342203159E+03  0.47000000000E+01 0.  1.
         11    1    6    6    0    0 -0.26864328434E+02  0.77939375306E+02  0.17997684680E+03  0.19795934873E+03  0.00000000000E+00 0. -1.
        -12    1    6    6    0    0  0.39951600466E+02  0.61626766450E+02  0.13318938470E+03  0.15209668280E+03  0.00000000000E+00 0.  1.
</event>
<event>
12    1  0.9246030E-003  0.2725239E+03  0.7818608E-02  0.1099875E+00
         21   -1    0    0  501  502  0.00000000000E+00  0.00000000000E+00  0.10542948753E+04  0.10542948753E+04  0.00000000000E+00 0. -1.
         21   -1    0    0  502  503 -0.00000000000E+00 -0.00000000000E+00 -0.70401713074E+02  0.70401713074E+02  0.00000000000E+00 0.  1.
          6    2    1    2  501    0 -0.17637391687E+03  0.11746832634E+03  0.50004155902E+03  0.56948297580E+03  0.17135557397E+03 0.  0.
         24    2    3    3    0    0 -0.90047072505E+01  0.50394087223E+02  0.17207199795E+03  0.19518693137E+03  0.76606245970E+02 0.  0.
         -6    2    1    2    0  503  0.17637391687E+03 -0.11746832634E+03  0.48385160321E+03  0.55521361258E+03  0.17100647771E+03 0.  0.
        -24    2    5    5    0    0  0.11336711591E+02 -0.40796171638E+02  0.16835959774E+03  0.19097029562E+03  0.79572928863E+02 0.  0.
          5    1    3    3  501    0 -0.16736920962E+03  0.67074239120E+02  0.32796956107E+03  0.37429604443E+03  0.47000000000E+01 0. -1.
        -11    1    4    4    0    0 -0.61595311844E+01 -0.18675822659E+02  0.19546187507E+02  0.27726875454E+02  0.00000000000E+00 0.  1.
         12    1    4    4    0    0 -0.28451760661E+01  0.69069909882E+02  0.15252581044E+03  0.16746005592E+03  0.00000000000E+00 0. -1.
         -5    1    5    5    0  503  0.16503720528E+03 -0.76672154705E+02  0.31549200548E+03  0.36424331697E+03  0.47000000000E+01 0.  1.
         13    1    6    6    0    0  0.33019191849E+02 -0.40538804636E+02  0.15895791787E+03  0.16733583408E+03  0.00000000000E+00 0. -1.
        -14    1    6    6    0    0 -0.21682480259E+02 -0.25736700184E+00  0.94016798609E+01  0.23634461537E+02  0.00000000000E+00 0.  1.
</event>
<event>
12    1  0.9246030E-003  0.1734147E+03  0.7818608E-02  0.1174700E+00
         21   -1    0    0  503  502  0.00000000000E+00  0.00000000000E+00  0.57267657293E+03  0.57267657293E+03  0.00000000000E+00 0.  1.
         21   -1    0    0  501  503 -0.00000000000E+00 -0.00000000000E+00 -0.68531121966E+02  0.68531121966E+02  0.00000000000E+00 0.  1.
          6    2    1    2  501    0  0.85916414400E+01  0.19596687670E+02  0.94182109164E+02  0.19607557741E+03  0.17063855339E+03 0.  0.
         24    2    3    3    0    0  0.65370245446E+02  0.41036467801E+02  0.54254646575E+02  0.12327608350E+03  0.79348380005E+02 0.  0.
         -6    2    1    2    0  502 -0.85916414400E+01 -0.19596687670E+02  0.40996334181E+03  0.44513211749E+03  0.17208955205E+03 0.  0.
        -24    2    5    5    0    0  0.22541339746E+02 -0.77567429265E+02  0.24561949367E+03  0.26804214087E+03  0.70659999507E+02 0.  0.
          5    1    3    3  501    0 -0.56778604006E+02 -0.21439780131E+02  0.39927462588E+02  0.72799493911E+02  0.47000000000E+01 0. -1.
        -11    1    4    4    0    0  0.51290583513E+02 -0.92942663284E+01  0.65881644610E+01  0.52540567704E+02  0.00000000000E+00 0.  1.
         12    1    4    4    0    0  0.14079661934E+02  0.50330734130E+02  0.47666482114E+02  0.70735515799E+02  0.00000000000E+00 0. -1.
         -5    1    5    5    0  502 -0.31132981186E+02  0.57970741595E+02  0.16434384814E+03  0.17708997662E+03  0.47000000000E+01 0.  1.
         11    1    6    6    0    0  0.75960880896E+01  0.11056432448E+02  0.13067471712E+02  0.18727094534E+02  0.00000000000E+00 0. -1.
        -12    1    6    6    0    0  0.14945251656E+02 -0.88623861713E+02  0.23255202196E+03  0.24931504633E+03  0.00000000000E+00 0.  1.
</event>
<event>
12    1  0.9246030E-003  0.1860767E+03  0.7818608E-02  0.1162147E+00
         21   -1    0    0  503  502  0.00000000000E+00  0.00000000000E+00  0.44014315643E+02  0.44014315643E+02  0.00000000000E+00 0.  1.
         21   -1    0    0  501  503 -0.00000000000E+00 -0.00000000000E+00 -0.83677148045E+03  0.83677148045E+03  0.00000000000E+00 0.  1.
          6    2    1    2  501    0 -0.33787556664E+02 -0.63437660918E+02 -0.50648142743E+03  0.53958128737E+03  0.17163505918E+03 0.  0.
         24    2    3    3    0    0 -0.78612627121E+02 -0.79555370265E+02 -0.36066215464E+03  0.38610680150E+03  0.80574625618E+02 0.  0.
         -6    2    1    2    0  502  0.33787556664E+02  0.63437660918E+02 -0.28627573737E+03  0.34120450872E+03  0.17117471529E+03 0.  0.
        -24    2    5    5    0    0 -0.42953818586E+02  0.48351323974E+02 -0.19348195916E+03  0.21975653009E+03  0.81699344776E+02 0.  0.
          5    1    3    3  501    0  0.44825070456E+02  0.16117709347E+02 -0.14581927280E+03  0.15347448588E+03  0.47000000000E+01 0. -1.
        -13    1    4    4    0    0 -0.54829949969E+02 -0.92424643804E+01 -0.22166212924E+03  0.22852974883E+03  0.00000000000E+00 0.  1.
         14    1    4    4    0    0 -0.23782677152E+02 -0.70312905885E+02 -0.13900002540E+03  0.15757705267E+03  0.00000000000E+00 0. -1.
         -5    1    5    5    0  502  0.76741375251E+02  0.15086336945E+02 -0.92793778213E+02  0.12144797863E+03  0.47000000000E+01 0.  1.
         13    1    6    6    0    0  0.87432452980E+01  0.68844086038E+00 -0.11110248496E+03  0.11144810655E+03  0.00000000000E+00 0. -1.
        -14    1    6    6    0    0 -0.51697063884E+02  0.47662883113E+02 -0.82379474199E+02  0.10830842354E+03  0.00000000000E+00 0.  1.
</event>
<event>
12    1  0.9246030E-003  0.1977375E+03  0.7818608E-02  0.1152782E+00
         21   -1    0    0  501  502  0.00000000000E+00  0.00000000000E+00  0.22816634516E+03  0.22816634516E+03  0.00000000000E+00 0.  1.
         21   -1    0    0  502  503 -0.00000000000E+00 -0.00000000000E+00 -0.17891795036E+03  0.17891795036E+03  0.00000000000E+00 0.  1.
          6    2    1    2  501    0  0.69530113081E+02 -0.67669732070E+02  0.77621239588E+02  0.21242689031E+03  0.17229770059E+03 0.  0.
         24    2    3    3    0    0  0.41858198582E+02 -0.98040449104E+02  0.98735583532E+02  0.16599391899E+03  0.80257256603E+02 0.  0.
         -6    2    1    2    0  503 -0.69530113081E+02  0.67669732070E+02 -0.28372844783E+02  0.19465740521E+03  0.16635160901E+03 0.  0.
        -24    2    5    5    0    0 -0.79369171440E+02 -0.38613713040E+00  0.88277514783E+01  0.11633510466E+03  0.84594993368E+02 0.  0.
          5    1    3    3  501    0  0.27671914498E+02  0.30370717034E+02 -0.21114343944E+02  0.46432971318E+02  0.47000000000E+01 0. -1.
        -11    1    4    4    0    0 -0.17724012223E+02 -0.21706208460E+02  0.46088862768E+00  0.28026996152E+02  0.00000000000E+00 0.  1.
         12    1    4    4    0    0  0.59582210805E+02 -0.76334240645E+02  0.98274694904E+02  0.13796692284E+03  0.00000000000E+00 0. -1.
         -5    1    5    5    0  503  0.98390583597E+01  0.68055869200E+02 -0.37200596261E+02  0.78322300555E+02  0.47000000000E+01 0.  1.
         11    1    6    6    0    0 -0.18050338655E+02 -0.31920061568E+02 -0.19802370714E+02  0.41675399722E+02  0.00000000000E+00 0. -1.
        -12    1    6    6    0    0 -0.61318832786E+02  0.31533924438E+02  0.28630122192E+02  0.74659704938E+02  0.00000000000E+00 0.  1.
</event>
<event>
12    1  0.9246030E-003  0.1789725E+03  0.7818608E-02  0.1168808E+00
         21   -1    0    0  503  502  0.00000000000E+00  0.00000000000E+00  0.51434951418E+03  0.51434951418E+03  0.00000000000E+00 0. -1.
         21   -1    0    0  501  503 -0.00000000000E+00 -0.00000000000E+00 -0.71398397898E+02  0.71398397898E+02  0.00000000000E+00 0. -1.
          6    2    1    2  501    0 -0.42759618877E+02 -0.19546186157E+02  0.11674088733E+03  0.21368106973E+03  0.17268678694E+03 0.  0.
         24    2    3    3    0    0 -0.34450157301E+01 -0.74883526710E+01  0.14275102774E+03  0.16479705626E+03  0.81928446048E+02 0.  0.
         -6    2    1    2    0  502  0.42759618877E+02  0.19546186157E+02  0.32621022895E+03  0.37206684235E+03  0.17265625765E+03 0.  0.
        -24    2    5    5    0    0  0.32959733160E+02  0.79143179862E+02  0.23733577122E+03  0.26450942208E+03  0.79290473189E+02 0.  0.
          5    1    3    3  501    0 -0.39314603147E+02 -0.12057833486E+02 -0.26010140406E+02  0.48884013470E+02  0.47000000000E+01 0. -1.
        -11    1    4    4    0    0 -0.37634098063E+02 -0.36485488959E+01  0.11352187939E+03  0.11965305824E+03  0.00000000000E+00 0.  1.
         12    1    4    4    0    0  0.34189082333E+02 -0.38398037751E+01  0.29229148350E+02  0.45143998018E+02  0.00000000000E+00 0. -1.
         -5    1    5    5    0  502  0.97998857173E+01 -0.59596993705E+02  0.88874457727E+02  0.10755742027E+03  0.47000000000E+01 0.  1.
         11    1    6    6    0    0  0.19717634714E+01  0.16407001343E+01  0.12259048057E+03  0.12261731392E+03  0.00000000000E+00 0. -1.
        -12    1    6    6    0    0  0.30987969688E+02  0.77502479727E+02  0.11474529065E+03  0.14189210815E+03  0.00000000000E+00 0.  1.
</event>
<event>
12    1  0.9246030E-003  0.1929384E+03  0.7818608E-02  0.1156119E+00
         21   -1    0    0  503  502  0.00000000000E+00  0.00000000000E+00  0.77239809400E+02  0.77239809400E+02  0.00000000000E+00 0. -1.
         21   -1    0    0  501  503 -0.00000000000E+00 -0.00000000000E+00 -0.70145455259E+03  0.70145455259E+03  0.00000000000E+00 0. -1.
          6    2    1    2  501    0  0.48424747828E+02 -0.68268506761E+02 -0.53217493740E+03  0.56607011556E+03  0.17383804681E+03 0.  0.
         24    2    3    3    0    0  0.46270295741E+02 -0.10924807408E+03 -0.39343738974E+03  0.42131458464E+03  0.92935018315E+02 0.  0.
         -6    2    1    2    0  502 -0.48424747828E+02  0.68268506761E+02 -0.92039805789E+02  0.21262424643E+03  0.17243027316E+03 0.  0.
        -24    2    5    5    0    0  0.34531241508E+02  0.51953508513E+02 -0.23726886997E+02  0.10382801392E+03  0.79534380116E+02 0.  0.
          5    1    3    3  501    0  0.21544520868E+01  0.40979567314E+02 -0.13873754766E+03  0.14475553092E+03  0.47000000000E+01 0. -1.
        -11    1    4    4    0    0  0.56411836224E+02 -0.48223583207E+02 -0.12103565757E+03  0.14197689828E+03  0.00000000000E+00 0.  1.
         12    1    4    4    0    0 -0.10141540483E+02 -0.61024490869E+02 -0.27240173217E+03  0.27933768636E+03  0.00000000000E+00 0. -1.
         -5    1    5    5    0  502 -0.82955989336E+02  0.16314998248E+02 -0.68312918792E+02  0.10879623251E+03  0.47000000000E+01 0.  1.
         13    1    6    6    0    0 -0.21282032789E+02  0.96555010130E+01  0.10804775553E+02  0.25746782211E+02  0.00000000000E+00 0. -1.
        -14    1    6    6    0    0  0.55813274297E+02  0.42298007500E+02 -0.34531662549E+02  0.78081231706E+02  0.00000000000E+00 0.  1.
</event>
<event>
12    1  0.9246030E-003  0.2045364E+03  0.7818608E-02  0.1146020E+00
         21   -1    0    0  501  502  0.00000000000E+00  0.00000000000E+00  0.55458918777E+02  0.55458918777E+02  0.00000000000E+00 0.  1.
         21   -1    0    0  502  503 -0.00000000000E+00 -0.00000000000E+00 -0.10915002125E+04  0.10915002125E+04  0.00000000000E+00 0. -1.
          6    2    1    2  501    0  0.66911522707E+02 -0.87127244166E+02 -0.19907009873E+03  0.28541905612E+03  0.17253064900E+03 0.  0.
         24    2    3    3    0    0  0.11826245188E+01 -0.10329194742E+03 -0.16069720893E+03  0.20746936491E+03  0.80927865520E+02 0.  0.
         -6    2    1    2    0  503 -0.66911522707E+02  0.87127244166E+02 -0.83697119504E+03  0.86154007520E+03  0.17222720836E+03 0.  0.
        -24    2    5    5    0    0 -0.67942602318E+02  0.97304588056E+02 -0.40644490291E+03  0.43086662620E+03  0.79776001452E+02 0.  0.
          5    1    3    3  501    0  0.65728898188E+02  0.16164703254E+02 -0.38372889800E+02  0.77949691211E+02  0.47000000000E+01 0. -1.
        -13    1    4    4    0    0  0.10310483004E+02 -0.91617058053E+01  0.66009900760E+01  0.15291042574E+02  0.00000000000E+00 0.  1.
         14    1    4    4    0    0 -0.91278584847E+01 -0.94130241615E+02 -0.16729819900E+03  0.19217832234E+03  0.00000000000E+00 0. -1.
         -5    1    5    5    0  503  0.10310796107E+01 -0.10177343890E+02 -0.43052629213E+03  0.43067344900E+03  0.47000000000E+01 0.  1.
         13    1    6    6    0    0 -0.29088767003E+02  0.34365778240E+02 -0.28600858140E+03  0.28953077852E+03  0.00000000000E+00 0. -1.
        -14    1    6    6    0    0 -0.38853835315E+02  0.62938809815E+02 -0.12043632151E+03  0.14133584768E+03  0.00000000000E+00 0.  1.
</event>
<event>
12    1  0.9246030E-003  0.2336452E+03  0.7818608E-02  0.1124893E+00
         21   -1    0    0  503  502  0.00000000000E+00  0.00000000000E+00  0.35685661901E+02  0.35685661901E+02  0.00000000000E+00 0.  1.
         21   -1    0    0  501  503 -0.00000000000E+00 -0.00000000000E+00 -0.17461428141E+04  0.17461428141E+04  0.00000000000E+00 0.  1.
          6    2    1    2  501    0  0.58295899429E+02  0.14035214148E+03 -0.11824135517E+04  0.12044030448E+04  0.17142856081E+03 0.  0.
         24    2    3    3    0    0 -0.15334124715E+01  0.19810002728E+02 -0.27087831874E+03  0.28297560610E+03  0.79406186929E+02 0.  0.
         -6    2    1    2    0  502 -0.58295899429E+02 -0.14035214148E+03 -0.52804360041E+03  0.57742543116E+03  0.17746252874E+03 0.  0.
        -24    2    5    5    0    0 -0.38796895715E+02 -0.13299394257E+03 -0.23879903355E+03  0.28739290937E+03  0.79856859781E+02 0.  0.
          5    1    3    3  501    0  0.59829311901E+02  0.12054213875E+03 -0.91153523301E+03  0.92142743870E+03  0.47000000000E+01 0. -1.
        -11    1    4    4    0    0  0.27323780489E+01  0.13678855864E+02 -0.27437440222E+03  0.27472875638E+03  0.00000000000E+00 0.  1.
         12    1    4    4    0    0 -0.42657905204E+01  0.61311468640E+01  0.34960834803E+01  0.82468497218E+01  0.00000000000E+00 0. -1.
         -5    1    5    5    0  502 -0.19499003714E+02 -0.73581989067E+01 -0.28924456686E+03  0.29003252179E+03  0.47000000000E+01 0.  1.
         11    1    6    6    0    0 -0.34876277024E+02 -0.93502839471E+01 -0.49960738017E+02  0.61642987048E+02  0.00000000000E+00 0. -1.
        -12    1    6    6    0    0 -0.39206186911E+01 -0.12364365862E+03 -0.18883829553E+03  0.22574992232E+03  0.00000000000E+00 0.  1.
</event>
<event>
12    1  0.9246030E-003  0.2606497E+03  0.7818608E-02  0.1107284E+00
         21   -1    0    0  503  502  0.00000000000E+00  0.00000000000E+00  0.16839269407E+03  0.16839269407E+03  0.00000000000E+00 0. -1.
         21   -1    0    0  501  503 -0.00000000000E+00 -0.00000000000E+00 -0.48594749516E+03  0.48594749516E+03  0.00000000000E+00 0.  1.
          6    2    1    2  501    0 -0.17168016695E+03  0.94911802130E+02 -0.29882037079E+03  0.39652473240E+03  0.17162726909E+03 0.  0.
         24    2    3    3    0    0 -0.18317907810E+03  0.10235285651E+03 -0.21194411209E+03  0.30844994274E+03  0.78678959281E+02 0.  0.
         -6    2    1    2    0  502  0.17168016695E+03 -0.94911802130E+02 -0.18734430294E+02  0.25781545683E+03  0.16623928836E+03 0.  0.
        -24    2    5    5    0    0  0.18988650868E+03 -0.96166635823E+02 -0.31961334828E+02  0.23479184959E+03  0.93812460198E+02 0.  0.
          5    1    3    3  501    0  0.11498911152E+02 -0.74410543830E+01 -0.86876258701E+02  0.88074789661E+02  0.47000000000E+01 0. -1.
        -13    1    4    4    0    0 -0.15772611626E+03  0.56912081078E+02 -0.13370915141E+03  0.21446363303E+03  0.00000000000E+00 0.  1.
         14    1    4    4    0    0 -0.25452961842E+02  0.45440775435E+02 -0.78234960688E+02  0.93986309708E+02  0.00000000000E+00 0. -1.
         -5    1    5    5    0  502 -0.18206341728E+02  0.12548336927E+01  0.13226904533E+02  0.23023607238E+02  0.47000000000E+01 0.  1.
         13    1    6    6    0    0  0.19761295168E+02 -0.25291690811E+02  0.26309091549E+02  0.41501165151E+02  0.00000000000E+00 0. -1.
        -14    1    6    6    0    0  0.17012521351E+03 -0.70874945012E+02 -0.58270426376E+02  0.19329068444E+03  0.00000000000E+00 0.  1.
</event>
<event>
12    1  0.9246030E-003  0.2054637E+03  0.7818608E-02  0.1147130E+00
         21   -1    0    0  503  502  0.00000000000E+00  0.00000000000E+00  0.11706914119E+03  0.11706914119E+03  0.00000000000E+00 0. -1.
         21   -1    0    0  501  503 -0.00000000000E+00 -0.00000000000E+00 -0.63428343051E+03  0.63428343051E+03  0.00000000000E+00 0. -1.
          6    2    1    2  501    0 -0.11147104265E+03  0.12853761860E+02 -0.50922014623E+03  0.54573337871E+03  0.16102406889E+03 0.  0.
         24    2    3    3    0    0 -0.57675116673E+02 -0.48428025968E+02 -0.21752292155E+03  0.24281619521E+03  0.77277360681E+02 0.  0.
         -6    2    1    2    0  502  0.11147104265E+03 -0.12853761860E+02 -0.79941430866E+01  0.20561919299E+03  0.17211720907E+03 0.  0.
        -24    2    5    5    0    0  0.12387429666E+02 -0.54663005287E+02  0.10989983153E+02  0.96312000884E+02  0.77548238044E+02 0.  0.
          5    1    3    3  501    0 -0.53795925972E+02  0.61281787827E+02 -0.29169722469E+03  0.30291718350E+03  0.47000000000E+01 0. -1.
        -11    1    4    4    0    0  0.15346747397E+02 -0.28213142067E+02 -0.66890254643E+02  0.74201146940E+02  0.00000000000E+00 0.  1.
         12    1    4    4    0    0 -0.73021864070E+02 -0.20214883900E+02 -0.15063266690E+03  0.16861504827E+03  0.00000000000E+00 0. -1.
         -5    1    5    5    0  502  0.99083612980E+02  0.41809243427E+02 -0.18984126240E+02  0.10930719211E+03  0.47000000000E+01 0.  1.
         13    1    6    6    0    0 -0.12742488943E+02  0.90664217989E+01  0.21933909431E+02  0.26938214708E+02  0.00000000000E+00 0. -1.
        -14    1    6    6    0    0  0.25129918609E+02 -0.63729427086E+02 -0.10943926278E+02  0.69373786176E+02  0.00000000000E+00 0.  1.
</event>
<event>
12    1  0.9246030E-003  0.1972572E+03  0.7818608E-02  0.1152080E+00
         21   -1    0    0  503  502  0.00000000000E+00  0.00000000000E+00  0.25554428670E+03  0.25554428670E+03  0.00000000000E+00 0.  1.
         21   -1    0    0  501  503 -0.00000000000E+00 -0.00000000000E+00 -0.15990002527E+03  0.15990002527E+03  0.00000000000E+00 0.  1.
          6    2    1    2  501    0 -0.18458165490E+02 -0.95397541386E+02  0.93281798766E+02  0.21820146081E+03  0.17166533938E+03 0.  0.
         24    2    3    3    0    0 -0.76452005096E+02 -0.71905501269E+02  0.81546967720E+02  0.15436606592E+03  0.78509006920E+02 0.  0.
         -6    2    1    2    0  502  0.18458165490E+02  0.95397541386E+02  0.23624626643E+01  0.19724285117E+03  0.17163264937E+03 0.  0.
        -24    2    5    5    0    0 -0.17052000312E+02  0.20986205912E+02  0.55065377993E+02  0.99274968641E+02  0.78052110746E+02 0.  0.
          5    1    3    3  501    0  0.57993839606E+02 -0.23492040117E+02  0.11734831046E+02  0.63835394890E+02  0.47000000000E+01 0. -1.
        -11    1    4    4    0    0 -0.34426563336E+02  0.12520706890E+02  0.25914807564E+02  0.44872414859E+02  0.00000000000E+00 0.  1.
         12    1    4    4    0    0 -0.42025441760E+02 -0.84426208159E+02  0.55632160155E+02  0.10949365106E+03  0.00000000000E+00 0. -1.
         -5    1    5    5    0  502  0.35510165803E+02  0.74411335473E+02 -0.52702915329E+02  0.97967882525E+02  0.47000000000E+01 0.  1.
         13    1    6    6    0    0 -0.15765870052E+02  0.50396225581E+02  0.39730411501E+02  0.66082129274E+02  0.00000000000E+00 0. -1.
        -14    1    6    6    0    0 -0.12861302605E+01 -0.29410019669E+02  0.15334966492E+02  0.33192839367E+02  0.00000000000E+00 0.  1.
</event>
<event>
12    1  0.9246030E-003  0.2333061E+03  0.7818608E-02  0.1125359E+00
         21   -1    0    0  503  502  0.00000000000E+00  0.00000000000E+00  0.51473864811E+03  0.51473864811E+03  0.00000000000E+00 0. -1.
         21   -1    0    0  501  503 -0.00000000000E+00 -0.00000000000E+00 -0.31906188270E+03  0.31906188270E+03  0.00000000000E+00 0. -1.
          6    2    1    2  501    0 -0.14142773807E+03  0.47469291632E+02 -0.24473503200E+03  0.33812272217E+03  0.17937837276E+03 0.  0.
         24    2    3    3    0    0 -0.61737619298E+02  0.11622805567E+02 -0.22720183965E+03  0.24887593832E+03  0.79824391567E+02 0.  0.
         -6    2    1    2    0  502  0.14142773807E+03 -0.47469291632E+02  0.44041179741E+03  0.49567780865E+03  0.17169391355E+03 0.  0.
        -24    2    5    5    0    0  0.15515533256E+03  0.31891056039E+01  0.33528783475E+03  0.37808589742E+03  0.80297360385E+02 0.  0.
          5    1    3    3  501    0 -0.79690118771E+02  0.35846486065E+02 -0.17533192347E+02  0.89246783846E+02  0.47000000000E+01 0. -1.
        -13    1    4    4    0    0 -0.56593967544E+01  0.22079589894E+02 -0.11063548690E+02  0.25336518529E+02  0.00000000000E+00 0.  1.
         14    1    4    4    0    0 -0.56078222543E+02 -0.10456784327E+02 -0.21613829096E+03  0.22353941979E+03  0.00000000000E+00 0. -1.
         -5    1    5    5    0  502 -0.13727594487E+02 -0.50658397236E+02  0.10512396266E+03  0.11759191123E+03  0.47000000000E+01 0.  1.
         11    1    6    6    0    0  0.50302564126E+02  0.37930266020E+02  0.14435954758E+03  0.15750787922E+03  0.00000000000E+00 0. -1.
        -12    1    6    6    0    0  0.10485276843E+03 -0.34741160416E+02  0.19092828717E+03  0.22057801821E+03  0.00000000000E+00 0.  1.
</event>
<event>
12    1  0.9246030E-003  0.1860404E+03  0.7818608E-02  0.1162268E+00
         21   -1    0    0  503  502  0.00000000000E+00  0.00000000000E+00  0.92267098789E+02  0.92267098789E+02  0.00000000000E+00 0. -1.
         21   -1    0    0  501  503 -0.00000000000E+00 -0.00000000000E+00 -0.56850374439E+03  0.56850374439E+03  0.00000000000E+00 0. -1.
          6    2    1    2  501    0  0.49379943758E+02  0.52830701235E+02 -0.43127675685E+03  0.46937486608E+03  0.17053932705E+03 0.  0.
         24    2    3    3    0    0  0.86125848430E+02  0.66037761001E+02 -0.24483982781E+03  0.27883482712E+03  0.77612317879E+02 0.  0.
         -6    2    1    2    0  502 -0.49379943758E+02 -0.52830701235E+02 -0.44959888760E+02  0.19139597711E+03  0.17141052073E+03 0.  0.
        -24    2    5    5    0    0 -0.22749997748E+02 -0.10000998014E+03 -0.42390378809E+02  0.13695581947E+03  0.80252063816E+02 0.  0.
          5    1    3    3  501    0 -0.36745904672E+02 -0.13207059766E+02 -0.18643692904E+03  0.19054003896E+03  0.47000000000E+01 0. -1.
        -11    1    4    4    0    0  0.18363832334E+02  0.51520933224E+02 -0.58795193824E+02  0.80302625829E+02  0.00000000000E+00 0.  1.
         12    1    4    4    0    0  0.67762016096E+02  0.14516827777E+02 -0.18604463398E+03  0.19853220129E+03  0.00000000000E+00 0. -1.
         -5    1    5    5    0  502 -0.26629946010E+02  0.47179278901E+02 -0.25695099514E+01  0.54440157637E+02  0.47000000000E+01 0.  1.
         13    1    6    6    0    0  0.16581427289E+01 -0.75037987975E+02 -0.61603187331E+02  0.97099957600E+02  0.00000000000E+00 0. -1.
        -14    1    6    6    0    0 -0.24408140477E+02 -0.24971992161E+02  0.19212808522E+02  0.39855861869E+02  0.00000000000E+00 0.  1.
</event>
<event>
12    1  0.9246030E-003  0.1821092E+03  0.7818608E-02  0.1166032E+00
         21   -1    0    0  501  502  0.00000000000E+00  0.00000000000E+00  0.47813414234E+03  0.47813414234E+03  0.00000000000E+00 0.  1.
         21   -1    0    0  502  503 -0.00000000000E+00 -0.00000000000E+00 -0.94891113828E+02  0.94891113828E+02  0.00000000000E+00 0.  1.
          6    2    1    2  501    0 -0.41519682475E+02  0.39185904357E+02  0.34100223745E+03  0.38608132921E+03  0.17180467889E+03 0.  0.
         24    2    3    3    0    0 -0.55119288732E+02 -0.96680004479E+01  0.31382864694E+03  0.32835657433E+03  0.78727466891E+02 0.  0.
         -6    2    1    2    0  503  0.41519682475E+02 -0.39185904357E+02  0.42240791064E+02  0.18694392696E+03  0.17292867970E+03 0.  0.
        -24    2    5    5    0    0 -0.34621239922E+02 -0.48369474337E+02  0.45733511597E+02  0.11002795256E+03  0.80475834632E+02 0.  0.
          5    1    3    3  501    0  0.13599606257E+02  0.48853904805E+02  0.27173590510E+02  0.57724754882E+02  0.47000000000E+01 0. -1.
        -11    1    4    4    0    0  0.94492530739E+00 -0.32817891871E+02  0.73636086690E+02  0.80623694865E+02  0.00000000000E+00 0.  1.
         12    1    4    4    0    0 -0.56064214039E+02  0.23149891424E+02  0.24019256025E+03  0.24773287946E+03  0.00000000000E+00 0. -1.
         -5    1    5    5    0  503  0.76140922396E+02  0.91835699807E+01 -0.34927205330E+01  0.76915974399E+02  0.47000000000E+01 0.  1.
         11    1    6    6    0    0 -0.23725601646E+02 -0.31978549071E+02  0.68931331533E+02  0.79605654579E+02  0.00000000000E+00 0. -1.
        -12    1    6    6    0    0 -0.10895638276E+02 -0.16390925267E+02 -0.23197819936E+02  0.30422297979E+02  0.00000000000E+00 0.  1.
</event>
<event>
12    1  0.9246030E-003  0.1916454E+03  0.7818608E-02  0.1158047E+00
         21   -1    0    0  503  502  0.00000000000E+00  0.00000000000E+00  0.44448846913E+03  0.44448846913E+03  0.00000000000E+00 0. -1.
         21   -1    0    0  501  503 -0.00000000000E+00 -0.00000000000E+00 -0.81240334809E+02  0.81240334809E+02  0.00000000000E+00 0.  1.
          6    2    1    2  501    0 -0.65506398099E+02  0.53613099076E+02  0.20242030231E+03  0.27554179498E+03  0.16668488056E+03 0.  0.
         24    2    3    3    0    0 -0.31560425108E+02 -0.33795706484E+02  0.83924481954E+02  0.12435985884E+03  0.79270710920E+02 0.  0.
         -6    2    1    2    0  502  0.65506398099E+02 -0.53613099076E+02  0.16082783201E+03  0.25018700896E+03  0.17193747503E+03 0.  0.
        -24    2    5    5    0    0  0.98666886705E+02 -0.18866949314E+02  0.66052336303E+02  0.14383195495E+03  0.78953174887E+02 0.  0.
          5    1    3    3  501    0 -0.33945972992E+02  0.87408805560E+02  0.11849582036E+03  0.15118193614E+03  0.47000000000E+01 0. -1.
        -13    1    4    4    0    0 -0.54727771088E+02 -0.25882231510E+02  0.35711949706E+02  0.70287710078E+02  0.00000000000E+00 0.  1.
         14    1    4    4    0    0  0.23167345981E+02 -0.79134749744E+01  0.48212532248E+02  0.54072148762E+02  0.00000000000E+00 0. -1.
         -5    1    5    5    0  502 -0.33160488606E+02 -0.34746149762E+02  0.94775495705E+02  0.10635505401E+03  0.47000000000E+01 0.  1.
         13    1    6    6    0    0  0.15359217200E+02  0.22904719343E+02 -0.31462268767E+01  0.27756629203E+02  0.00000000000E+00 0. -1.
        -14    1    6    6    0    0  0.83307669505E+02 -0.41771668657E+02  0.69198563180E+02  0.11607532575E+03  0.00000000000E+00 0.  1.
</event>
<event>
12    1  0.9246030E-003  0.1765350E+03  0.7818608E-02  0.1171434E+00
         21   -1    0    0  501  502  0.00000000000E+00  0.00000000000E+00  0.15799985792E+03  0.15799985792E+03  0.00000000000E+00 0.  1.
         21   -1    0    0  502  503 -0.00000000000E+00 -0.00000000000E+00 -0.27340865973E+03  0.27340865973E+03  0.00000000000E+00 0.  1.
          6    2    1    2  501    0 -0.12062506950E+02 -0.77510958060E+00  0.57039042426E+02  0.18462342907E+03  0.17517492210E+03 0.  0.
         24    2    3    3    0    0 -0.12712856773E+02  0.41289431460E+02  0.92065009827E+02  0.12968021329E+03  0.80464636998E+02 0.  0.
         -6    2    1    2    0  503  0.12062506950E+02  0.77510958060E+00 -0.17244784424E+03  0.24678508858E+03  0.17612074294E+03 0.  0.
        -24    2    5    5    0    0 -0.55404111058E+01  0.33592255746E+02  0.56094753182E+01  0.64814412766E+02  0.54866256366E+02 0.  0.
          5    1    3    3  501    0  0.65034982299E+00 -0.42064541041E+02 -0.35025967401E+02  0.54943215780E+02  0.47000000000E+01 0. -1.
        -11    1    4    4    0    0  0.25257694003E+02  0.24499101883E+02  0.82433800430E+01  0.36140149612E+02  0.00000000000E+00 0.  1.
         12    1    4    4    0    0 -0.37970550776E+02  0.16790329577E+02  0.83821629784E+02  0.93540063680E+02  0.00000000000E+00 0. -1.
         -5    1    5    5    0  503  0.17602918056E+02 -0.32817146165E+02 -0.17805731956E+03  0.18197067581E+03  0.47000000000E+01 0.  1.
         11    1    6    6    0    0  0.14640372485E+02  0.19019518164E+02  0.23940841084E+02  0.33900537599E+02  0.00000000000E+00 0. -1.
        -12    1    6    6    0    0 -0.20180783591E+02  0.14572737582E+02 -0.18331365766E+02  0.30913875167E+02  0.00000000000E+00 0.  1.
</event>
<event>
12    1  0.9246030E-003  0.2250869E+03  0.7818608E-02  0.1130274E+00
         21   -1    0    0  501  502  0.00000000000E+00  0.00000000000E+00  0.21047254168E+03  0.21047254168E+03  0.00000000000E+00 0.  1.
         21   -1    0    0  502  503 -0.00000000000E+00 -0.00000000000E+00 -0.24028766374E+03  0.24028766374E+03  0.00000000000E+00 0.  1.
          6    2    1    2  501    0 -0.90373391644E+02  0.11063168447E+03 -0.23239299602E+02  0.22628339232E+03  0.17394651209E+03 0.  0.
         24    2    3    3    0    0 -0.97020841458E+02  0.79677694194E+02 -0.64910950488E+02  0.17373860580E+03  0.10104500493E+03 0.  0.
         -6    2    1    2    0  503  0.90373391644E+02 -0.11063168447E+03 -0.65758224615E+01  0.22447681309E+03  0.17303143833E+03 0.  0.
        -24    2    5    5    0    0  0.12598190635E+03 -0.96571077796E+02  0.17661000273E+02  0.17892266338E+03  0.80647348035E+02 0.  0.
          5    1    3    3  501    0  0.66474498144E+01  0.30953990277E+02  0.41671650887E+02  0.52544786523E+02  0.47000000000E+01 0. -1.
        -11    1    4    4    0    0 -0.10300432936E+03  0.80726073032E+02 -0.24834196427E+02  0.13320408419E+03  0.00000000000E+00 0.  1.
         12    1    4    4    0    0  0.59834878984E+01 -0.10483788377E+01 -0.40076754062E+02  0.40534521605E+02  0.00000000000E+00 0. -1.
         -5    1    5    5    0  503 -0.35608514710E+02 -0.14060606675E+02 -0.24236822734E+02  0.45554149714E+02  0.47000000000E+01 0.  1.
         11    1    6    6    0    0  0.76770720832E+02 -0.14852500104E+02 -0.11811534098E+02  0.79081304201E+02  0.00000000000E+00 0. -1.
        -12    1    6    6    0    0  0.49211185522E+02 -0.81718577692E+02  0.29472534371E+02  0.99841359179E+02  0.00000000000E+00 0.  1.
</event>
<event>
12    1  0.9246030E-003  0.1832843E+03  0.7818608E-02  0.1164799E+00
         21   -1    0    0  503  502  0.00000000000E+00  0.00000000000E+00  0.18782992899E+04  0.18782992899E+04  0.00000000000E+00 0. -1.
         21   -1    0    0  501  503 -0.00000000000E+00 -0.00000000000E+00 -0.26181619181E+02  0.26181619181E+02  0.00000000000E+00 0. -1.
          6    2    1    2  501    0  0.48055907627E+02 -0.40628299262E+02  0.38918932398E+03  0.43018770012E+03  0.17214266894E+03 0.  0.
         24    2    3    3    0    0  0.22684817727E+02 -0.88874145512E+02  0.31635354895E+03  0.33909162991E+03  0.80562713727E+02 0.  0.
         -6    2    1    2    0  502 -0.48055907627E+02  0.40628299262E+02  0.14629283468E+04  0.14742932090E+04  0.17152576878E+03 0.  0.
        -24    2    5    5    0    0 -0.82598927787E+02 -0.15650342806E+01  0.81943846560E+03  0.82847991182E+03  0.89858406332E+02 0.  0.
          5    1    3    3  501    0  0.25371089900E+02  0.48245846250E+02  0.72835775030E+02  0.91096070208E+02  0.47000000000E+01 0. -1.
        -13    1    4    4    0    0 -0.28928434398E+02 -0.40011642104E+02  0.15763121126E+03  0.16518288224E+03  0.00000000000E+00 0.  1.
         14    1    4    4    0    0  0.51613252125E+02 -0.48862503408E+02  0.15872233769E+03  0.17390874767E+03  0.00000000000E+00 0. -1.
         -5    1    5    5    0  502  0.34543020160E+02  0.42193333543E+02  0.64348988119E+03  0.64581329719E+03  0.47000000000E+01 0.  1.
         11    1    6    6    0    0 -0.38160072020E+02 -0.26771578401E+02  0.64583005033E+03  0.64751012533E+03  0.00000000000E+00 0. -1.
        -12    1    6    6    0    0 -0.44438855768E+02  0.25206544120E+02  0.17360841527E+03  0.18096978649E+03  0.00000000000E+00 0.  1.
</event>
<event>
12    1  0.9246030E-003  0.1759989E+03  0.7818608E-02  0.1172351E+00
         21   -1    0    0  501  502  0.00000000000E+00  0.00000000000E+00  0.15813025530E+03  0.15813025530E+03  0.00000000000E+00 0.  1.
         21   -1    0    0  502  503 -0.00000000000E+00 -0.00000000000E+00 -0.24060730562E+03  0.24060730562E+03  0.00000000000E+00 0.  1.
          6    2    1    2  501    0 -0.94937446943E+01  0.19900869794E+02  0.47530584995E+02  0.17992807360E+03  0.17213012331E+03 0.  0.
         24    2    3    3    0    0  0.49720249339E+02 -0.72366851221E+01  0.60113324443E+02  0.11342123704E+03  0.82013977049E+02 0.  0.
         -6    2    1    2    0  503  0.94937446943E+01 -0.19900869794E+02 -0.13000763531E+03  0.21880948732E+03  0.17461222952E+03 0.  0.
        -24    2    5    5    0    0  0.34804780369E+02  0.99351238215E+01 -0.15053176440E+03  0.17437791165E+03  0.80235681333E+02 0.  0.
          5    1    3    3  501    0 -0.59213994034E+02  0.27137554916E+02 -0.12582739447E+02  0.66506836552E+02  0.47000000000E+01 0. -1.
        -13    1    4    4    0    0  0.49797437820E+02  0.30309528225E+02  0.41159035201E+02  0.71361884037E+02  0.00000000000E+00 0.  1.
         14    1    4    4    0    0 -0.77188480369E-01 -0.37546213347E+02  0.18954289242E+02  0.42059353008E+02  0.00000000000E+00 0. -1.
         -5    1    5    5    0  503 -0.25311035675E+02 -0.29835993615E+02  0.20524129085E+02  0.44431575671E+02  0.47000000000E+01 0.  1.
         11    1    6    6    0    0  0.29120186689E+02 -0.29208862134E+02 -0.42011197514E+02  0.58873454260E+02  0.00000000000E+00 0. -1.
        -12    1    6    6    0    0  0.56845936803E+01  0.39143985955E+02 -0.10852056688E+03  0.11550445739E+03  0.00000000000E+00 0.  1.
</event>
<event>
12    1  0.9246030E-003  0.2131326E+03  0.7818608E-02  0.1140081E+00
         21   -1    0    0  501  502  0.00000000000E+00  0.00000000000E+00  0.56881189928E+03  0.56881189928E+03  0.00000000000E+00 0. -1.
         21   -1    0    0  502  503 -0.00000000000E+00 -0.00000000000E+00 -0.78204361531E+02  0.78204361531E+02  0.00000000000E+00 0.  1.
          6    2    1    2  501    0  0.11809087683E+03 -0.36438802346E+02  0.25814166693E+03  0.33163413573E+03  0.16754354142E+03 0.  0.
         24    2    3    3    0    0  0.14903726700E+03 -0.18495108904E+02  0.19487395118E+03  0.25880180050E+03  0.80301550973E+02 0.  0.
         -6    2    1    2    0  503 -0.11809087683E+03  0.36438802346E+02  0.23246587083E+03  0.31538212508E+03  0.17364406760E+03 0.  0.
        -24    2    5    5    0    0 -0.13411234477E+03  0.33610052563E+02  0.24635997305E+03  0.29347720926E+03  0.79497669037E+02 0.  0.
          5    1    3    3  501    0 -0.30946390167E+02 -0.17943693442E+02  0.63267715750E+02  0.72832335230E+02  0.47000000000E+01 0. -1.
        -11    1    4    4    0    0  0.86772506629E+02  0.28560646486E+02  0.91738607532E+02  0.12946486221E+03  0.00000000000E+00 0.  1.
         12    1    4    4    0    0  0.62264760371E+02 -0.47055755390E+02  0.10313534364E+03  0.12933693830E+03  0.00000000000E+00 0. -1.
         -5    1    5    5    0  503  0.16021467938E+02  0.28287497832E+01 -0.13894102227E+02  0.21904915816E+02  0.47000000000E+01 0.  1.
         13    1    6    6    0    0 -0.53552142143E+01 -0.19330681571E+02  0.26257691896E+02  0.33042698936E+02  0.00000000000E+00 0. -1.
        -14    1    6    6    0    0 -0.12875713056E+03  0.52940734134E+02  0.22010228116E+03  0.26043451033E+03  0.00000000000E+00 0.  1.
</event>
<event>
12    1  0.9246030E-003  0.2366671E+03  0.7818608E-02  0.1122433E+00
         21   -1    0    0  501  502  0.00000000000E+00  0.00000000000E+00  0.33530189901E+03  0.33530189901E+03  0.00000000000E+00 0.  1.
         21   -1    0    0  502  503 -0.00000000000E+00 -0.00000000000E+00 -0.16702017514E+03  0.16702017514E+03  0.00000000000E+00 0.  1.
          6    2    1    2  501    0 -0.12046454765E+03 -0.11414109547E+03  0.59792056935E+02  0.24410328232E+03  0.16873477843E+03 0.  0.
         24    2    3    3    0    0 -0.93161593136E+01 -0.92717592483E+02  0.20476566788E+02  0.12418360722E+03  0.79491733756E+02 0.  0.
         -6    2    1    2    0  503  0.12046454765E+03  0.11414109547E+03  0.10848966694E+03  0.25821879182E+03  0.16542986339E+03 0.  0.
        -24    2    5    5    0    0  0.97516534242E+02  0.14010310498E+03  0.11762563889E+03  0.22207749632E+03  0.79650919473E+02 0.  0.
          5    1    3    3  501    0 -0.11114838834E+03 -0.21423502987E+02  0.39315490148E+02  0.11991967510E+03  0.47000000000E+01 0. -1.
        -11    1    4    4    0    0 -0.16738846443E+02 -0.21398029149E+02 -0.26907363670E+02  0.38237035076E+02  0.00000000000E+00 0.  1.
         12    1    4    4    0    0  0.74226871293E+01 -0.71319563334E+02  0.47383930458E+02  0.85946572148E+02  0.00000000000E+00 0. -1.
         -5    1    5    5    0  503  0.22948013410E+02 -0.25962009510E+02 -0.91359719447E+01  0.36141295503E+02  0.47000000000E+01 0.  1.
         13    1    6    6    0    0  0.18183620768E+02  0.15286837157E+02 -0.10902464298E+02  0.26138002645E+02  0.00000000000E+00 0. -1.
        -14    1    6    6    0    0  0.79332913475E+02  0.12481626782E+03  0.12852810318E+03  0.19593949368E+03  0.00000000000E+00 0.  1.
</event>
<event>
12    1  0.9246030E-003  0.3801353E+03  0.7818608E-02  0.1051133E+00
         21   -1    0    0  503  502  0.00000000000E+00  0.00000000000E+00  0.54282927951E+03  0.54282927951E+03  0.00000000000E+00 0.  1.
         21   -1    0    0  501  503 -0.00000000000E+00 -0.00000000000E+00 -0.32442938997E+03  0.32442938997E+03  0.00000000000E+00 0. -1.
          6    2    1    2  501    0  0.97051021802E+02 -0.32327032471E+03 -0.77756737769E+02  0.38537525790E+03  0.16895376723E+03 0.  0.
         24    2    3    3    0    0  0.13488465276E+03 -0.26655826502E+03 -0.53361485712E+02  0.31281590517E+03  0.75889157102E+02 0.  0.
         -6    2    1    2    0  502 -0.97051021802E+02  0.32327032471E+03  0.29615662731E+03  0.48188341158E+03  0.17487215554E+03 0.  0.
        -24    2    5    5    0    0 -0.10807718523E+03  0.32283083298E+03  0.23212785907E+03  0.41674093239E+03  0.62363748134E+02 0.  0.
          5    1    3    3  501    0 -0.37833630961E+02 -0.56712059694E+02 -0.24395252057E+02  0.72559352735E+02  0.47000000000E+01 0. -1.
        -13    1    4    4    0    0 -0.12957380797E+01 -0.50600127920E+02 -0.23368071317E+02  0.55750503494E+02  0.00000000000E+00 0.  1.
         14    1    4    4    0    0  0.13618039084E+03 -0.21595813710E+03 -0.29993414395E+02  0.25706540167E+03  0.00000000000E+00 0. -1.
         -5    1    5    5    0  502  0.11026163426E+02  0.43949173274E+00  0.64028768238E+02  0.65142479190E+02  0.47000000000E+01 0.  1.
         13    1    6    6    0    0  0.43362900075E+01  0.39089374983E+02  0.14584987026E+02  0.41946447932E+02  0.00000000000E+00 0. -1.
        -14    1    6    6    0    0 -0.11241347524E+03  0.28374145800E+03  0.21754287204E+03  0.37479448446E+03  0.00000000000E+00 0.  1.
</event>
<event>
12    1  0.9246030E-003  0.1998131E+03  0.7818608E-02  0.1149968E+00
         21   -1    0    0  503  502  0.00000000000E+00  0.00000000000E+00  0.42827683208E+03  0.42827683208E+03  0.00000000000E+00 0.  1.
         21   -1    0    0  501  503 -0.00000000000E+00 -0.00000000000E+00 -0.93635515470E+02  0.93635515470E+02  0.00000000000E+00 0.  1.
          6    2    1    2  501    0  0.83002920650E+02  0.60616456187E+02  0.18780175893E+03  0.27421664541E+03  0.17135176791E+03 0.  0.
         24    2    3    3    0    0  0.85371515823E+02  0.30149580658E+02  0.48142537785E+02  0.13117599105E+03  0.81805523998E+02 0.  0.
         -6    2    1    2    0  502 -0.83002920650E+02 -0.60616456187E+02  0.14683955768E+03  0.24769570214E+03  0.17096042104E+03 0.  0.
        -24    2    5    5    0    0 -0.46266398197E+02 -0.54221674454E+02  0.12715609322E+02  0.10840539796E+03  0.80681311367E+02 0.  0.
          5    1    3    3  501    0 -0.23685951734E+01  0.30466875529E+02  0.13965922114E+03  0.14304065435E+03  0.47000000000E+01 0. -1.
        -13    1    4    4    0    0  0.63251046129E+02  0.36875347725E+02  0.68579689434E+02  0.10031779458E+03  0.00000000000E+00 0.  1.
         14    1    4    4    0    0  0.22120469694E+02 -0.67257670672E+01 -0.20437151649E+02  0.30858196474E+02  0.00000000000E+00 0. -1.
         -5    1    5    5    0  502 -0.36736522453E+02 -0.63947817332E+01  0.13412394836E+03  0.13929030418E+03  0.47000000000E+01 0.  1.
         11    1    6    6    0    0 -0.51679744405E+02 -0.60053318044E+01 -0.12810059267E+02  0.53581317736E+02  0.00000000000E+00 0. -1.
        -12    1    6    6    0    0  0.54133462081E+01 -0.48216342649E+02  0.25525668589E+02  0.54824080225E+02  0.00000000000E+00 0.  1.
</event>
<event>
12    1  0.9246030E-003  0.3415812E+03  0.7818608E-02  0.1066481E+00
         21   -1    0    0  503  502  0.00000000000E+00  0.00000000000E+00  0.10762982420E+04  0.10762982420E+04  0.00000000000E+00 0.  1.
         21   -1    0    0  501  503 -0.00000000000E+00 -0.00000000000E+00 -0.11998959401E+03  0.11998959401E+03  0.00000000000E+00 0. -1.
          6    2    1    2  501    0  0.28559306232E+03 -0.61378302525E+02  0.28187650567E+03  0.44028756760E+03  0.17049364935E+03 0.  0.
         24    2    3    3    0    0  0.14260798589E+03 -0.90266864427E+02  0.11112242045E+03  0.21565825359E+03  0.75333562008E+02 0.  0.
         -6    2    1    2    0  502 -0.28559306232E+03  0.61378302525E+02  0.67443214234E+03  0.75600026842E+03  0.17705083442E+03 0.  0.
        -24    2    5    5    0    0 -0.14777511675E+03 -0.15594072225E+02  0.45776654139E+03  0.48788722281E+03  0.80019219815E+02 0.  0.
          5    1    3    3  501    0  0.14298507643E+03  0.28888561902E+02  0.17075408522E+03  0.22462931401E+03  0.47000000000E+01 0. -1.
        -11    1    4    4    0    0  0.23812817291E+02 -0.40296649166E+02  0.62118338664E+02  0.77778905878E+02  0.00000000000E+00 0.  1.
         12    1    4    4    0    0  0.11879516859E+03 -0.49970215262E+02  0.49004081785E+02  0.13787934772E+03  0.00000000000E+00 0. -1.
         -5    1    5    5    0  502 -0.13781794557E+03  0.76972374750E+02  0.21666560094E+03  0.26811304561E+03  0.47000000000E+01 0.  1.
         11    1    6    6    0    0 -0.29790600471E+02 -0.35863493760E+02  0.93969583778E+02  0.10489972706E+03  0.00000000000E+00 0. -1.
        -12    1    6    6    0    0 -0.11798451628E+03  0.20269421535E+02  0.36379695762E+03  0.38298749575E+03  0.00000000000E+00 0.  1.
</event>
<event>
12    1  0.9246030E-003  0.1916025E+03  0.7818608E-02  0.1161042E+00
         21   -1    0    0  501  502  0.00000000000E+00  0.00000000000E+00  0.79946643984E+02  0.79946643984E+02  0.00000000000E+00 0. -1.
         21   -1    0    0  502  503 -0.00000000000E+00 -0.00000000000E+00 -0.43050205154E+03  0.43050205154E+03  0.00000000000E+00 0. -1.
          6    2    1    2  501    0 -0.23859035408E+02  0.31511298430E+02 -0.20888487692E+03  0.27215883710E+03  0.16992741188E+03 0.  0.
         24    2    3    3    0    0  0.42139434683E+02 -0.88966884079E+01 -0.78144859960E+02  0.12016000326E+03  0.80479340362E+02 0.  0.
         -6    2    1    2    0  503  0.23859035408E+02 -0.31511298430E+02 -0.14167053063E+03  0.23828985841E+03  0.18748147075E+03 0.  0.
        -24    2    5    5    0    0  0.59273276927E+00  0.55548702797E+02 -0.49749417403E+02  0.10947857898E+03  0.80153259509E+02 0.  0.
          5    1    3    3  501    0 -0.65998470090E+02  0.40407986837E+02 -0.13074001696E+03  0.15199883385E+03  0.47000000000E+01 0. -1.
        -11    1    4    4    0    0  0.18994614575E+02  0.76793254005E+01  0.13273107335E+02  0.24411939697E+02  0.00000000000E+00 0.  1.
         12    1    4    4    0    0  0.23144820108E+02 -0.16576013808E+02 -0.91417967295E+02  0.95748063562E+02  0.00000000000E+00 0. -1.
         -5    1    5    5    0  503  0.23266302638E+02 -0.87060001227E+02 -0.91921113225E+02  0.12881127943E+03  0.47000000000E+01 0.  1.
         11    1    6    6    0    0 -0.13300979169E+02 -0.17349704032E+02 -0.19654976121E+02  0.29398067337E+02  0.00000000000E+00 0. -1.
        -12    1    6    6    0    0  0.13893711939E+02  0.72898406829E+02 -0.30094441281E+02  0.80080511647E+02  0.00000000000E+00 0.  1.
</event>
<event>
12    1  0.9246030E-003  0.2245292E+03  0.7818608E-02  0.1130561E+00
         21   -1    0    0  503  502  0.00000000000E+00  0.00000000000E+00  0.97983722723E+02  0.97983722723E+02  0.00000000000E+00 0.  1.
         21   -1    0    0  501  503 -0.00000000000E+00 -0.00000000000E+00 -0.80424708081E+03  0.80424708081E+03  0.00000000000E+00 0.  1.
          6    2    1    2  501    0 -0.34283533485E+02 -0.13989838715E+03 -0.62393080441E+03  0.66308226316E+03  0.17216712702E+03 0.  0.
         24    2    3    3    0    0 -0.30429634648E+02 -0.15280993891E+02 -0.35478746649E+03  0.36642661500E+03  0.85057900045E+02 0.  0.
         -6    2    1    2    0  502  0.34283533485E+02  0.13989838715E+03 -0.82332553676E+02  0.23914854038E+03  0.17223952965E+03 0.  0.
        -24    2    5    5    0    0 -0.42378888004E+01  0.25192590988E+02 -0.81638528774E+02  0.11805398509E+03  0.81358881958E+02 0.  0.
          5    1    3    3  501    0 -0.38538988369E+01 -0.12461739326E+03 -0.26914333792E+03  0.29665564816E+03  0.47000000000E+01 0. -1.
        -11    1    4    4    0    0  0.25876818757E+02 -0.20944469449E+02 -0.98777924793E+02  0.10423703265E+03  0.00000000000E+00 0.  1.
         12    1    4    4    0    0 -0.56306453405E+02  0.56634755578E+01 -0.25600954170E+03  0.26218958235E+03  0.00000000000E+00 0. -1.
         -5    1    5    5    0  502  0.38521422285E+02  0.11470579616E+03 -0.69402490193E+00  0.12109455528E+03  0.47000000000E+01 0.  1.
         13    1    6    6    0    0 -0.36963473908E+02  0.16703169020E+02 -0.14848651411E+02  0.43194637484E+02  0.00000000000E+00 0. -1.
        -14    1    6    6    0    0  0.32725585108E+02  0.84894219676E+01 -0.66789877364E+02  0.74859347608E+02  0.00000000000E+00 0.  1.
</event>
<event>
12    1  0.9246030E-003  0.1756266E+03  0.7818608E-02  0.1172241E+00
         21   -1    0    0  501  502  0.00000000000E+00  0.00000000000E+00  0.78979995184E+03  0.78979995184E+03  0.00000000000E+00 0.  1.
         21   -1    0    0  502  503 -0.00000000000E+00 -0.00000000000E+00 -0.43422425869E+02  0.43422425869E+02  0.00000000000E+00 0.  1.
          6    2    1    2  501    0 -0.17661271197E+02  0.33201546094E+02  0.50767510734E+03  0.53719522594E+03  0.17155300347E+03 0.  0.
         24    2    3    3    0    0  0.50880940905E+02 -0.33348923824E+01  0.34247218954E+03  0.35458350610E+03  0.76434746888E+02 0.  0.
         -6    2    1    2    0  503  0.17661271197E+02 -0.33201546094E+02  0.23870241863E+03  0.29602715176E+03  0.17099405475E+03 0.  0.
        -24    2    5    5    0    0 -0.50639659073E+02  0.10174797485E+02  0.11553136147E+03  0.14858318417E+03  0.77856056670E+02 0.  0.
          5    1    3    3  501    0 -0.68542212102E+02  0.36536438476E+02  0.16520291780E+03  0.18261171985E+03  0.47000000000E+01 0. -1.
        -13    1    4    4    0    0 -0.17353923830E+02 -0.10565593460E+02  0.46214624325E+02  0.50483481842E+02  0.00000000000E+00 0.  1.
         14    1    4    4    0    0  0.68234864734E+02  0.72307010774E+01  0.29625756522E+03  0.30410002425E+03  0.00000000000E+00 0. -1.
         -5    1    5    5    0  503  0.68300930270E+02 -0.43376343579E+02  0.12317105715E+03  0.14744396759E+03  0.47000000000E+01 0.  1.
         13    1    6    6    0    0  0.87526796855E+01  0.29653564715E+02  0.39170738399E+02  0.49902806020E+02  0.00000000000E+00 0. -1.
        -14    1    6    6    0    0 -0.59392338758E+02 -0.19478767230E+02  0.76360623076E+02  0.98680378153E+02  0.00000000000E+00 0.  1.
</event>
<event>
12    1  0.9246030E-003  0.1966472E+03  0.7818608E-02  0.1152675E+00
         21   -1    0    0  503  502  0.00000000000E+00  0.00000000000E+00  0.11340677516E+04  0.11340677516E+04  0.00000000000E+00 0.  1.
         21   -1    0    0  501  503 -0.00000000000E+00 -0.00000000000E+00 -0.47352900350E+02  0.47352900350E+02  0.00000000000E+00 0.  1.
          6    2    1    2  501    0  0.58057766460E+02 -0.74689997257E+02  0.23046863412E+03  0.30296188969E+03  0.17239726029E+03 0.  0.
         24    2    3    3    0    0 -0.26926327189E+02 -0.44206620379E+02  0.65009134516E+02  0.11441357109E+03  0.78644931799E+02 0.  0.
         -6    2    1    2    0  502 -0.58057766460E+02  0.74689997257E+02  0.85624621710E+03  0.87845876223E+03  0.17199683921E+03 0.  0.
        -24    2    5    5    0    0 -0.17919341416E+02  0.19676004731E+02  0.72891554284E+03  0.73398446297E+03  0.81896735748E+02 0.  0.
          5    1    3    3  501    0  0.84984093649E+02 -0.30483376878E+02  0.16545949960E+03  0.18854831860E+03  0.47000000000E+01 0. -1.
        -11    1    4    4    0    0  0.22757728781E+02 -0.30359147934E+02  0.10495231640E+02  0.39366762246E+02  0.00000000000E+00 0.  1.
         12    1    4    4    0    0 -0.49684055970E+02 -0.13847472445E+02  0.54513902876E+02  0.75046808843E+02  0.00000000000E+00 0. -1.
         -5    1    5    5    0  502 -0.40138425043E+02  0.55013992526E+02  0.12733067426E+03  0.14447429926E+03  0.47000000000E+01 0.  1.
         13    1    6    6    0    0  0.15900712906E+02 -0.37708852715E+00  0.29927342009E+02  0.33891306650E+02  0.00000000000E+00 0. -1.
        -14    1    6    6    0    0 -0.33820054323E+02  0.20053093258E+02  0.69898820084E+03  0.70009315632E+03  0.00000000000E+00 0.  1.
</event>
<event>
12    1  0.9246030E-003  0.2362031E+03  0.7818608E-02  0.1123185E+00
         21   -1    0    0  501  502  0.00000000000E+00  0.00000000000E+00  0.11115509555E+03  0.11115509555E+03  0.00000000000E+00 0. -1.
         21   -1    0    0  502  503 -0.00000000000E+00 -0.00000000000E+00 -0.55246749372E+03  0.55246749372E+03  0.00000000000E+00 0.  1.
          6    2    1    2  501    0 -0.14383939943E+03  0.57031281470E+02 -0.11260217083E+03  0.26166989849E+03  0.17846441383E+03 0.  0.
         24    2    3    3    0    0 -0.46842484115E+00  0.22759517836E+02 -0.58079284327E+02  0.10442923806E+03  0.83749909973E+02 0.  0.
         -6    2    1    2    0  503  0.14383939943E+03 -0.57031281470E+02 -0.32871022734E+03  0.40195269077E+03  0.17196863716E+03 0.  0.
        -24    2    5    5    0    0  0.76378499056E+02 -0.89816975209E+02 -0.27550578300E+03  0.30987295526E+03  0.78848257964E+02 0.  0.
          5    1    3    3  501    0 -0.14337097459E+03  0.34271763635E+02 -0.54522886499E+02  0.15724066042E+03  0.47000000000E+01 0. -1.
        -13    1    4    4    0    0  0.20407721690E+01  0.16287729247E+01  0.21702208226E+02  0.21858716664E+02  0.00000000000E+00 0.  1.
         14    1    4    4    0    0 -0.25091970102E+01  0.21130744911E+02 -0.79781492554E+02  0.82570521400E+02  0.00000000000E+00 0. -1.
         -5    1    5    5    0  503  0.67460900379E+02  0.32785693739E+02 -0.53204444343E+02  0.92079735510E+02  0.47000000000E+01 0.  1.
         13    1    6    6    0    0  0.15385079426E+02 -0.38035993808E+02 -0.27786375074E+02  0.49553205080E+02  0.00000000000E+00 0. -1.
        -14    1    6    6    0    0  0.60993419630E+02 -0.51780981401E+02 -0.24771940793E+03  0.26031975018E+03  0.00000000000E+00 0.  1.
</event>
<event>
12    1  0.9246030E-003  0.2271772E+03  0.7818608E-02  0.1128908E+00
         21   -1    0    0  503  502  0.00000000000E+00  0.00000000000E+00  0.14599842124E+03  0.14599842124E+03  0.00000000000E+00 0. -1.
         21   -1    0    0  501  503 -0.00000000000E+00 -0.00000000000E+00 -0.36716677568E+03  0.36716677568E+03  0.00000000000E+00 0.  1.
          6    2    1    2  501    0  0.46092275946E+02 -0.13806172067E+03 -0.16443818948E+03  0.28044497793E+03  0.17442457071E+03 0.  0.
         24    2    3    3    0    0  0.61074719950E+02 -0.10913183529E+03 -0.42060750402E+02  0.15371795046E+03  0.78868388328E+02 0.  0.
         -6    2    1    2    0  502 -0.46092275946E+02  0.13806172067E+03 -0.56730164961E+02  0.23272021900E+03  0.17249594806E+03 0.  0.
        -24    2    5    5    0    0 -0.79104414264E+01  0.32882949040E+02  0.30213188991E+02  0.90939884373E+02  0.78824884139E+02 0.  0.
          5    1    3    3  501    0 -0.14982444004E+02 -0.28929885380E+02 -0.12237743908E+03  0.12672702747E+03  0.47000000000E+01 0. -1.
        -13    1    4    4    0    0 -0.12254613021E+02 -0.16856256805E+01 -0.17349048620E+02  0.21307425050E+02  0.00000000000E+00 0.  1.
         14    1    4    4    0    0  0.73329332971E+02 -0.10744620961E+03 -0.24711701782E+02  0.13241052541E+03  0.00000000000E+00 0. -1.
         -5    1    5    5    0  502 -0.38181834520E+02  0.10517877163E+03 -0.86943353952E+02  0.14178033462E+03  0.47000000000E+01 0.  1.
         11    1    6    6    0    0  0.76829405689E+01 -0.24130650434E+02  0.18842154538E+01  0.25394214578E+02  0.00000000000E+00 0. -1.
        -12    1    6    6    0    0 -0.15593381995E+02  0.57013599475E+02  0.28328973537E+02  0.65545669794E+02  0.00000000000E+00 0.  1.
</event>
<event>
12    1  0.9246030E-003  0.4411106E+03  0.7818608E-02  0.1030422E+00
         21   -1    0    0  503  502  0.00000000000E+00  0.00000000000E+00  0.67083892184E+03  0.67083892184E+03  0.00000000000E+00 0.  1.
         21   -1    0    0  501  503 -0.00000000000E+00 -0.00000000000E+00 -0.33849420354E+03  0.33849420354E+03  0.00000000000E+00 0. -1.
          6    2    1    2  501    0  0.17681661568E+03 -0.36569926228E+03  0.35738712386E+03  0.56771832249E+03  0.17198392767E+03 0.  0.
         24    2    3    3    0    0  0.19787270505E+03 -0.30476830892E+03  0.33262008627E+03  0.49849812220E+03  0.76334307645E+02 0.  0.
         -6    2    1    2    0  502 -0.17681661568E+03  0.36569926228E+03 -0.25042405561E+02  0.44161480289E+03  0.17145391813E+03 0.  0.
        -24    2    5    5    0    0 -0.18224106201E+03  0.22663542285E+03 -0.25705102077E+02  0.30236429043E+03  0.78663792671E+02 0.  0.
          5    1    3    3  501    0 -0.21056089369E+02 -0.60930953358E+02  0.24767037592E+02  0.69220200287E+02  0.47000000000E+01 0. -1.
        -11    1    4    4    0    0  0.10168777214E+03 -0.22275946049E+03  0.21642506203E+03  0.32680573391E+03  0.00000000000E+00 0.  1.
         12    1    4    4    0    0  0.96184932910E+02 -0.82008848426E+02  0.11619502424E+03  0.17169238829E+03  0.00000000000E+00 0. -1.
         -5    1    5    5    0  502  0.54244463357E+01  0.13906383943E+03  0.66269651550E+00  0.13925051246E+03  0.47000000000E+01 0.  1.
         11    1    6    6    0    0 -0.16811830235E+03  0.22219904929E+03 -0.72781431552E+01  0.27872773894E+03  0.00000000000E+00 0. -1.
        -12    1    6    6    0    0 -0.14122759666E+02  0.44363735655E+01 -0.18426958921E+02  0.23636551485E+02  0.00000000000E+00 0.  1.
</event>
<event>
12    1  0.9246030E-003  0.1772182E+03  0.7818608E-02  0.1171070E+00
         21   -1    0    0  503  502  0.00000000000E+00  0.00000000000E+00  0.38246453924E+03  0.38246453924E+03  0.00000000000E+00 0. -1.
         21   -1    0    0  501  503 -0.00000000000E+00 -0.00000000000E+00 -0.81100769862E+02  0.81100769862E+02  0.00000000000E+00 0. -1.
          6    2    1    2  501    0  0.18296159225E+02  0.22485695752E+02  0.15094432986E+03  0.23111683950E+03  0.17259909277E+03 0.  0.
         24    2    3    3    0    0  0.18668770645E+02  0.87815812547E+01  0.36128160482E+01  0.83074255909E+02  0.80390549123E+02 0.  0.
         -6    2    1    2    0  502 -0.18296159225E+02 -0.22485695752E+02  0.15041943951E+03  0.23244846960E+03  0.17483113933E+03 0.  0.
        -24    2    5    5    0    0  0.12722157356E+01  0.49482570139E+02  0.11919277438E+03  0.15145743794E+03  0.79260928349E+02 0.  0.
          5    1    3    3  501    0 -0.37261141939E+00  0.13704114497E+02  0.14733151381E+03  0.14804258359E+03  0.47000000000E+01 0. -1.
        -13    1    4    4    0    0 -0.96555484523E+01  0.17263823123E+02 -0.31484570730E+02  0.37182622269E+02  0.00000000000E+00 0.  1.
         14    1    4    4    0    0  0.28324319097E+02 -0.84822418685E+01  0.35097386779E+02  0.45891633640E+02  0.00000000000E+00 0. -1.
         -5    1    5    5    0  502 -0.19568374961E+02 -0.71968265891E+02  0.31226665131E+02  0.80991031659E+02  0.47000000000E+01 0.  1.
         11    1    6    6    0    0  0.38503783620E+02  0.21768696790E+02  0.39845128521E+02  0.59531939157E+02  0.00000000000E+00 0. -1.
        -12    1    6    6    0    0 -0.37231567884E+02  0.27713873348E+02  0.79347645862E+02  0.91925498786E+02  0.00000000000E+00 0.  1.
</event>
<event>
12    1  0.9246030E-003  0.2026142E+03  0.7818608E-02  0.1147964E+00
         21   -1    0    0  501  502  0.00000000000E+00  0.00000000000E+00  0.69570000079E+02  0.69570000079E+02  0.00000000000E+00 0.  1.
         21   -1    0    0  502  503 -0.00000000000E+00 -0.00000000000E+00 -0.90082729545E+03  0.90082729545E+03  0.00000000000E+00 0.  1.
          6    2    1    2  501    0 -0.22222312452E+02  0.10594339863E+03 -0.70189238751E+03  0.73000636894E+03  0.16893353771E+03 0.  0.
         24    2    3    3    0    0  0.45418047659E+02  0.79620214996E+02 -0.34198803106E+03  0.36282608066E+03  0.79276564802E+02 0.  0.
         -6    2    1    2    0  503  0.22222312452E+02 -0.10594339863E+03 -0.12936490786E+03  0.24039092659E+03  0.17127370877E+03 0.  0.
        -24    2    5    5    0    0  0.79118094489E+02 -0.78290403398E+02 -0.70833454452E+02  0.15407847559E+03  0.79584786430E+02 0.  0.
          5    1    3    3  501    0 -0.67640360111E+02  0.26323183634E+02 -0.35990435644E+03  0.36718028828E+03  0.47000000000E+01 0. -1.
        -11    1    4    4    0    0  0.13966866279E+02  0.86027279439E+02 -0.21864084924E+03  0.23537116884E+03  0.00000000000E+00 0.  1.
         12    1    4    4    0    0  0.31451181380E+02 -0.64070644428E+01 -0.12334718182E+03  0.12745491182E+03  0.00000000000E+00 0. -1.
         -5    1    5    5    0  503 -0.56895782038E+02 -0.27652995231E+02 -0.58531453408E+02  0.86312450996E+02  0.47000000000E+01 0.  1.
         11    1    6    6    0    0  0.88906027583E+02 -0.69484673510E+02 -0.79751543918E+02  0.13817637407E+03  0.00000000000E+00 0. -1.
        -12    1    6    6    0    0 -0.97879330937E+01 -0.88057298884E+01  0.89180894665E+01  0.15902101523E+02  0.00000000000E+00 0.  1.
</event>
<event>
12    1  0.9246030E-003  0.1760062E+03  0.7818608E-02  0.1172146E+00
         21   -1    0    0  501  502  0.00000000000E+00  0.00000000000E+00  0.65738691983E+02  0.65738691983E+02  0.00000000000E+00 0.  1.
         21   -1    0    0  502  503 -0.00000000000E+00 -0.00000000000E+00 -0.47694881730E+03  0.47694881730E+03  0.00000000000E+00 0.  1.
          6    2    1    2  501    0  0.25088113580E+02 -0.17134801114E+02 -0.16688109839E+03  0.24254379373E+03  0.17336428706E+03 0.  0.
         24    2    3    3    0    0 -0.12234177599E+02  0.31377956856E+02 -0.15992435790E+03  0.18076250739E+03  0.77233623169E+02 0.  0.
         -6    2    1    2    0  503 -0.25088113580E+02  0.17134801114E+02 -0.24432902692E+03  0.30014371555E+03  0.17165827021E+03 0.  0.
        -24    2    5    5    0    0  0.11550838756E+02 -0.51779497831E+02 -0.14105100302E+03  0.17060594635E+03  0.79977904478E+02 0.  0.
          5    1    3    3  501    0  0.37322291179E+02 -0.48512757970E+02 -0.69567404865E+01  0.61781286348E+02  0.47000000000E+01 0. -1.
        -11    1    4    4    0    0  0.24669090192E+02  0.39404053153E+02 -0.87607224818E+02  0.99177967594E+02  0.00000000000E+00 0.  1.
         12    1    4    4    0    0 -0.36903267791E+02 -0.80260962969E+01 -0.72317133085E+02  0.81584539792E+02  0.00000000000E+00 0. -1.
         -5    1    5    5    0  503 -0.36638952335E+02  0.68914298945E+02 -0.10327802391E+03  0.12953776920E+03  0.47000000000E+01 0.  1.
         11    1    6    6    0    0  0.43754077756E+02 -0.13175582235E+02 -0.66147706164E+02  0.80396108851E+02  0.00000000000E+00 0. -1.
        -12    1    6    6    0    0 -0.32203239000E+02 -0.38603915596E+02 -0.74903296853E+02  0.90209837495E+02  0.00000000000E+00 0.  1.
</event>
<event>
12    1  0.9246030E-003  0.1834995E+03  0.7818608E-02  0.1165291E+00
         21   -1    0    0  501  502  0.00000000000E+00  0.00000000000E+00  0.44618652068E+03  0.44618652068E+03  0.00000000000E+00 0. -1.
         21   -1    0    0  502  503 -0.00000000000E+00 -0.00000000000E+00 -0.95017259846E+02  0.95017259846E+02  0.00000000000E+00 0. -1.
          6    2    1    2  501    0  0.52288418363E+02  0.20565146721E+02  0.30404724615E+03  0.35512928125E+03  0.17468564497E+03 0.  0.
         24    2    3    3    0    0  0.82075787975E+02  0.43479325179E+02  0.14100492557E+03  0.18774578367E+03  0.82092652307E+02 0.  0.
         -6    2    1    2    0  503 -0.52288418363E+02 -0.20565146721E+02  0.47122014691E+02  0.18607449928E+03  0.17101529481E+03 0.  0.
        -24    2    5    5    0    0 -0.70282055886E+02 -0.52149286954E+02  0.74964136958E+02  0.14004621799E+03  0.79587724147E+02 0.  0.
          5    1    3    3  501    0 -0.29787369612E+02 -0.22914178458E+02  0.16304232058E+03  0.16738349758E+03  0.47000000000E+01 0. -1.
        -11    1    4    4    0    0  0.35041871004E+02  0.22950082544E+02  0.12817674626E+03  0.13484775599E+03  0.00000000000E+00 0.  1.
         12    1    4    4    0    0  0.47033916971E+02  0.20529242635E+02  0.12828179306E+02  0.52898027687E+02  0.00000000000E+00 0. -1.
         -5    1    5    5    0  503  0.17993637523E+02  0.31584140233E+02 -0.27842122266E+02  0.46028281283E+02  0.47000000000E+01 0.  1.
         13    1    6    6    0    0 -0.34372447062E+02  0.12427040819E+02  0.50243673284E+02  0.62131498981E+02  0.00000000000E+00 0. -1.
        -14    1    6    6    0    0 -0.35909608824E+02 -0.64576327772E+02  0.24720463674E+02  0.77914719012E+02  0.00000000000E+00 0.  1.
</event>
<event>
12    1  0.9246030E-003  0.1927139E+03  0.7818608E-02  0.1158179E+00
         21   -1    0    0  501  502  0.00000000000E+00  0.00000000000E+00  0.16600808748E+03  0.16600808748E+03  0.00000000000E+00 0. -1.
         21   -1    0    0  502  503 -0.00000000000E+00 -0.00000000000E+00 -0.22235126982E+03  0.22235126982E+03  0.00000000000E+00 0.  1.
          6    2    1    2  501    0 -0.61672628132E+02 -0.13188965843E+02  0.11155425914E+02  0.19303652993E+03  0.18210215946E+03 0.  0.
         24    2    3    3    0    0  0.14803395057E+02  0.30421788659E+02 -0.37262017475E+02  0.92454131589E+02  0.77554385892E+02 0.  0.
         -6    2    1    2    0  503  0.61672628132E+02  0.13188965843E+02 -0.67498608258E+02  0.19532282738E+03  0.17209730648E+03 0.  0.
        -24    2    5    5    0    0  0.71849956123E+01  0.21703097771E+02  0.26225811656E+02  0.86475459803E+02  0.79167943868E+02 0.  0.
          5    1    3    3  501    0 -0.76476023188E+02 -0.43610754503E+02  0.48417443390E+02  0.10058239834E+03  0.47000000000E+01 0. -1.
        -13    1    4    4    0    0 -0.28245031125E+02  0.16257799037E+02 -0.33878872025E+02  0.47009315912E+02  0.00000000000E+00 0.  1.
         14    1    4    4    0    0  0.43048426182E+02  0.14163989622E+02 -0.33831454499E+01  0.45444815677E+02  0.00000000000E+00 0. -1.
         -5    1    5    5    0  503  0.54487632519E+02 -0.85141319275E+01 -0.93724419914E+02  0.10884736758E+03  0.47000000000E+01 0.  1.
         13    1    6    6    0    0  0.74967255919E+01 -0.19742916774E+02  0.37925316708E+02  0.43408677759E+02  0.00000000000E+00 0. -1.
        -14    1    6    6    0    0 -0.31172997969E+00  0.41446014544E+02 -0.11699505052E+02  0.43066782044E+02  0.00000000000E+00 0.  1.
</event>
<event>
12    1  0.9246030E-003  0.2159424E+03  0.7818608E-02  0.1136985E+00
         21   -1    0    0  501  502  0.00000000000E+00  0.00000000000E+00  0.12395676845E+04  0.12395676845E+04  0.00000000000E+00 0.  1.
         21   -1    0    0  502  503 -0.00000000000E+00 -0.00000000000E+00 -0.37840245793E+02  0.37840245793E+02  0.00000000000E+00 0. -1.
          6    2    1    2  501    0  0.92937510844E+02  0.91767183767E+02  0.54841087158E+03  0.58939425600E+03  0.17196658977E+03 0.  0.
         24    2    3    3    0    0  0.96489556773E+02  0.12609169346E+03  0.46904640344E+03  0.50272478156E+03  0.86708290769E+02 0.  0.
         -6    2    1    2    0  503 -0.92937510844E+02 -0.91767183767E+02  0.65331656708E+03  0.68801367425E+03  0.17170230690E+03 0.  0.
        -24    2    5    5    0    0  0.11815382353E+02  0.49034134283E+01  0.17736859346E+03  0.19115661574E+03  0.70125509427E+02 0.  0.
          5    1    3    3  501    0 -0.35520459289E+01 -0.34324509695E+02  0.79364468144E+02  0.86669474441E+02  0.47000000000E+01 0. -1.
        -13    1    4    4    0    0  0.51597141498E+02  0.62162663682E+01  0.15958350700E+03  0.16783266274E+03  0.00000000000E+00 0.  1.
         14    1    4    4    0    0  0.44892415275E+02  0.11987542709E+03  0.30946289644E+03  0.33489211882E+03  0.00000000000E+00 0. -1.
         -5    1    5    5    0  503 -0.10475289320E+03 -0.96670597195E+02  0.47594797363E+03  0.49685705851E+03  0.47000000000E+01 0.  1.
         13    1    6    6    0    0  0.30561149113E+02 -0.11368549590E+02  0.40207703922E+02  0.51767627042E+02  0.00000000000E+00 0. -1.
        -14    1    6    6    0    0 -0.18745766760E+02  0.16271963018E+02  0.13716088954E+03  0.13938898870E+03  0.00000000000E+00 0.  1.
</event>
<event>
12    1  0.9246030E-003  0.2825698E+03  0.7818608E-02  0.1094475E+00
         21   -1    0    0  503  502  0.00000000000E+00  0.00000000000E+00  0.17616396040E+03  0.17616396040E+03  0.00000000000E+00 0.  1.
         21   -1    0    0  501  503 -0.00000000000E+00 -0.00000000000E+00 -0.45257519851E+03  0.45257519851E+03  0.00000000000E+00 0. -1.
          6    2    1    2  501    0  0.19369637182E+03 -0.11224629827E+03 -0.15583856261E+03  0.32152020451E+03  0.17021183384E+03 0.  0.
         24    2    3    3    0    0  0.17557672887E+03 -0.41415613996E+02 -0.69704746924E+02  0.20844310028E+03  0.77764603185E+02 0.  0.
         -6    2    1    2    0  502 -0.19369637182E+03  0.11224629827E+03 -0.12057267550E+03  0.30721895440E+03  0.17241867629E+03 0.  0.
        -24    2    5    5    0    0 -0.11087293732E+03  0.13494744400E+03 -0.10907497527E+03  0.22044712470E+03  0.78714443944E+02 0.  0.
          5    1    3    3  501    0  0.18119642948E+02 -0.70830684276E+02 -0.86133815685E+02  0.11307710423E+03  0.47000000000E+01 0. -1.
        -11    1    4    4    0    0  0.25386197804E+02  0.47921339996E+01  0.15056931209E+02  0.29902086292E+02  0.00000000000E+00 0.  1.
         12    1    4    4    0    0  0.15019053107E+03 -0.46207747996E+02 -0.84761678133E+02  0.17854101399E+03  0.00000000000E+00 0. -1.
         -5    1    5    5    0  502 -0.82823434498E+02 -0.22701145725E+02 -0.11497700229E+02  0.86771829702E+02  0.47000000000E+01 0.  1.
         13    1    6    6    0    0 -0.10454817113E+01  0.33535850116E+02  0.28930276231E+01  0.33676637063E+02  0.00000000000E+00 0. -1.
        -14    1    6    6    0    0 -0.10982745561E+03  0.10141159388E+03 -0.11196800289E+03  0.18677048764E+03  0.00000000000E+00 0.  1.
</event>
<event>
12    1  0.9246030E-003  0.2222356E+03  0.7818608E-02  0.1132324E+00
         21   -1    0    0  501  502  0.00000000000E+00  0.00000000000E+00  0.12175511646E+03  0.12175511646E+03  0.00000000000E+00 0. -1.
         21   -1    0    0  502  503 -0.00000000000E+00 -0.00000000000E+00 -0.42810514991E+03  0.42810514991E+03  0.00000000000E+00 0.  1.
          6    2    1    2  501    0  0.25779680518E+02  0.13783993065E+03 -0.21730847883E+03  0.31045043977E+03  0.17173253090E+03 0.  0.
         24    2    3    3    0    0  0.64191962855E+02  0.62538905750E+02 -0.16815668847E+03  0.21255388068E+03  0.94184698787E+02 0.  0.
         -6    2    1    2    0  503 -0.25779680518E+02 -0.13783993065E+03 -0.89041554620E+02  0.23940982660E+03  0.17240715825E+03 0.  0.
        -24    2    5    5    0    0  0.45432382627E+02 -0.55972442193E+02 -0.18597541376E+02  0.10995754734E+03  0.80918341531E+02 0.  0.
          5    1    3    3  501    0 -0.38412282337E+02  0.75301024904E+02 -0.49151790359E+02  0.97896559089E+02  0.47000000000E+01 0. -1.
        -13    1    4    4    0    0 -0.15316379434E+02  0.27891484424E+02 -0.91243999675E+02  0.96633295810E+02  0.00000000000E+00 0.  1.
         14    1    4    4    0    0  0.79508342289E+02  0.34647421325E+02 -0.76912688798E+02  0.11592058487E+03  0.00000000000E+00 0. -1.
         -5    1    5    5    0  503 -0.71212063144E+02 -0.81867488461E+02 -0.70444013244E+02  0.12945227926E+03  0.47000000000E+01 0.  1.
         11    1    6    6    0    0  0.25590239424E+02 -0.73602023125E+02 -0.26428890273E+02  0.82283682483E+02  0.00000000000E+00 0. -1.
        -12    1    6    6    0    0  0.19842143203E+02  0.17629580932E+02  0.78313488967E+01  0.27673864859E+02  0.00000000000E+00 0.  1.
</event>
<event>
12    1  0.9246030E-003  0.1904447E+03  0.7818608E-02  0.1158187E+00
         21   -1    0    0  503  502  0.00000000000E+00  0.00000000000E+00  0.11620546489E+03  0.11620546489E+03  0.00000000000E+00 0.  1.
         21   -1    0    0  501  503 -0.00000000000E+00 -0.00000000000E+00 -0.45136877856E+03  0.45136877856E+03  0.00000000000E+00 0.  1.
          6    2    1    2  501    0  0.30057171920E+02 -0.76668975438E+02 -0.32589870824E+03  0.37746412447E+03  0.17171963151E+03 0.  0.
         24    2    3    3    0    0 -0.19646137829E+02  0.45878256014E+00 -0.76008479821E+02  0.11121926289E+03  0.78779783072E+02 0.  0.
         -6    2    1    2    0  502 -0.30057171920E+02  0.76668975438E+02 -0.92646054334E+01  0.19011011898E+03  0.17109780550E+03 0.  0.
        -24    2    5    5    0    0 -0.50740968966E+02  0.10911774683E+03  0.13630856079E+02  0.14508752040E+03  0.79895304836E+02 0.  0.
          5    1    3    3  501    0  0.49703309748E+02 -0.77127757998E+02 -0.24989022842E+03  0.26624486157E+03  0.47000000000E+01 0. -1.
        -11    1    4    4    0    0  0.20642532467E+02 -0.49464325424E+01 -0.66036625786E+02  0.69364380533E+02  0.00000000000E+00 0.  1.
         12    1    4    4    0    0 -0.40288670296E+02  0.54052151025E+01 -0.99718540352E+01  0.41854882360E+02  0.00000000000E+00 0. -1.
         -5    1    5    5    0  502  0.20683797046E+02 -0.32448771390E+02 -0.22895461512E+02  0.45022598579E+02  0.47000000000E+01 0.  1.
         13    1    6    6    0    0  0.10565394961E+01 -0.97281807286E+00 -0.19052777182E+02  0.19106830429E+02  0.00000000000E+00 0. -1.
        -14    1    6    6    0    0 -0.51797508462E+02  0.11009056490E+03  0.32683633261E+02  0.12598068997E+03  0.00000000000E+00 0.  1.
</event>
<event>
12    1  0.9246030E-003  0.1989226E+03  0.7818608E-02  0.1151246E+00
         21   -1    0    0  501  502  0.00000000000E+00  0.00000000000E+00  0.37527290748E+03  0.37527290748E+03  0.00000000000E+00 0.  1.
         21   -1    0    0  502  503 -0.00000000000E+00 -0.00000000000E+00 -0.10842861748E+03  0.10842861748E+03  0.00000000000E+00 0.  1.
          6    2    1    2  501    0 -0.18330748167E+02  0.94609207463E+02  0.18153002782E+03  0.26725584771E+03  0.17083798953E+03 0.  0.
         24    2    3    3    0    0 -0.54383466983E+02  0.82508756390E+01  0.62581394327E+02  0.11583449049E+03  0.80470863310E+02 0.  0.
         -6    2    1    2    0  503  0.18330748167E+02 -0.94609207463E+02  0.85314262179E+02  0.21644567726E+03  0.17402094531E+03 0.  0.
        -24    2    5    5    0    0  0.50412311986E+02  0.29840344393E+01  0.24100492870E+02  0.96767428797E+02  0.78948057975E+02 0.  0.
          5    1    3    3  501    0  0.36052718815E+02  0.86358331824E+02  0.11894863350E+03  0.15142135721E+03  0.47000000000E+01 0. -1.
        -13    1    4    4    0    0  0.73370200083E+01 -0.25394445693E+02  0.23703476504E+02  0.35504429766E+02  0.00000000000E+00 0.  1.
         14    1    4    4    0    0 -0.61720486991E+02  0.33645321332E+02  0.38877917824E+02  0.80330060726E+02  0.00000000000E+00 0. -1.
         -5    1    5    5    0  503 -0.32081563819E+02 -0.97593241902E+02  0.61213769309E+02  0.11967824846E+03  0.47000000000E+01 0.  1.
         11    1    6    6    0    0  0.83299795998E+01  0.20042144942E+02  0.42540871846E+02  0.47757741900E+02  0.00000000000E+00 0. -1.
        -12    1    6    6    0    0  0.42082332386E+02 -0.17058110503E+02 -0.18440378975E+02  0.49009686897E+02  0.00000000000E+00 0.  1.
</event>
<event>
12    1  0.9246030E-003  0.1914290E+03  0.7818608E-02  0.1157538E+00
         21   -1    0    0  501  502  0.00000000000E+00  0.00000000000E+00  0.14575293947E+03  0.14575293947E+03  0.00000000000E+00 0.  1.
         21   -1    0    0  502  503 -0.00000000000E+00 -0.00000000000E+00 -0.25220628276E+03  0.25220628276E+03  0.00000000000E+00 0.  1.
          6    2    1    2  501    0  0.81628208628E+02  0.79445550841E+01 -0.74731429575E+02  0.20549904107E+03  0.17297048568E+03 0.  0.
         24    2    3    3    0    0  0.10336803088E+03 -0.26035502646E+02 -0.90957665485E+02  0.16176524491E+03  0.80820172874E+02 0.  0.
         -6    2    1    2    0  503 -0.81628208628E+02 -0.79445550841E+01 -0.31721913712E+02  0.19246018116E+03  0.17119684905E+03 0.  0.
        -24    2    5    5    0    0 -0.48531209920E+02 -0.65804037079E+02 -0.48315454499E+02  0.12360840866E+03  0.79115143411E+02 0.  0.
          5    1    3    3  501    0 -0.21739822254E+02  0.33980057730E+02  0.16226235910E+02  0.43733796163E+02  0.47000000000E+01 0. -1.
        -13    1    4    4    0    0  0.53284172692E+02 -0.11809975109E+02  0.26617809794E+01  0.54642141699E+02  0.00000000000E+00 0.  1.
         14    1    4    4    0    0  0.50083858191E+02 -0.14225527537E+02 -0.93619446464E+02  0.10712310321E+03  0.00000000000E+00 0. -1.
         -5    1    5    5    0  503 -0.33096998708E+02  0.57859481995E+02  0.16593540787E+02  0.68851772498E+02  0.47000000000E+01 0.  1.
         13    1    6    6    0    0 -0.54175356611E+02 -0.22923346009E+02 -0.54164677454E+02  0.79964125330E+02  0.00000000000E+00 0. -1.
        -14    1    6    6    0    0  0.56441466907E+01 -0.42880691071E+02  0.58492229554E+01  0.43644283334E+02  0.00000000000E+00 0.  1.
</event>
<event>
12    1  0.9246030E-003  0.2616608E+03  0.7818608E-02  0.1106247E+00
         21   -1    0    0  501  502  0.00000000000E+00  0.00000000000E+00  0.61018336097E+03  0.61018336097E+03  0.00000000000E+00 0. -1.
         21   -1    0    0  502  503 -0.00000000000E+00 -0.00000000000E+00 -0.16295166178E+03  0.16295166178E+03  0.00000000000E+00 0.  1.
          6    2    1    2  501    0  0.14815076968E+03  0.13092519750E+03  0.44012499343E+03  0.51203161294E+03  0.17139517177E+03 0.  0.
         24    2    3    3    0    0  0.59626364148E+02  0.13018579132E+03  0.21905510020E+03  0.27384868997E+03  0.80649392523E+02 0.  0.
         -6    2    1    2    0  503 -0.14815076968E+03 -0.13092519750E+03  0.71067057608E+01  0.26110340981E+03  0.17039491615E+03 0.  0.
        -24    2    5    5    0    0 -0.53524511635E+02 -0.87004078418E+02 -0.45934368304E+02  0.14397681611E+03  0.90469742893E+02 0.  0.
          5    1    3    3  501    0  0.88524405533E+02  0.73940617575E+00  0.22106989323E+03  0.23818292296E+03  0.47000000000E+01 0. -1.
        -11    1    4    4    0    0  0.18148945606E+02  0.69948645837E+02  0.17282837128E+03  0.18732816980E+03  0.00000000000E+00 0.  1.
         12    1    4    4    0    0  0.41477418542E+02  0.60237145485E+02  0.46226728920E+02  0.86520520177E+02  0.00000000000E+00 0. -1.
         -5    1    5    5    0  503 -0.94626258046E+02 -0.43921119079E+02  0.53041074064E+02  0.11712659370E+03  0.47000000000E+01 0.  1.
         13    1    6    6    0    0  0.24536554916E+02 -0.21287323307E+02 -0.21801544947E+02  0.39121605575E+02  0.00000000000E+00 0. -1.
        -14    1    6    6    0    0 -0.78061066551E+02 -0.65716755111E+02 -0.24132823356E+02  0.10485521054E+03  0.00000000000E+00 0.  1.
</event>
<event>
12    1  0.9246030E-003  0.1864885E+03  0.7818608E-02  0.1162159E+00
         21   -1    0    0  503  502  0.00000000000E+00  0.00000000000E+00  0.58019073969E+03  0.58019073969E+03  0.00000000000E+00 0.  1.
         21   -1    0    0  501  503 -0.00000000000E+00 -0.00000000000E+00 -0.84589533043E+02  0.84589533043E+02  0.00000000000E+00 0.  1.
          6    2    1    2  501    0  0.64517319737E+02  0.26696868517E+02  0.64939193167E+02  0.19547470111E+03  0.17064012609E+03 0.  0.
         24    2    3    3    0    0  0.22141558361E+02  0.73954164544E+02  0.69170502491E+02  0.13168637021E+03  0.81223608792E+02 0.  0.
         -6    2    1    2    0  502 -0.64517319737E+02 -0.26696868517E+02  0.43066201348E+03  0.46930557162E+03  0.17292409423E+03 0.  0.
        -24    2    5    5    0    0 -0.55480051741E+02  0.47347282378E+02  0.27740992069E+03  0.29879896635E+03  0.83694425792E+02 0.  0.
          5    1    3    3  501    0  0.42375761376E+02 -0.47257296027E+02 -0.42313093243E+01  0.63788330897E+02  0.47000000000E+01 0. -1.
        -11    1    4    4    0    0  0.29978884100E+02 -0.22717527836E+01  0.39210065199E+02  0.49409751725E+02  0.00000000000E+00 0.  1.
         12    1    4    4    0    0 -0.78373257398E+01  0.76225917328E+02  0.29960437292E+02  0.82276618489E+02  0.00000000000E+00 0. -1.
         -5    1    5    5    0  502 -0.90372679957E+01 -0.74044150895E+02  0.15325209279E+03  0.17050660527E+03  0.47000000000E+01 0.  1.
         13    1    6    6    0    0  0.21190696284E+01  0.44118545715E+02  0.64232228854E+02  0.77953292141E+02  0.00000000000E+00 0. -1.
        -14    1    6    6    0    0 -0.57599121370E+02  0.32287366626E+01  0.21317769183E+03  0.22084567421E+03  0.00000000000E+00 0.  1.
</event>
<event>
12    1  0.9246030E-003  0.1794522E+03  0.7818608E-02  0.1170022E+00
         21   -1    0    0  501  502  0.00000000000E+00  0.00000000000E+00  0.97617176022E+02  0.97617176022E+02  0.00000000000E+00 0. -1.
         21   -1    0    0  502  503 -0.00000000000E+00 -0.00000000000E+00 -0.51245348967E+03  0.51245348967E+03  0.00000000000E+00 0. -1.
          6    2    1    2  501    0  0.45977719106E+01  0.48814360707E+02 -0.21780480586E+02  0.18076911117E+03  0.17262416083E+03 0.  0.
         24    2    3    3    0    0 -0.71301642606E+00  0.38223402901E+02  0.54069043345E+02  0.10385608795E+03  0.80006803681E+02 0.  0.
         -6    2    1    2    0  503 -0.45977719106E+01 -0.48814360707E+02 -0.39305583306E+03  0.42930155452E+03  0.16553838072E+03 0.  0.
        -24    2    5    5    0    0  0.32463467254E+02 -0.82500078290E+02 -0.22559563859E+03  0.25444941770E+03  0.77401384955E+02 0.  0.
          5    1    3    3  501    0  0.53107883366E+01  0.10590957805E+02 -0.75849523931E+02  0.76913023218E+02  0.47000000000E+01 0. -1.
        -11    1    4    4    0    0  0.21611988647E+02  0.49826307510E+02  0.13247670575E+02  0.55903843777E+02  0.00000000000E+00 0.  1.
         12    1    4    4    0    0 -0.22325005073E+02 -0.11602904609E+02  0.40821372770E+02  0.47952244178E+02  0.00000000000E+00 0. -1.
         -5    1    5    5    0  503 -0.37061239164E+02  0.33685717584E+02 -0.16746019447E+03  0.17485213682E+03  0.47000000000E+01 0.  1.
         13    1    6    6    0    0  0.36371359357E+02 -0.77080451758E+02 -0.23076501487E+03  0.24600155266E+03  0.00000000000E+00 0. -1.
        -14    1    6    6    0    0 -0.39078921030E+01 -0.54196265326E+01  0.51693762846E+01  0.84478650329E+01  0.00000000000E+00 0.  1.
</event>
<event>
12    1  0.9246030E-003  0.2389166E+03  0.7818608E-02  0.1120626E+00
         21   -1    0    0  503  502  0.00000000000E+00  0.00000000000E+00  0.14853567518E+03  0.14853567518E+03  0.00000000000E+00 0.  1.
         21   -1    0    0  501  503 -0.00000000000E+00 -0.00000000000E+00 -0.40130802224E+03  0.40130802224E+03  0.00000000000E+00 0.  1.
          6    2    1    2  501    0 -0.15803205807E+03  0.47467174648E+02 -0.18487682979E+03  0.30209369368E+03  0.17278279290E+03 0.  0.
         24    2    3    3    0    0 -0.17900880347E+03  0.10798718054E+02 -0.15486659168E+03  0.25006193465E+03  0.79915867704E+02 0.  0.
         -6    2    1    2    0  502  0.15803205807E+03 -0.47467174648E+02 -0.67895517259E+02  0.24775000374E+03  0.17188076984E+03 0.  0.
        -24    2    5    5    0    0  0.98050171855E+01 -0.45793293586E+02 -0.24967372769E+02  0.93351256605E+02  0.76797938171E+02 0.  0.
          5    1    3    3  501    0  0.20976745399E+02  0.36668456593E+02 -0.30010238118E+02  0.52031759036E+02  0.47000000000E+01 0. -1.
        -11    1    4    4    0    0 -0.14312074623E+03  0.28845568731E+02 -0.15045856171E+03  0.20965064662E+03  0.00000000000E+00 0.  1.
         12    1    4    4    0    0 -0.35888057240E+02 -0.18046850677E+02 -0.44080299673E+01  0.40411288027E+02  0.00000000000E+00 0. -1.
         -5    1    5    5    0  502  0.14822704088E+03 -0.16738810621E+01 -0.42928144490E+02  0.15439874713E+03  0.47000000000E+01 0.  1.
         13    1    6    6    0    0  0.40196544000E+02 -0.39226559310E+02 -0.49731006331E+01  0.56384544290E+02  0.00000000000E+00 0. -1.
        -14    1    6    6    0    0 -0.30391526815E+02 -0.65667342756E+01 -0.19994272136E+02  0.36966712315E+02  0.00000000000E+00 0.  1.
</event>
<event>
12    1  0.9246030E-003  0.1797598E+03  0.7818608E-02  0.1168088E+00
         21   -1    0    0  503  502  0.00000000000E+00  0.00000000000E+00  0.66513831639E+03  0.66513831639E+03  0.00000000000E+00 0. -1.
         21   -1    0    0  501  503 -0.00000000000E+00 -0.00000000000E+00 -0.57796030008E+02  0.57796030008E+02  0.00000000000E+00 0. -1.
          6    2    1    2  501    0 -0.43012704140E+02 -0.28524789639E+02  0.15904025616E+03  0.24001538885E+03  0.17219125258E+03 0.  0.
         24    2    3    3    0    0 -0.25874050012E+02 -0.72345781614E+02  0.15775722147E+03  0.19271053729E+03  0.79665749707E+02 0.  0.
         -6    2    1    2    0  502  0.43012704140E+02  0.28524789639E+02  0.44830203022E+03  0.48291895754E+03  0.17196584811E+03 0.  0.
        -24    2    5    5    0    0 -0.10160570551E+02  0.64998809390E+02  0.35411848508E+03  0.36868069148E+03  0.78724001291E+02 0.  0.
          5    1    3    3  501    0 -0.17138654129E+02  0.43820991975E+02  0.12830346916E+01  0.47304851560E+02  0.47000000000E+01 0. -1.
        -11    1    4    4    0    0 -0.33914624134E+02 -0.83409974983E+02  0.10553316914E+03  0.13872517956E+03  0.00000000000E+00 0.  1.
         12    1    4    4    0    0  0.80405741221E+01  0.11064193369E+02  0.52224052330E+02  0.53985357727E+02  0.00000000000E+00 0. -1.
         -5    1    5    5    0  502  0.53173274691E+02 -0.36474019751E+02  0.94183545144E+02  0.11423826607E+03  0.47000000000E+01 0.  1.
         13    1    6    6    0    0  0.48002178474E+00  0.18855968800E+02  0.28058923464E+03  0.28122250368E+03  0.00000000000E+00 0. -1.
        -14    1    6    6    0    0 -0.10640592336E+02  0.46142840590E+02  0.73529250434E+02  0.87458187795E+02  0.00000000000E+00 0.  1.
</event>
<event>
12    1  0.9246030E-003  0.2322010E+03  0.7818608E-02  0.1125191E+00
         21   -1    0    0  503  502  0.00000000000E+00  0.00000000000E+00  0.64658634093E+03  0.64658634093E+03  0.00000000000E+00 0.  1.
         21   -1    0    0  501  503 -0.00000000000E+00 -0.00000000000E+00 -0.83840539429E+02  0.83840539429E+02  0.00000000000E+00 0. -1.
          6    2    1    2  501    0  0.15277638950E+03  0.28574487463E+02  0.31299042691E+03  0.38940629391E+03  0.17180549432E+03 0.  0.
         24    2    3    3    0    0  0.62885256891E+02  0.66544720789E+01  0.57834748044E+02  0.11795203763E+03  0.81049290971E+02 0.  0.
         -6    2    1    2    0  502 -0.15277638950E+03 -0.28574487463E+02  0.24975537459E+03  0.34102058645E+03  0.17251135244E+03 0.  0.
        -24    2    5    5    0    0 -0.86580600679E+02  0.50564566782E+02  0.14096517022E+03  0.19101301687E+03  0.81005046563E+02 0.  0.
          5    1    3    3  501    0  0.89891132611E+02  0.21920015384E+02  0.25515567886E+03  0.27145425628E+03  0.47000000000E+01 0. -1.
        -13    1    4    4    0    0  0.30595214011E+01 -0.30475636500E+02  0.27937063975E+02  0.41456056672E+02  0.00000000000E+00 0.  1.
         14    1    4    4    0    0  0.59825735490E+02  0.37130108579E+02  0.29897684069E+02  0.76495980958E+02  0.00000000000E+00 0. -1.
         -5    1    5    5    0  502 -0.66195788823E+02 -0.79139054244E+02  0.10879020437E+03  0.15000756958E+03  0.47000000000E+01 0.  1.
         13    1    6    6    0    0 -0.67791284229E+02 -0.60982399833E+01  0.87646129912E+02  0.11097157671E+03  0.00000000000E+00 0. -1.
        -14    1    6    6    0    0 -0.18789316450E+02  0.56662806765E+02  0.53319040312E+02  0.80041440161E+02  0.00000000000E+00 0.  1.
</event>
<event>
12    1  0.9246030E-003  0.1919480E+03  0.7818608E-02  0.1156763E+00
         21   -1    0    0  503  502  0.00000000000E+00  0.00000000000E+00  0.50040531320E+03  0.50040531320E+03  0.00000000000E+00 0.  1.
         21   -1    0    0  501  503 -0.00000000000E+00 -0.00000000000E+00 -0.74237804428E+02  0.74237804428E+02  0.00000000000E+00 0.  1.
          6    2    1    2  501    0  0.53390807466E+02  0.63019089829E+02  0.18548501302E+03  0.26692459878E+03  0.17326877207E+03 0.  0.
         24    2    3    3    0    0  0.39364648018E+02 -0.26984928183E+02  0.55400112679E+02  0.10804845927E+03  0.79545805696E+02 0.  0.
         -6    2    1    2    0  502 -0.53390807466E+02 -0.63019089829E+02  0.24068249575E+03  0.30771851884E+03  0.17303363568E+03 0.  0.
        -24    2    5    5    0    0  0.19974010497E+02 -0.87257555589E+01  0.17822977719E+03  0.19702707963E+03  0.81109288760E+02 0.  0.
          5    1    3    3  501    0  0.14026159448E+02  0.90004018012E+02  0.13008490034E+03  0.15887613951E+03  0.47000000000E+01 0. -1.
        -11    1    4    4    0    0  0.21544665801E+02  0.19897805180E+02  0.49515909249E+02  0.57549287955E+02  0.00000000000E+00 0.  1.
         12    1    4    4    0    0  0.17819982217E+02 -0.46882733363E+02  0.58842034300E+01  0.50499171318E+02  0.00000000000E+00 0. -1.
         -5    1    5    5    0  502 -0.73364817964E+02 -0.54293334270E+02  0.62452718554E+02  0.11069143922E+03  0.47000000000E+01 0.  1.
         11    1    6    6    0    0  0.34516728168E+02 -0.37680519101E+02  0.11914858353E+03  0.12964417071E+03  0.00000000000E+00 0. -1.
        -12    1    6    6    0    0 -0.14542717671E+02  0.28954763542E+02  0.59081193668E+02  0.67382908918E+02  0.00000000000E+00 0.  1.
</event>
<event>
12    1  0.9246030E-003  0.1803953E+03  0.7818608E-02  0.1168141E+00
         21   -1    0    0  503  502  0.00000000000E+00  0.00000000000E+00  0.28643723831E+02  0.28643723831E+02  0.00000000000E+00 0. -1.
         21   -1    0    0  501  503 -0.00000000000E+00 -0.00000000000E+00 -0.11191235952E+04  0.11191235952E+04  0.00000000000E+00 0. -1.
          6    2    1    2  501    0 -0.40089820487E+02 -0.22314786993E+02 -0.57122743984E+03  0.59903526059E+03  0.17446292438E+03 0.  0.
         24    2    3    3    0    0 -0.77760035661E+02 -0.79476442210E+01 -0.23284684512E+03  0.25822889800E+03  0.79716511991E+02 0.  0.
         -6    2    1    2    0  502  0.40089820487E+02  0.22314786993E+02 -0.51925243153E+03  0.54873205844E+03  0.17140198623E+03 0.  0.
        -24    2    5    5    0    0  0.41845957239E+02  0.72645740329E+02 -0.43855405450E+03  0.45349232442E+03  0.79354532743E+02 0.  0.
          5    1    3    3  501    0  0.37670215174E+02 -0.14367142772E+02 -0.33838059472E+03  0.34080636259E+03  0.47000000000E+01 0. -1.
        -11    1    4    4    0    0 -0.35799957288E+02  0.15456266978E+02 -0.28471545829E+02  0.48282109032E+02  0.00000000000E+00 0.  1.
         12    1    4    4    0    0 -0.41960078373E+02 -0.23403911199E+02 -0.20437529929E+03  0.20994678897E+03  0.00000000000E+00 0. -1.
         -5    1    5    5    0  502 -0.17561367523E+01 -0.50330953336E+02 -0.80698377027E+02  0.95239734013E+02  0.47000000000E+01 0.  1.
         11    1    6    6    0    0  0.59912476417E+02  0.55883703067E+02 -0.24409668417E+03  0.25747948330E+03  0.00000000000E+00 0. -1.
        -12    1    6    6    0    0 -0.18066519178E+02  0.16762037261E+02 -0.19445737034E+03  0.19601284113E+03  0.00000000000E+00 0.  1.
</event>
<event>
12    1  0.9246030E-003  0.1734539E+03  0.7818608E-02  0.1174587E+00
         21   -1    0    0  501  502  0.00000000000E+00  0.00000000000E+00  0.11671966012E+04  0.11671966012E+04  0.00000000000E+00 0. -1.
         21   -1    0    0  502  503 -0.00000000000E+00 -0.00000000000E+00 -0.29993390496E+02  0.29993390496E+02  0.00000000000E+00 0. -1.
          6    2    1    2  501    0  0.16117423031E+02 -0.16385272968E+02  0.79918409748E+03  0.81779060190E+03  0.17192439734E+03 0.  0.
         24    2    3    3    0    0 -0.13626310971E+02  0.39266421975E+02  0.63775615415E+03  0.64440412103E+03  0.82439255191E+02 0.  0.
         -6    2    1    2    0  503 -0.16117423031E+02  0.16385272968E+02  0.33801911324E+03  0.37939938981E+03  0.17075926791E+03 0.  0.
        -24    2    5    5    0    0 -0.37370082479E+02  0.62213916995E+01  0.78325889832E+02  0.11859747206E+03  0.80592720407E+02 0.  0.
          5    1    3    3  501    0  0.29743734002E+02 -0.55651694943E+02  0.16142794332E+03  0.17338648087E+03  0.47000000000E+01 0. -1.
        -13    1    4    4    0    0  0.17290380499E+02  0.52765901440E+02  0.31167596017E+03  0.31658348309E+03  0.00000000000E+00 0.  1.
         14    1    4    4    0    0 -0.30916691470E+02 -0.13499479464E+02  0.32608019398E+03  0.32782063795E+03  0.00000000000E+00 0. -1.
         -5    1    5    5    0  503  0.21252659449E+02  0.10163881269E+02  0.25969322341E+03  0.26080191774E+03  0.47000000000E+01 0.  1.
         11    1    6    6    0    0  0.16092011743E+02 -0.20364712387E+02  0.98883820956E+01  0.27775068911E+02  0.00000000000E+00 0. -1.
        -12    1    6    6    0    0 -0.53462094222E+02  0.26586104086E+02  0.68437507736E+02  0.90822403152E+02  0.00000000000E+00 0.  1.
</event>
<event>
12    1  0.9246030E-003  0.2044968E+03  0.7818608E-02  0.1146008E+00
         21   -1    0    0  501  502  0.00000000000E+00  0.00000000000E+00  0.21678438337E+03  0.21678438337E+03  0.00000000000E+00 0. -1.
         21   -1    0    0  502  503 -0.00000000000E+00 -0.00000000000E+00 -0.26194672497E+03  0.26194672497E+03  0.00000000000E+00 0. -1.
          6    2    1    2  501    0 -0.11015843341E+03 -0.54269438468E+00  0.10033920388E+03  0.22778699780E+03  0.17228983012E+03 0.  0.
         24    2    3    3    0    0 -0.71678946828E+02  0.60813661541E+02  0.24832968138E+02  0.12305612873E+03  0.75431834543E+02 0.  0.
         -6    2    1    2    0  503  0.11015843341E+03  0.54269438468E+00 -0.14550154548E+03  0.25094411054E+03  0.17224131882E+03 0.  0.
        -24    2    5    5    0    0  0.14060943108E+03  0.17330880623E+02 -0.14031698662E+03  0.21547474198E+03  0.81664779224E+02 0.  0.
          5    1    3    3  501    0 -0.38479486585E+02 -0.61356355925E+02  0.75506235742E+02  0.10473086907E+03  0.47000000000E+01 0. -1.
        -13    1    4    4    0    0 -0.76940341061E+02  0.34334694900E+02  0.38688150428E+02  0.92711705517E+02  0.00000000000E+00 0.  1.
         14    1    4    4    0    0  0.52613942332E+01  0.26478966641E+02 -0.13855182290E+02  0.30344423210E+02  0.00000000000E+00 0. -1.
         -5    1    5    5    0  503 -0.30450997664E+02 -0.16788186239E+02 -0.51845588644E+01  0.35469368567E+02  0.47000000000E+01 0.  1.
         11    1    6    6    0    0  0.11228902133E+03  0.47623190110E+02 -0.10163943323E+03  0.15876828063E+03  0.00000000000E+00 0. -1.
        -12    1    6    6    0    0  0.28320409749E+02 -0.30292309487E+02 -0.38677553381E+02  0.56706461342E+02  0.00000000000E+00 0.  1.
</event>
<event>
12    1  0.9246030E-003  0.1899233E+03  0.7818608E-02  0.1160860E+00
         21   -1    0    0  503  502  0.00000000000E+00  0.00000000000E+00  0.23549395202E+02  0.23549395202E+02  0.00000000000E+00 0. -1.
         21   -1    0    0  501  503 -0.00000000000E+00 -0.00000000000E+00 -0.15123278585E+04  0.15123278585E+04  0.00000000000E+00 0. -1.
          6    2    1    2  501    0 -0.76402187856E+02 -0.11534515750E+02 -0.91722534821E+03  0.93668202225E+03  0.17349504904E+03 0.  0.
         24    2    3    3    0    0 -0.50096760217E+02 -0.13203404575E+02 -0.26942334194E+03  0.28832695746E+03  0.88653719255E+02 0.  0.
         -6    2    1    2    0  502  0.76402187856E+02  0.11534515750E+02 -0.57155311506E+03  0.59919523142E+03  0.16245498658E+03 0.  0.
        -24    2    5    5    0    0  0.23499800538E+02 -0.11049533110E+02 -0.13555490270E+03  0.15939387509E+03  0.79730439387E+02 0.  0.
          5    1    3    3  501    0 -0.26305427639E+02  0.16688888255E+01 -0.64780200627E+03  0.64835506479E+03  0.47000000000E+01 0. -1.
        -13    1    4    4    0    0  0.23808106203E+02 -0.15941205817E+02 -0.70415618547E+02  0.76021755434E+02  0.00000000000E+00 0.  1.
         14    1    4    4    0    0 -0.73904866420E+02  0.27378012416E+01 -0.19900772339E+03  0.21230520203E+03  0.00000000000E+00 0. -1.
         -5    1    5    5    0  502  0.52902387318E+02  0.22584048860E+02 -0.43599821236E+03  0.43980135633E+03  0.47000000000E+01 0.  1.
         11    1    6    6    0    0  0.35737389367E+02  0.24464118839E+02 -0.51245268094E+02  0.67094944752E+02  0.00000000000E+00 0. -1.
        -12    1    6    6    0    0 -0.12237588829E+02 -0.35513651950E+02 -0.84309634604E+02  0.92298930342E+02  0.00000000000E+00 0.  1.
</event>
<event>
12    1  0.9246030E-003  0.1730519E+03  0.7818608E-02  0.1174920E+00
         21   -1    0    0  501  502  0.00000000000E+00  0.00000000000E+00  0.51298323718E+03  0.51298323718E+03  0.00000000000E+00 0. -1.
         21   -1    0    0  502  503 -0.00000000000E+00 -0.00000000000E+00 -0.58837088719E+02  0.58837088719E+02  0.00000000000E+00 0. -1.
          6    2    1    2  501    0 -0.15902505385E+02  0.64373192861E+01  0.25982678319E+03  0.31218090063E+03  0.17219938646E+03 0.  0.
         24    2    3    3    0    0  0.49997314059E+02  0.15134958181E+02  0.10122903211E+03  0.14015249666E+03  0.81649292741E+02 0.  0.
         -6    2    1    2    0  503  0.15902505385E+02 -0.64373192861E+01  0.19431936526E+03  0.25963942526E+03  0.17134260030E+03 0.  0.
        -24    2    5    5    0    0 -0.42665958107E+02 -0.16638321405E+02  0.17287043036E+03  0.19626378192E+03  0.80858324757E+02 0.  0.
          5    1    3    3  501    0 -0.65899819444E+02 -0.86976388953E+01  0.15859775109E+03  0.17202840398E+03  0.47000000000E+01 0. -1.
        -11    1    4    4    0    0  0.18452383915E+02 -0.15768586640E+01 -0.11571813613E+02  0.21837669878E+02  0.00000000000E+00 0.  1.
         12    1    4    4    0    0  0.31544930144E+02  0.16711816845E+02  0.11280084572E+03  0.11831482678E+03  0.00000000000E+00 0. -1.
         -5    1    5    5    0  503  0.58568463492E+02  0.10201002119E+02  0.21448934905E+02  0.63375643339E+02  0.47000000000E+01 0.  1.
         11    1    6    6    0    0  0.72955675901E+01  0.13405142957E+02  0.16029042935E+01  0.15345763791E+02  0.00000000000E+00 0. -1.
        -12    1    6    6    0    0 -0.49961525697E+02 -0.30043464362E+02  0.17126752607E+03  0.18091801813E+03  0.00000000000E+00 0.  1.
</event>
<event>
12    1  0.9246030E-003  0.1965360E+03  0.7818608E-02  0.1153014E+00
         21   -1    0    0  501  502  0.00000000000E+00  0.00000000000E+00  0.17768324297E+03  0.17768324297E+03  0.00000000000E+00 0.  1.
         21   -1    0    0  502  503 -0.00000000000E+00 -0.00000000000E+00 -0.26636359609E+03  0.26636359609E+03  0.00000000000E+00 0.  1.
          6    2    1    2  501    0  0.60751388922E+02 -0.72875323085E+02  0.52562352440E+02  0.20202227917E+03  0.17043666395E+03 0.  0.
         24    2    3    3    0    0  0.14100991149E+02 -0.43306729207E+02  0.95371813692E+02  0.13198442277E+03  0.79055640293E+02 0.  0.
         -6    2    1    2    0  503 -0.60751388922E+02  0.72875323085E+02 -0.14124270556E+03  0.24202455988E+03  0.17211868504E+03 0.  0.
        -24    2    5    5    0    0 -0.70377288632E+02  0.87498722356E+02 -0.44265204471E+02  0.14336743916E+03  0.77368114333E+02 0.  0.
          5    1    3    3  501    0  0.46650397774E+02 -0.29568593879E+02 -0.42809461252E+02  0.70037856400E+02  0.47000000000E+01 0. -1.
        -11    1    4    4    0    0 -0.27292369801E+02  0.47778143253E+01  0.26448848107E+02  0.38304601881E+02  0.00000000000E+00 0.  1.
         12    1    4    4    0    0  0.41393360950E+02 -0.48084543532E+02  0.68922965585E+02  0.93679820893E+02  0.00000000000E+00 0. -1.
         -5    1    5    5    0  503  0.96258997092E+01 -0.14623399271E+02 -0.96977501093E+02  0.98657120724E+02  0.47000000000E+01 0.  1.
         11    1    6    6    0    0 -0.35659371354E+02 -0.62521744564E+01 -0.15110765829E+02  0.39230290526E+02  0.00000000000E+00 0. -1.
        -12    1    6    6    0    0 -0.34717917277E+02  0.93750896812E+02 -0.29154438642E+02  0.10413714863E+03  0.00000000000E+00 0.  1.
</event>
<event>
12    1  0.9246030E-003  0.2139410E+03  0.7818608E-02  0.1139866E+00
         21   -1    0    0  503  502  0.00000000000E+00  0.00000000000E+00  0.53208504444E+02  0.53208504444E+02  0.00000000000E+00 0.  1.
         21   -1    0    0  501  503 -0.00000000000E+00 -0.00000000000E+00 -0.83405542738E+03  0.83405542738E+03  0.00000000000E+00 0.  1.
          6    2    1    2  501    0 -0.24375078097E+02  0.11330546040E+03 -0.37589757500E+03  0.43251557754E+03  0.17982899135E+03 0.  0.
         24    2    3    3    0    0  0.29617670490E+01 -0.31632549404E+01 -0.23351790943E+03  0.24648782713E+03  0.78783606473E+02 0.  0.
         -6    2    1    2    0  502  0.24375078097E+02 -0.11330546040E+03 -0.40494934794E+03  0.45474835429E+03  0.17140542449E+03 0.  0.
        -24    2    5    5    0    0  0.25820445193E+02 -0.12649754011E+03 -0.41151518405E+03  0.43921386823E+03  0.83040666564E+02 0.  0.
          5    1    3    3  501    0 -0.27336845146E+02  0.11646871534E+03 -0.14237966557E+03  0.18602775041E+03  0.47000000000E+01 0. -1.
        -13    1    4    4    0    0 -0.19515875769E+02  0.25996081558E+02 -0.16992319338E+03  0.17300450084E+03  0.00000000000E+00 0.  1.
         14    1    4    4    0    0  0.22477642818E+02 -0.29159336498E+02 -0.63594716059E+02  0.73483326288E+02  0.00000000000E+00 0. -1.
         -5    1    5    5    0  502 -0.14453670958E+01  0.13192079713E+02  0.65658361104E+01  0.15534486056E+02  0.47000000000E+01 0.  1.
         11    1    6    6    0    0 -0.91336082755E+01 -0.70827718528E+00 -0.11333702929E+03  0.11370666939E+03  0.00000000000E+00 0. -1.
        -12    1    6    6    0    0  0.34954053468E+02 -0.12578926293E+03 -0.29817815476E+03  0.32550719884E+03  0.00000000000E+00 0.  1.
</event>
<event>
12    1  0.9246030E-003  0.2217888E+03  0.7818608E-02  0.1132601E+00
         21   -1    0    0  501  502  0.00000000000E+00  0.00000000000E+00  0.42141251643E+03  0.42141251643E+03  0.00000000000E+00 0. -1.
         21   -1    0    0  502  503 -0.00000000000E+00 -0.00000000000E+00 -0.19673922714E+03  0.19673922714E+03  0.00000000000E+00 0. -1.
          6    2    1    2  501    0  0.13333910508E+03  0.43745677379E+02  0.30956228009E+03  0.38067249922E+03  0.17143437572E+03 0.  0.
         24    2    3    3    0    0  0.57654757849E+02  0.39798107476E+02  0.65225488165E+02  0.12480874327E+03  0.80093056055E+02 0.  0.
         -6    2    1    2    0  503 -0.13333910508E+03 -0.43745677379E+02 -0.84888990800E+02  0.23747924434E+03  0.17174763317E+03 0.  0.
        -24    2    5    5    0    0 -0.11374782490E+03  0.32713136679E+02 -0.52343884802E+02  0.15197461037E+03  0.79672347403E+02 0.  0.
          5    1    3    3  501    0  0.75684347236E+02  0.39475699029E+01  0.24433679192E+03  0.25586375596E+03  0.47000000000E+01 0. -1.
        -13    1    4    4    0    0  0.65037930237E+02 -0.16435603284E+00  0.32926827887E+02  0.72898116417E+02  0.00000000000E+00 0.  1.
         14    1    4    4    0    0 -0.73831723881E+01  0.39962463509E+02  0.32298660278E+02  0.51910626850E+02  0.00000000000E+00 0. -1.
         -5    1    5    5    0  503 -0.19591280188E+02 -0.76458814058E+02 -0.32545105999E+02  0.85504633974E+02  0.47000000000E+01 0.  1.
         11    1    6    6    0    0 -0.52628472861E+02 -0.45249849195E+01 -0.60066969970E+02  0.79989202556E+02  0.00000000000E+00 0. -1.
        -12    1    6    6    0    0 -0.61119352037E+02  0.37238121599E+02  0.77230851684E+01  0.71985407814E+02  0.00000000000E+00 0.  1.
</event>
<event>
12    1  0.9246030E-003  0.1936698E+03  0.7818608E-02  0.1155512E+00
         21   -1    0    0  501  502  0.00000000000E+00  0.00000000000E+00  0.30977783901E+02  0.30977783901E+02  0.00000000000E+00 0. -1.
         21   -1    0    0  502  503 -0.00000000000E+00 -0.00000000000E+00 -0.16863207254E+04  0.16863207254E+04  0.00000000000E+00 0. -1.
          6    2    1    2  501    0  0.75339011879E+02  0.43941527653E+02 -0.36518913931E+03  0.41268944357E+03  0.17129694920E+03 0.  0.
         24    2    3    3    0    0 -0.21215348276E+02  0.34398387287E+02 -0.23988556440E+03  0.25414326141E+03  0.73555239535E+02 0.  0.
         -6    2    1    2    0  503 -0.75339011879E+02 -0.43941527653E+02 -0.12901538022E+04  0.13046090657E+04  0.17291950875E+03 0.  0.
        -24    2    5    5    0    0 -0.69861854295E+02 -0.87291853358E+02 -0.74201500330E+03  0.75471136357E+03  0.80637651405E+02 0.  0.
          5    1    3    3  501    0  0.96554360155E+02  0.95431403654E+01 -0.12530357490E+03  0.15854618216E+03  0.47000000000E+01 0. -1.
        -11    1    4    4    0    0  0.15118870472E+01  0.50203378782E+02 -0.10433543496E+03  0.11579528501E+03  0.00000000000E+00 0.  1.
         12    1    4    4    0    0 -0.22727235323E+02 -0.15804991495E+02 -0.13555012944E+03  0.13834797640E+03  0.00000000000E+00 0. -1.
         -5    1    5    5    0  503 -0.54771575844E+01  0.43350325706E+02 -0.54813879888E+03  0.54989770216E+03  0.47000000000E+01 0.  1.
         13    1    6    6    0    0 -0.31045203346E+01 -0.23985147225E+02 -0.39397838520E+03  0.39472001892E+03  0.00000000000E+00 0. -1.
        -14    1    6    6    0    0 -0.66757333960E+02 -0.63306706133E+02 -0.34803661811E+03  0.35999134465E+03  0.00000000000E+00 0.  1.
</event>
<event>
12    1  0.9246030E-003  0.2002891E+03  0.7818608E-02  0.1150060E+00
         21   -1    0    0  501  502  0.00000000000E+00  0.00000000000E+00  0.27913749599E+03  0.27913749599E+03  0.00000000000E+00 0.  1.
         21   -1    0    0  502  503 -0.00000000000E+00 -0.00000000000E+00 -0.21200021343E+03  0.21200021343E+03  0.00000000000E+00 0. -1.
          6    2    1    2  501    0 -0.79255220127E+02 -0.62026784769E+02  0.17501742509E+03  0.26598277367E+03  0.17316762071E+03 0.  0.
         24    2    3    3    0    0 -0.43440139622E+02  0.30676274297E+02  0.91835760886E+02  0.13629909540E+03  0.85531028838E+02 0.  0.
         -6    2    1    2    0  503  0.79255220127E+02  0.62026784769E+02 -0.10788014252E+03  0.22515493575E+03  0.17008206253E+03 0.  0.
        -24    2    5    5    0    0  0.88543132768E+02  0.12807121954E+02 -0.16870846832E+02  0.12116636700E+03  0.79954701458E+02 0.  0.
          5    1    3    3  501    0 -0.35815080505E+02 -0.92703059066E+02  0.83181664200E+02  0.12968367827E+03  0.47000000000E+01 0. -1.
        -13    1    4    4    0    0 -0.15173451916E+02  0.15853038002E+02  0.10078840985E+03  0.10314967773E+03  0.00000000000E+00 0.  1.
         14    1    4    4    0    0 -0.28266687706E+02  0.14823236295E+02 -0.89526489616E+01  0.33149417666E+02  0.00000000000E+00 0. -1.
         -5    1    5    5    0  503 -0.92879126411E+01  0.49219662814E+02 -0.91009295693E+02  0.10398856875E+03  0.47000000000E+01 0.  1.
         11    1    6    6    0    0  0.19197987227E+01  0.30513888515E+02 -0.11232367157E+02  0.32572213486E+02  0.00000000000E+00 0. -1.
        -12    1    6    6    0    0  0.86623334045E+02 -0.17706766561E+02 -0.56384796749E+01  0.88594153510E+02  0.00000000000E+00 0.  1.
</event>
<event>
12    1  0.9246030E-003  0.2341376E+03  0.7818608E-02  0.1124183E+00
         21   -1    0    0  501  502  0.00000000000E+00  0.00000000000E+00  0.15803265306E+04  0.15803265306E+04  0.00000000000E+00 0. -1.
         21   -1    0    0  502  503 -0.00000000000E+00 -0.00000000000E+00 -0.34499751927E+02  0.34499751927E+02  0.00000000000E+00 0.  1.
          6    2    1    2  501    0  0.15257413568E+03 -0.31620977333E+02  0.82574924262E+03  0.85763934961E+03  0.17147795552E+03 0.  0.
         24    2    3    3    0    0  0.78100590563E+02 -0.16755645734E+01  0.69797153609E+03  0.70666826313E+03  0.78187333757E+02 0.  0.
         -6    2    1    2    0  503 -0.15257413568E+03  0.31620977333E+02  0.72007753609E+03  0.75718693295E+03  0.17476166732E+03 0.  0.
        -24    2    5    5    0    0 -0.61640783364E+02  0.66489017985E+02  0.25727140548E+03  0.28422154378E+03  0.79830659430E+02 0.  0.
          5    1    3    3  501    0  0.74473545118E+02 -0.29945412760E+02  0.12777770653E+03  0.15097108648E+03  0.47000000000E+01 0. -1.
        -13    1    4    4    0    0  0.22161984324E+02  0.25641663425E+02  0.10264001001E+03  0.10809079567E+03  0.00000000000E+00 0.  1.
         14    1    4    4    0    0  0.55938606239E+02 -0.27317227998E+02  0.59533152608E+03  0.59857746746E+03  0.00000000000E+00 0. -1.
         -5    1    5    5    0  503 -0.90933352317E+02 -0.34868040652E+02  0.46280613061E+03  0.47296538917E+03  0.47000000000E+01 0.  1.
         13    1    6    6    0    0 -0.23173694122E+01 -0.14135465727E+02  0.74217467339E+02  0.75587128869E+02  0.00000000000E+00 0. -1.
        -14    1    6    6    0    0 -0.59323413952E+02  0.80624483713E+02  0.18305393814E+03  0.20863441491E+03  0.00000000000E+00 0.  1.
</event>
<event>
12    1  0.9246030E-003  0.1887477E+03  0.7818608E-02  0.1160156E+00
         21   -1    0    0  503  502  0.00000000000E+00  0.00000000000E+00  0.61711755774E+02  0.61711755774E+02  0.00000000000E+00 0. -1.
         21   -1    0    0  501  503 -0.00000000000E+00 -0.00000000000E+00 -0.59863620297E+03  0.59863620297E+03  0.00000000000E+00 0. -1.
          6    2    1    2  501    0  0.69988591588E+02 -0.16875677583E+02 -0.34254387928E+03  0.39110355480E+03  0.17447776332E+03 0.  0.
         24    2    3    3    0    0 -0.11487705364E+02  0.84012015922E+01 -0.25785303677E+03  0.27080419324E+03  0.81511808597E+02 0.  0.
         -6    2    1    2    0  502 -0.69988591588E+02  0.16875677583E+02 -0.19438056791E+03  0.26924440394E+03  0.17183001027E+03 0.  0.
        -24    2    5    5    0    0  0.22910499660E+02  0.38159626711E+02 -0.88654081370E+02  0.12682450505E+03  0.79018104460E+02 0.  0.
          5    1    3    3  501    0  0.81476296952E+02 -0.25276879175E+02 -0.84690842516E+02  0.12029936156E+03  0.47000000000E+01 0. -1.
        -13    1    4    4    0    0  0.34974654242E+02  0.39199195750E+01 -0.13065186757E+03  0.13530891585E+03  0.00000000000E+00 0.  1.
         14    1    4    4    0    0 -0.46462359606E+02  0.44812820173E+01 -0.12720116920E+03  0.13549527739E+03  0.00000000000E+00 0. -1.
         -5    1    5    5    0  502 -0.92899091248E+02 -0.21283949128E+02 -0.10572648654E+03  0.14241989889E+03  0.47000000000E+01 0.  1.
         13    1    6    6    0    0  0.75443451690E+01  0.66023580006E+01 -0.91090443507E+02  0.91640477811E+02  0.00000000000E+00 0. -1.
        -14    1    6    6    0    0  0.15366154491E+02  0.31557268710E+02  0.24363621375E+01  0.35184027239E+02  0.00000000000E+00 0.  1.
</event>
<event>
12    1  0.9246030E-003  0.1882638E+03  0.7818608E-02  0.1160067E+00
         21   -1    0    0  503  502  0.00000000000E+00  0.00000000000E+00  0.56238996597E+03  0.56238996597E+03  0.00000000000E+00 0. -1.
         21   -1    0    0  501  503 -0.00000000000E+00 -0.00000000000E+00 -0.69245388798E+02  0.69245388798E+02  0.00000000000E+00 0. -1.
          6    2    1    2  501    0 -0.98158509980E+01 -0.75855611131E+02  0.34150573223E+03  0.38989664555E+03  0.17188020363E+03 0.  0.
         24    2    3    3    0    0 -0.66702243071E+02 -0.71938619578E+02  0.19547448332E+03  0.23305717321E+03  0.80504770915E+02 0.  0.
         -6    2    1    2    0  502  0.98158509980E+01  0.75855611131E+02  0.15163884494E+03  0.24173870921E+03  0.17202569449E+03 0.  0.
        -24    2    5    5    0    0 -0.29434134233E+02 -0.31626417748E+02  0.70172515809E+02  0.10119760969E+03  0.58738196044E+02 0.  0.
          5    1    3    3  501    0  0.56886392073E+02 -0.39169915535E+01  0.14603124891E+03  0.15683947234E+03  0.47000000000E+01 0. -1.
        -11    1    4    4    0    0 -0.63495624642E+02 -0.14423950478E+02  0.13297225516E+03  0.14805865506E+03  0.00000000000E+00 0.  1.
         12    1    4    4    0    0 -0.32066184291E+01 -0.57514669100E+02  0.62502228161E+02  0.84998518154E+02  0.00000000000E+00 0. -1.
         -5    1    5    5    0  502  0.39249985231E+02  0.10748202888E+03  0.81466329132E+02  0.14054109952E+03  0.47000000000E+01 0.  1.
         11    1    6    6    0    0 -0.26873355231E+01  0.81900144788E+01  0.47260821656E+02  0.48040434771E+02  0.00000000000E+00 0. -1.
        -12    1    6    6    0    0 -0.26746798710E+02 -0.39816432226E+02  0.22911694154E+02  0.53157174920E+02  0.00000000000E+00 0.  1.
</event>
<event>
12    1  0.9246030E-003  0.1826931E+03  0.7818608E-02  0.1165929E+00
         21   -1    0    0  501  502  0.00000000000E+00  0.00000000000E+00  0.15519108084E+03  0.15519108084E+03  0.00000000000E+00 0.  1.
         21   -1    0    0  502  503 -0.00000000000E+00 -0.00000000000E+00 -0.21942542823E+03  0.21942542823E+03  0.00000000000E+00 0.  1.
          6    2    1    2  501    0  0.45657198078E+02  0.23789525855E+02 -0.67219874455E+02  0.19189898022E+03  0.17220971462E+03 0.  0.
         24    2    3    3    0    0  0.82542926122E+02  0.51845370215E+02 -0.70895186328E+02  0.14517334215E+03  0.80919063017E+02 0.  0.
         -6    2    1    2    0  503 -0.45657198078E+02 -0.23789525855E+02  0.29855270701E+01  0.18271752885E+03  0.17528907753E+03 0.  0.
        -24    2    5    5    0    0 -0.63394913455E+02  0.45410534618E+02  0.83272487361E+01  0.11092686855E+03  0.78449954671E+02 0.  0.
          5    1    3    3  501    0 -0.36885728044E+02 -0.28055844360E+02  0.36753118735E+01  0.46725638074E+02  0.47000000000E+01 0. -1.
        -11    1    4    4    0    0  0.95560192674E+02  0.28505875572E+02 -0.59483099156E+02  0.11611448855E+03  0.00000000000E+00 0.  1.
         12    1    4    4    0    0 -0.13017266552E+02  0.23339494643E+02 -0.11412087172E+02  0.29058853595E+02  0.00000000000E+00 0. -1.
         -5    1    5    5    0  503  0.17737715377E+02 -0.69200060473E+02 -0.53417216660E+01  0.71790660302E+02  0.47000000000E+01 0.  1.
         13    1    6    6    0    0 -0.21773156663E+02  0.39766761353E+02  0.38281365325E+02  0.59337413077E+02  0.00000000000E+00 0. -1.
        -14    1    6    6    0    0 -0.41621756792E+02  0.56437732655E+01 -0.29954116588E+02  0.51589455470E+02  0.00000000000E+00 0.  1.
</event>
<event>
12    1  0.9246030E-003  0.2369090E+03  0.7818608E-02  0.1123905E+00
         21   -1    0    0  503  502  0.00000000000E+00  0.00000000000E+00  0.46164014975E+02  0.46164014975E+02  0.00000000000E+00 0. -1.
         21   -1    0    0  501  503 -0.00000000000E+00 -0.00000000000E+00 -0.11879922569E+04  0.11879922569E+04  0.00000000000E+00 0.  1.
          6    2    1    2  501    0  0.14961691976E+03 -0.34759573965E+01 -0.45639076434E+03  0.50893188329E+03  0.16829090023E+03 0.  0.
         24    2    3    3    0    0  0.70631242950E+02  0.52400293076E+02 -0.27919852662E+03  0.30699112066E+03  0.92504960397E+02 0.  0.
         -6    2    1    2    0  502 -0.14961691976E+03  0.34759573965E+01 -0.68543747762E+03  0.72522438861E+03  0.18365340498E+03 0.  0.
        -24    2    5    5    0    0 -0.14093122147E+02 -0.25358728087E+02 -0.15844619671E+03  0.18030234010E+03  0.81006514623E+02 0.  0.
          5    1    3    3  501    0  0.78985676806E+02 -0.55876250472E+02 -0.17719223772E+03  0.20194076264E+03  0.47000000000E+01 0. -1.
        -13    1    4    4    0    0 -0.20042526119E+02  0.71413866840E+01 -0.22278473961E+02  0.30806373675E+02  0.00000000000E+00 0.  1.
         14    1    4    4    0    0  0.90673769068E+02  0.45258906392E+02 -0.25692005266E+03  0.27618474698E+03  0.00000000000E+00 0. -1.
         -5    1    5    5    0  502 -0.13552379761E+03  0.28834685483E+02 -0.52699128090E+03  0.54492204851E+03  0.47000000000E+01 0.  1.
         11    1    6    6    0    0  0.29165869220E+01  0.70238550703E+01 -0.13836615420E+03  0.13857501090E+03  0.00000000000E+00 0. -1.
        -12    1    6    6    0    0 -0.17009709069E+02 -0.32382583157E+02 -0.20080042513E+02  0.41727329197E+02  0.00000000000E+00 0.  1.
</event>
<event>
12    1  0.9246030E-003  0.1858132E+03  0.7818608E-02  0.1162418E+00
         21   -1    0    0  501  502  0.00000000000E+00  0.00000000000E+00  0.35569099120E+03  0.35569099120E+03  0.00000000000E+00 0. -1.
         21   -1    0    0  502  503 -0.00000000000E+00 -0.00000000000E+00 -0.98908603129E+02  0.98908603129E+02  0.00000000000E+00 0. -1.
          6    2    1    2  501    0  0.25216583104E+02  0.66207497186E+02  0.94918852937E+02  0.20817243267E+03  0.17119247745E+03 0.  0.
         24    2    3    3    0    0 -0.11661331384E+02 -0.18014704070E+02  0.18050469394E+02  0.88238291789E+02  0.83663973610E+02 0.  0.
         -6    2    1    2    0  503 -0.25216583104E+02 -0.66207497186E+02  0.16186353514E+03  0.24642716166E+03  0.17177669588E+03 0.  0.
        -24    2    5    5    0    0  0.24877011510E+02 -0.93684282170E+02  0.91442466283E+02  0.15562210192E+03  0.80379745832E+02 0.  0.
          5    1    3    3  501    0  0.36877914488E+02  0.84222201256E+02  0.76868383543E+02  0.11993414088E+03  0.47000000000E+01 0. -1.
        -11    1    4    4    0    0 -0.21095432567E+02 -0.45120301791E+02  0.28865222942E+02  0.57567873023E+02  0.00000000000E+00 0.  1.
         12    1    4    4    0    0  0.94341011833E+01  0.27105597721E+02 -0.10814753549E+02  0.30670418766E+02  0.00000000000E+00 0. -1.
         -5    1    5    5    0  503 -0.50093594614E+02  0.27476784985E+02  0.70421068855E+02  0.90805059733E+02  0.47000000000E+01 0.  1.
         13    1    6    6    0    0  0.43371225348E+02 -0.16742695445E+02  0.39072330824E+02  0.60729136952E+02  0.00000000000E+00 0. -1.
        -14    1    6    6    0    0 -0.18494213838E+02 -0.76941586725E+02  0.52370135458E+02  0.94892964972E+02  0.00000000000E+00 0.  1.
</event>
<event>
12    1  0.9246030E-003  0.2265682E+03  0.7818608E-02  0.1129568E+00
         21   -1    0    0  501  502  0.00000000000E+00  0.00000000000E+00  0.39863239175E+02  0.39863239175E+02  0.00000000000E+00 0. -1.
         21   -1    0    0  502  503 -0.00000000000E+00 -0.00000000000E+00 -0.14232218088E+04  0.14232218088E+04  0.00000000000E+00 0. -1.
          6    2    1    2  501    0  0.13251999159E+03  0.62185294944E+02 -0.44980771241E+03  0.50243403187E+03  0.16936475183E+03 0.  0.
         24    2    3    3    0    0  0.13764347466E+03  0.19251434501E+02 -0.24453720490E+03  0.29260639379E+03  0.80645602847E+02 0.  0.
         -6    2    1    2    0  503 -0.13251999159E+03 -0.62185294944E+02 -0.93355085721E+03  0.96065101610E+03  0.17292950197E+03 0.  0.
        -24    2    5    5    0    0 -0.16091913961E+03 -0.38495155625E+02 -0.83016666099E+03  0.85075053231E+03  0.84987862117E+02 0.  0.
          5    1    3    3  501    0 -0.51234830638E+01  0.42933860443E+02 -0.20527050751E+03  0.20982763808E+03  0.47000000000E+01 0. -1.
        -11    1    4    4    0    0  0.45063993554E+02  0.25176547676E+01 -0.15959394914E+03  0.16585334095E+03  0.00000000000E+00 0.  1.
         12    1    4    4    0    0  0.92579481104E+02  0.16733779733E+02 -0.84943255761E+02  0.12675305284E+03  0.00000000000E+00 0. -1.
         -5    1    5    5    0  503  0.28399148012E+02 -0.23690139319E+02 -0.10338419622E+03  0.10990048379E+03  0.47000000000E+01 0.  1.
         13    1    6    6    0    0 -0.10965035579E+03 -0.48214588409E+02 -0.70561234709E+03  0.71570708493E+03  0.00000000000E+00 0. -1.
        -14    1    6    6    0    0 -0.51268783818E+02  0.97194327841E+01 -0.12455431390E+03  0.13504344738E+03  0.00000000000E+00 0.  1.
</event>
<event>
12    1  0.9246030E-003  0.1768528E+03  0.7818608E-02  0.1171131E+00
         21   -1    0    0  503  502  0.00000000000E+00  0.00000000000E+00  0.30298144731E+02  0.30298144731E+02  0.00000000000E+00 0.  1.
         21   -1    0    0  501  503 -0.00000000000E+00 -0.00000000000E+00 -0.12124918441E+04  0.12124918441E+04  0.00000000000E+00 0.  1.
          6    2    1    2  501    0 -0.30416203827E+02  0.34748987767E+02 -0.34632243696E+03  0.38841437388E+03  0.16968753016E+03 0.  0.
         24    2    3    3    0    0 -0.16431681045E+02  0.10668412058E+02 -0.61805629502E+02  0.10249944820E+03  0.79387567571E+02 0.  0.
         -6    2    1    2    0  502  0.30416203827E+02 -0.34748987767E+02 -0.83587126239E+03  0.85437561493E+03  0.17071697774E+03 0.  0.
        -24    2    5    5    0    0 -0.40918308125E+02 -0.47842086309E+02 -0.40270731268E+03  0.41515683214E+03  0.78859637496E+02 0.  0.
          5    1    3    3  501    0 -0.13984522783E+02  0.24080575709E+02 -0.28451680746E+03  0.28591492568E+03  0.47000000000E+01 0. -1.
        -13    1    4    4    0    0  0.23288802634E+02 -0.18768577731E+02 -0.35757248182E+02  0.46617685869E+02  0.00000000000E+00 0.  1.
         14    1    4    4    0    0 -0.39720483679E+02  0.29436989789E+02 -0.26048381320E+02  0.55881762328E+02  0.00000000000E+00 0. -1.
         -5    1    5    5    0  502  0.71334511953E+02  0.13093098541E+02 -0.43316394970E+03  0.43921878278E+03  0.47000000000E+01 0.  1.
         11    1    6    6    0    0 -0.38511733944E+02  0.12490814271E+02 -0.15605844930E+03  0.16122473040E+03  0.00000000000E+00 0. -1.
        -12    1    6    6    0    0 -0.24065741813E+01 -0.60332900580E+02 -0.24664886338E+03  0.25393210175E+03  0.00000000000E+00 0.  1.
</event>
<event>
12    1  0.9246030E-003  0.2248243E+03  0.7818608E-02  0.1130544E+00
         21   -1    0    0  503  502  0.00000000000E+00  0.00000000000E+00  0.34955844026E+02  0.34955844026E+02  0.00000000000E+00 0.  1.
         21   -1    0    0  501  503 -0.00000000000E+00 -0.00000000000E+00 -0.14465120218E+04  0.14465120218E+04  0.00000000000E+00 0. -1.
          6    2    1    2  501    0  0.14241574230E+03 -0.17330452248E+02 -0.64945853616E+03  0.68689955931E+03  0.17161592627E+03 0.  0.
         24    2    3    3    0    0  0.88450790081E+02 -0.74811711695E+02 -0.47804180479E+03  0.49816138868E+03  0.78869940883E+02 0.  0.
         -6    2    1    2    0  502 -0.14241574230E+03  0.17330452248E+02 -0.76209764162E+03  0.79456830653E+03  0.17309936496E+03 0.  0.
        -24    2    5    5    0    0 -0.14867824583E+03 -0.33800680471E+02 -0.59238460965E+03  0.61714729621E+03  0.81875226303E+02 0.  0.
          5    1    3    3  501    0  0.53964952218E+02  0.57481259447E+02 -0.17141673138E+03  0.18873817063E+03  0.47000000000E+01 0. -1.
        -13    1    4    4    0    0  0.10218159521E+03 -0.64005571172E+02 -0.38312843810E+03  0.40165307371E+03  0.00000000000E+00 0.  1.
         14    1    4    4    0    0 -0.13730805126E+02 -0.10806140523E+02 -0.94913366686E+02  0.96508314968E+02  0.00000000000E+00 0. -1.
         -5    1    5    5    0  502  0.62625035285E+01  0.51131132719E+02 -0.16971303197E+03  0.17742101032E+03  0.47000000000E+01 0.  1.
         13    1    6    6    0    0 -0.88290218703E+02  0.12824782642E+02 -0.40726638257E+03  0.41692390689E+03  0.00000000000E+00 0. -1.
        -14    1    6    6    0    0 -0.60388027124E+02 -0.46625463113E+02 -0.18511822709E+03  0.20022338932E+03  0.00000000000E+00 0.  1.
</event>
<event>
12    1  0.9246030E-003  0.2866705E+03  0.7818608E-02  0.1092469E+00
         21   -1    0    0  501  502  0.00000000000E+00  0.00000000000E+00  0.35032326856E+03  0.35032326856E+03  0.00000000000E+00 0. -1.
         21   -1    0    0  502  503 -0.00000000000E+00 -0.00000000000E+00 -0.23516515656E+03  0.23516515656E+03  0.00000000000E+00 0.  1.
          6    2    1    2  501    0  0.40150107498E+02  0.22260820466E+03  0.25666399674E+02  0.28781720805E+03  0.17610660766E+03 0.  0.
         24    2    3    3    0    0  0.61789259925E+02  0.45661098147E+02  0.32686016618E+00  0.10769859800E+03  0.75472065351E+02 0.  0.
         -6    2    1    2    0  503 -0.40150107498E+02 -0.22260820466E+03  0.89491712331E+02  0.29767121706E+03  0.17156031877E+03 0.  0.
        -24    2    5    5    0    0  0.12517133780E+02 -0.92666263047E+02  0.98859267672E+02  0.15707040772E+03  0.78448984898E+02 0.  0.
          5    1    3    3  501    0 -0.21639152427E+02  0.17694710652E+03  0.25339539508E+02  0.18011861005E+03  0.47000000000E+01 0. -1.
        -13    1    4    4    0    0  0.21171396222E+02  0.74762324996E+01 -0.35084763196E+02  0.41654083580E+02  0.00000000000E+00 0.  1.
         14    1    4    4    0    0  0.40617863703E+02  0.38184865647E+02  0.35411623362E+02  0.66044514424E+02  0.00000000000E+00 0. -1.
         -5    1    5    5    0  503 -0.52667241278E+02 -0.12994194162E+03 -0.93675553410E+01  0.14060080934E+03  0.47000000000E+01 0.  1.
         11    1    6    6    0    0 -0.13709178773E+02 -0.50047826832E+02  0.93249469666E+02  0.10671546348E+03  0.00000000000E+00 0. -1.
        -12    1    6    6    0    0  0.26226312552E+02 -0.42618436215E+02  0.56097980059E+01  0.50354944238E+02  0.00000000000E+00 0.  1.
</event>
<event>
12    1  0.9246030E-003  0.1807671E+03  0.7818608E-02  0.1167445E+00
         21   -1    0    0  503  502  0.00000000000E+00  0.00000000000E+00  0.14633863447E+02  0.14633863447E+02  0.00000000000E+00 0. -1.
         21   -1    0    0  501  503 -0.00000000000E+00 -0.00000000000E+00 -0.22799591671E+04  0.22799591671E+04  0.00000000000E+00 0. -1.
          6    2    1    2  501    0  0.44940643509E+02 -0.27029354549E+02 -0.13334207856E+04  0.13456179707E+04  0.17299272883E+03 0.  0.
         24    2    3    3    0    0  0.70749003903E+01 -0.22276834877E+02 -0.34743258740E+03  0.35888030653E+03  0.86829488332E+02 0.  0.
         -6    2    1    2    0  502 -0.44940643509E+02  0.27029354549E+02 -0.93190451804E+03  0.94897505980E+03  0.17133997183E+03 0.  0.
        -24    2    5    5    0    0  0.16613065903E+02 -0.28582562559E+02 -0.25790686078E+03  0.26987530538E+03  0.72275685931E+02 0.  0.
          5    1    3    3  501    0  0.37865743119E+02 -0.47525196719E+01 -0.98598819822E+03  0.98673766421E+03  0.47000000000E+01 0. -1.
        -11    1    4    4    0    0 -0.29412220277E+02 -0.34408303598E+02 -0.25127852182E+03  0.25532313954E+03  0.00000000000E+00 0.  1.
         12    1    4    4    0    0  0.36487120668E+02  0.12131468721E+02 -0.96154065579E+02  0.10355716699E+03  0.00000000000E+00 0. -1.
         -5    1    5    5    0  502 -0.61553709412E+02  0.55611917108E+02 -0.67399765725E+03  0.67909975442E+03  0.47000000000E+01 0.  1.
         11    1    6    6    0    0 -0.18683285876E+01  0.59410020969E+01  0.23741517780E+01  0.66650397067E+01  0.00000000000E+00 0. -1.
        -12    1    6    6    0    0  0.18481394491E+02 -0.34523564656E+02 -0.26028101256E+03  0.26321026568E+03  0.00000000000E+00 0.  1.
</event>
<event>
12    1  0.9246030E-003  0.2012928E+03  0.7818608E-02  0.1148998E+00
         21   -1    0    0  501  502  0.00000000000E+00  0.00000000000E+00  0.12857599090E+03  0.12857599090E+03  0.00000000000E+00 0. -1.
         21   -1    0    0  502  503 -0.00000000000E+00 -0.00000000000E+00 -0.36867092485E+03  0.36867092485E+03  0.00000000000E+00 0.  1.
          6    2    1    2  501    0 -0.29496097401E+02 -0.10026308166E+03 -0.23475799502E+02  0.20265715452E+03  0.17203518190E+03 0.  0.
         24    2    3    3    0    0  0.24885112368E+02 -0.37120611665E+01  0.14053433689E+02  0.85567663626E+02  0.80568466811E+02 0.  0.
         -6    2    1    2    0  503  0.29496097401E+02  0.10026308166E+03 -0.21661913445E+03  0.29458976123E+03  0.17010753278E+03 0.  0.
        -24    2    5    5    0    0  0.39136691000E+02  0.13443162938E+03 -0.16030786646E+03  0.22785536529E+03  0.81338255973E+02 0.  0.
          5    1    3    3  501    0 -0.54381209769E+02 -0.96551020490E+02 -0.37529233191E+02  0.11708949089E+03  0.47000000000E+01 0. -1.
        -11    1    4    4    0    0 -0.22607849418E+02  0.12752769818E+02 -0.12399243428E+02  0.28766112545E+02  0.00000000000E+00 0.  1.
         12    1    4    4    0    0  0.47492961786E+02 -0.16464830984E+02  0.26452677117E+02  0.56801551081E+02  0.00000000000E+00 0. -1.
         -5    1    5    5    0  503 -0.96405935994E+01 -0.34168547721E+02 -0.56311267993E+02  0.66734395939E+02  0.47000000000E+01 0.  1.
         13    1    6    6    0    0  0.12399977731E+02  0.13048991842E+03 -0.11159442903E+03  0.17214730567E+03  0.00000000000E+00 0. -1.
        -14    1    6    6    0    0  0.26736713269E+02  0.39417109597E+01 -0.48713437426E+02  0.55708059628E+02  0.00000000000E+00 0.  1.
</event>
<event>
12    1  0.9246030E-003  0.1983049E+03  0.7818608E-02  0.1151508E+00
         21   -1    0    0  503  502  0.00000000000E+00  0.00000000000E+00  0.72303977842E+02  0.72303977842E+02  0.00000000000E+00 0. -1.
         21   -1    0    0  501  503 -0.00000000000E+00 -0.00000000000E+00 -0.62165788324E+03  0.62165788324E+03  0.00000000000E+00 0. -1.
          6    2    1    2  501    0  0.25032284415E+02 -0.92260416870E+02 -0.14958379245E+03  0.24839516704E+03  0.17374190129E+03 0.  0.
         24    2    3    3    0    0 -0.47885503399E+02 -0.77021171301E+02 -0.11719283362E+03  0.16702869607E+03  0.77065834150E+02 0.  0.
         -6    2    1    2    0  502 -0.25032284415E+02  0.92260416870E+02 -0.39977011295E+03  0.44556669404E+03  0.17197364870E+03 0.  0.
        -24    2    5    5    0    0 -0.68975243983E+02  0.39536755271E+02 -0.15863945031E+03  0.19481411748E+03  0.80407250135E+02 0.  0.
          5    1    3    3  501    0  0.72917787814E+02 -0.15239245569E+02 -0.32390958830E+02  0.81366470977E+02  0.47000000000E+01 0. -1.
        -11    1    4    4    0    0 -0.61050377881E+01 -0.73333249181E+02 -0.93058761650E+02  0.11863797892E+03  0.00000000000E+00 0.  1.
         12    1    4    4    0    0 -0.41780465611E+02 -0.36879221192E+01 -0.24134071970E+02  0.48390717148E+02  0.00000000000E+00 0. -1.
         -5    1    5    5    0  502  0.43942959568E+02  0.52723661599E+02 -0.24113066264E+03  0.25075257656E+03  0.47000000000E+01 0.  1.
         13    1    6    6    0    0 -0.79677485518E+00  0.44193136643E+02 -0.53197956951E+02  0.69164230642E+02  0.00000000000E+00 0. -1.
        -14    1    6    6    0    0 -0.68178469128E+02 -0.46563813725E+01 -0.10544149336E+03  0.12564988684E+03  0.00000000000E+00 0.  1.
</event>
<event>
12    1  0.9246030E-003  0.1735615E+03  0.7818608E-02  0.1174475E+00
         21   -1    0    0  503  502  0.00000000000E+00  0.00000000000E+00  0.75914126412E+03  0.75914126412E+03  0.00000000000E+00 0.  1.
         21   -1    0    0  501  503 -0.00000000000E+00 -0.00000000000E+00 -0.48768583508E+02  0.48768583508E+02  0.00000000000E+00 0.  1.
          6    2    1    2  501    0 -0.13286976930E+02 -0.16671057472E+02  0.17927703275E+03  0.24952723543E+03  0.17224726075E+03 0.  0.
         24    2    3    3    0    0 -0.16446084873E+02 -0.60310731874E+02  0.17791354526E+03  0.20550053622E+03  0.81666288721E+02 0.  0.
         -6    2    1    2    0  502  0.13286976930E+02  0.16671057472E+02  0.53109564786E+03  0.55838261220E+03  0.17109671685E+03 0.  0.
        -24    2    5    5    0    0  0.64460587201E+02  0.68261591887E+01  0.21306243503E+03  0.23607394822E+03  0.78316946166E+02 0.  0.
          5    1    3    3  501    0  0.31591079432E+01  0.43639674402E+02  0.13634874894E+01  0.44026699207E+02  0.47000000000E+01 0. -1.
        -13    1    4    4    0    0 -0.33087898740E+02 -0.10185509738E+01  0.27737969539E+02  0.43188441084E+02  0.00000000000E+00 0.  1.
         14    1    4    4    0    0  0.16641813867E+02 -0.59292180900E+02  0.15017557572E+03  0.16231209514E+03  0.00000000000E+00 0. -1.
         -5    1    5    5    0  502 -0.51173610271E+02  0.98448982830E+01  0.31803321283E+03  0.32230866398E+03  0.47000000000E+01 0.  1.
         11    1    6    6    0    0  0.48612778749E+01  0.71024491617E+01 -0.50406195912E+01  0.99741993431E+01  0.00000000000E+00 0. -1.
        -12    1    6    6    0    0  0.59599309326E+02 -0.27628997296E+00  0.21810305462E+03  0.22609974888E+03  0.00000000000E+00 0.  1.
</event>
<event>
12    1  0.9246030E-003  0.2254771E+03  0.7818608E-02  0.1129910E+00
         21   -1    0    0  501  502  0.00000000000E+00  0.00000000000E+00  0.10431418058E+04  0.10431418058E+04  0.00000000000E+00 0.  1.
         21   -1    0    0  502  503 -0.00000000000E+00 -0.00000000000E+00 -0.62971263791E+02  0.62971263791E+02  0.00000000000E+00 0.  1.
          6    2    1    2  501    0 -0.12849020494E+03 -0.68790680983E+02  0.75331707697E+03  0.78626557362E+03  0.17171209409E+03 0.  0.
         24    2    3    3    0    0 -0.14426817224E+03 -0.26838722575E+02  0.46128348845E+03  0.49077510357E+03  0.80895754027E+02 0.  0.
         -6    2    1    2    0  503  0.12849020494E+03  0.68790680983E+02  0.22685346505E+03  0.31984749597E+03  0.17204079610E+03 0.  0.
        -24    2    5    5    0    0  0.69824290691E+02  0.92031298740E+02  0.79134886682E+02  0.15914689174E+03  0.75632078786E+02 0.  0.
          5    1    3    3  501    0  0.15777967308E+02 -0.41951958408E+02  0.29203358852E+03  0.29549047005E+03  0.47000000000E+01 0. -1.
        -11    1    4    4    0    0 -0.91506504587E+02 -0.53105626939E+02  0.25097245800E+03  0.27236156607E+03  0.00000000000E+00 0.  1.
         12    1    4    4    0    0 -0.52761667657E+02  0.26266904364E+02  0.21031103045E+03  0.21841353751E+03  0.00000000000E+00 0. -1.
         -5    1    5    5    0  503  0.58665914245E+02 -0.23240617757E+02  0.14771857836E+03  0.16070060424E+03  0.47000000000E+01 0.  1.
         13    1    6    6    0    0  0.67044611563E+02  0.29865622080E+02  0.27824284700E+02  0.78492841335E+02  0.00000000000E+00 0. -1.
        -14    1    6    6    0    0  0.27796791282E+01  0.62165676660E+02  0.51310601982E+02  0.80654050403E+02  0.00000000000E+00 0.  1.
</event>
<event>
12    1  0.9246030E-003  0.1772511E+03  0.7818608E-02  0.1170565E+00
         21   -1    0    0  501  502  0.00000000000E+00  0.00000000000E+00  0.39362462650E+03  0.39362462650E+03  0.00000000000E+00 0. -1.
         21   -1    0    0  502  503 -0.00000000000E+00 -0.00000000000E+00 -0.80310891717E+02  0.80310891717E+02  0.00000000000E+00 0. -1.
          6    2    1    2  501    0  0.39415527389E+02 -0.16092151446E+02  0.17776181676E+03  0.25103227125E+03  0.17206218810E+03 0.  0.
         24    2    3    3    0    0  0.47961522019E+02 -0.31637330456E+02  0.19952104619E+03  0.22256754431E+03  0.80165052461E+02 0.  0.
         -6    2    1    2    0  503 -0.39415527389E+02  0.16092151446E+02  0.13555191802E+03  0.22290324697E+03  0.17175271145E+03 0.  0.
        -24    2    5    5    0    0  0.18605696846E+02  0.53396365409E+02  0.41001878159E+02  0.10577141150E+03  0.79429803505E+02 0.  0.
          5    1    3    3  501    0 -0.85459946297E+01  0.15545179010E+02 -0.21759229425E+02  0.28464726941E+02  0.47000000000E+01 0. -1.
        -11    1    4    4    0    0 -0.41025578861E+01 -0.48157185892E+01 -0.60880403211E+01  0.87798839223E+01  0.00000000000E+00 0.  1.
         12    1    4    4    0    0  0.52064079905E+02 -0.26821611867E+02  0.20560908651E+03  0.21378766039E+03  0.00000000000E+00 0. -1.
         -5    1    5    5    0  503 -0.58021224235E+02 -0.37304213963E+02  0.94550039864E+02  0.11713183547E+03  0.47000000000E+01 0.  1.
         11    1    6    6    0    0 -0.28148424709E+02  0.12122797937E+02  0.29135967280E+02  0.42287121358E+02  0.00000000000E+00 0. -1.
        -12    1    6    6    0    0  0.46754121555E+02  0.41273567472E+02  0.11865910879E+02  0.63484290145E+02  0.00000000000E+00 0.  1.
</event>
<event>
12    1  0.9246030E-003  0.2091025E+03  0.7818608E-02  0.1142715E+00
         21   -1    0    0  501  502  0.00000000000E+00  0.00000000000E+00  0.50749309198E+03  0.50749309198E+03  0.00000000000E+00 0.  1.
         21   -1    0    0  502  503 -0.00000000000E+00 -0.00000000000E+00 -0.22032643630E+03  0.22032643630E+03  0.00000000000E+00 0.  1.
          6    2    1    2  501    0  0.78165546130E+02  0.84939712562E+02  0.42880014888E+03  0.47706752553E+03  0.17435380371E+03 0.  0.
         24    2    3    3    0    0  0.96637976645E+02  0.49184841530E+02  0.41148700185E+03  0.43300533594E+03  0.80087583901E+02 0.  0.
         -6    2    1    2    0  503 -0.78165546130E+02 -0.84939712562E+02 -0.14163349319E+03  0.25075200275E+03  0.17173209693E+03 0.  0.
        -24    2    5    5    0    0 -0.25642684862E+02  0.48059450194E+00 -0.18304666314E+02  0.91731974593E+02  0.86150543213E+02 0.  0.
          5    1    3    3  501    0 -0.18472430515E+02  0.35754871032E+02  0.17313147032E+02  0.44062189594E+02  0.47000000000E+01 0. -1.
        -11    1    4    4    0    0  0.50719417505E+02  0.64888211936E+02  0.20572969134E+03  0.22160244868E+03  0.00000000000E+00 0.  1.
         12    1    4    4    0    0  0.45918559141E+02 -0.15703370406E+02  0.20575731051E+03  0.21140288726E+03  0.00000000000E+00 0. -1.
         -5    1    5    5    0  503 -0.52522861268E+02 -0.85420307064E+02 -0.12332882688E+03  0.15902002815E+03  0.47000000000E+01 0.  1.
         13    1    6    6    0    0 -0.45673122465E+02  0.28257775600E+02 -0.20328175660E+02  0.57426219823E+02  0.00000000000E+00 0. -1.
        -14    1    6    6    0    0  0.20030437603E+02 -0.27777181098E+02  0.20235093461E+01  0.34305754770E+02  0.00000000000E+00 0.  1.
</event>
<event>
12    1  0.9246030E-003  0.1935910E+03  0.7818608E-02  0.1155415E+00
         21   -1    0    0  503  502  0.00000000000E+00  0.00000000000E+00  0.27468187157E+03  0.27468187157E+03  0.00000000000E+00 0. -1.
         21   -1    0    0  501  503 -0.00000000000E+00 -0.00000000000E+00 -0.17829715101E+03  0.17829715101E+03  0.00000000000E+00 0. -1.
          6    2    1    2  501    0 -0.36662920391E+02  0.78295732456E+02 -0.62118865481E+02  0.20331310573E+03  0.17321395457E+03 0.  0.
         24    2    3    3    0    0 -0.25345693452E+02  0.18937274957E+02 -0.97693978291E+02  0.13303377197E+03  0.84574502837E+02 0.  0.
         -6    2    1    2    0  502  0.36662920391E+02 -0.78295732456E+02  0.15850358605E+03  0.24966591685E+03  0.17243924088E+03 0.  0.
        -24    2    5    5    0    0  0.18536759552E+02  0.18117731288E+02  0.31261963821E+02  0.88928136215E+02  0.79114090951E+02 0.  0.
          5    1    3    3  501    0 -0.11317226939E+02  0.59358457500E+02  0.35575112810E+02  0.70279333760E+02  0.47000000000E+01 0. -1.
        -13    1    4    4    0    0  0.10764256439E+02 -0.28500645405E+02 -0.37459678084E+02  0.48284402112E+02  0.00000000000E+00 0.  1.
         14    1    4    4    0    0 -0.36109949891E+02  0.47437920361E+02 -0.60234300207E+02  0.84749369855E+02  0.00000000000E+00 0. -1.
         -5    1    5    5    0  502  0.18126160838E+02 -0.96413463744E+02  0.12724162222E+03  0.16073778064E+03  0.47000000000E+01 0.  1.
         11    1    6    6    0    0 -0.16647688605E+02 -0.10664338992E+02 -0.14429439481E+02  0.24476159539E+02  0.00000000000E+00 0. -1.
        -12    1    6    6    0    0  0.35184448158E+02  0.28782070280E+02  0.45691403303E+02  0.64451976677E+02  0.00000000000E+00 0.  1.
</event>
<event>
12    1  0.9246030E-003  0.2113833E+03  0.7818608E-02  0.1141248E+00
         21   -1    0    0  501  502  0.00000000000E+00  0.00000000000E+00  0.11103807120E+04  0.11103807120E+04  0.00000000000E+00 0. -1.
         21   -1    0    0  502  503 -0.00000000000E+00 -0.00000000000E+00 -0.39784962607E+02  0.39784962607E+02  0.00000000000E+00 0.  1.
          6    2    1    2  501    0  0.80104930165E+02 -0.86427748655E+02  0.57883653112E+03  0.61489936075E+03  0.17077159751E+03 0.  0.
         24    2    3    3    0    0  0.32093224234E+02 -0.16708997605E+02  0.11854963491E+03  0.14686950596E+03  0.78787500278E+02 0.  0.
         -6    2    1    2    0  503 -0.80104930165E+02  0.86427748655E+02  0.49175921829E+03  0.53526631388E+03  0.17548886695E+03 0.  0.
        -24    2    5    5    0    0 -0.70496468658E+02  0.11969480390E+03  0.30088572352E+03  0.34122044171E+03  0.81256218543E+02 0.  0.
          5    1    3    3  501    0  0.48011705931E+02 -0.69718751050E+02  0.46028689621E+03  0.46802985479E+03  0.47000000000E+01 0. -1.
        -11    1    4    4    0    0  0.56417391654E+02 -0.20934345905E+02  0.69316074709E+02  0.91792631145E+02  0.00000000000E+00 0.  1.
         12    1    4    4    0    0 -0.24324167420E+02  0.42253483005E+01  0.49233560202E+02  0.55076874812E+02  0.00000000000E+00 0. -1.
         -5    1    5    5    0  503 -0.96084615069E+01 -0.33267055242E+02  0.19087349478E+03  0.19404587217E+03  0.47000000000E+01 0.  1.
         11    1    6    6    0    0  0.13288936532E+02  0.80597155301E+00  0.12639767943E+02  0.18357809181E+02  0.00000000000E+00 0. -1.
        -12    1    6    6    0    0 -0.83785405191E+02  0.11888883234E+03  0.28824595557E+03  0.32286263253E+03  0.00000000000E+00 0.  1.
</event>
<event>
12    1  0.9246030E-003  0.1947753E+03  0.7818608E-02  0.1154267E+00
         21   -1    0    0  501  502  0.00000000000E+00  0.00000000000E+00  0.48688597319E+02  0.48688597319E+02  0.00000000000E+00 0. -1.
         21   -1    0    0  502  503 -0.00000000000E+00 -0.00000000000E+00 -0.83029856234E+03  0.83029856234E+03  0.00000000000E+00 0. -1.
          6    2    1    2  501    0 -0.90373184371E+02 -0.22284260589E+02 -0.28071596868E+03  0.34155603192E+03  0.17086593325E+03 0.  0.
         24    2    3    3    0    0 -0.83798664754E+02 -0.21605851209E+02 -0.29918661885E+03  0.32138329128E+03  0.79281511038E+02 0.  0.
         -6    2    1    2    0  503  0.90373184371E+02  0.22284260589E+02 -0.50089399634E+03  0.53743112774E+03  0.17109506354E+03 0.  0.
        -24    2    5    5    0    0  0.93522719302E+02 -0.42487255912E+02 -0.34615447851E+03  0.36958692230E+03  0.78866369274E+02 0.  0.
          5    1    3    3  501    0 -0.65745196174E+01 -0.67840938000E+00  0.18470650169E+02  0.20172740646E+02  0.47000000000E+01 0. -1.
        -13    1    4    4    0    0 -0.52708976132E+02  0.12761881993E+02 -0.24084450597E+03  0.24687482223E+03  0.00000000000E+00 0.  1.
         14    1    4    4    0    0 -0.31089688622E+02 -0.34367733202E+02 -0.58342112883E+02  0.74508469046E+02  0.00000000000E+00 0. -1.
         -5    1    5    5    0  503 -0.31495349306E+01  0.64771516501E+02 -0.15473951783E+03  0.16784420544E+03  0.47000000000E+01 0.  1.
         11    1    6    6    0    0  0.44686636892E+01  0.18961069594E+02 -0.78724547096E+02  0.81098985387E+02  0.00000000000E+00 0. -1.
        -12    1    6    6    0    0  0.89054055613E+02 -0.61448325506E+02 -0.26742993141E+03  0.28848793691E+03  0.00000000000E+00 0.  1.
</event>
<event>
12    1  0.9246030E-003  0.2007358E+03  0.7818608E-02  0.1149142E+00
         21   -1    0    0  503  502  0.00000000000E+00  0.00000000000E+00  0.19155552556E+02  0.19155552556E+02  0.00000000000E+00 0.  1.
         21   -1    0    0  501  503 -0.00000000000E+00 -0.00000000000E+00 -0.21935486727E+04  0.21935486727E+04  0.00000000000E+00 0.  1.
          6    2    1    2  501    0  0.87692075841E+02  0.47850521311E+02 -0.86202584799E+03  0.88508950359E+03  0.17411287779E+03 0.  0.
         24    2    3    3    0    0  0.11745616382E+03  0.67442871695E+02 -0.57727592510E+03  0.59808014885E+03  0.78152923032E+02 0.  0.
         -6    2    1    2    0  502 -0.87692075841E+02 -0.47850521311E+02 -0.13123672721E+04  0.13276147217E+04  0.17399258490E+03 0.  0.
        -24    2    5    5    0    0 -0.68746871509E+02 -0.83079642602E+02 -0.63770932792E+03  0.65175568053E+03  0.80522797013E+02 0.  0.
          5    1    3    3  501    0 -0.29764087983E+02 -0.19592350384E+02 -0.28474992289E+03  0.28700935475E+03  0.47000000000E+01 0. -1.
        -13    1    4    4    0    0 -0.93991939700E+01  0.13594939200E+02 -0.98024694016E+02  0.99408288669E+02  0.00000000000E+00 0.  1.
         14    1    4    4    0    0  0.12685535779E+03  0.53847932495E+02 -0.47925123109E+03  0.49867186018E+03  0.00000000000E+00 0. -1.
         -5    1    5    5    0  502 -0.18945204332E+02  0.35229121291E+02 -0.67465794422E+03  0.67585904112E+03  0.47000000000E+01 0.  1.
         13    1    6    6    0    0 -0.38779510581E+02 -0.11661896396E+02 -0.91208332882E+02  0.99793838765E+02  0.00000000000E+00 0. -1.
        -14    1    6    6    0    0 -0.29967360928E+02 -0.71417746206E+02 -0.54650099504E+03  0.55196184177E+03  0.00000000000E+00 0.  1.
</event>
<event>
12    1  0.9246030E-003  0.2206352E+03  0.7818608E-02  0.1133784E+00
         21   -1    0    0  503  502  0.00000000000E+00  0.00000000000E+00  0.22312077068E+03  0.22312077068E+03  0.00000000000E+00 0.  1.
         21   -1    0    0  501  503 -0.00000000000E+00 -0.00000000000E+00 -0.31190887015E+03  0.31190887015E+03  0.00000000000E+00 0.  1.
          6    2    1    2  501    0 -0.14073545803E+02 -0.13300463652E+03 -0.19271968591E+03  0.29295183026E+03  0.17547535293E+03 0.  0.
         24    2    3    3    0    0  0.41884859649E+02 -0.23851811150E+02 -0.73042018825E+02  0.12151520516E+03  0.84306335514E+02 0.  0.
         -6    2    1    2    0  502  0.14073545803E+02  0.13300463652E+03  0.10393158644E+03  0.24207781057E+03  0.17294968541E+03 0.  0.
        -24    2    5    5    0    0  0.36175382351E+01  0.18788670007E+01  0.69077832920E+02  0.10591551895E+03  0.80185618590E+02 0.  0.
          5    1    3    3  501    0 -0.55958405451E+02 -0.10915282537E+03 -0.11967766708E+03  0.17143662510E+03  0.47000000000E+01 0. -1.
        -11    1    4    4    0    0 -0.95704783962E+00 -0.42275739445E+02 -0.59420428564E+02  0.72931073055E+02  0.00000000000E+00 0.  1.
         12    1    4    4    0    0  0.42841907488E+02  0.18423928295E+02 -0.13621590261E+02  0.48584132104E+02  0.00000000000E+00 0. -1.
         -5    1    5    5    0  502  0.10456007568E+02  0.13112576952E+03  0.34853753519E+02  0.13616229162E+03  0.47000000000E+01 0.  1.
         13    1    6    6    0    0 -0.27263063858E+02  0.28495188521E+02  0.36393642723E+02  0.53663280279E+02  0.00000000000E+00 0. -1.
        -14    1    6    6    0    0  0.30880602093E+02 -0.26616321520E+02  0.32684190197E+02  0.52252238667E+02  0.00000000000E+00 0.  1.
</event>
<event>
12    1  0.9246030E-003  0.1786628E+03  0.7818608E-02  0.1169450E+00
         21   -1    0    0  501  502  0.00000000000E+00  0.00000000000E+00  0.51883999083E+03  0.51883999083E+03  0.00000000000E+00 0. -1.
         21   -1    0    0  502  503 -0.00000000000E+00 -0.00000000000E+00 -0.81371586761E+02  0.81371586761E+02  0.00000000000E+00 0. -1.
          6    2    1    2  501    0  0.21060359742E+02  0.41891464799E+02  0.36940462351E+03  0.41034153279E+03  0.17240059189E+03 0.  0.
         24    2    3    3    0    0  0.68587703154E+02  0.25191016891E+02  0.15216637126E+03  0.18728929322E+03  0.81140707778E+02 0.  0.
         -6    2    1    2    0  503 -0.21060359742E+02 -0.41891464799E+02  0.68063780564E+02  0.18987004481E+03  0.17093718763E+03 0.  0.
        -24    2    5    5    0    0 -0.28118669264E+02 -0.15085966116E+02 -0.30197907570E+02  0.87665329419E+02  0.75862048653E+02 0.  0.
          5    1    3    3  501    0 -0.47527343412E+02  0.16700447908E+02  0.21723825225E+03  0.22305223956E+03  0.47000000000E+01 0. -1.
        -11    1    4    4    0    0 -0.17821896667E+02  0.23238498749E+01  0.40089902393E+02  0.43934275378E+02  0.00000000000E+00 0.  1.
         12    1    4    4    0    0  0.86409599821E+02  0.22867167016E+02  0.11207646886E+03  0.14335501784E+03  0.00000000000E+00 0. -1.
         -5    1    5    5    0  503  0.70583095218E+01 -0.26805498683E+02  0.98261688134E+02  0.10220471539E+03  0.47000000000E+01 0.  1.
         13    1    6    6    0    0 -0.35266182270E+02 -0.37608905110E+02 -0.30115773563E+01  0.51644970265E+02  0.00000000000E+00 0. -1.
        -14    1    6    6    0    0  0.71475130069E+01  0.22522938994E+02 -0.27186330214E+02  0.36020359154E+02  0.00000000000E+00 0.  1.
</event>
<event>
12    1  0.9246030E-003  0.1762944E+03  0.7818608E-02  0.1171674E+00
         21   -1    0    0  503  502  0.00000000000E+00  0.00000000000E+00  0.26372263252E+03  0.26372263252E+03  0.00000000000E+00 0.  1.
         21   -1    0    0  501  503 -0.00000000000E+00 -0.00000000000E+00 -0.14428422832E+03  0.14428422832E+03  0.00000000000E+00 0.  1.
          6    2    1    2  501    0  0.28566072605E+02  0.40618954608E+01 -0.28504712984E+02  0.17858399934E+03  0.17391724083E+03 0.  0.
         24    2    3    3    0    0  0.84468344343E+01  0.30785179003E+01  0.52008593541E+02  0.95456186280E+02  0.79537182579E+02 0.  0.
         -6    2    1    2    0  502 -0.28566072605E+02 -0.40618954608E+01  0.14794311719E+03  0.22942286151E+03  0.17296000682E+03 0.  0.
        -24    2    5    5    0    0 -0.13907434564E+02  0.28267751971E+02  0.17142470289E+02  0.93809510390E+02  0.86682624639E+02 0.  0.
          5    1    3    3  501    0  0.20119238171E+02  0.98337756050E+00 -0.80513306525E+02  0.83127813057E+02  0.47000000000E+01 0. -1.
        -11    1    4    4    0    0  0.32316136635E+02  0.46642818696E+01  0.61571896572E+02  0.69693519497E+02  0.00000000000E+00 0.  1.
         12    1    4    4    0    0 -0.23869302201E+02 -0.15857639693E+01 -0.95633030307E+01  0.25762666783E+02  0.00000000000E+00 0. -1.
         -5    1    5    5    0  502 -0.14658638041E+02 -0.32329647432E+02  0.13080064690E+03  0.13561335112E+03  0.47000000000E+01 0.  1.
         13    1    6    6    0    0 -0.23102602082E+02 -0.27312933745E+02  0.43262313388E+01  0.36033912503E+02  0.00000000000E+00 0. -1.
        -14    1    6    6    0    0  0.91951675177E+01  0.55580685716E+02  0.12816238951E+02  0.57775597887E+02  0.00000000000E+00 0.  1.
</event>
<event>
12    1  0.9246030E-003  0.2705294E+03  0.7818608E-02  0.1100980E+00
         21   -1    0    0  503  502  0.00000000000E+00  0.00000000000E+00  0.28728324347E+03  0.28728324347E+03  0.00000000000E+00 0. -1.
         21   -1    0    0  501  503 -0.00000000000E+00 -0.00000000000E+00 -0.27489266563E+03  0.27489266563E+03  0.00000000000E+00 0.  1.
          6    2    1    2  501    0 -0.13230794870E+03 -0.16204121370E+03 -0.69923930306E+02  0.27940066786E+03  0.17150110479E+03 0.  0.
         24    2    3    3    0    0 -0.56697341221E+02 -0.43759985827E+02 -0.88975917360E+02  0.13765271888E+03  0.76824685373E+02 0.  0.
         -6    2    1    2    0  502  0.13230794870E+03  0.16204121370E+03  0.82314508148E+02  0.28277524124E+03  0.17153253505E+03 0.  0.
        -24    2    5    5    0    0  0.91937683002E+02  0.93642262616E+02 -0.18512671952E+02  0.15433698717E+03  0.79093461685E+02 0.  0.
          5    1    3    3  501    0 -0.75610607474E+02 -0.11828122787E+03  0.19051987054E+02  0.14174794898E+03  0.47000000000E+01 0. -1.
        -13    1    4    4    0    0 -0.57308068258E+02 -0.20352821276E+02 -0.18770914239E+02  0.63645889440E+02  0.00000000000E+00 0.  1.
         14    1    4    4    0    0  0.61072703608E+00 -0.23407164551E+02 -0.70205003121E+02  0.74006829435E+02  0.00000000000E+00 0. -1.
         -5    1    5    5    0  502  0.40370265693E+02  0.68398951085E+02  0.10082718010E+03  0.12843825407E+03  0.47000000000E+01 0.  1.
         11    1    6    6    0    0  0.20550321264E+02  0.12788905791E+02  0.27882940591E+02  0.36923301470E+02  0.00000000000E+00 0. -1.
        -12    1    6    6    0    0  0.71387361738E+02  0.80853356825E+02 -0.46395612544E+02  0.11741368570E+03  0.00000000000E+00 0.  1.
</event>
<event>
12    1  0.9246030E-003  0.1982110E+03  0.7818608E-02  0.1153273E+00
         21   -1    0    0  501  502  0.00000000000E+00  0.00000000000E+00  0.11354798226E+03  0.11354798226E+03  0.00000000000E+00 0.  1.
         21   -1    0    0  502  503 -0.00000000000E+00 -0.00000000000E+00 -0.33092777974E+03  0.33092777974E+03  0.00000000000E+00 0. -1.
          6    2    1    2  501    0 -0.51174065797E+01 -0.75386198063E+02 -0.10025271665E+03  0.22212207565E+03  0.18324394284E+03 0.  0.
         24    2    3    3    0    0 -0.51929433569E+02 -0.13758723417E+01 -0.94973009782E+02  0.13426503559E+03  0.79427124451E+02 0.  0.
         -6    2    1    2    0  503  0.51174065797E+01  0.75386198063E+02 -0.11712708083E+03  0.22235368635E+03  0.17324301447E+03 0.  0.
        -24    2    5    5    0    0  0.66163295087E+02  0.72435835740E+02 -0.10756151009E+03  0.16031422081E+03  0.67131505457E+02 0.  0.
          5    1    3    3  501    0  0.46812026989E+02 -0.74010325721E+02 -0.52797068705E+01  0.87857040064E+02  0.47000000000E+01 0. -1.
        -11    1    4    4    0    0  0.90307046505E+01  0.11797577397E+02  0.56385665691E+01  0.15891189127E+02  0.00000000000E+00 0.  1.
         12    1    4    4    0    0 -0.60960138219E+02 -0.13173449739E+02 -0.10061157635E+03  0.11837384646E+03  0.00000000000E+00 0. -1.
         -5    1    5    5    0  503 -0.61045888507E+02  0.29503623229E+01 -0.95655707331E+01  0.62039465543E+02  0.47000000000E+01 0.  1.
         13    1    6    6    0    0  0.34073566283E+02  0.22137466035E+02 -0.88989533186E+02  0.97827462087E+02  0.00000000000E+00 0. -1.
        -14    1    6    6    0    0  0.32089728803E+02  0.50298369705E+02 -0.18571976906E+02  0.62486758725E+02  0.00000000000E+00 0.  1.
</event>
<event>
12    1  0.9246030E-003  0.2018053E+03  0.7818608E-02  0.1148410E+00
         21   -1    0    0  501  502  0.00000000000E+00  0.00000000000E+00  0.97645222502E+03  0.97645222502E+03  0.00000000000E+00 0. -1.
         21   -1    0    0  502  503 -0.00000000000E+00 -0.00000000000E+00 -0.42187331922E+02  0.42187331922E+02  0.00000000000E+00 0.  1.
          6    2    1    2  501    0  0.97923212865E+02 -0.33949387752E+02  0.52996339907E+03  0.56677114257E+03  0.17212439439E+03 0.  0.
         24    2    3    3    0    0  0.13430885973E+03 -0.21513108753E+02  0.37210842526E+03  0.40423235000E+03  0.80233590124E+02 0.  0.
         -6    2    1    2    0  503 -0.97923212865E+02  0.33949387752E+02  0.40430149403E+03  0.45186841438E+03  0.17315845140E+03 0.  0.
        -24    2    5    5    0    0 -0.61478801296E+02  0.46007583987E+02  0.39728656876E+03  0.41256326958E+03  0.80470447331E+02 0.  0.
          5    1    3    3  501    0 -0.36385646864E+02 -0.12436278999E+02  0.15785497381E+03  0.16253879257E+03  0.47000000000E+01 0. -1.
        -13    1    4    4    0    0  0.10255148034E+03 -0.32798873231E+02  0.34364767149E+03  0.36011983329E+03  0.00000000000E+00 0.  1.
         14    1    4    4    0    0  0.31757379388E+02  0.11285764479E+02  0.28460753774E+02  0.44112516714E+02  0.00000000000E+00 0. -1.
         -5    1    5    5    0  503 -0.36444411569E+02 -0.12058196236E+02  0.70149252645E+01  0.39305144797E+02  0.47000000000E+01 0.  1.
         11    1    6    6    0    0 -0.80155464045E+02  0.45125310950E+02  0.31352025166E+03  0.32673558164E+03  0.00000000000E+00 0. -1.
        -12    1    6    6    0    0  0.18676662749E+02  0.88227303784E+00  0.83766317099E+02  0.85827687943E+02  0.00000000000E+00 0.  1.
</event>
<event>
12    1  0.9246030E-003  0.2067075E+03  0.7818608E-02  0.1144793E+00
         21   -1    0    0  503  502  0.00000000000E+00  0.00000000000E+00  0.31702586740E+02  0.31702586740E+02  0.00000000000E+00 0. -1.
         21   -1    0    0  501  503 -0.00000000000E+00 -0.00000000000E+00 -0.13315061934E+04  0.13315061934E+04  0.00000000000E+00 0. -1.
          6    2    1    2  501    0  0.11555250005E+03  0.10675614050E+02 -0.62412271893E+03  0.65746266015E+03  0.17106031742E+03 0.  0.
         24    2    3    3    0    0  0.29297183253E+02 -0.24844581301E+02 -0.14788467019E+03  0.17215200395E+03  0.79314933136E+02 0.  0.
         -6    2    1    2    0  502 -0.11555250005E+03 -0.10675614050E+02 -0.67568088777E+03  0.70574612003E+03  0.16753081760E+03 0.  0.
        -24    2    5    5    0    0 -0.18630148991E+02  0.26769716397E+02 -0.37764847843E+03  0.39008569819E+03  0.92112857405E+02 0.  0.
          5    1    3    3  501    0  0.86255316798E+02  0.35520195352E+02 -0.47623804874E+03  0.48531065620E+03  0.47000000000E+01 0. -1.
        -11    1    4    4    0    0  0.40768801108E+02 -0.38173860118E+02 -0.57832003066E+02  0.80398254451E+02  0.00000000000E+00 0.  1.
         12    1    4    4    0    0 -0.11471617855E+02  0.13329278817E+02 -0.90052667128E+02  0.91753749497E+02  0.00000000000E+00 0. -1.
         -5    1    5    5    0  502 -0.96922351060E+02 -0.37445330447E+02 -0.29803240933E+03  0.31566042185E+03  0.47000000000E+01 0.  1.
         13    1    6    6    0    0 -0.42746671033E+02  0.46481053697E+02 -0.29683036873E+03  0.30347328389E+03  0.00000000000E+00 0. -1.
        -14    1    6    6    0    0  0.24116522041E+02 -0.19711337301E+02 -0.80818109705E+02  0.86612414294E+02  0.00000000000E+00 0.  1.
</event>
<event>
12    1  0.9246030E-003  0.1973434E+03  0.7818608E-02  0.1152107E+00
         21   -1    0    0  501  502  0.00000000000E+00  0.00000000000E+00  0.28146417317E+03  0.28146417317E+03  0.00000000000E+00 0. -1.
         21   -1    0    0  502  503 -0.00000000000E+00 -0.00000000000E+00 -0.16694394746E+03  0.16694394746E+03  0.00000000000E+00 0. -1.
          6    2    1    2  501    0  0.35631744544E+02  0.88837515853E+02  0.15053368780E+03  0.24780559439E+03  0.17200434880E+03 0.  0.
         24    2    3    3    0    0 -0.30610705794E+02  0.41826346112E+02  0.61984335556E+02  0.12755090596E+03  0.98695071901E+02 0.  0.
         -6    2    1    2    0  503 -0.35631744544E+02 -0.88837515853E+02 -0.36013462094E+02  0.20060252624E+03  0.17257658775E+03 0.  0.
        -24    2    5    5    0    0 -0.55924196828E+02 -0.28043997196E+02  0.31454238054E+02  0.10742733591E+03  0.81469514781E+02 0.  0.
          5    1    3    3  501    0  0.66242450338E+02  0.47011169742E+02  0.88549352245E+02  0.12025468843E+03  0.47000000000E+01 0. -1.
        -11    1    4    4    0    0 -0.50645194124E+02  0.31964559982E+02  0.79243193768E+02  0.99328508200E+02  0.00000000000E+00 0.  1.
         12    1    4    4    0    0  0.20034488330E+02  0.98617861297E+01 -0.17258858212E+02  0.28222397756E+02  0.00000000000E+00 0. -1.
         -5    1    5    5    0  503  0.20292452284E+02 -0.60793518657E+02 -0.67467700148E+02  0.93175190334E+02  0.47000000000E+01 0.  1.
         11    1    6    6    0    0 -0.33501497009E+02 -0.39309612521E+02 -0.15725198025E+02  0.53989608179E+02  0.00000000000E+00 0. -1.
        -12    1    6    6    0    0 -0.22422699819E+02  0.11265615325E+02  0.47179436079E+02  0.53437727727E+02  0.00000000000E+00 0.  1.
</event>
<event>
12    1  0.9246030E-003  0.2675828E+03  0.7818608E-02  0.1102777E+00
         21   -1    0    0  503  502  0.00000000000E+00  0.00000000000E+00  0.19432135521E+03  0.19432135521E+03  0.00000000000E+00 0.  1.
         21   -1    0    0  501  503 -0.00000000000E+00 -0.00000000000E+00 -0.46737758001E+03  0.46737758001E+03  0.00000000000E+00 0. -1.
          6    2    1    2  501    0 -0.17456607120E+03 -0.10723097501E+03 -0.28935377497E+03  0.39362027043E+03  0.17099565779E+03 0.  0.
         24    2    3    3    0    0 -0.95256569099E+02 -0.10149386054E+03 -0.26605903455E+03  0.31062842422E+03  0.79547409637E+02 0.  0.
         -6    2    1    2    0  502  0.17456607120E+03  0.10723097501E+03  0.16297550181E+02  0.26807866479E+03  0.17213008209E+03 0.  0.
        -24    2    5    5    0    0  0.14660155795E+03  0.34305252229E+02 -0.35391956523E+02  0.17430196114E+03  0.80372358115E+02 0.  0.
          5    1    3    3  501    0 -0.79309502102E+02 -0.57371144726E+01 -0.23294740419E+02  0.82991846210E+02  0.47000000000E+01 0. -1.
        -11    1    4    4    0    0 -0.31282998180E+02 -0.12959293154E+02 -0.15389170038E+02  0.37194029207E+02  0.00000000000E+00 0.  1.
         12    1    4    4    0    0 -0.63973570919E+02 -0.88534567381E+02 -0.25066986452E+03  0.27343439501E+03  0.00000000000E+00 0. -1.
         -5    1    5    5    0  502  0.27964513255E+02  0.72925722779E+02  0.51689506704E+02  0.93776703651E+02  0.47000000000E+01 0.  1.
         13    1    6    6    0    0  0.37438427635E+02 -0.22635166964E+02  0.65421037272E+01  0.44235571302E+02  0.00000000000E+00 0. -1.
        -14    1    6    6    0    0  0.10916313031E+03  0.56940419193E+02 -0.41934060250E+02  0.13006638984E+03  0.00000000000E+00 0.  1.
</event>
<event>
12    1  0.9246030E-003  0.2117634E+03  0.7818608E-02  0.1140293E+00
         21   -1    0    0  503  502  0.00000000000E+00  0.00000000000E+00  0.29078878958E+03  0.29078878958E+03  0.00000000000E+00 0. -1.
         21   -1    0    0  501  503 -0.00000000000E+00 -0.00000000000E+00 -0.15770733338E+03  0.15770733338E+03  0.00000000000E+00 0. -1.
          6    2    1    2  501    0  0.97957444897E+02  0.74215921126E+02  0.10199350413E+03  0.23504559025E+03  0.17245315495E+03 0.  0.
         24    2    3    3    0    0  0.13897131618E+01  0.65901221052E+02  0.93030877716E+02  0.13759365481E+03  0.77021863103E+02 0.  0.
         -6    2    1    2    0  502 -0.97957444897E+02 -0.74215921126E+02  0.31087952067E+02  0.21345053270E+03  0.17172945346E+03 0.  0.
        -24    2    5    5    0    0 -0.41971711841E+02 -0.89423770431E+02 -0.27798945314E+02  0.13065296227E+03  0.80865195700E+02 0.  0.
          5    1    3    3  501    0  0.96567731735E+02  0.83147000736E+01  0.89626264177E+01  0.97451935446E+02  0.47000000000E+01 0. -1.
        -11    1    4    4    0    0 -0.19326350894E+02  0.50985804933E+02  0.97468997723E+02  0.11168377528E+03  0.00000000000E+00 0.  1.
         12    1    4    4    0    0  0.20716064056E+02  0.14915416119E+02 -0.44381200069E+01  0.25909879528E+02  0.00000000000E+00 0. -1.
         -5    1    5    5    0  502 -0.55985733056E+02  0.15207849306E+02  0.58886897381E+02  0.82797570433E+02  0.47000000000E+01 0.  1.
         13    1    6    6    0    0 -0.73978550841E+01 -0.23099503471E+02  0.28215881284E+02  0.37208215183E+02  0.00000000000E+00 0. -1.
        -14    1    6    6    0    0 -0.34573856757E+02 -0.66324266960E+02 -0.56014826598E+02  0.93444747085E+02  0.00000000000E+00 0.  1.
</event>
<event>
12    1  0.9246030E-003  0.2533394E+03  0.7818608E-02  0.1111280E+00
         21   -1    0    0  501  502  0.00000000000E+00  0.00000000000E+00  0.14616790014E+03  0.14616790014E+03  0.00000000000E+00 0. -1.
         21   -1    0    0  502  503 -0.00000000000E+00 -0.00000000000E+00 -0.45265205133E+03  0.45265205133E+03  0.00000000000E+00 0. -1.
          6    2    1    2  501    0 -0.13650293410E+03  0.12593918257E+03 -0.10011636273E+03  0.27240437456E+03  0.17229953125E+03 0.  0.
         24    2    3    3    0    0 -0.61757785017E+00  0.57116999410E+02 -0.48040793705E+02  0.11136003959E+03  0.82646279608E+02 0.  0.
         -6    2    1    2    0  503  0.13650293410E+03 -0.12593918257E+03 -0.20636778846E+03  0.32641557691E+03  0.17165586506E+03 0.  0.
        -24    2    5    5    0    0  0.32257838547E+02 -0.11795978081E+03 -0.14158192718E+03  0.20333020563E+03  0.79640770857E+02 0.  0.
          5    1    3    3  501    0 -0.13588535625E+03  0.68822183158E+02 -0.52075569022E+02  0.16104433497E+03  0.47000000000E+01 0. -1.
        -11    1    4    4    0    0  0.31423148916E+02  0.17680618604E+02  0.66982731999E+01  0.36672679556E+02  0.00000000000E+00 0.  1.
         12    1    4    4    0    0 -0.32040726766E+02  0.39436380807E+02 -0.54739066905E+02  0.74687360031E+02  0.00000000000E+00 0. -1.
         -5    1    5    5    0  503  0.10424509555E+03 -0.79794017557E+01 -0.64785861279E+02  0.12308537127E+03  0.47000000000E+01 0.  1.
         13    1    6    6    0    0  0.30467954043E+01 -0.10141849789E+03 -0.67132574506E+02  0.12166255478E+03  0.00000000000E+00 0. -1.
        -14    1    6    6    0    0  0.29211043143E+02 -0.16541282923E+02 -0.74449352672E+02  0.81667650851E+02  0.00000000000E+00 0.  1.
</event>
<event>
12    1  0.9246030E-003  0.1779447E+03  0.7818608E-02  0.1170023E+00
         21   -1    0    0  503  502  0.00000000000E+00  0.00000000000E+00  0.93642655980E+03  0.93642655980E+03  0.00000000000E+00 0. -1.
         21   -1    0    0  501  503 -0.00000000000E+00 -0.00000000000E+00 -0.33724090821E+02  0.33724090821E+02  0.00000000000E+00 0. -1.
          6    2    1    2  501    0  0.46549390757E+02 -0.27144330887E+01  0.42935224345E+03  0.46476626081E+03  0.17172685960E+03 0.  0.
         24    2    3    3    0    0  0.31851709964E+02 -0.16988882380E+02  0.94778815658E+02  0.12953313252E+03  0.80577012662E+02 0.  0.
         -6    2    1    2    0  502 -0.46549390757E+02  0.27144330887E+01  0.47335022553E+03  0.50538438981E+03  0.17081783141E+03 0.  0.
        -24    2    5    5    0    0  0.63532958594E+01  0.55131880050E+02  0.20480705466E+03  0.22666623895E+03  0.79697965319E+02 0.  0.
          5    1    3    3  501    0  0.14697680793E+02  0.14274449292E+02  0.33457342779E+03  0.33523312830E+03  0.47000000000E+01 0. -1.
        -11    1    4    4    0    0  0.23027910524E+02  0.29079812166E+02  0.62208036639E+02  0.72427618773E+02  0.00000000000E+00 0.  1.
         12    1    4    4    0    0  0.88237994399E+01 -0.46068694547E+02  0.32570779019E+02  0.57105513742E+02  0.00000000000E+00 0. -1.
         -5    1    5    5    0  502 -0.52902686616E+02 -0.52417446962E+02  0.26854317087E+03  0.27871815086E+03  0.47000000000E+01 0.  1.
         13    1    6    6    0    0 -0.17276751301E+01 -0.13682090650E+02  0.41774757056E+01  0.14409572138E+02  0.00000000000E+00 0. -1.
        -14    1    6    6    0    0  0.80809709895E+01  0.68813970701E+02  0.20062957896E+03  0.21225666682E+03  0.00000000000E+00 0.  1.
</event>
<event>
12    1  0.9246030E-003  0.1871419E+03  0.7818608E-02  0.1162730E+00
         21   -1    0    0  503  502  0.00000000000E+00  0.00000000000E+00  0.85826471222E+03  0.85826471222E+03  0.00000000000E+00 0.  1.
         21   -1    0    0  501  503 -0.00000000000E+00 -0.00000000000E+00 -0.39710523773E+02  0.39710523773E+02  0.00000000000E+00 0.  1.
          6    2    1    2  501    0 -0.27200639886E+01  0.73165349001E+02  0.37002745867E+03  0.41465939232E+03  0.17222521427E+03 0.  0.
         24    2    3    3    0    0 -0.31540080650E+02  0.69973833641E+00  0.94856148891E+02  0.12861184765E+03  0.80920034921E+02 0.  0.
         -6    2    1    2    0  502  0.27200639886E+01 -0.73165349001E+02  0.44852672977E+03  0.48331584367E+03  0.16449136870E+03 0.  0.
        -24    2    5    5    0    0  0.16462420440E+02 -0.86001115207E+02  0.19714435467E+03  0.23118730945E+03  0.83153306414E+02 0.  0.
          5    1    3    3  501    0  0.28820016662E+02  0.72465610665E+02  0.27517130978E+03  0.28604754468E+03  0.47000000000E+01 0. -1.
        -13    1    4    4    0    0 -0.46040259039E+02  0.43398483210E+01  0.16900855707E+02  0.49235948853E+02  0.00000000000E+00 0.  1.
         14    1    4    4    0    0  0.14500178388E+02 -0.36401099845E+01  0.77955293184E+02  0.79375898794E+02  0.00000000000E+00 0. -1.
         -5    1    5    5    0  502 -0.13742356451E+02  0.12835766206E+02  0.25138237510E+03  0.25212853422E+03  0.47000000000E+01 0.  1.
         11    1    6    6    0    0 -0.30278807472E+02 -0.35003031781E+02  0.47461481845E+02  0.66291859792E+02  0.00000000000E+00 0. -1.
        -12    1    6    6    0    0  0.46741227911E+02 -0.50998083426E+02  0.14968287282E+03  0.16489544965E+03  0.00000000000E+00 0.  1.
</event>
<event>
12    1  0.9246030E-003  0.2273444E+03  0.7818608E-02  0.1128529E+00
         21   -1    0    0  503  502  0.00000000000E+00  0.00000000000E+00  0.85871644506E+03  0.85871644506E+03  0.00000000000E+00 0.  1.
         21   -1    0    0  501  503 -0.00000000000E+00 -0.00000000000E+00 -0.60250651563E+02  0.60250651563E+02  0.00000000000E+00 0. -1.
          6    2    1    2  501    0 -0.14248842217E+03  0.42056947687E+02  0.41487294038E+03  0.47306471265E+03  0.17204339101E+03 0.  0.
         24    2    3    3    0    0 -0.12243054931E+03  0.35902507519E+02  0.16864386995E+03  0.22589869451E+03  0.79443287052E+02 0.  0.
         -6    2    1    2    0  502  0.14248842217E+03 -0.42056947687E+02  0.38359285311E+03  0.44590238397E+03  0.17208637881E+03 0.  0.
        -24    2    5    5    0    0  0.10359839393E+03  0.18127168812E+02  0.14135765666E+03  0.19324739673E+03  0.79381029052E+02 0.  0.
          5    1    3    3  501    0 -0.20057872860E+02  0.61544401685E+01  0.24622907043E+03  0.24716601814E+03  0.47000000000E+01 0. -1.
        -11    1    4    4    0    0 -0.55746967903E+02  0.24725089996E+02  0.13954559839E+03  0.15228929226E+03  0.00000000000E+00 0.  1.
         12    1    4    4    0    0 -0.66683581410E+02  0.11177417523E+02  0.29098271559E+02  0.73609402252E+02  0.00000000000E+00 0. -1.
         -5    1    5    5    0  502  0.38890028239E+02 -0.60184116500E+02  0.24223519646E+03  0.25265498724E+03  0.47000000000E+01 0.  1.
         11    1    6    6    0    0  0.34707880742E+02 -0.28598164675E+02  0.29377757109E+02  0.53717265577E+02  0.00000000000E+00 0. -1.
        -12    1    6    6    0    0  0.68890513193E+02  0.46725333487E+02  0.11197989955E+03  0.13953013115E+03  0.00000000000E+00 0.  1.
</event>
<event>
12    1  0.9246030E-003  0.1978296E+03  0.7818608E-02  0.1151854E+00
         21   -1    0    0  503  502  0.00000000000E+00  0.00000000000E+00  0.19814479525E+03  0.19814479525E+03  0.00000000000E+00 0.  1.
         21   -1    0    0  501  503 -0.00000000000E+00 -0.00000000000E+00 -0.19626667833E+03  0.19626667833E+03  0.00000000000E+00 0. -1.
          6    2    1    2  501    0  0.68691946228E+02 -0.68106707273E+02  0.22955090456E+01  0.19658141049E+03  0.17111947445E+03 0.  0.
         24    2    3    3    0    0  0.45219943275E+02  0.17932383700E+02 -0.35025023606E+02  0.99790025259E+02  0.79780218147E+02 0.  0.
         -6    2    1    2    0  502 -0.68691946228E+02  0.68106707273E+02 -0.41739212482E+00  0.19783006308E+03  0.17256724078E+03 0.  0.
        -24    2    5    5    0    0  0.17288653321E+01 -0.20466762019E+02  0.75628378123E+01  0.84295380130E+02  0.81404160045E+02 0.  0.
          5    1    3    3  501    0  0.23472002953E+02 -0.86039090973E+02  0.37320532651E+02  0.96791385233E+02  0.47000000000E+01 0. -1.
        -11    1    4    4    0    0  0.28693510679E+02 -0.95405367571E+01  0.19895593675E+02  0.36196326394E+02  0.00000000000E+00 0.  1.
         12    1    4    4    0    0  0.16526432596E+02  0.27472920457E+02 -0.54920617281E+02  0.63593698865E+02  0.00000000000E+00 0. -1.
         -5    1    5    5    0  502 -0.70420811560E+02  0.88573469291E+02 -0.79802299371E+01  0.11353468295E+03  0.47000000000E+01 0.  1.
         11    1    6    6    0    0 -0.38892226677E+02 -0.18857981529E+02  0.57297853309E+01  0.43601137636E+02  0.00000000000E+00 0. -1.
        -12    1    6    6    0    0  0.40621092009E+02 -0.16087804903E+01  0.18330524815E+01  0.40694242493E+02  0.00000000000E+00 0.  1.
</event>
<event>
12    1  0.9246030E-003  0.1919089E+03  0.7818608E-02  0.1157680E+00
         21   -1    0    0  501  502  0.00000000000E+00  0.00000000000E+00  0.79727699443E+03  0.79727699443E+03  0.00000000000E+00 0. -1.
         21   -1    0    0  502  503 -0.00000000000E+00 -0.00000000000E+00 -0.76284819497E+02  0.76284819497E+02  0.00000000000E+00 0.  1.
          6    2    1    2  501    0 -0.76458483658E+02 -0.40395173800E+01  0.63695710987E+03  0.66406026465E+03  0.17146270102E+03 0.  0.
         24    2    3    3    0    0 -0.98160506756E+02  0.14104554747E+02  0.27290315117E+03  0.29887872075E+03  0.70837392983E+02 0.  0.
         -6    2    1    2    0  503  0.76458483658E+02  0.40395173800E+01  0.84035065063E+02  0.20950154928E+03  0.17597383205E+03 0.  0.
        -24    2    5    5    0    0 -0.23224268886E+02  0.10916052667E+02  0.70559575748E+01  0.83280271829E+02  0.78913181836E+02 0.  0.
          5    1    3    3  501    0  0.21702023098E+02 -0.18144072127E+02  0.36405395870E+03  0.36518154390E+03  0.47000000000E+01 0. -1.
        -13    1    4    4    0    0 -0.78885421902E+00 -0.17183886169E+02  0.64171333251E+02  0.66436949404E+02  0.00000000000E+00 0.  1.
         14    1    4    4    0    0 -0.97371652537E+02  0.31288440916E+02  0.20873181792E+03  0.23244177134E+03  0.00000000000E+00 0. -1.
         -5    1    5    5    0  503  0.99682752543E+02 -0.68765352873E+01  0.76979107488E+02  0.12622127745E+03  0.47000000000E+01 0.  1.
         11    1    6    6    0    0  0.11620924944E+02  0.36303765136E+02  0.11810194377E+02  0.39906013968E+02  0.00000000000E+00 0. -1.
        -12    1    6    6    0    0 -0.34845193830E+02 -0.25387712468E+02 -0.47542368023E+01  0.43374257861E+02  0.00000000000E+00 0.  1.
</event>
<event>
12    1  0.9246030E-003  0.1774790E+03  0.7818608E-02  0.1171761E+00
         21   -1    0    0  503  502  0.00000000000E+00  0.00000000000E+00  0.99159168845E+02  0.99159168845E+02  0.00000000000E+00 0. -1.
         21   -1    0    0  501  503 -0.00000000000E+00 -0.00000000000E+00 -0.40018588821E+03  0.40018588821E+03  0.00000000000E+00 0. -1.
          6    2    1    2  501    0 -0.42165305013E+02  0.14746412977E+02 -0.27289499309E+03  0.32553103826E+03  0.17176556692E+03 0.  0.
         24    2    3    3    0    0 -0.40677174000E+02  0.54413794914E+01 -0.46165252767E+02  0.98556891440E+02  0.76798367117E+02 0.  0.
         -6    2    1    2    0  502  0.42165305013E+02 -0.14746412977E+02 -0.28131726284E+02  0.17381401880E+03  0.16560359134E+03 0.  0.
        -24    2    5    5    0    0  0.43443432734E+02 -0.70934748666E+02 -0.17194964087E+02  0.11636434129E+03  0.79535669472E+02 0.  0.
          5    1    3    3  501    0 -0.14881310124E+01  0.93050334858E+01 -0.22672974032E+03  0.22697414682E+03  0.47000000000E+01 0. -1.
        -13    1    4    4    0    0 -0.12259146628E+02 -0.16455201223E+02  0.16512191082E+02  0.26338427775E+02  0.00000000000E+00 0.  1.
         14    1    4    4    0    0 -0.28418027372E+02  0.21896580714E+02 -0.62677443848E+02  0.72218463665E+02  0.00000000000E+00 0. -1.
         -5    1    5    5    0  502 -0.12781277211E+01  0.56188335689E+02 -0.10936762197E+02  0.57449677504E+02  0.47000000000E+01 0.  1.
         11    1    6    6    0    0  0.58271324815E+02 -0.29389574208E+02  0.76940586192E+01  0.65715241048E+02  0.00000000000E+00 0. -1.
        -12    1    6    6    0    0 -0.14827892082E+02 -0.41545174457E+02 -0.24889022706E+02  0.50649100244E+02  0.00000000000E+00 0.  1.
</event>
<event>
12    1  0.9246030E-003  0.1795013E+03  0.7818608E-02  0.1168387E+00
         21   -1    0    0  503  502  0.00000000000E+00  0.00000000000E+00  0.97179624156E+03  0.97179624156E+03  0.00000000000E+00 0.  1.
         21   -1    0    0  501  503 -0.00000000000E+00 -0.00000000000E+00 -0.33517940978E+02  0.33517940978E+02  0.00000000000E+00 0.  1.
          6    2    1    2  501    0  0.69487042866E+00 -0.45317618975E+02  0.52718261539E+03  0.55690414108E+03  0.17368518342E+03 0.  0.
         24    2    3    3    0    0 -0.15857159522E+01  0.42164312634E+02  0.30530701644E+03  0.31834773088E+03  0.79702946722E+02 0.  0.
         -6    2    1    2    0  502 -0.69487042866E+00  0.45317618975E+02  0.41109568519E+03  0.44841004146E+03  0.17325626531E+03 0.  0.
        -24    2    5    5    0    0  0.39507519684E+01 -0.27801498134E+02  0.11201840658E+03  0.14045339569E+03  0.79940610513E+02 0.  0.
          5    1    3    3  501    0  0.22805863809E+01 -0.87481931610E+02  0.22187559896E+03  0.23855641019E+03  0.47000000000E+01 0. -1.
        -11    1    4    4    0    0  0.27481474638E+02 -0.64475051393E+01  0.56296930600E+02  0.62977346449E+02  0.00000000000E+00 0.  1.
         12    1    4    4    0    0 -0.29067190590E+02  0.48611817774E+02  0.24901008584E+03  0.25537038443E+03  0.00000000000E+00 0. -1.
         -5    1    5    5    0  502 -0.46456223971E+01  0.73119117109E+02  0.29907727861E+03  0.30795664577E+03  0.47000000000E+01 0.  1.
         11    1    6    6    0    0  0.23947408707E+02  0.20657273762E+02  0.33760114966E+02  0.46259557992E+02  0.00000000000E+00 0. -1.
        -12    1    6    6    0    0 -0.19996656739E+02 -0.48458771896E+02  0.78258291610E+02  0.94193837697E+02  0.00000000000E+00 0.  1.
</event>
<event>
12    1  0.9246030E-003  0.1928953E+03  0.7818608E-02  0.1155917E+00
         21   -1    0    0  501  502  0.00000000000E+00  0.00000000000E+00  0.84102475224E+02  0.84102475224E+02  0.00000000000E+00 0. -1.
         21   -1    0    0  502  503 -0.00000000000E+00 -0.00000000000E+00 -0.59388233705E+03  0.59388233705E+03  0.00000000000E+00 0. -1.
          6    2    1    2  501    0 -0.29361520790E+01 -0.86287690428E+02 -0.83359875218E+02  0.20996495867E+03  0.17228531151E+03 0.  0.
         24    2    3    3    0    0  0.68779738289E+02 -0.47626500895E+02 -0.47877143738E+02  0.12097635973E+03  0.73103506990E+02 0.  0.
         -6    2    1    2    0  503  0.29361520790E+01  0.86287690428E+02 -0.42641998661E+03  0.46801985361E+03  0.17249461407E+03 0.  0.
        -24    2    5    5    0    0 -0.29748321427E+02  0.35495444932E+01 -0.30811003720E+03  0.31992120497E+03  0.80747882134E+02 0.  0.
          5    1    3    3  501    0 -0.71715890368E+02 -0.38661189533E+02 -0.35482731480E+02  0.88988598937E+02  0.47000000000E+01 0. -1.
        -13    1    4    4    0    0 -0.83938483532E+01 -0.13683100583E+02  0.98175562038E+01  0.18816703791E+02  0.00000000000E+00 0.  1.
         14    1    4    4    0    0  0.77173586643E+02 -0.33943400312E+02 -0.57694699942E+02  0.10215965594E+03  0.00000000000E+00 0. -1.
         -5    1    5    5    0  503  0.32684473506E+02  0.82738145935E+02 -0.11830994941E+03  0.14809864865E+03  0.47000000000E+01 0.  1.
         11    1    6    6    0    0  0.11228096732E+02  0.32493625124E+02 -0.96351468946E+02  0.10230108210E+03  0.00000000000E+00 0. -1.
        -12    1    6    6    0    0 -0.40976418159E+02 -0.28944080630E+02 -0.21175856826E+03  0.21762012287E+03  0.00000000000E+00 0.  1.
</event>
<event>
12    1  0.9246030E-003  0.1975594E+03  0.7818608E-02  0.1152692E+00
         21   -1    0    0  501  502  0.00000000000E+00  0.00000000000E+00  0.12659650915E+03  0.12659650915E+03  0.00000000000E+00 0. -1.
         21   -1    0    0  502  503 -0.00000000000E+00 -0.00000000000E+00 -0.30219918245E+03  0.30219918245E+03  0.00000000000E+00 0.  1.
          6    2    1    2  501    0 -0.74409348099E+02 -0.46183370849E+02 -0.81631067428E+02  0.21002551641E+03  0.17256138486E+03 0.  0.
         24    2    3    3    0    0 -0.55133596622E+02  0.17037135995E+02 -0.99697606584E+02  0.14134599313E+03  0.81909093118E+02 0.  0.
         -6    2    1    2    0  503  0.74409348099E+02  0.46183370849E+02 -0.93971605869E+02  0.21877017519E+03  0.17708775230E+03 0.  0.
        -24    2    5    5    0    0  0.77234441659E+00  0.82919930460E+02 -0.60303412919E+02  0.12973299004E+03  0.79484814340E+02 0.  0.
          5    1    3    3  501    0 -0.19275751477E+02 -0.63220506844E+02  0.18066539156E+02  0.68679523278E+02  0.47000000000E+01 0. -1.
        -13    1    4    4    0    0 -0.44454252103E+02  0.43096368856E+02 -0.35806457955E+02  0.71523282712E+02  0.00000000000E+00 0.  1.
         14    1    4    4    0    0 -0.10679344518E+02 -0.26059232862E+02 -0.63891148629E+02  0.69822710416E+02  0.00000000000E+00 0. -1.
         -5    1    5    5    0  503  0.73637003682E+02 -0.36736559611E+02 -0.33668192950E+02  0.89037185152E+02  0.47000000000E+01 0.  1.
         13    1    6    6    0    0  0.19021748103E+02  0.23852009393E+02  0.13581659645E+02  0.33394711134E+02  0.00000000000E+00 0. -1.
        -14    1    6    6    0    0 -0.18249403687E+02  0.59067921066E+02 -0.73885072564E+02  0.96338278902E+02  0.00000000000E+00 0.  1.
</event>
<event>
12    1  0.9246030E-003  0.1834049E+03  0.7818608E-02  0.1164923E+00
         21   -1    0    0  503  502  0.00000000000E+00  0.00000000000E+00  0.74404666229E+03  0.74404666229E+03  0.00000000000E+00 0. -1.
         21   -1    0    0  501  503 -0.00000000000E+00 -0.00000000000E+00 -0.45452205447E+02  0.45452205447E+02  0.00000000000E+00 0.  1.
          6    2    1    2  501    0  0.63034832462E+02  0.24132194830E+01  0.30423248440E+03  0.35523902971E+03  0.17221541722E+03 0.  0.
         24    2    3    3    0    0 -0.23108783819E+01 -0.46765591164E+02  0.21373746977E+03  0.23317324819E+03  0.80583478550E+02 0.  0.
         -6    2    1    2    0  502 -0.63034832462E+02 -0.24132194830E+01  0.39436197244E+03  0.43425983803E+03  0.17053160378E+03 0.  0.
        -24    2    5    5    0    0 -0.26421129357E+02  0.57532110110E+02  0.16752068778E+03  0.19674549273E+03  0.81471395636E+02 0.  0.
          5    1    3    3  501    0  0.65345710844E+02  0.49178810647E+02  0.90495014637E+02  0.12206578151E+03  0.47000000000E+01 0. -1.
        -13    1    4    4    0    0  0.35298138542E+02 -0.25359924129E+02  0.64417049298E+02  0.77708690484E+02  0.00000000000E+00 0.  1.
         14    1    4    4    0    0 -0.37609016924E+02 -0.21405667035E+02  0.14932042047E+03  0.15546455771E+03  0.00000000000E+00 0. -1.
         -5    1    5    5    0  502 -0.36613703106E+02 -0.59945329593E+02  0.22684128466E+03  0.23751434529E+03  0.47000000000E+01 0.  1.
         11    1    6    6    0    0  0.21822489766E+02  0.32333212820E+02  0.11368067576E+03  0.12018716135E+03  0.00000000000E+00 0. -1.
        -12    1    6    6    0    0 -0.48243619123E+02  0.25198897290E+02  0.53840012016E+02  0.76558331386E+02  0.00000000000E+00 0.  1.
</event>
<event>
12    1  0.9246030E-003  0.3940538E+03  0.7818608E-02  0.1045966E+00
         21   -1    0    0  501  502  0.00000000000E+00  0.00000000000E+00  0.55034484450E+03  0.55034484450E+03  0.00000000000E+00 0.  1.
         21   -1    0    0  502  503 -0.00000000000E+00 -0.00000000000E+00 -0.37883332593E+03  0.37883332593E+03  0.00000000000E+00 0. -1.
          6    2    1    2  501    0 -0.51754902640E+02  0.35023026585E+03  0.32162020799E+03  0.50864322309E+03  0.17302763116E+03 0.  0.
         24    2    3    3    0    0 -0.79553925398E+02  0.20093115006E+03  0.24871936564E+03  0.34012131218E+03  0.84374344709E+02 0.  0.
         -6    2    1    2    0  503  0.51754902640E+02 -0.35023026585E+03 -0.15010868942E+03  0.42053494733E+03  0.17022694917E+03 0.  0.
        -24    2    5    5    0    0  0.42747436281E+02 -0.26474637668E+03 -0.17612081254E+03  0.33060525087E+03  0.79770320385E+02 0.  0.
          5    1    3    3  501    0  0.27799022758E+02  0.14929911579E+03  0.72900842354E+02  0.16852191091E+03  0.47000000000E+01 0. -1.
        -11    1    4    4    0    0 -0.33390387766E+02  0.17112388405E+03  0.16547155871E+03  0.24037291534E+03  0.00000000000E+00 0.  1.
         12    1    4    4    0    0 -0.46163537632E+02  0.29807266008E+02  0.83247806926E+02  0.99748396837E+02  0.00000000000E+00 0. -1.
         -5    1    5    5    0  503  0.90074663591E+01 -0.85483889166E+02  0.26012123122E+02  0.89929696465E+02  0.47000000000E+01 0.  1.
         13    1    6    6    0    0  0.13596590349E+02 -0.22258269225E+03 -0.11522567213E+03  0.25100772434E+03  0.00000000000E+00 0. -1.
        -14    1    6    6    0    0  0.29150845932E+02 -0.42163684428E+02 -0.60895140415E+02  0.79597526528E+02  0.00000000000E+00 0.  1.
</event>
<event>
12    1  0.9246030E-003  0.1873123E+03  0.7818608E-02  0.1161442E+00
         21   -1    0    0  501  502  0.00000000000E+00  0.00000000000E+00  0.59709199735E+03  0.59709199735E+03  0.00000000000E+00 0.  1.
         21   -1    0    0  502  503 -0.00000000000E+00 -0.00000000000E+00 -0.64750479411E+02  0.64750479411E+02  0.00000000000E+00 0.  1.
          6    2    1    2  501    0 -0.74155284414E+02 -0.17547493679E+02  0.15815001009E+03  0.24338676168E+03  0.16857867400E+03 0.  0.
         24    2    3    3    0    0 -0.10942497902E+03 -0.34040800192E+02  0.14499759372E+03  0.20202184208E+03  0.81583824260E+02 0.  0.
         -6    2    1    2    0  503  0.74155284414E+02  0.17547493679E+02  0.37419150784E+03  0.41845571508E+03  0.17111101717E+03 0.  0.
        -24    2    5    5    0    0  0.11122667888E+03 -0.15484571210E+02  0.26153112804E+03  0.29524915366E+03  0.78500864739E+02 0.  0.
          5    1    3    3  501    0  0.35269694606E+02  0.16493306513E+02  0.13152416371E+02  0.41364919603E+02  0.47000000000E+01 0. -1.
        -11    1    4    4    0    0 -0.99896645565E+02 -0.50709732728E+02  0.89795214264E+02  0.14357575454E+03  0.00000000000E+00 0.  1.
         12    1    4    4    0    0 -0.95283334561E+01  0.16668932536E+02  0.55202379459E+02  0.58446087536E+02  0.00000000000E+00 0. -1.
         -5    1    5    5    0  503 -0.37071394463E+02  0.33032064889E+02  0.11266037981E+03  0.12320656142E+03  0.47000000000E+01 0.  1.
         11    1    6    6    0    0  0.89196053147E+02 -0.39885114467E+02  0.15034873100E+03  0.17930839123E+03  0.00000000000E+00 0. -1.
        -12    1    6    6    0    0  0.22030625730E+02  0.24400543257E+02  0.11118239704E+03  0.11594076243E+03  0.00000000000E+00 0.  1.
</event>
<event>
12    1  0.9246030E-003  0.3451992E+03  0.7818608E-02  0.1064609E+00
         21   -1    0    0  501  502  0.00000000000E+00  0.00000000000E+00  0.55381406673E+03  0.55381406673E+03  0.00000000000E+00 0.  1.
         21   -1    0    0  502  503 -0.00000000000E+00 -0.00000000000E+00 -0.21976514137E+03  0.21976514137E+03  0.00000000000E+00 0. -1.
          6    2    1    2  501    0  0.23880084658E+03 -0.18059085463E+03  0.11083659550E+03  0.36249984820E+03  0.17170465322E+03 0.  0.
         24    2    3    3    0    0  0.13480447887E+03 -0.11383071334E+03 -0.40702701348E+01  0.19368681928E+03  0.79801867403E+02 0.  0.
         -6    2    1    2    0  503 -0.23880084658E+03  0.18059085463E+03  0.22321232987E+03  0.41107935990E+03  0.17182431384E+03 0.  0.
        -24    2    5    5    0    0 -0.20671162399E+03  0.76543444971E+02  0.13757376558E+03  0.27247331618E+03  0.82015685020E+02 0.  0.
          5    1    3    3  501    0  0.10399636771E+03 -0.66760141297E+02  0.11490686563E+03  0.16881302892E+03  0.47000000000E+01 0. -1.
        -11    1    4    4    0    0  0.56902932238E+02 -0.30192516137E+01 -0.11084931513E+02  0.58051143694E+02  0.00000000000E+00 0.  1.
         12    1    4    4    0    0  0.77901546635E+02 -0.11081146172E+03  0.70146613783E+01  0.13563567559E+03  0.00000000000E+00 0. -1.
         -5    1    5    5    0  503 -0.32089222585E+02  0.10404740966E+03  0.85638564289E+02  0.13860604373E+03  0.47000000000E+01 0.  1.
         13    1    6    6    0    0 -0.43338649880E+02 -0.14262809716E+02  0.11616412058E+02  0.47080859630E+02  0.00000000000E+00 0. -1.
        -14    1    6    6    0    0 -0.16337297411E+03  0.90806254687E+02  0.12595735352E+03  0.22539245655E+03  0.00000000000E+00 0.  1.
</event>
<event>
12    1  0.9246030E-003  0.1736793E+03  0.7818608E-02  0.1175675E+00
         21   -1    0    0  501  502  0.00000000000E+00  0.00000000000E+00  0.24830735583E+03  0.24830735583E+03  0.00000000000E+00 0. -1.
         21   -1    0    0  502  503 -0.00000000000E+00 -0.00000000000E+00 -0.11740876925E+03  0.11740876925E+03  0.00000000000E+00 0. -1.
          6    2    1    2  501    0 -0.20472143566E+02  0.12347564034E+02  0.72628977838E+02  0.18252268496E+03  0.16573470096E+03 0.  0.
         24    2    3    3    0    0 -0.70095620939E+02  0.36901102577E+02  0.58215062845E+02  0.12511870681E+03  0.77399029753E+02 0.  0.
         -6    2    1    2    0  503  0.20472143566E+02 -0.12347564034E+02  0.58269608739E+02  0.18319344012E+03  0.17202592304E+03 0.  0.
        -24    2    5    5    0    0  0.20310977628E+02 -0.31682684369E+02 -0.29620475921E+02  0.93078902807E+02  0.79812162312E+02 0.  0.
          5    1    3    3  501    0  0.49623477372E+02 -0.24553538542E+02  0.14413914993E+02  0.57403978145E+02  0.47000000000E+01 0. -1.
        -11    1    4    4    0    0 -0.41974962003E+02 -0.19866405620E+02  0.32827962254E+02  0.56870437076E+02  0.00000000000E+00 0.  1.
         12    1    4    4    0    0 -0.28120658935E+02  0.56767508197E+02  0.25387100591E+02  0.68248269738E+02  0.00000000000E+00 0. -1.
         -5    1    5    5    0  503  0.16116593872E+00  0.19335120335E+02  0.87890084660E+02  0.90114537309E+02  0.47000000000E+01 0.  1.
         11    1    6    6    0    0  0.84221686516E+01 -0.57170809539E+02 -0.96565696232E+01  0.58589109270E+02  0.00000000000E+00 0. -1.
        -12    1    6    6    0    0  0.11888808976E+02  0.25488125170E+02 -0.19963906298E+02  0.34489793537E+02  0.00000000000E+00 0.  1.
</event>
<event>
12    1  0.9246030E-003  0.2038125E+03  0.7818608E-02  0.1148960E+00
         21   -1    0    0  501  502  0.00000000000E+00  0.00000000000E+00  0.13728089581E+03  0.13728089581E+03  0.00000000000E+00 0.  1.
         21   -1    0    0  502  503 -0.00000000000E+00 -0.00000000000E+00 -0.37337054433E+03  0.37337054433E+03  0.00000000000E+00 0.  1.
          6    2    1    2  501    0 -0.87726163542E+02  0.64897803217E+02  0.28213985241E+01  0.20383200541E+03  0.17213925034E+03 0.  0.
         24    2    3    3    0    0 -0.52567226561E+02  0.99980323655E+02 -0.33671158520E+02  0.14201994502E+03  0.79224613864E+02 0.  0.
         -6    2    1    2    0  503  0.87726163542E+02 -0.64897803217E+02 -0.23891104705E+03  0.30681943473E+03  0.15859404936E+03 0.  0.
        -24    2    5    5    0    0  0.38811594273E+02 -0.96335287066E+02 -0.19133070541E+03  0.23154042446E+03  0.78846064828E+02 0.  0.
          5    1    3    3  501    0 -0.35158936981E+02 -0.35082520438E+02  0.36492557044E+02  0.61812060388E+02  0.47000000000E+01 0. -1.
        -13    1    4    4    0    0 -0.42162069216E+02  0.46804740020E+02  0.19661622593E+02  0.65991690174E+02  0.00000000000E+00 0.  1.
         14    1    4    4    0    0 -0.10405157344E+02  0.53175583634E+02 -0.53332781113E+02  0.76028254849E+02  0.00000000000E+00 0. -1.
         -5    1    5    5    0  503  0.48914569268E+02  0.31437483849E+02 -0.47580341637E+02  0.75279010274E+02  0.47000000000E+01 0.  1.
         11    1    6    6    0    0 -0.19695584387E+02 -0.29751640601E+02 -0.90555190350E+02  0.97330974834E+02  0.00000000000E+00 0. -1.
        -12    1    6    6    0    0  0.58507178660E+02 -0.66583646466E+02 -0.10077551506E+03  0.13420944962E+03  0.00000000000E+00 0.  1.
</event>
<event>
12    1  0.9246030E-003  0.1864757E+03  0.7818608E-02  0.1161929E+00
         21   -1    0    0  503  502  0.00000000000E+00  0.00000000000E+00  0.77122364869E+02  0.77122364869E+02  0.00000000000E+00 0.  1.
         21   -1    0    0  501  503 -0.00000000000E+00 -0.00000000000E+00 -0.46168576012E+03  0.46168576012E+03  0.00000000000E+00 0.  1.
          6    2    1    2  501    0 -0.47912605218E+02  0.54691088813E+02 -0.23765617031E+03  0.30141621599E+03  0.17054192167E+03 0.  0.
         24    2    3    3    0    0  0.76198944242E+01  0.21823543775E+02 -0.21907034378E+03  0.23409863299E+03  0.79221364499E+02 0.  0.
         -6    2    1    2    0  502  0.47912605218E+02 -0.54691088813E+02 -0.14690722494E+03  0.23739190899E+03  0.17171619836E+03 0.  0.
        -24    2    5    5    0    0  0.19601302444E+02 -0.28347642953E+02 -0.17077280885E+03  0.19170642880E+03  0.80001266753E+02 0.  0.
          5    1    3    3  501    0 -0.55532499642E+02  0.32867545037E+02 -0.18585826530E+02  0.67317583001E+02  0.47000000000E+01 0. -1.
        -11    1    4    4    0    0 -0.12966810440E+02  0.36466746067E+02 -0.19632844032E+03  0.20010701692E+03  0.00000000000E+00 0.  1.
         12    1    4    4    0    0  0.20586704864E+02 -0.14643202292E+02 -0.22741903455E+02  0.33991616073E+02  0.00000000000E+00 0. -1.
         -5    1    5    5    0  502  0.28311302774E+02 -0.26343445860E+02  0.23865583914E+02  0.45685480189E+02  0.47000000000E+01 0.  1.
         13    1    6    6    0    0  0.27358912208E+02 -0.53728659153E+02 -0.11134149283E+03  0.12661835142E+03  0.00000000000E+00 0. -1.
        -14    1    6    6    0    0 -0.77576097641E+01  0.25381016200E+02 -0.59431316029E+02  0.65088077384E+02  0.00000000000E+00 0.  1.
</event>
<event>
12    1  0.9246030E-003  0.2550275E+03  0.7818608E-02  0.1110216E+00
         21   -1    0    0  501  502  0.00000000000E+00  0.00000000000E+00  0.48445868151E+03  0.48445868151E+03  0.00000000000E+00 0.  1.
         21   -1    0    0  502  503 -0.00000000000E+00 -0.00000000000E+00 -0.23356024489E+03  0.23356024489E+03  0.00000000000E+00 0. -1.
          6    2    1    2  501    0 -0.17774317295E+03  0.62902120920E+02  0.35978540400E+03  0.44100402332E+03  0.17172565126E+03 0.  0.
         24    2    3    3    0    0 -0.15317944965E+03  0.13273913780E+02  0.34027328170E+03  0.38210454655E+03  0.81103869670E+02 0.  0.
         -6    2    1    2    0  503  0.17774317295E+03 -0.62902120920E+02 -0.10888696738E+03  0.27701490308E+03  0.17126462716E+03 0.  0.
        -24    2    5    5    0    0  0.17246445913E+03 -0.99148137194E+02 -0.76306951050E+02  0.22776872577E+03  0.80507756716E+02 0.  0.
          5    1    3    3  501    0 -0.24563723302E+02  0.49628207140E+02  0.19512122303E+02  0.58899476765E+02  0.47000000000E+01 0. -1.
        -11    1    4    4    0    0 -0.93239093837E+02  0.28629557849E+02  0.27671385642E+03  0.29340030425E+03  0.00000000000E+00 0.  1.
         12    1    4    4    0    0 -0.59940355813E+02 -0.15355644069E+02  0.63559425281E+02  0.88704242299E+02  0.00000000000E+00 0. -1.
         -5    1    5    5    0  503  0.52787138257E+01  0.36246016274E+02 -0.32580016329E+02  0.49246177308E+02  0.47000000000E+01 0.  1.
         13    1    6    6    0    0  0.69144940170E+02 -0.85246579499E+02 -0.47583449140E+02  0.11963355173E+03  0.00000000000E+00 0. -1.
        -14    1    6    6    0    0  0.10331951896E+03 -0.13901557696E+02 -0.28723501910E+02  0.10813517405E+03  0.00000000000E+00 0.  1.
</event>
<event>
12    1  0.9246030E-003  0.1979437E+03  0.7818608E-02  0.1151606E+00
         21   -1    0    0  503  502  0.00000000000E+00  0.00000000000E+00  0.24830022807E+03  0.24830022807E+03  0.00000000000E+00 0. -1.
         21   -1    0    0  501  503 -0.00000000000E+00 -0.00000000000E+00 -0.17434743566E+03  0.17434743566E+03  0.00000000000E+00 0.  1.
          6    2    1    2  501    0 -0.82563729474E+02 -0.47404001428E+02 -0.28957591265E+02  0.20005058216E+03  0.17354476240E+03 0.  0.
         24    2    3    3    0    0 -0.45970927188E+01  0.61143426379E+01 -0.57238293764E+02  0.10123308506E+03  0.83146838733E+02 0.  0.
         -6    2    1    2    0  502  0.82563729474E+02  0.47404001428E+02  0.10291038367E+03  0.22259708157E+03  0.17290172029E+03 0.  0.
        -24    2    5    5    0    0  0.59764622251E+02  0.41661330118E+02  0.14094647868E+03  0.17763474080E+03  0.79879376473E+02 0.  0.
          5    1    3    3  501    0 -0.77966636755E+02 -0.53518344066E+02  0.28280702499E+02  0.98817497096E+02  0.47000000000E+01 0. -1.
        -13    1    4    4    0    0 -0.33543766868E+02 -0.25102117699E+01  0.30767047000E+01  0.33777974637E+02  0.00000000000E+00 0.  1.
         14    1    4    4    0    0  0.28946674149E+02  0.86245544078E+01 -0.60314998464E+02  0.67455110427E+02  0.00000000000E+00 0. -1.
         -5    1    5    5    0  502  0.22799107223E+02  0.57426713106E+01 -0.38036095011E+02  0.44962340771E+02  0.47000000000E+01 0.  1.
         11    1    6    6    0    0 -0.16739839462E+02  0.12139472777E+02  0.55398331874E+02  0.59131752882E+02  0.00000000000E+00 0. -1.
        -12    1    6    6    0    0  0.76504461713E+02  0.29521857341E+02  0.85548146807E+02  0.11850298792E+03  0.00000000000E+00 0.  1.
</event>
<event>
12    1  0.9246030E-003  0.1869299E+03  0.7818608E-02  0.1161502E+00
         21   -1    0    0  503  502  0.00000000000E+00  0.00000000000E+00  0.14941965903E+04  0.14941965903E+04  0.00000000000E+00 0.  1.
         21   -1    0    0  501  503 -0.00000000000E+00 -0.00000000000E+00 -0.29228993744E+02  0.29228993744E+02  0.00000000000E+00 0.  1.
          6    2    1    2  501    0  0.62884766137E+02  0.30522648195E+02  0.38646982519E+03  0.42884794236E+03  0.17223677312E+03 0.  0.
         24    2    3    3    0    0  0.37454088975E+02  0.86896559739E+02  0.25764033245E+03  0.28586589648E+03  0.79918389544E+02 0.  0.
         -6    2    1    2    0  502 -0.62884766137E+02 -0.30522648195E+02  0.10784977713E+04  0.10945776417E+04  0.17336852363E+03 0.  0.
        -24    2    5    5    0    0  0.29437407938E+02 -0.38067373854E+02  0.58705825940E+03  0.59446246432E+03  0.80203089859E+02 0.  0.
          5    1    3    3  501    0  0.25430677162E+02 -0.56373911544E+02  0.12882949274E+03  0.14298204588E+03  0.47000000000E+01 0. -1.
        -13    1    4    4    0    0 -0.82066950691E+00  0.67061152830E+01  0.13093378627E+03  0.13110797789E+03  0.00000000000E+00 0.  1.
         14    1    4    4    0    0  0.38274758482E+02  0.80190444456E+02  0.12670654619E+03  0.15475791859E+03  0.00000000000E+00 0. -1.
         -5    1    5    5    0  502 -0.92322174075E+02  0.75447256593E+01  0.49143951195E+03  0.50011517735E+03  0.47000000000E+01 0.  1.
         11    1    6    6    0    0 -0.12521950235E+02 -0.14912809630E+02  0.42551659226E+03  0.42596192485E+03  0.00000000000E+00 0. -1.
        -12    1    6    6    0    0  0.41959358172E+02 -0.23154564224E+02  0.16154166713E+03  0.16850053947E+03  0.00000000000E+00 0.  1.
</event>
<event>
12    1  0.9246030E-003  0.2099141E+03  0.7818608E-02  0.1142371E+00
         21   -1    0    0  503  502  0.00000000000E+00  0.00000000000E+00  0.17177733389E+03  0.17177733389E+03  0.00000000000E+00 0. -1.
         21   -1    0    0  501  503 -0.00000000000E+00 -0.00000000000E+00 -0.28086136767E+03  0.28086136767E+03  0.00000000000E+00 0.  1.
          6    2    1    2  501    0 -0.10889363797E+03  0.47802493043E+02 -0.12748224237E+03  0.24559241293E+03  0.17297690145E+03 0.  0.
         24    2    3    3    0    0 -0.97159405329E+02 -0.23115324653E+02 -0.11135116210E+03  0.17177282993E+03  0.84454458293E+02 0.  0.
         -6    2    1    2    0  502  0.10889363797E+03 -0.47802493043E+02  0.18398208594E+02  0.20704628863E+03  0.16848373460E+03 0.  0.
        -24    2    5    5    0    0  0.10959152750E+03  0.18606936578E+02 -0.31493834809E+01  0.13706709089E+03  0.80130816793E+02 0.  0.
          5    1    3    3  501    0 -0.11734232637E+02  0.70917817696E+02 -0.16131080278E+02  0.73819582993E+02  0.47000000000E+01 0. -1.
        -11    1    4    4    0    0 -0.65921477785E+02 -0.31031576002E+02 -0.20968938279E+02  0.75817519842E+02  0.00000000000E+00 0.  1.
         12    1    4    4    0    0 -0.31237927545E+02  0.79162513490E+01 -0.90382223816E+02  0.95955310091E+02  0.00000000000E+00 0. -1.
         -5    1    5    5    0  502 -0.69788953509E+00 -0.66409429620E+02  0.21547592075E+02  0.69979197741E+02  0.47000000000E+01 0.  1.
         13    1    6    6    0    0  0.35439567643E+02 -0.31575096463E+02  0.25863208500E+00  0.47465951606E+02  0.00000000000E+00 0. -1.
        -14    1    6    6    0    0  0.74151959858E+02  0.50182033040E+02 -0.34080155659E+01  0.89601139284E+02  0.00000000000E+00 0.  1.
</event>
<event>
12    1  0.9246030E-003  0.1753525E+03  0.7818608E-02  0.1172821E+00
         21   -1    0    0  501  502  0.00000000000E+00  0.00000000000E+00  0.39415075401E+03  0.39415075401E+03  0.00000000000E+00 0.  1.
         21   -1    0    0  502  503 -0.00000000000E+00 -0.00000000000E+00 -0.13703511662E+03  0.13703511662E+03  0.00000000000E+00 0.  1.
          6    2    1    2  501    0 -0.21474844851E+02 -0.27313688373E+02  0.30437539694E+03  0.35127322694E+03  0.17187580157E+03 0.  0.
         24    2    3    3    0    0  0.38754201405E+02 -0.92380536364E+00  0.25357954688E+03  0.26804899776E+03  0.77749193320E+02 0.  0.
         -6    2    1    2    0  503  0.21474844851E+02  0.27313688373E+02 -0.47259759555E+02  0.17991264370E+03  0.17008194483E+03 0.  0.
        -24    2    5    5    0    0  0.86707109489E+01 -0.49073959535E+02 -0.21030150769E+02  0.98003541794E+02  0.81725101590E+02 0.  0.
          5    1    3    3  501    0 -0.60229046256E+02 -0.26389883010E+02  0.50795850063E+02  0.83224229175E+02  0.47000000000E+01 0. -1.
        -11    1    4    4    0    0  0.15063496044E+02  0.11937363090E+02  0.23386275948E+03  0.23465123017E+03  0.00000000000E+00 0.  1.
         12    1    4    4    0    0  0.23690705362E+02 -0.12861168453E+02  0.19716787403E+02  0.33397767590E+02  0.00000000000E+00 0. -1.
         -5    1    5    5    0  503  0.12804133902E+02  0.76387647908E+02 -0.26229608787E+02  0.81909101906E+02  0.47000000000E+01 0.  1.
         11    1    6    6    0    0  0.36082601171E+02 -0.19570386746E+01  0.68462595869E+01  0.36778463507E+02  0.00000000000E+00 0. -1.
        -12    1    6    6    0    0 -0.27411890222E+02 -0.47116920861E+02 -0.27876410355E+02  0.61225078287E+02  0.00000000000E+00 0.  1.
</event>
<event>
12    1  0.9246030E-003  0.2400424E+03  0.7818608E-02  0.1119990E+00
         21   -1    0    0  501  502  0.00000000000E+00  0.00000000000E+00  0.96618610272E+03  0.96618610272E+03  0.00000000000E+00 0.  1.
         21   -1    0    0  502  503 -0.00000000000E+00 -0.00000000000E+00 -0.59829633271E+02  0.59829633271E+02  0.00000000000E+00 0. -1.
          6    2    1    2  501    0 -0.98329870635E+02 -0.13459164255E+03  0.50010446741E+03  0.55414598402E+03  0.17084969880E+03 0.  0.
         24    2    3    3    0    0 -0.11168187285E+02 -0.28239609143E+01  0.15935671829E+03  0.17852516524E+03  0.79649028860E+02 0.  0.
         -6    2    1    2    0  503  0.98329870635E+02  0.13459164255E+03  0.40625200204E+03  0.47186975197E+03  0.17273303089E+03 0.  0.
        -24    2    5    5    0    0  0.91767520409E+02  0.10718851252E+03  0.17572025793E+03  0.23957474338E+03  0.81288336173E+02 0.  0.
          5    1    3    3  501    0 -0.87161683350E+02 -0.13176768164E+03  0.34074774912E+03  0.37562081878E+03  0.47000000000E+01 0. -1.
        -13    1    4    4    0    0 -0.33534548185E+02 -0.26415448198E+02  0.12064089606E+03  0.12797096400E+03  0.00000000000E+00 0.  1.
         14    1    4    4    0    0  0.22366360900E+02  0.23591487284E+02  0.38715822230E+02  0.50554201241E+02  0.00000000000E+00 0. -1.
         -5    1    5    5    0  503  0.65623502261E+01  0.27403130032E+02  0.23053174411E+03  0.23229500860E+03  0.47000000000E+01 0.  1.
         13    1    6    6    0    0  0.55862585948E+02  0.10768094417E+03  0.15892591193E+03  0.19993313815E+03  0.00000000000E+00 0. -1.
        -14    1    6    6    0    0  0.35904934461E+02 -0.49243164869E+00  0.16794345999E+02  0.39641605229E+02  0.00000000000E+00 0.  1.
</event>
<event>
12    1  0.9246030E-003  0.1843591E+03  0.7818608E-02  0.1163707E+00
         21   -1    0    0  503  502  0.00000000000E+00  0.00000000000E+00  0.16706731202E+03  0.16706731202E+03  0.00000000000E+00 0.  1.
         21   -1    0    0  501  503 -0.00000000000E+00 -0.00000000000E+00 -0.25597222931E+03  0.25597222931E+03  0.00000000000E+00 0. -1.
          6    2    1    2  501    0 -0.51719964438E+02  0.27174746453E+02 -0.14049700021E+03  0.23159758890E+03  0.17459843800E+03 0.  0.
         24    2    3    3    0    0 -0.29229302087E+02  0.83056995193E+02 -0.73507061921E+02  0.14138452195E+03  0.82664855550E+02 0.  0.
         -6    2    1    2    0  502  0.51719964438E+02 -0.27174746453E+02  0.51592082919E+02  0.19144195243E+03  0.17485667435E+03 0.  0.
        -24    2    5    5    0    0  0.84418681869E+02 -0.65715847926E+02  0.40124378186E+02  0.13940138291E+03  0.79860461518E+02 0.  0.
          5    1    3    3  501    0 -0.22490662352E+02 -0.55882248740E+02 -0.66989938293E+02  0.90213066957E+02  0.47000000000E+01 0. -1.
        -13    1    4    4    0    0  0.22911684255E+02  0.11219436905E+02  0.94593214127E+00  0.25528725536E+02  0.00000000000E+00 0.  1.
         14    1    4    4    0    0 -0.52140986341E+02  0.71837558288E+02 -0.74452994062E+02  0.11585579641E+03  0.00000000000E+00 0. -1.
         -5    1    5    5    0  502 -0.32698717431E+02  0.38541101473E+02  0.11467704733E+02  0.52040569522E+02  0.47000000000E+01 0.  1.
         11    1    6    6    0    0 -0.13946736627E+02 -0.20263543496E+02  0.26326332765E+01  0.24739713327E+02  0.00000000000E+00 0. -1.
        -12    1    6    6    0    0  0.98365418496E+02 -0.45452304430E+02  0.37491744909E+02  0.11466166958E+03  0.00000000000E+00 0.  1.
</event>
<event>
12    1  0.9246030E-003  0.1833708E+03  0.7818608E-02  0.1164755E+00
         21   -1    0    0  501  502  0.00000000000E+00  0.00000000000E+00  0.91944072928E+02  0.91944072928E+02  0.00000000000E+00 0.  1.
         21   -1    0    0  502  503 -0.00000000000E+00 -0.00000000000E+00 -0.38234115191E+03  0.38234115191E+03  0.00000000000E+00 0. -1.
          6    2    1    2  501    0  0.61360963755E+02  0.18497122104E+02 -0.93875073989E+02  0.20600336299E+03  0.17180670723E+03 0.  0.
         24    2    3    3    0    0  0.10517361396E+03 -0.33269001646E+01 -0.58310633534E+02  0.14531765058E+03  0.81514000311E+02 0.  0.
         -6    2    1    2    0  503 -0.61360963755E+02 -0.18497122104E+02 -0.19652200499E+03  0.26828186185E+03  0.17101738962E+03 0.  0.
        -24    2    5    5    0    0 -0.18809400488E+02 -0.58879278369E+02 -0.18167007267E+03  0.20758570072E+03  0.79165932536E+02 0.  0.
          5    1    3    3  501    0 -0.43812650209E+02  0.21824022268E+02 -0.35564440455E+02  0.60685712414E+02  0.47000000000E+01 0. -1.
        -13    1    4    4    0    0  0.39284216383E+02  0.38063049970E+02 -0.17357262178E+02  0.57387454902E+02  0.00000000000E+00 0.  1.
         14    1    4    4    0    0  0.65889397581E+02 -0.41389950134E+02 -0.40953371356E+02  0.87930195673E+02  0.00000000000E+00 0. -1.
         -5    1    5    5    0  503 -0.42551563268E+02  0.40382156266E+02 -0.14851932324E+02  0.60696161122E+02  0.47000000000E+01 0.  1.
         13    1    6    6    0    0 -0.32050786037E+02 -0.20217239976E+02 -0.24347903240E+02  0.45042314217E+02  0.00000000000E+00 0. -1.
        -14    1    6    6    0    0  0.13241385549E+02 -0.38662038393E+02 -0.15732216943E+03  0.16254338651E+03  0.00000000000E+00 0.  1.
</event>
<event>
12    1  0.9246030E-003  0.2321729E+03  0.7818608E-02  0.1125167E+00
         21   -1    0    0  503  502  0.00000000000E+00  0.00000000000E+00  0.10108561069E+04  0.10108561069E+04  0.00000000000E+00 0.  1.
         21   -1    0    0  501  503 -0.00000000000E+00 -0.00000000000E+00 -0.53293747900E+02  0.53293747900E+02  0.00000000000E+00 0. -1.
          6    2    1    2  501    0 -0.15386308912E+03 -0.21656102272E+02  0.46622308645E+03  0.52083414812E+03  0.17251494588E+03 0.  0.
         24    2    3    3    0    0 -0.10696661824E+03  0.49312807939E+02  0.34016514821E+03  0.36868764310E+03  0.79653246462E+02 0.  0.
         -6    2    1    2    0  502  0.15386308912E+03  0.21656102272E+02  0.49133927260E+03  0.54331570672E+03  0.17214772557E+03 0.  0.
        -24    2    5    5    0    0  0.37798282271E+02  0.31942510292E+02  0.33605915188E+03  0.34912287610E+03  0.80634948641E+02 0.  0.
          5    1    3    3  501    0 -0.46896470878E+02 -0.70968910211E+02  0.12605793824E+03  0.15214650502E+03  0.47000000000E+01 0. -1.
        -11    1    4    4    0    0 -0.34617418842E+02  0.54209477331E+02  0.11061221487E+03  0.12795348842E+03  0.00000000000E+00 0.  1.
         12    1    4    4    0    0 -0.72349199399E+02 -0.48966693922E+01  0.22955293334E+03  0.24073415468E+03  0.00000000000E+00 0. -1.
         -5    1    5    5    0  502  0.11606480685E+03 -0.10286408019E+02  0.15528012071E+03  0.19419283063E+03  0.47000000000E+01 0.  1.
         13    1    6    6    0    0  0.19777978604E+02 -0.21165509111E+02  0.51482718340E+02  0.59072984530E+02  0.00000000000E+00 0. -1.
        -14    1    6    6    0    0  0.18020303667E+02  0.53108019403E+02  0.28457643354E+03  0.29004989157E+03  0.00000000000E+00 0.  1.
</event>
<event>
12    1  0.9246030E-003  0.1888054E+03  0.7818608E-02  0.1162046E+00
         21   -1    0    0  501  502  0.00000000000E+00  0.00000000000E+00  0.55545316040E+03  0.55545316040E+03  0.00000000000E+00 0. -1.
         21   -1    0    0  502  503 -0.00000000000E+00 -0.00000000000E+00 -0.70566592660E+02  0.70566592660E+02  0.00000000000E+00 0. -1.
          6    2    1    2  501    0  0.74639241535E+02 -0.18946024222E+02  0.35397143636E+03  0.39626713156E+03  0.16062967842E+03 0.  0.
         24    2    3    3    0    0  0.11142347180E+03 -0.54678254577E+01  0.24728261812E+03  0.28251593212E+03  0.78876305014E+02 0.  0.
         -6    2    1    2    0  503 -0.74639241535E+02  0.18946024222E+02  0.13091513138E+03  0.22975262150E+03  0.17238772361E+03 0.  0.
        -24    2    5    5    0    0 -0.86744247472E+02  0.35062255180E+02  0.29412180647E+02  0.12616110120E+03  0.79357550861E+02 0.  0.
          5    1    3    3  501    0 -0.36784230265E+02 -0.13478198764E+02  0.10668881823E+03  0.11375119944E+03  0.47000000000E+01 0. -1.
        -13    1    4    4    0    0  0.38886326713E+02  0.18405781351E+02  0.16388278895E+03  0.16943579229E+03  0.00000000000E+00 0.  1.
         14    1    4    4    0    0  0.72537145087E+02 -0.23873606809E+02  0.83399829171E+02  0.11308013984E+03  0.00000000000E+00 0. -1.
         -5    1    5    5    0  503  0.12105005938E+02 -0.16116230958E+02  0.10150295073E+03  0.10359152029E+03  0.47000000000E+01 0.  1.
         13    1    6    6    0    0 -0.50032883512E+02  0.37552402496E+02 -0.18975360545E+02  0.65372292859E+02  0.00000000000E+00 0. -1.
        -14    1    6    6    0    0 -0.36711363960E+02 -0.24901473158E+01  0.48387541192E+02  0.60788808345E+02  0.00000000000E+00 0.  1.
</event>
<event>
12    1  0.9246030E-003  0.1751735E+03  0.7818608E-02  0.1172648E+00
         21   -1    0    0  501  502  0.00000000000E+00  0.00000000000E+00  0.27090002151E+03  0.27090002151E+03  0.00000000000E+00 0. -1.
         21   -1    0    0  502  503 -0.00000000000E+00 -0.00000000000E+00 -0.13332602387E+03  0.13332602387E+03  0.00000000000E+00 0. -1.
          6    2    1    2  501    0  0.46092582101E+01  0.33421369998E+02  0.14756459646E+03  0.22876784876E+03  0.17152604835E+03 0.  0.
         24    2    3    3    0    0  0.19055967615E+02  0.78125051403E+02  0.55662201483E+02  0.12544666629E+03  0.78561643640E+02 0.  0.
         -6    2    1    2    0  503 -0.46092582101E+01 -0.33421369998E+02 -0.99905988250E+01  0.17545819662E+03  0.17189395994E+03 0.  0.
        -24    2    5    5    0    0 -0.33472159899E+02  0.17184949282E+00 -0.62266956660E+02  0.10678156975E+03  0.80029461617E+02 0.  0.
          5    1    3    3  501    0 -0.14446709405E+02 -0.44703681406E+02  0.91902394979E+02  0.10332118247E+03  0.47000000000E+01 0. -1.
        -13    1    4    4    0    0 -0.21655858082E+02  0.65125063123E+02  0.25846244476E+02  0.73336746516E+02  0.00000000000E+00 0.  1.
         14    1    4    4    0    0  0.40711825697E+02  0.12999988281E+02  0.29815957007E+02  0.52109919777E+02  0.00000000000E+00 0. -1.
         -5    1    5    5    0  503  0.28862901689E+02 -0.33593219490E+02  0.52276357835E+02  0.68676626869E+02  0.47000000000E+01 0.  1.
         13    1    6    6    0    0 -0.36950309471E+02 -0.33743701011E+02 -0.23896635589E+02  0.55452790015E+02  0.00000000000E+00 0. -1.
        -14    1    6    6    0    0  0.34781495721E+01  0.33915550503E+02 -0.38370321071E+02  0.51328779739E+02  0.00000000000E+00 0.  1.
</event>
<event>
12    1  0.9246030E-003  0.1734371E+03  0.7818608E-02  0.1174354E+00
         21   -1    0    0  501  502  0.00000000000E+00  0.00000000000E+00  0.64953655595E+02  0.64953655595E+02  0.00000000000E+00 0.  1.
         21   -1    0    0  502  503 -0.00000000000E+00 -0.00000000000E+00 -0.46842917387E+03  0.46842917387E+03  0.00000000000E+00 0.  1.
          6    2    1    2  501    0 -0.96450915369E+01 -0.19804097031E+02 -0.17220817374E+03  0.24440965779E+03  0.17203254247E+03 0.  0.
         24    2    3    3    0    0  0.41705619306E+02 -0.19314011646E+02 -0.37251363627E+02  0.99936247494E+02  0.80543154542E+02 0.  0.
         -6    2    1    2    0  503  0.96450915369E+01  0.19804097031E+02 -0.23126734454E+03  0.28897317167E+03  0.17185947529E+03 0.  0.
        -24    2    5    5    0    0  0.43670764977E+02  0.65989079329E+02 -0.17104782388E+03  0.20567083250E+03  0.82349492923E+02 0.  0.
          5    1    3    3  501    0 -0.51350710843E+02 -0.49008538500E+00 -0.13495681011E+03  0.14447341030E+03  0.47000000000E+01 0. -1.
        -13    1    4    4    0    0  0.38515721203E+02 -0.24559542022E+02 -0.60546723524E+02  0.75845485123E+02  0.00000000000E+00 0.  1.
         14    1    4    4    0    0  0.31898981032E+01  0.52455303758E+01  0.23295359897E+02  0.24090762370E+02  0.00000000000E+00 0. -1.
         -5    1    5    5    0  503 -0.34025673440E+02 -0.46184982297E+02 -0.60219520660E+02  0.83302339171E+02  0.47000000000E+01 0.  1.
         13    1    6    6    0    0  0.30886107588E+02  0.81148357704E+02 -0.16215378096E+03  0.18393709870E+03  0.00000000000E+00 0. -1.
        -14    1    6    6    0    0  0.12784657390E+02 -0.15159278375E+02 -0.88940429175E+01  0.21733733799E+02  0.00000000000E+00 0.  1.
</event>
<event>
12    1  0.9246030E-003  0.2000191E+03  0.7818608E-02  0.1149932E+00
         21   -1    0    0  503  502  0.00000000000E+00  0.00000000000E+00  0.21405515045E+04  0.21405515045E+04  0.00000000000E+00 0.  1.
         21   -1    0    0  501  503 -0.00000000000E+00 -0.00000000000E+00 -0.20903887874E+02  0.20903887874E+02  0.00000000000E+00 0.  1.
          6    2    1    2  501    0 -0.69766482169E+02 -0.74200432969E+02  0.70321948904E+03  0.73111237494E+03  0.17214699746E+03 0.  0.
         24    2    3    3    0    0  0.60086795646E+01 -0.90330460897E+02  0.46656912352E+03  0.48205909060E+03  0.80613419575E+02 0.  0.
         -6    2    1    2    0  502  0.69766482169E+02  0.74200432969E+02  0.14164281276E+04  0.14303430175E+04  0.17099544037E+03 0.  0.
        -24    2    5    5    0    0  0.82456604487E+02  0.97238380465E+02  0.13548310794E+04  0.13632008357E+04  0.80590758589E+02 0.  0.
          5    1    3    3  501    0 -0.75775161734E+02  0.16130027928E+02  0.23665036552E+03  0.24905328434E+03  0.47000000000E+01 0. -1.
        -11    1    4    4    0    0 -0.29562367026E+02 -0.72337779866E+01  0.13517834206E+03  0.13856206281E+03  0.00000000000E+00 0.  1.
         12    1    4    4    0    0  0.35571046591E+02 -0.83096682910E+02  0.33139078146E+03  0.34349702779E+03  0.00000000000E+00 0. -1.
         -5    1    5    5    0  502 -0.12690122318E+02 -0.23037947497E+02  0.61597048232E+02  0.67142181824E+02  0.47000000000E+01 0.  1.
         13    1    6    6    0    0 -0.45950797525E+00  0.34601348577E+02  0.63104578108E+03  0.63199386254E+03  0.00000000000E+00 0. -1.
        -14    1    6    6    0    0  0.82916112462E+02  0.62637031888E+02  0.72378529832E+03  0.73120697311E+03  0.00000000000E+00 0.  1.
</event>
<event>
12    1  0.9246030E-003  0.2087434E+03  0.7818608E-02  0.1142695E+00
         21   -1    0    0  503  502  0.00000000000E+00  0.00000000000E+00  0.25886422208E+03  0.25886422208E+03  0.00000000000E+00 0.  1.
         21   -1    0    0  501  503 -0.00000000000E+00 -0.00000000000E+00 -0.20624497353E+03  0.20624497353E+03  0.00000000000E+00 0. -1.
          6    2    1    2  501    0  0.98735083412E+02  0.62700865769E+02 -0.74123032567E+02  0.22090144386E+03  0.17211394098E+03 0.  0.
         24    2    3    3    0    0 -0.17181936306E+02  0.30137156807E+02 -0.39853220519E+02  0.95627102439E+02  0.79704431367E+02 0.  0.
         -6    2    1    2    0  502 -0.98735083412E+02 -0.62700865769E+02  0.12674228111E+03  0.24420775175E+03  0.17289825021E+03 0.  0.
        -24    2    5    5    0    0 -0.59491097105E+02 -0.10924068005E+03  0.90037125351E+02  0.17296588741E+03  0.79610284850E+02 0.  0.
          5    1    3    3  501    0  0.11591701972E+03  0.32563708962E+02 -0.34269812048E+02  0.12527434143E+03  0.47000000000E+01 0. -1.
        -11    1    4    4    0    0 -0.80048316275E+01 -0.27384062841E+02 -0.15746735813E+02  0.32587174100E+02  0.00000000000E+00 0.  1.
         12    1    4    4    0    0 -0.91771046786E+01  0.57521219648E+02 -0.24106484705E+02  0.63039928339E+02  0.00000000000E+00 0. -1.
         -5    1    5    5    0  502 -0.39243986307E+02  0.46539814281E+02  0.36705155760E+02  0.71241864335E+02  0.47000000000E+01 0.  1.
         13    1    6    6    0    0 -0.78444609980E+00 -0.53399516056E+02  0.21768338834E+01  0.53449623726E+02  0.00000000000E+00 0. -1.
        -14    1    6    6    0    0 -0.58706651005E+02 -0.55841163994E+02  0.87860291467E+02  0.11951626368E+03  0.00000000000E+00 0.  1.
</event>
<event>
12    1  0.9246030E-003  0.1970290E+03  0.7818608E-02  0.1152401E+00
         21   -1    0    0  501  502  0.00000000000E+00  0.00000000000E+00  0.93716035524E+03  0.93716035524E+03  0.00000000000E+00 0. -1.
         21   -1    0    0  502  503 -0.00000000000E+00 -0.00000000000E+00 -0.47111452587E+02  0.47111452587E+02  0.00000000000E+00 0. -1.
          6    2    1    2  501    0  0.17267889130E+01 -0.95101097787E+02  0.61853105289E+03  0.64915412250E+03  0.17254915464E+03 0.  0.
         24    2    3    3    0    0 -0.25532024021E+02 -0.57852246438E+02  0.16908240913E+03  0.19731710190E+03  0.79664364398E+02 0.  0.
         -6    2    1    2    0  503 -0.17267889130E+01  0.95101097787E+02  0.27151784977E+03  0.33511768533E+03  0.17185668355E+03 0.  0.
        -24    2    5    5    0    0 -0.55440553916E+02  0.51935082608E+02  0.89335052702E+02  0.14028151065E+03  0.76988588541E+02 0.  0.
          5    1    3    3  501    0  0.27258812934E+02 -0.37248851349E+02  0.44944864376E+03  0.45183702060E+03  0.47000000000E+01 0. -1.
        -13    1    4    4    0    0  0.16575145365E+02 -0.17017847216E+02  0.67253413523E+01  0.24689527822E+02  0.00000000000E+00 0.  1.
         14    1    4    4    0    0 -0.42107169386E+02 -0.40834399222E+02  0.16235706778E+03  0.17262757407E+03  0.00000000000E+00 0. -1.
         -5    1    5    5    0  503  0.53713765003E+02  0.43166015179E+02  0.18218279707E+03  0.19483617468E+03  0.47000000000E+01 0.  1.
         11    1    6    6    0    0  0.49297488801E+01  0.11323826641E+02 -0.10866419104E+02  0.16450244313E+02  0.00000000000E+00 0. -1.
        -12    1    6    6    0    0 -0.60370302796E+02  0.40611255967E+02  0.10020147181E+03  0.12383126634E+03  0.00000000000E+00 0.  1.
</event>
<event>
12    1  0.9246030E-003  0.3679377E+03  0.7818608E-02  0.1055584E+00
         21   -1    0    0  503  502  0.00000000000E+00  0.00000000000E+00  0.20513475173E+04  0.20513475173E+04  0.00000000000E+00 0.  1.
         21   -1    0    0  501  503 -0.00000000000E+00 -0.00000000000E+00 -0.68831258904E+02  0.68831258904E+02  0.00000000000E+00 0.  1.
          6    2    1    2  501    0  0.31350066933E+03 -0.85236679006E+02  0.12120347852E+04  0.12663521694E+04  0.17050376915E+03 0.  0.
         24    2    3    3    0    0  0.27815347439E+03 -0.10489445251E+03  0.11602824710E+04  0.12005020041E+04  0.81101465934E+02 0.  0.
         -6    2    1    2    0  502 -0.31350066933E+03  0.85236679006E+02  0.77048147318E+03  0.85382660679E+03  0.17271425195E+03 0.  0.
        -24    2    5    5    0    0 -0.75787570382E+02 -0.11712705886E+02  0.21574080095E+03  0.24254434460E+03  0.80017014429E+02 0.  0.
          5    1    3    3  501    0  0.35347194941E+02  0.19657773509E+02  0.51752314200E+02  0.65850165334E+02  0.47000000000E+01 0. -1.
        -11    1    4    4    0    0  0.11698288366E+03 -0.33298122376E+02  0.63087455974E+03  0.64249238917E+03  0.00000000000E+00 0.  1.
         12    1    4    4    0    0  0.16117059073E+03 -0.71596330139E+02  0.52940791125E+03  0.55800961488E+03  0.00000000000E+00 0. -1.
         -5    1    5    5    0  502 -0.23771309894E+03  0.96949384892E+02  0.55474067223E+03  0.61128226218E+03  0.47000000000E+01 0.  1.
         13    1    6    6    0    0 -0.90771310863E+02 -0.11870820656E+01  0.16109217695E+03  0.18490951710E+03  0.00000000000E+00 0. -1.
        -14    1    6    6    0    0  0.14983740480E+02 -0.10525623820E+02  0.54648624007E+02  0.57634827504E+02  0.00000000000E+00 0.  1.
</event>
<event>
12    1  0.9246030E-003  0.2485251E+03  0.7818608E-02  0.1114291E+00
         21   -1    0    0  501  502  0.00000000000E+00  0.00000000000E+00  0.49340918991E+03  0.49340918991E+03  0.00000000000E+00 0.  1.
         21   -1    0    0  502  503 -0.00000000000E+00 -0.00000000000E+00 -0.18527390847E+03  0.18527390847E+03  0.00000000000E+00 0. -1.
          6    2    1    2  501    0 -0.15353351326E+03 -0.93296786715E+02  0.34765079853E+03  0.42734739206E+03  0.17172037059E+03 0.  0.
         24    2    3    3    0    0 -0.73896820795E+02 -0.11505763632E+03  0.17543739949E+03  0.23631053130E+03  0.79783370841E+02 0.  0.
         -6    2    1    2    0  503  0.15353351326E+03  0.93296786715E+02 -0.39515517082E+02  0.25133570632E+03  0.17126392229E+03 0.  0.
        -24    2    5    5    0    0  0.14369301969E+03  0.12068401522E+03 -0.65375435969E+02  0.21212192043E+03  0.74225642888E+02 0.  0.
          5    1    3    3  501    0 -0.79636692463E+02  0.21760849602E+02  0.17221339904E+03  0.19103686076E+03  0.47000000000E+01 0. -1.
        -13    1    4    4    0    0  0.13724315545E+02 -0.36184828074E+02  0.59385265415E+02  0.70882355832E+02  0.00000000000E+00 0.  1.
         14    1    4    4    0    0 -0.87621136340E+02 -0.78872808243E+02  0.11605213408E+03  0.16542817547E+03  0.00000000000E+00 0. -1.
         -5    1    5    5    0  503  0.98404935635E+01 -0.27387228504E+02  0.25859918887E+02  0.39213785886E+02  0.47000000000E+01 0.  1.
         13    1    6    6    0    0  0.83374617183E+02  0.91005879254E+02 -0.74677466083E+02  0.14425713428E+03  0.00000000000E+00 0. -1.
        -14    1    6    6    0    0  0.60318402511E+02  0.29678135965E+02  0.93020301141E+01  0.67864786157E+02  0.00000000000E+00 0.  1.
</event>
<event>
12    1  0.9246030E-003  0.2196293E+03  0.7818608E-02  0.1134194E+00
         21   -1    0    0  503  502  0.00000000000E+00  0.00000000000E+00  0.24480393147E+03  0.24480393147E+03  0.00000000000E+00 0. -1.
         21   -1    0    0  501  503 -0.00000000000E+00 -0.00000000000E+00 -0.20845199785E+03  0.20845199785E+03  0.00000000000E+00 0.  1.
          6    2    1    2  501    0 -0.55530802631E+02  0.12506471927E+03 -0.35224848207E+02  0.22225753845E+03  0.17155981296E+03 0.  0.
         24    2    3    3    0    0 -0.11010409790E+02  0.14277661646E+03 -0.51028842577E+02  0.17158572263E+03  0.79569630526E+02 0.  0.
         -6    2    1    2    0  502  0.55530802631E+02 -0.12506471927E+03  0.71576781829E+02  0.23099839087E+03  0.17179105576E+03 0.  0.
        -24    2    5    5    0    0  0.27756949518E+02 -0.15637634332E+03  0.62256926382E+02  0.18786192806E+03  0.78690343348E+02 0.  0.
          5    1    3    3  501    0 -0.44520392841E+02 -0.17711897198E+02  0.15803994369E+02  0.50671815826E+02  0.47000000000E+01 0. -1.
        -11    1    4    4    0    0 -0.38763504738E+02  0.35143225887E+02 -0.21570388945E+02  0.56594498890E+02  0.00000000000E+00 0.  1.
         12    1    4    4    0    0  0.27753094949E+02  0.10763339058E+03 -0.29458453632E+02  0.11499122374E+03  0.00000000000E+00 0. -1.
         -5    1    5    5    0  502  0.27773853113E+02  0.31311624055E+02  0.93198554470E+01  0.43136462804E+02  0.47000000000E+01 0.  1.
         11    1    6    6    0    0  0.29664688360E+02 -0.12912767139E+02  0.21002080143E+02  0.38572278400E+02  0.00000000000E+00 0. -1.
        -12    1    6    6    0    0 -0.19077388416E+01 -0.14346357618E+03  0.41254846239E+02  0.14928964966E+03  0.00000000000E+00 0.  1.
</event>
<event>
12    1  0.9246030E-003  0.2270227E+03  0.7818608E-02  0.1129055E+00
         21   -1    0    0  503  502  0.00000000000E+00  0.00000000000E+00  0.67951359504E+03  0.67951359504E+03  0.00000000000E+00 0.  1.
         21   -1    0    0  501  503 -0.00000000000E+00 -0.00000000000E+00 -0.81351628751E+02  0.81351628751E+02  0.00000000000E+00 0.  1.
          6    2    1    2  501    0  0.14180800678E+03 -0.36176993511E+02  0.19623379530E+03  0.30007836867E+03  0.17355413935E+03 0.  0.
         24    2    3    3    0    0  0.13501755052E+03  0.28141110686E+02  0.15809224614E+03  0.22484674902E+03  0.80877940112E+02 0.  0.
         -6    2    1    2    0  502 -0.14180800678E+03  0.36176993511E+02  0.40192817099E+03  0.46078685511E+03  0.17134755780E+03 0.  0.
        -24    2    5    5    0    0 -0.12664213290E+03 -0.24628380772E+02  0.21358177521E+03  0.26223270110E+03  0.80647553336E+02 0.  0.
          5    1    3    3  501    0  0.67904562571E+01 -0.64318104197E+02  0.38141549156E+02  0.75231619654E+02  0.47000000000E+01 0. -1.
        -13    1    4    4    0    0  0.43500549708E+02  0.68166830539E+01  0.38041943689E+01  0.44195439669E+02  0.00000000000E+00 0.  1.
         14    1    4    4    0    0  0.91517000813E+02  0.21324427632E+02  0.15428805177E+03  0.18065130935E+03  0.00000000000E+00 0. -1.
         -5    1    5    5    0  502 -0.15165873875E+02  0.60805374284E+02  0.18834639578E+03  0.19855415401E+03  0.47000000000E+01 0.  1.
         13    1    6    6    0    0 -0.62659725717E+02 -0.26861699486E+02  0.44439855893E+02  0.81379929454E+02  0.00000000000E+00 0. -1.
        -14    1    6    6    0    0 -0.63982407186E+02  0.22333187133E+01  0.16914191932E+03  0.18085277165E+03  0.00000000000E+00 0.  1.
</event>
<event>
12    1  0.9246030E-003  0.2798562E+03  0.7818608E-02  0.1095832E+00
         21   -1    0    0  501  502  0.00000000000E+00  0.00000000000E+00  0.16097235680E+03  0.16097235680E+03  0.00000000000E+00 0. -1.
         21   -1    0    0  502  503 -0.00000000000E+00 -0.00000000000E+00 -0.48614825206E+03  0.48614825206E+03  0.00000000000E+00 0.  1.
          6    2    1    2  501    0 -0.21424508844E+03  0.53141626451E+02 -0.15284105595E+03  0.31845844878E+03  0.17126121812E+03 0.  0.
         24    2    3    3    0    0 -0.12280048594E+03  0.98945216974E+02 -0.10078153618E+03  0.20360041541E+03  0.80162932889E+02 0.  0.
         -6    2    1    2    0  503  0.21424508844E+03 -0.53141626451E+02 -0.17233483930E+03  0.32866216008E+03  0.17203060264E+03 0.  0.
        -24    2    5    5    0    0  0.21774689247E+03 -0.29669679689E+02 -0.10449855449E+03  0.25664100726E+03  0.81551576572E+02 0.  0.
          5    1    3    3  501    0 -0.91444602503E+02 -0.45803590523E+02 -0.52059519774E+02  0.11485803338E+03  0.47000000000E+01 0. -1.
        -13    1    4    4    0    0 -0.96014238818E+02  0.91766821462E+02 -0.43158263753E+02  0.13965142071E+03  0.00000000000E+00 0.  1.
         14    1    4    4    0    0 -0.26786247122E+02  0.71783955125E+01 -0.57623272426E+02  0.63948994692E+02  0.00000000000E+00 0. -1.
         -5    1    5    5    0  503 -0.35018040302E+01 -0.23471946762E+02 -0.67836284812E+02  0.72021152819E+02  0.47000000000E+01 0.  1.
         13    1    6    6    0    0  0.20236083690E+03 -0.15724731052E+02 -0.11509073732E+03  0.23333035228E+03  0.00000000000E+00 0. -1.
        -14    1    6    6    0    0  0.15386055576E+02 -0.13944948637E+02  0.10592182828E+02  0.23310654983E+02  0.00000000000E+00 0.  1.
</event>
<event>
12    1  0.9246030E-003  0.1817783E+03  0.7818608E-02  0.1166264E+00
         21   -1    0    0  503  502  0.00000000000E+00  0.00000000000E+00  0.47968071824E+02  0.47968071824E+02  0.00000000000E+00 0.  1.
         21   -1    0    0  501  503 -0.00000000000E+00 -0.00000000000E+00 -0.68715179347E+03  0.68715179347E+03  0.00000000000E+00 0.  1.
          6    2    1    2  501    0 -0.55350732751E+02 -0.34563821874E+02 -0.30499239891E+03  0.35468959634E+03  0.16889637344E+03 0.  0.
         24    2    3    3    0    0 -0.24950393178E+01 -0.72710924942E+02 -0.25064752922E+03  0.26969323958E+03  0.67949655956E+02 0.  0.
         -6    2    1    2    0  502  0.55350732751E+02  0.34563821874E+02 -0.33419132274E+03  0.38043026896E+03  0.16966139203E+03 0.  0.
        -24    2    5    5    0    0  0.97016097819E+02  0.60204093849E+01 -0.27570592699E+03  0.30301347130E+03  0.79718486239E+02 0.  0.
          5    1    3    3  501    0 -0.52855693433E+02  0.38147103068E+02 -0.54344869686E+02  0.84996356758E+02  0.47000000000E+01 0. -1.
        -13    1    4    4    0    0 -0.28384609200E+02 -0.62758947196E+02 -0.14599816651E+03  0.16143059226E+03  0.00000000000E+00 0.  1.
         14    1    4    4    0    0  0.25889569882E+02 -0.99519777464E+01 -0.10464936271E+03  0.10826264732E+03  0.00000000000E+00 0. -1.
         -5    1    5    5    0  502 -0.41665365068E+02  0.28543412489E+02 -0.58485395751E+02  0.77416797653E+02  0.47000000000E+01 0.  1.
         13    1    6    6    0    0  0.41199281861E+02 -0.18917076666E+02 -0.20309748940E+03  0.20809571552E+03  0.00000000000E+00 0. -1.
        -14    1    6    6    0    0  0.55816815958E+02  0.24937486050E+02 -0.72608437587E+02  0.94917755784E+02  0.00000000000E+00 0.  1.
</event>
<event>
12    1  0.9246030E-003  0.1977083E+03  0.7818608E-02  0.1151689E+00
         21   -1    0    0  503  502  0.00000000000E+00  0.00000000000E+00  0.79405511019E+02  0.79405511019E+02  0.00000000000E+00 0.  1.
         21   -1    0    0  501  503 -0.00000000000E+00 -0.00000000000E+00 -0.51792111288E+03  0.51792111288E+03  0.00000000000E+00 0.  1.
          6    2    1    2  501    0  0.70631226025E+02 -0.65796112083E+02 -0.28575708145E+03  0.34748477231E+03  0.17254175997E+03 0.  0.
         24    2    3    3    0    0 -0.88376621166E+01 -0.56873999427E+02 -0.22631892659E+03  0.24773562429E+03  0.82703850744E+02 0.  0.
         -6    2    1    2    0  502 -0.70631226025E+02  0.65796112083E+02 -0.15275852041E+03  0.24984185159E+03  0.17253372654E+03 0.  0.
        -24    2    5    5    0    0 -0.38131107098E+02  0.93281676021E+02 -0.48286553768E+02  0.13693394323E+03  0.79144558406E+02 0.  0.
          5    1    3    3  501    0  0.79468888142E+02 -0.89221126561E+01 -0.59438154861E+02  0.99749148016E+02  0.47000000000E+01 0. -1.
        -13    1    4    4    0    0  0.21271851811E+02 -0.43159789615E+02 -0.19927960985E+03  0.20500639508E+03  0.00000000000E+00 0.  1.
         14    1    4    4    0    0 -0.30109513928E+02 -0.13714209812E+02 -0.27039316737E+02  0.42729229215E+02  0.00000000000E+00 0. -1.
         -5    1    5    5    0  502 -0.32500118927E+02 -0.27485563938E+02 -0.10447196664E+03  0.11290790836E+03  0.47000000000E+01 0.  1.
         11    1    6    6    0    0 -0.51362540574E+02  0.31919922566E+02 -0.42462619464E+02  0.73892259964E+02  0.00000000000E+00 0. -1.
        -12    1    6    6    0    0  0.13231433475E+02  0.61361753455E+02 -0.58239343031E+01  0.63041683271E+02  0.00000000000E+00 0.  1.
</event>
<event>
12    1  0.9246030E-003  0.1918565E+03  0.7818608E-02  0.1157502E+00
         21   -1    0    0  503  502  0.00000000000E+00  0.00000000000E+00  0.75986868155E+03  0.75986868155E+03  0.00000000000E+00 0.  1.
         21   -1    0    0  501  503 -0.00000000000E+00 -0.00000000000E+00 -0.19733252587E+03  0.19733252587E+03  0.00000000000E+00 0.  1.
          6    2    1    2  501    0  0.75009901757E+02  0.11072286634E+02 -0.13499547041E+03  0.23459051757E+03  0.17623805778E+03 0.  0.
         24    2    3    3    0    0  0.77190889035E+02  0.62534322337E+02 -0.13037648278E+03  0.18266246281E+03  0.80613728589E+02 0.  0.
         -6    2    1    2    0  502 -0.75009901757E+02 -0.11072286634E+02  0.69753162609E+03  0.72261068985E+03  0.17282001852E+03 0.  0.
        -24    2    5    5    0    0 -0.10602139668E+03 -0.44977607683E+02  0.57202844236E+03  0.58887803588E+03  0.79355406414E+02 0.  0.
          5    1    3    3  501    0 -0.21809872784E+01 -0.51462035703E+02 -0.46189876273E+01  0.51928054758E+02  0.47000000000E+01 0. -1.
        -11    1    4    4    0    0  0.39329985522E+02  0.28048995464E+02 -0.12141505716E+03  0.13067214705E+03  0.00000000000E+00 0.  1.
         12    1    4    4    0    0  0.37860903513E+02  0.34485326873E+02 -0.89614256229E+01  0.51990315767E+02  0.00000000000E+00 0. -1.
         -5    1    5    5    0  502  0.31011494918E+02  0.33905321049E+02  0.12550318373E+03  0.13373265398E+03  0.47000000000E+01 0.  1.
         11    1    6    6    0    0 -0.31572400207E+02 -0.58080855492E+01  0.45577769390E+02  0.55748393476E+02  0.00000000000E+00 0. -1.
        -12    1    6    6    0    0 -0.74448996468E+02 -0.39169522133E+02  0.52645067297E+03  0.53312964240E+03  0.00000000000E+00 0.  1.
</event>
<event>
12    1  0.9246030E-003  0.2727854E+03  0.7818608E-02  0.1099813E+00
         21   -1    0    0  501  502  0.00000000000E+00  0.00000000000E+00  0.40025179558E+03  0.40025179558E+03  0.00000000000E+00 0. -1.
         21   -1    0    0  502  503 -0.00000000000E+00 -0.00000000000E+00 -0.21476085193E+03  0.21476085193E+03  0.00000000000E+00 0.  1.
          6    2    1    2  501    0 -0.20965558895E+03 -0.27843604961E+02  0.20642374294E+03  0.34142522318E+03  0.17096692387E+03 0.  0.
         24    2    3    3    0    0 -0.15698990290E+03 -0.50028345259E+02  0.75903445920E+02  0.19886479696E+03  0.81469070367E+02 0.  0.
         -6    2    1    2    0  503  0.20965558895E+03  0.27843604961E+02 -0.20932799289E+02  0.27358742432E+03  0.17228222295E+03 0.  0.
        -24    2    5    5    0    0  0.14265237707E+03  0.19271948400E+02  0.53784338693E+02  0.17275268623E+03  0.78927985090E+02 0.  0.
          5    1    3    3  501    0 -0.52665686052E+02  0.22184740298E+02  0.13052029702E+03  0.14256042622E+03  0.47000000000E+01 0. -1.
        -11    1    4    4    0    0 -0.67437214840E+02  0.74513041224E+01 -0.52542866265E+00  0.67849656991E+02  0.00000000000E+00 0.  1.
         12    1    4    4    0    0 -0.89552688059E+02 -0.57479649381E+02  0.76428874583E+02  0.13101513997E+03  0.00000000000E+00 0. -1.
         -5    1    5    5    0  503  0.67003211877E+02  0.85716565609E+01 -0.74717137983E+02  0.10083473809E+03  0.47000000000E+01 0.  1.
         13    1    6    6    0    0 -0.85952411873E+01  0.58514228717E+01  0.10692397280E+02  0.14914579454E+02  0.00000000000E+00 0. -1.
        -14    1    6    6    0    0  0.15124761826E+03  0.13420525528E+02  0.43091941413E+02  0.15783810677E+03  0.00000000000E+00 0.  1.
</event>
<event>
12    1  0.9246030E-003  0.1917234E+03  0.7818608E-02  0.1156967E+00
         21   -1    0    0  503  502  0.00000000000E+00  0.00000000000E+00  0.22948093817E+03  0.22948093817E+03  0.00000000000E+00 0. -1.
         21   -1    0    0  501  503 -0.00000000000E+00 -0.00000000000E+00 -0.16302612157E+03  0.16302612157E+03  0.00000000000E+00 0. -1.
          6    2    1    2  501    0  0.76635884720E+02  0.31811646486E+02  0.64602353273E+01  0.19183219587E+03  0.17283754527E+03 0.  0.
         24    2    3    3    0    0  0.43359520439E+02  0.22383432775E+02 -0.64664866780E+02  0.11260418452E+03  0.78211836059E+02 0.  0.
         -6    2    1    2    0  502 -0.76635884720E+02 -0.31811646486E+02  0.59994581268E+02  0.20067486386E+03  0.17258624374E+03 0.  0.
        -24    2    5    5    0    0 -0.54008369262E+02  0.30382836219E+02 -0.13464344927E+02  0.10168768302E+03  0.79492613529E+02 0.  0.
          5    1    3    3  501    0  0.33276364281E+02  0.94282137108E+01  0.71125102107E+02  0.79228011355E+02  0.47000000000E+01 0. -1.
        -13    1    4    4    0    0 -0.15732133390E+02 -0.12563581353E+02 -0.28824843593E+02  0.35159852184E+02  0.00000000000E+00 0.  1.
         14    1    4    4    0    0  0.59091653828E+02  0.34947014128E+02 -0.35840023187E+02  0.77444332334E+02  0.00000000000E+00 0. -1.
         -5    1    5    5    0  502 -0.22627515458E+02 -0.62194482705E+02  0.73458926196E+02  0.98987180849E+02  0.47000000000E+01 0.  1.
         13    1    6    6    0    0 -0.14717519149E+02 -0.18703946008E+00  0.31395874033E+02  0.34674792861E+02  0.00000000000E+00 0. -1.
        -14    1    6    6    0    0 -0.39290850113E+02  0.30569875679E+02 -0.44860218960E+02  0.67012890154E+02  0.00000000000E+00 0.  1.
</event>
<event>
12    1  0.9246030E-003  0.2084736E+03  0.7818608E-02  0.1142838E+00
         21   -1    0    0  501  502  0.00000000000E+00  0.00000000000E+00  0.98533720482E+02  0.98533720482E+02  0.00000000000E+00 0.  1.
         21   -1    0    0  502  503 -0.00000000000E+00 -0.00000000000E+00 -0.45621169361E+03  0.45621169361E+03  0.00000000000E+00 0. -1.
          6    2    1    2  501    0 -0.11158203483E+03 -0.38005975690E+02 -0.12719340448E+03  0.24396515009E+03  0.17159786604E+03 0.  0.
         24    2    3    3    0    0 -0.77554875409E+02  0.31660179809E+01 -0.47790175672E+01  0.11032251930E+03  0.78252392207E+02 0.  0.
         -6    2    1    2    0  503  0.11158203483E+03  0.38005975690E+02 -0.23048456864E+03  0.31078026400E+03  0.17194833940E+03 0.  0.
        -24    2    5    5    0    0  0.67050791188E+02  0.44477191563E+02 -0.49910598340E+02  0.12462453068E+03  0.81031948345E+02 0.  0.
          5    1    3    3  501    0 -0.34027159423E+02 -0.41171993671E+02 -0.12241438692E+03  0.13364263079E+03  0.47000000000E+01 0. -1.
        -13    1    4    4    0    0 -0.21393095038E+02  0.30210347198E+02  0.21350071302E+02  0.42733536452E+02  0.00000000000E+00 0.  1.
         14    1    4    4    0    0 -0.56161780371E+02 -0.27044329217E+02 -0.26129088869E+02  0.67588982848E+02  0.00000000000E+00 0. -1.
         -5    1    5    5    0  503  0.44531243644E+02 -0.64712158736E+01 -0.18057397030E+03  0.18615573331E+03  0.47000000000E+01 0.  1.
         13    1    6    6    0    0  0.48612564235E+02 -0.69493414820E+00 -0.57444029824E+02  0.75256102061E+02  0.00000000000E+00 0. -1.
        -14    1    6    6    0    0  0.18438226953E+02  0.45172125712E+02  0.75334314844E+01  0.49368428620E+02  0.00000000000E+00 0.  1.
</event>
<event>
12    1  0.9246030E-003  0.1905083E+03  0.7818608E-02  0.1158032E+00
         21   -1    0    0  501  502  0.00000000000E+00  0.00000000000E+00  0.76619015551E+02  0.76619015551E+02  0.00000000000E+00 0. -1.
         21   -1    0    0  502  503 -0.00000000000E+00 -0.00000000000E+00 -0.49209988225E+03  0.49209988225E+03  0.00000000000E+00 0.  1.
          6    2    1    2  501    0  0.52333810314E+02  0.61347178778E+02 -0.15233043585E+03  0.24392205534E+03  0.17260099463E+03 0.  0.
         24    2    3    3    0    0 -0.20468442498E+02  0.16941064847E+02 -0.13209864405E+03  0.15615254829E+03  0.78915206139E+02 0.  0.
         -6    2    1    2    0  503 -0.52333810314E+02 -0.61347178778E+02 -0.26315043085E+03  0.32479684246E+03  0.17246024346E+03 0.  0.
        -24    2    5    5    0    0 -0.91159504768E+02 -0.73715974425E+02 -0.23680172768E+03  0.27604475723E+03  0.79884601582E+02 0.  0.
          5    1    3    3  501    0  0.72802252812E+02  0.44406113932E+02 -0.20231791804E+02  0.87769507054E+02  0.47000000000E+01 0. -1.
        -13    1    4    4    0    0 -0.27688888325E+02  0.41906705756E+02 -0.11373001471E+03  0.12432764282E+03  0.00000000000E+00 0.  1.
         14    1    4    4    0    0  0.72204458280E+01 -0.24965640909E+02 -0.18368629343E+02  0.31824905466E+02  0.00000000000E+00 0. -1.
         -5    1    5    5    0  503  0.38825694454E+02  0.12368795647E+02 -0.26348703170E+02  0.48752085231E+02  0.47000000000E+01 0.  1.
         13    1    6    6    0    0 -0.97047958465E+01  0.55962501485E-01 -0.10045675560E+03  0.10092445660E+03  0.00000000000E+00 0. -1.
        -14    1    6    6    0    0 -0.81454708921E+02 -0.73771936927E+02 -0.13634497208E+03  0.17512030063E+03  0.00000000000E+00 0.  1.
</event>
<event>
12    1  0.9246030E-003  0.3536890E+03  0.7818608E-02  0.1061181E+00
         21   -1    0    0  503  502  0.00000000000E+00  0.00000000000E+00  0.41597029425E+03  0.41597029425E+03  0.00000000000E+00 0. -1.
         21   -1    0    0  501  503 -0.00000000000E+00 -0.00000000000E+00 -0.30029836863E+03  0.30029836863E+03  0.00000000000E+00 0. -1.
          6    2    1    2  501    0 -0.15607042044E+03  0.26539331010E+03  0.65851261022E+02  0.35908806425E+03  0.17267386636E+03 0.  0.
         24    2    3    3    0    0 -0.54327066536E+02  0.21288276106E+03  0.18348230984E+02  0.23504091318E+03  0.81468234148E+02 0.  0.
         -6    2    1    2    0  502  0.15607042044E+03 -0.26539331010E+03  0.49820664598E+02  0.35718059864E+03  0.17408129205E+03 0.  0.
        -24    2    5    5    0    0  0.12019973797E+03 -0.27489476598E+03  0.63311269562E+02  0.31741792837E+03  0.82040935053E+02 0.  0.
          5    1    3    3  501    0 -0.10174335390E+03  0.52510549040E+02  0.47503030037E+02  0.12404715106E+03  0.47000000000E+01 0. -1.
        -11    1    4    4    0    0  0.36650077480E+01 -0.46697328163E+01  0.75888027944E+01  0.96347607246E+01  0.00000000000E+00 0.  1.
         12    1    4    4    0    0 -0.57992074284E+02  0.21755249388E+03  0.10759428190E+02  0.22540615246E+03  0.00000000000E+00 0. -1.
         -5    1    5    5    0  502  0.35870682471E+02  0.95014558803E+01 -0.13490604963E+02  0.39762670271E+02  0.47000000000E+01 0.  1.
         13    1    6    6    0    0  0.83080899913E+02 -0.18485359170E+03  0.81325523808E+02  0.21837382425E+03  0.00000000000E+00 0. -1.
        -14    1    6    6    0    0  0.37118838054E+02 -0.90041174283E+02 -0.18014254247E+02  0.99044104119E+02  0.00000000000E+00 0.  1.
</event>
<event>
12    1  0.9246030E-003  0.2652459E+03  0.7818608E-02  0.1104036E+00
         21   -1    0    0  503  502  0.00000000000E+00  0.00000000000E+00  0.86528682738E+03  0.86528682738E+03  0.00000000000E+00 0. -1.
         21   -1    0    0  501  503 -0.00000000000E+00 -0.00000000000E+00 -0.86654082782E+02  0.86654082782E+02  0.00000000000E+00 0.  1.
          6    2    1    2  501    0 -0.16184186009E+03  0.12089441639E+03  0.27101608848E+03  0.37921642546E+03  0.17189278498E+03 0.  0.
         24    2    3    3    0    0 -0.13256057675E+03  0.33955758567E+02  0.10851477930E+03  0.19254963873E+03  0.81083944166E+02 0.  0.
         -6    2    1    2    0  502  0.16184186009E+03 -0.12089441639E+03  0.50761665611E+03  0.57272448470E+03  0.17184416844E+03 0.  0.
        -24    2    5    5    0    0  0.17763185734E+03 -0.63035566588E+02  0.40847365399E+03  0.45675726785E+03  0.79056412365E+02 0.  0.
          5    1    3    3  501    0 -0.29281283337E+02  0.86938657825E+02  0.16250130919E+03  0.18666678673E+03  0.47000000000E+01 0. -1.
        -11    1    4    4    0    0 -0.33971730280E+02  0.40113442717E+02  0.10919239241E+02  0.53687955171E+02  0.00000000000E+00 0.  1.
         12    1    4    4    0    0 -0.98588846470E+02 -0.61576841507E+01  0.97595540054E+02  0.13886168356E+03  0.00000000000E+00 0. -1.
         -5    1    5    5    0  502 -0.15789997256E+02 -0.57858849804E+02  0.99143002121E+02  0.11596721685E+03  0.47000000000E+01 0.  1.
         11    1    6    6    0    0  0.10223025243E+03 -0.16864968952E+02  0.29652017036E+03  0.31410135804E+03  0.00000000000E+00 0. -1.
        -12    1    6    6    0    0  0.75401604909E+02 -0.46170597635E+02  0.11195348363E+03  0.14265590981E+03  0.00000000000E+00 0.  1.
</event>
<event>
12    1  0.9246030E-003  0.1875768E+03  0.7818608E-02  0.1161022E+00
         21   -1    0    0  501  502  0.00000000000E+00  0.00000000000E+00  0.97267653918E+03  0.97267653918E+03  0.00000000000E+00 0.  1.
         21   -1    0    0  502  503 -0.00000000000E+00 -0.00000000000E+00 -0.36106908763E+02  0.36106908763E+02  0.00000000000E+00 0.  1.
          6    2    1    2  501    0  0.37034821650E+02 -0.61657515874E+02  0.42595260308E+03  0.46480291788E+03  0.17156020846E+03 0.  0.
         24    2    3    3    0    0  0.31396972332E+02 -0.21144524625E+02  0.92200922608E+02  0.12852124722E+03  0.81140865568E+02 0.  0.
         -6    2    1    2    0  503 -0.37034821650E+02  0.61657515874E+02  0.51061702734E+03  0.54398053006E+03  0.17323925997E+03 0.  0.
        -24    2    5    5    0    0  0.46354482394E+02  0.21079844077E+02  0.25320836488E+03  0.27033544425E+03  0.79835321190E+02 0.  0.
          5    1    3    3  501    0  0.56378493186E+01 -0.40512991249E+02  0.33375168047E+03  0.33628167066E+03  0.47000000000E+01 0. -1.
        -13    1    4    4    0    0  0.14808623189E+02  0.17298177839E+02 -0.44404332683E+01  0.23199994072E+02  0.00000000000E+00 0.  1.
         14    1    4    4    0    0  0.16588349142E+02 -0.38442702464E+02  0.96641355876E+02  0.10532125315E+03  0.00000000000E+00 0. -1.
         -5    1    5    5    0  503 -0.83389304044E+02  0.40577671797E+02  0.25740866246E+03  0.27364508581E+03  0.47000000000E+01 0.  1.
         11    1    6    6    0    0  0.28581150964E+02 -0.26207106068E+02  0.15644452057E+03  0.16117872880E+03  0.00000000000E+00 0. -1.
        -12    1    6    6    0    0  0.17773331429E+02  0.47286950145E+02  0.96763844307E+02  0.10915671546E+03  0.00000000000E+00 0.  1.
</event>
<event>
12    1  0.9246030E-003  0.1802397E+03  0.7818608E-02  0.1167814E+00
         21   -1    0    0  501  502  0.00000000000E+00  0.00000000000E+00  0.53206143061E+03  0.53206143061E+03  0.00000000000E+00 0.  1.
         21   -1    0    0  502  503 -0.00000000000E+00 -0.00000000000E+00 -0.74224672656E+02  0.74224672656E+02  0.00000000000E+00 0.  1.
          6    2    1    2  501    0 -0.65856320252E+01  0.50751997141E+02  0.35875486557E+03  0.40148649702E+03  0.17282134694E+03 0.  0.
         24    2    3    3    0    0  0.40189626808E+02  0.50612459969E+02  0.33192456679E+03  0.34735795333E+03  0.79415379487E+02 0.  0.
         -6    2    1    2    0  503  0.65856320252E+01 -0.50751997141E+02  0.99081892388E+02  0.20479960625E+03  0.17177462431E+03 0.  0.
        -24    2    5    5    0    0  0.27262711063E+02  0.21519380283E+02  0.96660753022E+01  0.87889504299E+02  0.80154805295E+02 0.  0.
          5    1    3    3  501    0 -0.46775258833E+02  0.13953717140E+00  0.26830298784E+02  0.54128543693E+02  0.47000000000E+01 0. -1.
        -11    1    4    4    0    0  0.19764518722E+02  0.67906352546E+02  0.18585238641E+03  0.19885426435E+03  0.00000000000E+00 0.  1.
         12    1    4    4    0    0  0.20425108085E+02 -0.17293892577E+02  0.14607218037E+03  0.14850368898E+03  0.00000000000E+00 0. -1.
         -5    1    5    5    0  503 -0.20677079037E+02 -0.72271377424E+02  0.89415817085E+02  0.11691010195E+03  0.47000000000E+01 0.  1.
         13    1    6    6    0    0  0.13903565398E+02  0.75874739559E+01  0.44956639572E+02  0.47665273873E+02  0.00000000000E+00 0. -1.
        -14    1    6    6    0    0  0.13359145665E+02  0.13931906327E+02 -0.35290564270E+02  0.40224230425E+02  0.00000000000E+00 0.  1.
</event>
<event>
12    1  0.9246030E-003  0.2122088E+03  0.7818608E-02  0.1139899E+00
         21   -1    0    0  501  502  0.00000000000E+00  0.00000000000E+00  0.51549802100E+02  0.51549802100E+02  0.00000000000E+00 0.  1.
         21   -1    0    0  502  503 -0.00000000000E+00 -0.00000000000E+00 -0.95559615557E+03  0.95559615557E+03  0.00000000000E+00 0. -1.
          6    2    1    2  501    0  0.49314764134E+02  0.11479722670E+03 -0.60122993929E+03  0.63758139346E+03  0.17152913504E+03 0.  0.
         24    2    3    3    0    0  0.47975088348E+02 -0.13018502190E+01 -0.29394845026E+03  0.30906230133E+03  0.82525818857E+02 0.  0.
         -6    2    1    2    0  503 -0.49314764134E+02 -0.11479722670E+03 -0.30281641418E+03  0.36956456421E+03  0.17108429853E+03 0.  0.
        -24    2    5    5    0    0  0.18847651709E+02 -0.11055804299E+03 -0.15745677864E+03  0.20889222914E+03  0.79151825070E+02 0.  0.
          5    1    3    3  501    0  0.13396757869E+01  0.11609907692E+03 -0.30728148903E+03  0.32851909213E+03  0.47000000000E+01 0. -1.
        -11    1    4    4    0    0  0.18945002147E-02  0.22880420745E+00  0.56443697202E+01  0.56490056198E+01  0.00000000000E+00 0.  1.
         12    1    4    4    0    0  0.47973193847E+02 -0.15306544265E+01 -0.29959281998E+03  0.30341329571E+03  0.00000000000E+00 0. -1.
         -5    1    5    5    0  503 -0.68162415844E+02 -0.42391837160E+01 -0.14535963554E+03  0.16067233507E+03  0.47000000000E+01 0.  1.
         11    1    6    6    0    0 -0.91692075359E+00  0.12436981650E+02 -0.18009150985E+02  0.21905450816E+02  0.00000000000E+00 0. -1.
        -12    1    6    6    0    0  0.19764572463E+02 -0.12299502464E+03 -0.13944762765E+03  0.18698677832E+03  0.00000000000E+00 0.  1.
</event>
<event>
12    1  0.9246030E-003  0.1755041E+03  0.7818608E-02  0.1173475E+00
         21   -1    0    0  501  502  0.00000000000E+00  0.00000000000E+00  0.13862409980E+04  0.13862409980E+04  0.00000000000E+00 0. -1.
         21   -1    0    0  502  503 -0.00000000000E+00 -0.00000000000E+00 -0.28082120069E+02  0.28082120069E+02  0.00000000000E+00 0. -1.
          6    2    1    2  501    0 -0.25019031568E+02 -0.98002375117E+01  0.10113433635E+04  0.10256295718E+04  0.16845955875E+03 0.  0.
         24    2    3    3    0    0 -0.26549959999E+02  0.58115015954E+02  0.56355947616E+03  0.57269765063E+03  0.79379219049E+02 0.  0.
         -6    2    1    2    0  503  0.25019031568E+02  0.98002375117E+01  0.34681551441E+03  0.38869354631E+03  0.17343493106E+03 0.  0.
        -24    2    5    5    0    0  0.51869336706E+02 -0.11700522137E+02  0.94997542193E+02  0.13449361971E+03  0.78972592786E+02 0.  0.
          5    1    3    3  501    0  0.15309284306E+01 -0.67915253466E+02  0.44778388738E+03  0.45293192115E+03  0.47000000000E+01 0. -1.
        -11    1    4    4    0    0  0.59756994863E+01 -0.68718199023E+01  0.71920798586E+01  0.11604176223E+02  0.00000000000E+00 0.  1.
         12    1    4    4    0    0 -0.32525659485E+02  0.64986835856E+02  0.55636739630E+03  0.56109347441E+03  0.00000000000E+00 0. -1.
         -5    1    5    5    0  503 -0.26850305138E+02  0.21500759648E+02  0.25181797222E+03  0.25419992660E+03  0.47000000000E+01 0.  1.
         13    1    6    6    0    0  0.91495932243E+01  0.11726362469E+02 -0.10555567625E+02  0.18238493381E+02  0.00000000000E+00 0. -1.
        -14    1    6    6    0    0  0.42719743481E+02 -0.23426884606E+02  0.10555310982E+03  0.11625512633E+03  0.00000000000E+00 0.  1.
</event>
<event>
12    1  0.9246030E-003  0.1820427E+03  0.7818608E-02  0.1165980E+00
         21   -1    0    0  501  502  0.00000000000E+00  0.00000000000E+00  0.31423588412E+03  0.31423588412E+03  0.00000000000E+00 0. -1.
         21   -1    0    0  502  503 -0.00000000000E+00 -0.00000000000E+00 -0.10832846943E+03  0.10832846943E+03  0.00000000000E+00 0. -1.
          6    2    1    2  501    0  0.54704573165E+02  0.12714493117E+02  0.13946158408E+03  0.22932305120E+03  0.17316258174E+03 0.  0.
         24    2    3    3    0    0  0.42281758013E+02 -0.12876981837E+02  0.16705159587E+03  0.18941630144E+03  0.77580512029E+02 0.  0.
         -6    2    1    2    0  503 -0.54704573165E+02 -0.12714493117E+02  0.66445830611E+02  0.19324130235E+03  0.17254826533E+03 0.  0.
        -24    2    5    5    0    0 -0.49552910385E+02  0.56458165417E+02  0.52912616373E+02  0.12241310030E+03  0.80883909298E+02 0.  0.
          5    1    3    3  501    0  0.12422815152E+02  0.25591474955E+02 -0.27590011781E+02  0.39906749764E+02  0.47000000000E+01 0. -1.
        -11    1    4    4    0    0 -0.44934632728E+01  0.99794358673E+01 -0.31839112842E+01  0.11398142106E+02  0.00000000000E+00 0.  1.
         12    1    4    4    0    0  0.46775221286E+02 -0.22856417705E+02  0.17023550715E+03  0.17801815933E+03  0.00000000000E+00 0. -1.
         -5    1    5    5    0  503 -0.51516627803E+01 -0.69172658535E+02  0.13533214238E+02  0.70828202051E+02  0.47000000000E+01 0.  1.
         13    1    6    6    0    0 -0.59294085903E+01 -0.74725994806E+01 -0.16102034218E+02  0.18715585355E+02  0.00000000000E+00 0. -1.
        -14    1    6    6    0    0 -0.43623501794E+02  0.63930764898E+02  0.69014650590E+02  0.10369751494E+03  0.00000000000E+00 0.  1.
</event>
<event>
12    1  0.9246030E-003  0.1748690E+03  0.7818608E-02  0.1173068E+00
         21   -1    0    0  503  502  0.00000000000E+00  0.00000000000E+00  0.94929196273E+02  0.94929196273E+02  0.00000000000E+00 0.  1.
         21   -1    0    0  501  503 -0.00000000000E+00 -0.00000000000E+00 -0.32063421712E+03  0.32063421712E+03  0.00000000000E+00 0.  1.
          6    2    1    2  501    0 -0.28117611290E+02 -0.64872121847E+01 -0.11173245626E+03  0.20683176707E+03  0.17164659652E+03 0.  0.
         24    2    3    3    0    0 -0.43169020516E+02  0.46095289733E+02 -0.11787371455E+03  0.15159346983E+03  0.71400472313E+02 0.  0.
         -6    2    1    2    0  502  0.28117611290E+02  0.64872121847E+01 -0.11397256458E+03  0.20873164633E+03  0.17247165191E+03 0.  0.
        -24    2    5    5    0    0  0.79552811415E+02  0.13978659335E+02 -0.10752677139E+03  0.15614514766E+03  0.79342597955E+02 0.  0.
          5    1    3    3  501    0  0.15051409226E+02 -0.52582501918E+02  0.61412582872E+01  0.55238297231E+02  0.47000000000E+01 0. -1.
        -13    1    4    4    0    0 -0.61782652049E+02  0.41824489200E+02 -0.81375325075E+02  0.11040075870E+03  0.00000000000E+00 0.  1.
         14    1    4    4    0    0  0.18613631533E+02  0.42708005336E+01 -0.36498389475E+02  0.41192711131E+02  0.00000000000E+00 0. -1.
         -5    1    5    5    0  502 -0.51435200125E+02 -0.74914471500E+01 -0.64457931889E+01  0.52586498668E+02  0.47000000000E+01 0.  1.
         11    1    6    6    0    0  0.36743570397E+02  0.46372699012E+02 -0.50033840422E+02  0.77484852497E+02  0.00000000000E+00 0. -1.
        -12    1    6    6    0    0  0.42809241018E+02 -0.32394039678E+02 -0.57492930971E+02  0.78660295161E+02  0.00000000000E+00 0.  1.
</event>
<event>
12    1  0.9246030E-003  0.3179482E+03  0.7818608E-02  0.1076716E+00
         21   -1    0    0  503  502  0.00000000000E+00  0.00000000000E+00  0.51213683829E+03  0.51213683829E+03  0.00000000000E+00 0.  1.
         21   -1    0    0  501  503 -0.00000000000E+00 -0.00000000000E+00 -0.21381696847E+03  0.21381696847E+03  0.00000000000E+00 0.  1.
          6    2    1    2  501    0 -0.18364225746E+03 -0.19331781175E+03  0.46413408968E+02  0.32030871798E+03  0.17131028929E+03 0.  0.
         24    2    3    3    0    0 -0.18518241102E+03 -0.20824159532E+03  0.22138913515E+02  0.29138757487E+03  0.82216177993E+02 0.  0.
         -6    2    1    2    0  502  0.18364225746E+03  0.19331781175E+03  0.25190646084E+03  0.40564508878E+03  0.17319012088E+03 0.  0.
        -24    2    5    5    0    0  0.50889217345E+02  0.13449350504E+03  0.86002918546E+02  0.18512356133E+03  0.78714773857E+02 0.  0.
          5    1    3    3  501    0  0.15401535679E+01  0.14923783568E+02  0.24274495454E+02  0.28921143106E+02  0.47000000000E+01 0. -1.
        -11    1    4    4    0    0 -0.76424778889E+02 -0.48087977285E+02  0.36212453779E+02  0.97285878710E+02  0.00000000000E+00 0.  1.
         12    1    4    4    0    0 -0.10875763214E+03 -0.16015361804E+03 -0.14073540264E+02  0.19410169616E+03  0.00000000000E+00 0. -1.
         -5    1    5    5    0  502  0.13275304011E+03  0.58824306716E+02  0.16590354230E+03  0.22052152745E+03  0.47000000000E+01 0.  1.
         11    1    6    6    0    0  0.27289055655E+02  0.94301808568E+01 -0.41339939044E+01  0.29166946620E+02  0.00000000000E+00 0. -1.
        -12    1    6    6    0    0  0.23600161689E+02  0.12506332418E+03  0.90136912451E+02  0.15595661471E+03  0.00000000000E+00 0.  1.
</event>
<event>
12    1  0.9246030E-003  0.2069863E+03  0.7818608E-02  0.1144357E+00
         21   -1    0    0  501  502  0.00000000000E+00  0.00000000000E+00  0.20312988355E+03  0.20312988355E+03  0.00000000000E+00 0.  1.
         21   -1    0    0  502  503 -0.00000000000E+00 -0.00000000000E+00 -0.27230135601E+03  0.27230135601E+03  0.00000000000E+00 0. -1.
          6    2    1    2  501    0  0.99014071515E+02  0.57000231766E+02  0.80150122292E+02  0.22020530117E+03  0.17033355448E+03 0.  0.
         24    2    3    3    0    0  0.13203686971E+03  0.55712043936E+02  0.41367371581E+02  0.16903542349E+03  0.79524512955E+02 0.  0.
         -6    2    1    2    0  503 -0.99014071515E+02 -0.57000231766E+02 -0.14932159475E+03  0.25522593839E+03  0.17259932847E+03 0.  0.
        -24    2    5    5    0    0 -0.63725515874E+02 -0.88921519232E+02 -0.47661458484E+02  0.14288216215E+03  0.78585747312E+02 0.  0.
          5    1    3    3  501    0 -0.33022798199E+02  0.12881878300E+01  0.38782750711E+02  0.51169877677E+02  0.47000000000E+01 0. -1.
        -13    1    4    4    0    0  0.43904280817E+02 -0.15407040148E+02  0.29670457561E+02  0.55184226117E+02  0.00000000000E+00 0.  1.
         14    1    4    4    0    0  0.88132588896E+02  0.71119084084E+02  0.11696914020E+02  0.11385119738E+03  0.00000000000E+00 0. -1.
         -5    1    5    5    0  503 -0.35288555640E+02  0.31921287466E+02 -0.10166013627E+03  0.11234377623E+03  0.47000000000E+01 0.  1.
         11    1    6    6    0    0 -0.26508653268E+02 -0.97127248258E+01 -0.47626843953E+02  0.55365711289E+02  0.00000000000E+00 0. -1.
        -12    1    6    6    0    0 -0.37216862606E+02 -0.79208794406E+02 -0.34614530381E-01  0.87516450863E+02  0.00000000000E+00 0.  1.
</event>
<event>
12    1  0.9246030E-003  0.2334644E+03  0.7818608E-02  0.1124840E+00
         21   -1    0    0  501  502  0.00000000000E+00  0.00000000000E+00  0.56146744752E+03  0.56146744752E+03  0.00000000000E+00 0.  1.
         21   -1    0    0  502  503 -0.00000000000E+00 -0.00000000000E+00 -0.13970493752E+03  0.13970493752E+03  0.00000000000E+00 0.  1.
          6    2    1    2  501    0 -0.14003812708E+03  0.65933149910E+02  0.40673383172E+03  0.46722476002E+03  0.17002561341E+03 0.  0.
         24    2    3    3    0    0 -0.14348090184E+03  0.96399473747E+02  0.38469553287E+03  0.42917444856E+03  0.79501110388E+02 0.  0.
         -6    2    1    2    0  503  0.14003812708E+03 -0.65933149910E+02  0.15028678269E+02  0.23394762502E+03  0.17477921154E+03 0.  0.
        -24    2    5    5    0    0  0.78683308287E+02  0.15840988902E+02  0.52430498692E+02  0.12498703701E+03  0.80192283266E+02 0.  0.
          5    1    3    3  501    0  0.34427747648E+01 -0.30466323837E+02  0.22038298856E+02  0.38050311466E+02  0.47000000000E+01 0. -1.
        -13    1    4    4    0    0 -0.44039618029E+02  0.39823164783E+01  0.16583674585E+03  0.17163092109E+03  0.00000000000E+00 0.  1.
         14    1    4    4    0    0 -0.99441283815E+02  0.92417157268E+02  0.21885878702E+03  0.25754352747E+03  0.00000000000E+00 0. -1.
         -5    1    5    5    0  503  0.61354818793E+02 -0.81774138812E+02 -0.37401820423E+02  0.10896058801E+03  0.47000000000E+01 0.  1.
         11    1    6    6    0    0  0.56134790970E+02 -0.22526352362E+02  0.53088579702E+02  0.80479491815E+02  0.00000000000E+00 0. -1.
        -12    1    6    6    0    0  0.22548517317E+02  0.38367341264E+02 -0.65808100972E+00  0.44507545197E+02  0.00000000000E+00 0.  1.
</event>
<event>
12    1  0.9246030E-003  0.2076944E+03  0.7818608E-02  0.1143408E+00
         21   -1    0    0  501  502  0.00000000000E+00  0.00000000000E+00  0.75309165357E+02  0.75309165357E+02  0.00000000000E+00 0.  1.
         21   -1    0    0  502  503 -0.00000000000E+00 -0.00000000000E+00 -0.66257186492E+03  0.66257186492E+03  0.00000000000E+00 0. -1.
          6    2    1    2  501    0 -0.38329849650E+02 -0.11167282970E+03 -0.42947424573E+03  0.47705880991E+03  0.17087124421E+03 0.  0.
         24    2    3    3    0    0  0.20014980225E+02 -0.82492556711E+02 -0.10629120827E+03  0.14732410866E+03  0.56576944870E+02 0.  0.
         -6    2    1    2    0  503  0.38329849650E+02  0.11167282970E+03 -0.15778845384E+03  0.26082222037E+03  0.17085384459E+03 0.  0.
        -24    2    5    5    0    0 -0.92716888304E+01  0.86044752899E+02 -0.16839407701E+03  0.20552959854E+03  0.79976165130E+02 0.  0.
          5    1    3    3  501    0 -0.58344829875E+02 -0.29180272984E+02 -0.32318303746E+03  0.32973470125E+03  0.47000000000E+01 0. -1.
        -11    1    4    4    0    0  0.75175883820E+01 -0.71260734694E+02 -0.10885901906E+03  0.13032610051E+03  0.00000000000E+00 0.  1.
         12    1    4    4    0    0  0.12497391843E+02 -0.11231822017E+02  0.25678107904E+01  0.16998008147E+02  0.00000000000E+00 0. -1.
         -5    1    5    5    0  503  0.47601538480E+02  0.25628076796E+02  0.10605623176E+02  0.55292621831E+02  0.47000000000E+01 0.  1.
         13    1    6    6    0    0 -0.37628750840E+02  0.14052043807E+02 -0.64573750985E+02  0.76047039004E+02  0.00000000000E+00 0. -1.
        -14    1    6    6    0    0  0.28357062010E+02  0.71992709092E+02 -0.10382032603E+03  0.12948255954E+03  0.00000000000E+00 0.  1.
</event>
<event>
12    1  0.9246030E-003  0.2187311E+03  0.7818608E-02  0.1135450E+00
         21   -1    0    0  501  502  0.00000000000E+00  0.00000000000E+00  0.54035132999E+03  0.54035132999E+03  0.00000000000E+00 0.  1.
         21   -1    0    0  502  503 -0.00000000000E+00 -0.00000000000E+00 -0.88418999038E+02  0.88418999038E+02  0.00000000000E+00 0.  1.
          6    2    1    2  501    0  0.11245941140E+03  0.63416156539E+02  0.26417100194E+03  0.34297174908E+03  0.17656323026E+03 0.  0.
         24    2    3    3    0    0  0.76420181201E+02  0.10310943344E+03  0.24216532836E+03  0.28482777249E+03  0.77532021525E+02 0.  0.
         -6    2    1    2    0  503 -0.11245941140E+03 -0.63416156539E+02  0.18776132901E+03  0.28579857994E+03  0.17250444488E+03 0.  0.
        -24    2    5    5    0    0 -0.11294863242E+03 -0.20016086291E+02  0.19624817925E+03  0.24132474424E+03  0.81032382727E+02 0.  0.
          5    1    3    3  501    0  0.36039230199E+02 -0.39693276900E+02  0.22005673579E+02  0.58143976593E+02  0.47000000000E+01 0. -1.
        -13    1    4    4    0    0 -0.95097924558E+01  0.41329458575E+02  0.89822510817E+02  0.99330980807E+02  0.00000000000E+00 0.  1.
         14    1    4    4    0    0  0.85929973656E+02  0.61779974864E+02  0.15234281754E+03  0.18549679168E+03  0.00000000000E+00 0. -1.
         -5    1    5    5    0  503  0.48922102198E+00 -0.43400070249E+02 -0.84868502383E+01  0.44473835699E+02  0.47000000000E+01 0.  1.
         13    1    6    6    0    0 -0.30038711107E+02  0.52729865005E+01  0.12633178879E+03  0.12996095341E+03  0.00000000000E+00 0. -1.
        -14    1    6    6    0    0 -0.82909921315E+02 -0.25289072791E+02  0.69916390458E+02  0.11136379084E+03  0.00000000000E+00 0.  1.
</event>
<event>
12    1  0.9246030E-003  0.2136270E+03  0.7818608E-02  0.1139283E+00
         21   -1    0    0  501  502  0.00000000000E+00  0.00000000000E+00  0.74635689661E+02  0.74635689661E+02  0.00000000000E+00 0. -1.
         21   -1    0    0  502  503 -0.00000000000E+00 -0.00000000000E+00 -0.63205940540E+03  0.63205940540E+03  0.00000000000E+00 0. -1.
          6    2    1    2  501    0  0.17842198362E+02  0.12247487600E+03 -0.35587978761E+03  0.41507461495E+03  0.17412085875E+03 0.  0.
         24    2    3    3    0    0 -0.15391867407E+02  0.85566559531E+02 -0.89845307924E+02  0.14440292945E+03  0.72259815832E+02 0.  0.
         -6    2    1    2    0  503 -0.17842198362E+02 -0.12247487600E+03 -0.20154392813E+03  0.29162048012E+03  0.17059926777E+03 0.  0.
        -24    2    5    5    0    0  0.17942165344E+02 -0.76600911205E-01 -0.83769161745E+02  0.11796897846E+03  0.81101666159E+02 0.  0.
          5    1    3    3  501    0  0.33234065770E+02  0.36908316470E+02 -0.26603447968E+03  0.27067168550E+03  0.47000000000E+01 0. -1.
        -11    1    4    4    0    0 -0.23808693583E+02  0.29073827325E+01 -0.29315006340E+01  0.24164032371E+02  0.00000000000E+00 0.  1.
         12    1    4    4    0    0  0.84168261752E+01  0.82659176799E+02 -0.86913807290E+02  0.12023889707E+03  0.00000000000E+00 0. -1.
         -5    1    5    5    0  503 -0.35784363706E+02 -0.12239827509E+03 -0.11777476639E+03  0.17365150166E+03  0.47000000000E+01 0.  1.
         13    1    6    6    0    0  0.23116505120E+02 -0.30528345977E+02 -0.12479215276E+02  0.40275098150E+02  0.00000000000E+00 0. -1.
        -14    1    6    6    0    0 -0.51743397760E+01  0.30451745066E+02 -0.71289946468E+02  0.77693880307E+02  0.00000000000E+00 0.  1.
</event>
<event>
12    1  0.9246030E-003  0.1742736E+03  0.7818608E-02  0.1173489E+00
         21   -1    0    0  501  502  0.00000000000E+00  0.00000000000E+00  0.44634744194E+02  0.44634744194E+02  0.00000000000E+00 0. -1.
         21   -1    0    0  502  503 -0.00000000000E+00 -0.00000000000E+00 -0.10285935211E+04  0.10285935211E+04  0.00000000000E+00 0. -1.
          6    2    1    2  501    0 -0.18579810812E+02  0.15944157525E+02 -0.17970052989E+03  0.25032693870E+03  0.17254527021E+03 0.  0.
         24    2    3    3    0    0 -0.21121348838E+01 -0.10272893615E+01 -0.85638076999E+01  0.77500198758E+02  0.76989775737E+02 0.  0.
         -6    2    1    2    0  503  0.18579810812E+02 -0.15944157525E+02 -0.80425824705E+03  0.82290132662E+03  0.17244083006E+03 0.  0.
        -24    2    5    5    0    0  0.45241360833E+02  0.37171531365E+02 -0.63579300982E+03  0.64419838649E+03  0.85617208230E+02 0.  0.
          5    1    3    3  501    0 -0.16467675928E+02  0.16971446887E+02 -0.17113672219E+03  0.17282673995E+03  0.47000000000E+01 0. -1.
        -13    1    4    4    0    0 -0.80146138574E+00  0.37942580552E+02 -0.60185093643E+01  0.38425306951E+02  0.00000000000E+00 0.  1.
         14    1    4    4    0    0 -0.13106734980E+01 -0.38969869914E+02 -0.25452983355E+01  0.39074891807E+02  0.00000000000E+00 0. -1.
         -5    1    5    5    0  503 -0.26661550021E+02 -0.53115688891E+02 -0.16846523723E+03  0.17870294013E+03  0.47000000000E+01 0.  1.
         13    1    6    6    0    0  0.43143612544E+02  0.22641627531E+02 -0.14088077559E+03  0.14906846592E+03  0.00000000000E+00 0. -1.
        -14    1    6    6    0    0  0.20977482893E+01  0.14529903835E+02 -0.49491223423E+03  0.49512992057E+03  0.00000000000E+00 0.  1.
</event>
<event>
12    1  0.9246030E-003  0.1748070E+03  0.7818608E-02  0.1173332E+00
         21   -1    0    0  501  502  0.00000000000E+00  0.00000000000E+00  0.73583605593E+03  0.73583605593E+03  0.00000000000E+00 0. -1.
         21   -1    0    0  502  503 -0.00000000000E+00 -0.00000000000E+00 -0.41214082503E+02  0.41214082503E+02  0.00000000000E+00 0. -1.
          6    2    1    2  501    0 -0.32081083878E+02 -0.82377423436E+01  0.36462038446E+03  0.40435814276E+03  0.17164039884E+03 0.  0.
         24    2    3    3    0    0  0.31003817592E+02  0.39025899307E+02  0.22888058361E+03  0.24732012141E+03  0.79351517814E+02 0.  0.
         -6    2    1    2    0  503  0.32081083878E+02  0.82377423436E+01  0.33000158896E+03  0.37269199566E+03  0.17000358400E+03 0.  0.
        -24    2    5    5    0    0  0.53197512500E+02  0.56667191560E+02  0.15349331770E+03  0.18838633939E+03  0.76733749785E+02 0.  0.
          5    1    3    3  501    0 -0.63084901470E+02 -0.47263641651E+02  0.13573980085E+03  0.15703802135E+03  0.47000000000E+01 0. -1.
        -11    1    4    4    0    0 -0.20718486296E+02  0.34544995134E+02  0.12239132589E+03  0.12884971485E+03  0.00000000000E+00 0.  1.
         12    1    4    4    0    0  0.51722303888E+02  0.44809041735E+01  0.10648925772E+03  0.11847040656E+03  0.00000000000E+00 0. -1.
         -5    1    5    5    0  503 -0.21116428622E+02 -0.48429449217E+02  0.17650827126E+03  0.18430565627E+03  0.47000000000E+01 0.  1.
         11    1    6    6    0    0  0.37332697411E+02 -0.11371975262E+02  0.62165694539E+02  0.73400447512E+02  0.00000000000E+00 0. -1.
        -12    1    6    6    0    0  0.15864815088E+02  0.68039166823E+02  0.91327623160E+02  0.11498589188E+03  0.00000000000E+00 0.  1.
</event>
<event>
12    1  0.9246030E-003  0.2422271E+03  0.7818608E-02  0.1118450E+00
         21   -1    0    0  501  502  0.00000000000E+00  0.00000000000E+00  0.57327314919E+03  0.57327314919E+03  0.00000000000E+00 0.  1.
         21   -1    0    0  502  503 -0.00000000000E+00 -0.00000000000E+00 -0.11267084431E+03  0.11267084431E+03  0.00000000000E+00 0.  1.
          6    2    1    2  501    0 -0.12213883689E+03  0.11784904911E+03  0.12446278589E+03  0.27162078210E+03  0.17169906914E+03 0.  0.
         24    2    3    3    0    0 -0.15382973682E+03  0.10589141470E+03  0.12527201334E+03  0.23741489068E+03  0.76132603746E+02 0.  0.
         -6    2    1    2    0  503  0.12213883689E+03 -0.11784904911E+03  0.33613951899E+03  0.41432321140E+03  0.17282260682E+03 0.  0.
        -24    2    5    5    0    0  0.85692140525E+02  0.11294373358E+01  0.15714547122E+03  0.19627459057E+03  0.80526996717E+02 0.  0.
          5    1    3    3  501    0  0.31690899928E+02  0.11957634413E+02 -0.80922745116E+00  0.34205891423E+02  0.47000000000E+01 0. -1.
        -11    1    4    4    0    0 -0.40958458095E+02  0.19356839712E+02 -0.36565365346E+01  0.45449453160E+02  0.00000000000E+00 0.  1.
         12    1    4    4    0    0 -0.11287127872E+03  0.86534574986E+02  0.12892854987E+03  0.19196543752E+03  0.00000000000E+00 0. -1.
         -5    1    5    5    0  503  0.36446696364E+02 -0.11897848645E+03  0.17899404776E+03  0.21804862083E+03  0.47000000000E+01 0.  1.
         11    1    6    6    0    0  0.65361976075E+02 -0.27290879100E+02  0.59300188615E+02  0.92376903868E+02  0.00000000000E+00 0. -1.
        -12    1    6    6    0    0  0.20330164450E+02  0.28420316435E+02  0.97845282610E+02  0.10389768670E+03  0.00000000000E+00 0.  1.
</event>
<event>
12    1  0.9246030E-003  0.1748137E+03  0.7818608E-02  0.1173494E+00
         21   -1    0    0  501  502  0.00000000000E+00  0.00000000000E+00  0.23098991503E+03  0.23098991503E+03  0.00000000000E+00 0. -1.
         21   -1    0    0  502  503 -0.00000000000E+00 -0.00000000000E+00 -0.13864355210E+03  0.13864355210E+03  0.00000000000E+00 0. -1.
          6    2    1    2  501    0 -0.20403404909E+02  0.35133848489E+02  0.90444679476E+02  0.19480944142E+03  0.16768957087E+03 0.  0.
         24    2    3    3    0    0 -0.34547558991E+02  0.82239442841E+02  0.81170947524E+02  0.14453930895E+03  0.79661969083E+02 0.  0.
         -6    2    1    2    0  503  0.20403404909E+02 -0.35133848489E+02  0.19016834582E+01  0.17482402572E+03  0.17002687236E+03 0.  0.
        -24    2    5    5    0    0 -0.68307986588E+01 -0.49820637393E+02 -0.55255868118E+02  0.10965900968E+03  0.80269120604E+02 0.  0.
          5    1    3    3  501    0  0.14144154082E+02 -0.47105594353E+02  0.92737319515E+01  0.50270132468E+02  0.47000000000E+01 0. -1.
        -13    1    4    4    0    0  0.17370230227E+02  0.60894835185E+01 -0.42345581369E+01  0.18887514137E+02  0.00000000000E+00 0.  1.
         14    1    4    4    0    0 -0.51917789218E+02  0.76149959323E+02  0.85405505661E+02  0.12565179481E+03  0.00000000000E+00 0. -1.
         -5    1    5    5    0  503  0.27234203567E+02  0.14686788904E+02  0.57157551577E+02  0.65165016032E+02  0.47000000000E+01 0.  1.
         11    1    6    6    0    0 -0.38501855223E+02 -0.49702083817E+02 -0.39886368176E+02  0.74455438738E+02  0.00000000000E+00 0. -1.
        -12    1    6    6    0    0  0.31671056564E+02 -0.11855357596E+00 -0.15369499943E+02  0.35203570946E+02  0.00000000000E+00 0.  1.
</event>
<event>
12    1  0.9246030E-003  0.2286345E+03  0.7818608E-02  0.1127873E+00
         21   -1    0    0  503  502  0.00000000000E+00  0.00000000000E+00  0.10077829024E+03  0.10077829024E+03  0.00000000000E+00 0. -1.
         21   -1    0    0  501  503 -0.00000000000E+00 -0.00000000000E+00 -0.63317191915E+03  0.63317191915E+03  0.00000000000E+00 0. -1.
          6    2    1    2  501    0 -0.43232883202E+02  0.14323482397E+03 -0.10713106983E+03  0.25112314282E+03  0.17088144940E+03 0.  0.
         24    2    3    3    0    0 -0.19432667470E+02  0.16842485382E+03 -0.10792413074E+03  0.21614162172E+03  0.79530011267E+02 0.  0.
         -6    2    1    2    0  502  0.43232883202E+02 -0.14323482397E+03 -0.42526255909E+03  0.48282706657E+03  0.17288272055E+03 0.  0.
        -24    2    5    5    0    0  0.28295116585E+02 -0.14937958132E+03 -0.23090722441E+03  0.28774508116E+03  0.79776014627E+02 0.  0.
          5    1    3    3  501    0 -0.23800215732E+02 -0.25190029853E+02  0.79306091856E+00  0.34981521101E+02  0.47000000000E+01 0. -1.
        -13    1    4    4    0    0  0.54239473343E+01  0.45817922595E+02  0.65122513471E+01  0.46595178433E+02  0.00000000000E+00 0.  1.
         14    1    4    4    0    0 -0.24856614804E+02  0.12260693123E+03 -0.11443638209E+03  0.16954644328E+03  0.00000000000E+00 0. -1.
         -5    1    5    5    0  502  0.14937766617E+02  0.61447573489E+01 -0.19435533468E+03  0.19508198541E+03  0.47000000000E+01 0.  1.
         11    1    6    6    0    0 -0.72148982606E+01 -0.10024733166E+03 -0.18895737928E+03  0.21402446927E+03  0.00000000000E+00 0. -1.
        -12    1    6    6    0    0  0.35510014846E+02 -0.49132249659E+02 -0.41949845125E+02  0.73720611887E+02  0.00000000000E+00 0.  1.
</event>
<event>
12    1  0.9246030E-003  0.2063338E+03  0.7818608E-02  0.1144768E+00
         21   -1    0    0  501  502  0.00000000000E+00  0.00000000000E+00  0.14188830714E+03  0.14188830714E+03  0.00000000000E+00 0. -1.
         21   -1    0    0  502  503 -0.00000000000E+00 -0.00000000000E+00 -0.41623471037E+03  0.41623471037E+03  0.00000000000E+00 0. -1.
          6    2    1    2  501    0  0.10504571379E+02  0.11012821357E+03  0.11770317035E+02  0.20536757287E+03  0.17262308704E+03 0.  0.
         24    2    3    3    0    0  0.17228557261E+02 -0.12900570004E+02  0.43797983198E+01  0.81844282183E+02  0.78841968526E+02 0.  0.
         -6    2    1    2    0  503 -0.10504571379E+02 -0.11012821357E+03 -0.28611672027E+03  0.35275544464E+03  0.17416962038E+03 0.  0.
        -24    2    5    5    0    0  0.58035141246E+02 -0.69213218571E+02 -0.13112068418E+03  0.17834905076E+03  0.80356722451E+02 0.  0.
          5    1    3    3  501    0 -0.67239858825E+01  0.12302878358E+03  0.73905187157E+01  0.12352329069E+03  0.47000000000E+01 0. -1.
        -13    1    4    4    0    0  0.14186844256E+02  0.11123464344E+01 -0.36151400779E+02  0.38851353166E+02  0.00000000000E+00 0.  1.
         14    1    4    4    0    0  0.30417130050E+01 -0.14012916438E+02  0.40531199099E+02  0.42992929017E+02  0.00000000000E+00 0. -1.
         -5    1    5    5    0  503 -0.68539712625E+02 -0.40914995003E+02 -0.15499603609E+03  0.17440639388E+03  0.47000000000E+01 0.  1.
         13    1    6    6    0    0  0.33287759616E+02 -0.65557396805E+02 -0.13432288355E+03  0.15312897917E+03  0.00000000000E+00 0. -1.
        -14    1    6    6    0    0  0.24747381630E+02 -0.36558217663E+01  0.32021993700E+01  0.25220071593E+02  0.00000000000E+00 0.  1.
</event>
<event>
12    1  0.9246030E-003  0.2295117E+03  0.7818608E-02  0.1127770E+00
         21   -1    0    0  503  502  0.00000000000E+00  0.00000000000E+00  0.20995408860E+02  0.20995408860E+02  0.00000000000E+00 0. -1.
         21   -1    0    0  501  503 -0.00000000000E+00 -0.00000000000E+00 -0.34553132659E+04  0.34553132659E+04  0.00000000000E+00 0. -1.
          6    2    1    2  501    0  0.41640062690E+02 -0.13363763194E+03 -0.26614357668E+04  0.26713135288E+04  0.18188654984E+03 0.  0.
         24    2    3    3    0    0 -0.83903486723E+00 -0.22798499343E+02 -0.51026740027E+03  0.51686760976E+03  0.79112771958E+02 0.  0.
         -6    2    1    2    0  502 -0.41640062690E+02  0.13363763194E+03 -0.77288209025E+03  0.80499514595E+03  0.17628825278E+03 0.  0.
        -24    2    5    5    0    0  0.28645930346E+02  0.21441249307E+02 -0.21448401094E+03  0.23109737275E+03  0.78245052540E+02 0.  0.
          5    1    3    3  501    0  0.42479097557E+02 -0.11083913260E+03 -0.21511683665E+04  0.21544459191E+04  0.47000000000E+01 0. -1.
        -11    1    4    4    0    0  0.22564826993E+02 -0.42934322672E+02 -0.37487389706E+03  0.37799863251E+03  0.00000000000E+00 0.  1.
         12    1    4    4    0    0 -0.23403861860E+02  0.20135823329E+02 -0.13539350320E+03  0.13886897725E+03  0.00000000000E+00 0. -1.
         -5    1    5    5    0  502 -0.70285993036E+02  0.11219638264E+03 -0.55839807931E+03  0.57389777319E+03  0.47000000000E+01 0.  1.
         13    1    6    6    0    0 -0.15780793677E+02  0.30633225854E+02 -0.13738635855E+03  0.14164194115E+03  0.00000000000E+00 0. -1.
        -14    1    6    6    0    0  0.44426724023E+02 -0.91919765466E+01 -0.77097652387E+02  0.89455431606E+02  0.00000000000E+00 0.  1.
</event>
<event>
12    1  0.9246030E-003  0.2087281E+03  0.7818608E-02  0.1142812E+00
         21   -1    0    0  503  502  0.00000000000E+00  0.00000000000E+00  0.10884187097E+04  0.10884187097E+04  0.00000000000E+00 0.  1.
         21   -1    0    0  501  503 -0.00000000000E+00 -0.00000000000E+00 -0.51581214031E+02  0.51581214031E+02  0.00000000000E+00 0. -1.
          6    2    1    2  501    0  0.69027550512E+02 -0.95799866004E+02  0.24717474843E+03  0.32351624287E+03  0.17211910436E+03 0.  0.
         24    2    3    3    0    0  0.50098471958E+02 -0.94131412608E+02  0.26511633585E+03  0.29696281916E+03  0.80806340726E+02 0.  0.
         -6    2    1    2    0  502 -0.69027550512E+02  0.95799866004E+02  0.78966274728E+03  0.81648368090E+03  0.17069250035E+03 0.  0.
        -24    2    5    5    0    0 -0.63867845078E+02  0.27694044727E+00  0.28091033821E+03  0.29879424157E+03  0.79298186270E+02 0.  0.
          5    1    3    3  501    0  0.18929078555E+02 -0.16684533952E+01 -0.17941587416E+02  0.26553423709E+02  0.47000000000E+01 0. -1.
        -11    1    4    4    0    0  0.33559517210E+02 -0.74554392616E+01  0.13802780759E+03  0.14224450935E+03  0.00000000000E+00 0.  1.
         12    1    4    4    0    0  0.16538954748E+02 -0.86675973347E+02  0.12708852825E+03  0.15471830982E+03  0.00000000000E+00 0. -1.
         -5    1    5    5    0  502 -0.51597054347E+01  0.95522925556E+02  0.50875240906E+03  0.51768943933E+03  0.47000000000E+01 0.  1.
         13    1    6    6    0    0  0.16059018753E+02 -0.63842459317E+01  0.23445828812E+02  0.29126578380E+02  0.00000000000E+00 0. -1.
        -14    1    6    6    0    0 -0.79926863831E+02  0.66611863790E+01  0.25746450940E+03  0.26966766319E+03  0.00000000000E+00 0.  1.
</event>
<event>
12    1  0.9246030E-003  0.2059067E+03  0.7818608E-02  0.1144873E+00
         21   -1    0    0  503  502  0.00000000000E+00  0.00000000000E+00  0.32954820121E+03  0.32954820121E+03  0.00000000000E+00 0.  1.
         21   -1    0    0  501  503 -0.00000000000E+00 -0.00000000000E+00 -0.47003478113E+03  0.47003478113E+03  0.00000000000E+00 0.  1.
          6    2    1    2  501    0  0.85274167542E+01 -0.11079088157E+03 -0.41098660678E+03  0.45963027512E+03  0.17321276676E+03 0.  0.
         24    2    3    3    0    0 -0.35376160109E+02 -0.12994543471E+03 -0.33317545696E+03  0.36813663597E+03  0.79883721227E+02 0.  0.
         -6    2    1    2    0  502 -0.85274167542E+01  0.11079088157E+03  0.27050002687E+03  0.33995270722E+03  0.17335005722E+03 0.  0.
        -24    2    5    5    0    0  0.27245039292E+02  0.24275050399E+02  0.50061847456E+02  0.10041202467E+03  0.79024147516E+02 0.  0.
          5    1    3    3  501    0  0.43903576864E+02  0.19154553135E+02 -0.77811149829E+02  0.91493639150E+02  0.47000000000E+01 0. -1.
        -13    1    4    4    0    0  0.10660551355E+02 -0.93461371269E+02 -0.16411942026E+03  0.18916622157E+03  0.00000000000E+00 0.  1.
         14    1    4    4    0    0 -0.46036711465E+02 -0.36484063437E+02 -0.16905603669E+03  0.17897041440E+03  0.00000000000E+00 0. -1.
         -5    1    5    5    0  502 -0.35772456047E+02  0.86515831171E+02  0.22043817941E+03  0.23954068255E+03  0.47000000000E+01 0.  1.
         11    1    6    6    0    0  0.27702603083E+02  0.41839409838E+02  0.31047275622E+01  0.50275339545E+02  0.00000000000E+00 0. -1.
        -12    1    6    6    0    0 -0.45756379052E+00 -0.17564359438E+02  0.46957119894E+02  0.50136685130E+02  0.00000000000E+00 0.  1.
</event>
<event>
12    1  0.9246030E-003  0.2803870E+03  0.7818608E-02  0.1095514E+00
         21   -1    0    0  501  502  0.00000000000E+00  0.00000000000E+00  0.51183019338E+03  0.51183019338E+03  0.00000000000E+00 0. -1.
         21   -1    0    0  502  503 -0.00000000000E+00 -0.00000000000E+00 -0.16544375646E+03  0.16544375646E+03  0.00000000000E+00 0.  1.
          6    2    1    2  501    0  0.14617855212E+03  0.16653362179E+03  0.26427730402E+03  0.38511167109E+03  0.17136770263E+03 0.  0.
         24    2    3    3    0    0  0.77768339625E+01  0.23812538855E+02  0.40843242645E+02  0.85997624470E+02  0.71413617689E+02 0.  0.
         -6    2    1    2    0  503 -0.14617855212E+03 -0.16653362179E+03  0.82109132894E+02  0.29216227875E+03  0.17180009062E+03 0.  0.
        -24    2    5    5    0    0 -0.94473995288E+02 -0.16034157031E+03  0.11259052058E+03  0.23164031833E+03  0.79660886228E+02 0.  0.
          5    1    3    3  501    0  0.13840171816E+03  0.14272108293E+03  0.22343406138E+03  0.29911404662E+03  0.47000000000E+01 0. -1.
        -13    1    4    4    0    0  0.23206409825E+02  0.37177153754E+02  0.47401802079E+02  0.64557021760E+02  0.00000000000E+00 0.  1.
         14    1    4    4    0    0 -0.15429575862E+02 -0.13364614899E+02 -0.65585594343E+01  0.21440602709E+02  0.00000000000E+00 0. -1.
         -5    1    5    5    0  503 -0.51704556830E+02 -0.61920514770E+01 -0.30481387686E+02  0.60521960425E+02  0.47000000000E+01 0.  1.
         11    1    6    6    0    0 -0.17098241868E+02 -0.26814605545E+02  0.61223140523E+02  0.68990186845E+02  0.00000000000E+00 0. -1.
        -12    1    6    6    0    0 -0.77375753420E+02 -0.13352696477E+03  0.51367380057E+02  0.16265013148E+03  0.00000000000E+00 0.  1.
</event>
<event>
12    1  0.9246030E-003  0.2020575E+03  0.7818608E-02  0.1148477E+00
         21   -1    0    0  501  502  0.00000000000E+00  0.00000000000E+00  0.55493095092E+03  0.55493095092E+03  0.00000000000E+00 0. -1.
         21   -1    0    0  502  503 -0.00000000000E+00 -0.00000000000E+00 -0.93530977265E+02  0.93530977265E+02  0.00000000000E+00 0.  1.
          6    2    1    2  501    0 -0.10001718925E+03  0.25768058921E+02  0.38246881253E+03  0.43153479459E+03  0.17109195006E+03 0.  0.
         24    2    3    3    0    0  0.76305007271E+01 -0.62954832074E+01  0.11103091831E+03  0.13773772805E+03  0.80907102628E+02 0.  0.
         -6    2    1    2    0  503  0.10001718925E+03 -0.25768058921E+02  0.78931161131E+02  0.21692713360E+03  0.17366583455E+03 0.  0.
        -24    2    5    5    0    0 -0.41352014263E+01 -0.51087930365E+01 -0.69895480281E+01  0.80256053948E+02  0.79680491694E+02 0.  0.
          5    1    3    3  501    0 -0.10764768998E+03  0.32063542129E+02  0.27143789422E+03  0.29379706654E+03  0.47000000000E+01 0. -1.
        -13    1    4    4    0    0  0.16667203699E+02  0.35247688963E+02  0.53896506756E+02  0.66520889177E+02  0.00000000000E+00 0.  1.
         14    1    4    4    0    0 -0.90367029717E+01 -0.41543172170E+02  0.57134411556E+02  0.71216838868E+02  0.00000000000E+00 0. -1.
         -5    1    5    5    0  503  0.10415239068E+03 -0.20659265885E+02  0.85920709159E+02  0.13667107965E+03  0.47000000000E+01 0.  1.
         13    1    6    6    0    0  0.57176584109E+00  0.23158926850E+02  0.27145542267E+02  0.35686738069E+02  0.00000000000E+00 0. -1.
        -14    1    6    6    0    0 -0.47069672674E+01 -0.28267719887E+02 -0.34135090296E+02  0.44569315879E+02  0.00000000000E+00 0.  1.
</event>
<event>
12    1  0.9246030E-003  0.2222258E+03  0.7818608E-02  0.1132517E+00
         21   -1    0    0  503  502  0.00000000000E+00  0.00000000000E+00  0.66398204939E+02  0.66398204939E+02  0.00000000000E+00 0.  1.
         21   -1    0    0  501  503 -0.00000000000E+00 -0.00000000000E+00 -0.74096698740E+03  0.74096698740E+03  0.00000000000E+00 0. -1.
          6    2    1    2  501    0 -0.11478588454E+03  0.79480599534E+02 -0.36100377734E+03  0.42391984038E+03  0.17289111839E+03 0.  0.
         24    2    3    3    0    0 -0.11779370764E+03  0.11750965239E+03 -0.29714385360E+03  0.34938504500E+03  0.78048471945E+02 0.  0.
         -6    2    1    2    0  502  0.11478588454E+03 -0.79480599534E+02 -0.31356500512E+03  0.38344535197E+03  0.17092208902E+03 0.  0.
        -24    2    5    5    0    0  0.40401509383E+01  0.67534856807E+00 -0.10551717088E+03  0.13445622598E+03  0.83233553563E+02 0.  0.
          5    1    3    3  501    0  0.30078231009E+01 -0.38029052858E+02 -0.63859923747E+02  0.74534795378E+02  0.47000000000E+01 0. -1.
        -11    1    4    4    0    0 -0.29521148521E+02  0.15648076077E+02 -0.14850870445E+02  0.36563764137E+02  0.00000000000E+00 0.  1.
         12    1    4    4    0    0 -0.88272559122E+02  0.10186157632E+03 -0.28229298315E+03  0.31282128086E+03  0.00000000000E+00 0. -1.
         -5    1    5    5    0  502  0.11074573360E+03 -0.80155948102E+02 -0.20804783424E+03  0.24898912598E+03  0.47000000000E+01 0.  1.
         11    1    6    6    0    0 -0.23352540052E+00  0.85850060934E+01 -0.11841951651E+03  0.11873053000E+03  0.00000000000E+00 0. -1.
        -12    1    6    6    0    0  0.42736763388E+01 -0.79096575254E+01  0.12902345624E+02  0.15725695985E+02  0.00000000000E+00 0.  1.
</event>
<event>
12    1  0.9246030E-003  0.2396386E+03  0.7818608E-02  0.1120071E+00
         21   -1    0    0  503  502  0.00000000000E+00  0.00000000000E+00  0.11699513921E+03  0.11699513921E+03  0.00000000000E+00 0. -1.
         21   -1    0    0  501  503 -0.00000000000E+00 -0.00000000000E+00 -0.50285900719E+03  0.50285900719E+03  0.00000000000E+00 0. -1.
          6    2    1    2  501    0 -0.18501878178E+02 -0.16537681998E+03 -0.24181716133E+03  0.34044412591E+03  0.17243796355E+03 0.  0.
         24    2    3    3    0    0 -0.40713968772E+02 -0.10331011195E+03 -0.23774594507E+03  0.27422994302E+03  0.79676350115E+02 0.  0.
         -6    2    1    2    0  502  0.18501878178E+02  0.16537681998E+03 -0.14404670666E+03  0.27941002049E+03  0.17212987472E+03 0.  0.
        -24    2    5    5    0    0 -0.79627849989E+01  0.94992190786E+02 -0.15941836300E+03  0.20251559779E+03  0.80693436120E+02 0.  0.
          5    1    3    3  501    0  0.22212090594E+02 -0.62066708028E+02 -0.40712162569E+01  0.66214182890E+02  0.47000000000E+01 0. -1.
        -13    1    4    4    0    0  0.22616869937E+02 -0.35566267758E+02 -0.95974115093E+02  0.10482133836E+03  0.00000000000E+00 0.  1.
         14    1    4    4    0    0 -0.63330838709E+02 -0.67743844194E+02 -0.14177182998E+03  0.16940860466E+03  0.00000000000E+00 0. -1.
         -5    1    5    5    0  502  0.26464663177E+02  0.70384629194E+02  0.15371656340E+02  0.76894422701E+02  0.47000000000E+01 0.  1.
         13    1    6    6    0    0  0.32991134681E+02  0.17752826122E+02 -0.47087071571E+02  0.60172835333E+02  0.00000000000E+00 0. -1.
        -14    1    6    6    0    0 -0.40953919680E+02  0.77239364663E+02 -0.11233129143E+03  0.14234276246E+03  0.00000000000E+00 0.  1.
</event>
<event>
12    1  0.9246030E-003  0.1963099E+03  0.7818608E-02  0.1153199E+00
         21   -1    0    0  503  502  0.00000000000E+00  0.00000000000E+00  0.10403631409E+03  0.10403631409E+03  0.00000000000E+00 0.  1.
         21   -1    0    0  501  503 -0.00000000000E+00 -0.00000000000E+00 -0.36801498569E+03  0.36801498569E+03  0.00000000000E+00 0.  1.
          6    2    1    2  501    0 -0.94544871545E+02 -0.59871250018E+01 -0.12514385101E+03  0.23160858304E+03  0.17031433847E+03 0.  0.
         24    2    3    3    0    0 -0.96439240323E+02 -0.15468454926E+02 -0.22005639755E+02  0.12791159720E+03  0.79607338520E+02 0.  0.
         -6    2    1    2    0  502  0.94544871545E+02  0.59871250018E+01 -0.13883482059E+03  0.24044271674E+03  0.17193898402E+03 0.  0.
        -24    2    5    5    0    0  0.36016608213E+02  0.52526944063E+02 -0.29543069124E+02  0.10793502147E+03  0.81981095429E+02 0.  0.
          5    1    3    3  501    0  0.18943687773E+01  0.94813299238E+01 -0.10313821126E+03  0.10369698584E+03  0.47000000000E+01 0. -1.
        -11    1    4    4    0    0 -0.96399897120E+02 -0.37711696273E+02 -0.21146573123E+02  0.10565173806E+03  0.00000000000E+00 0.  1.
         12    1    4    4    0    0 -0.39343202227E-01  0.22243241347E+02 -0.85906663250E+00  0.22259859142E+02  0.00000000000E+00 0. -1.
         -5    1    5    5    0  502  0.58528263332E+02 -0.46539819061E+02 -0.10929175146E+03  0.13250769527E+03  0.47000000000E+01 0.  1.
         11    1    6    6    0    0  0.15239473889E+02  0.70940434360E+02 -0.33452074617E+02  0.79898861617E+02  0.00000000000E+00 0. -1.
        -12    1    6    6    0    0  0.20777134324E+02 -0.18413490297E+02  0.39090054921E+01  0.28036159858E+02  0.00000000000E+00 0.  1.
</event>
<event>
12    1  0.9246030E-003  0.2383744E+03  0.7818608E-02  0.1121085E+00
         21   -1    0    0  503  502  0.00000000000E+00  0.00000000000E+00  0.30286881033E+03  0.30286881033E+03  0.00000000000E+00 0.  1.
         21   -1    0    0  501  503 -0.00000000000E+00 -0.00000000000E+00 -0.25238356811E+03  0.25238356811E+03  0.00000000000E+00 0. -1.
          6    2    1    2  501    0  0.45898910519E+02 -0.15743270603E+03 -0.11638416723E+03  0.26526895765E+03  0.17300456237E+03 0.  0.
         24    2    3    3    0    0 -0.14966843798E+02 -0.14707392647E+02 -0.32989155959E+02  0.89053257352E+02  0.80011776773E+02 0.  0.
         -6    2    1    2    0  502 -0.45898910519E+02  0.15743270603E+03  0.16686940945E+03  0.28998342079E+03  0.17132780746E+03 0.  0.
        -24    2    5    5    0    0 -0.80114331499E+02  0.15202327392E+03  0.98798346874E+02  0.21346076696E+03  0.79214921337E+02 0.  0.
          5    1    3    3  501    0  0.60865754318E+02 -0.14272531338E+03 -0.83395011273E+02  0.17621570030E+03  0.47000000000E+01 0. -1.
        -13    1    4    4    0    0  0.19907260855E+02  0.19225401325E+02  0.39585597200E+01  0.27956846852E+02  0.00000000000E+00 0.  1.
         14    1    4    4    0    0 -0.34874104653E+02 -0.33932793972E+02 -0.36947715679E+02  0.61096410500E+02  0.00000000000E+00 0. -1.
         -5    1    5    5    0  502  0.34215420979E+02  0.54094321110E+01  0.68071062577E+02  0.76522653828E+02  0.47000000000E+01 0.  1.
         13    1    6    6    0    0 -0.39347499518E+02  0.92115331517E+01  0.26090435948E+02  0.48101859727E+02  0.00000000000E+00 0. -1.
        -14    1    6    6    0    0 -0.40766831981E+02  0.14281174076E+03  0.72707910926E+02  0.16535890723E+03  0.00000000000E+00 0.  1.
</event>
<event>
12    1  0.9246030E-003  0.1898214E+03  0.7818608E-02  0.1158785E+00
         21   -1    0    0  501  502  0.00000000000E+00  0.00000000000E+00  0.58771614194E+03  0.58771614194E+03  0.00000000000E+00 0. -1.
         21   -1    0    0  502  503 -0.00000000000E+00 -0.00000000000E+00 -0.90743838079E+02  0.90743838079E+02  0.00000000000E+00 0.  1.
          6    2    1    2  501    0 -0.71047427762E+02  0.35648629537E+02  0.44213197551E+03  0.48087547781E+03  0.17158665335E+03 0.  0.
         24    2    3    3    0    0 -0.36076505032E+02  0.43714770942E+02  0.43229302602E+03  0.44336650554E+03  0.80523924837E+02 0.  0.
         -6    2    1    2    0  503  0.71047427762E+02 -0.35648629537E+02  0.54840328347E+02  0.19758450221E+03  0.17237636764E+03 0.  0.
        -24    2    5    5    0    0  0.95164062538E+02 -0.72480061082E+02  0.51123928893E+02  0.15315401664E+03  0.80826596214E+02 0.  0.
          5    1    3    3  501    0 -0.34970922730E+02 -0.80661414051E+01  0.98389494877E+01  0.37508972271E+02  0.47000000000E+01 0. -1.
        -11    1    4    4    0    0 -0.46353533607E+02  0.39274783493E+02  0.16484822015E+03  0.17568749068E+03  0.00000000000E+00 0.  1.
         12    1    4    4    0    0  0.10277028575E+02  0.44399874496E+01  0.26744480587E+03  0.26767901485E+03  0.00000000000E+00 0. -1.
         -5    1    5    5    0  503 -0.24116634775E+02  0.36831431545E+02  0.37163994546E+01  0.44430485564E+02  0.47000000000E+01 0.  1.
         11    1    6    6    0    0  0.97005974595E+01 -0.53405094143E+02  0.33643671545E+02  0.63860021191E+02  0.00000000000E+00 0. -1.
        -12    1    6    6    0    0  0.85463465078E+02 -0.19074966939E+02  0.17480257348E+02  0.89293995452E+02  0.00000000000E+00 0.  1.
</event>
<event>
12    1  0.9246030E-003  0.1887556E+03  0.7818608E-02  0.1159595E+00
         21   -1    0    0  503  502  0.00000000000E+00  0.00000000000E+00  0.79996470724E+03  0.79996470724E+03  0.00000000000E+00 0. -1.
         21   -1    0    0  501  503 -0.00000000000E+00 -0.00000000000E+00 -0.59907000871E+02  0.59907000871E+02  0.00000000000E+00 0. -1.
          6    2    1    2  501    0  0.53708038252E+02 -0.51255069439E+02  0.15219193922E+03  0.24244573161E+03  0.17351054981E+03 0.  0.
         24    2    3    3    0    0 -0.11136111471E+02 -0.52584417963E+01  0.14014806571E+03  0.16190010232E+03  0.80115532958E+02 0.  0.
         -6    2    1    2    0  502 -0.53708038252E+02  0.51255069439E+02  0.58786576715E+03  0.61742597651E+03  0.17354261943E+03 0.  0.
        -24    2    5    5    0    0 -0.35877739761E+02 -0.35193044781E+02  0.37375759240E+03  0.38578919943E+03  0.81319160790E+02 0.  0.
          5    1    3    3  501    0  0.64844149723E+02 -0.45996627643E+02  0.12043873508E+02  0.80545629285E+02  0.47000000000E+01 0. -1.
        -13    1    4    4    0    0 -0.75029921714E+01 -0.41984647157E+02  0.59479372428E+02  0.73190171696E+02  0.00000000000E+00 0.  1.
         14    1    4    4    0    0 -0.36331193000E+01  0.36726205361E+02  0.80668693280E+02  0.88709930625E+02  0.00000000000E+00 0. -1.
         -5    1    5    5    0  502 -0.17830298490E+02  0.86448114220E+02  0.21410817476E+03  0.23163677707E+03  0.47000000000E+01 0.  1.
         11    1    6    6    0    0 -0.35798684084E+01  0.31982382514E+01  0.27478535520E+03  0.27482728325E+03  0.00000000000E+00 0. -1.
        -12    1    6    6    0    0 -0.32297871353E+02 -0.38391283032E+02  0.98972237194E+02  0.11096191618E+03  0.00000000000E+00 0.  1.
</event>
<event>
12    1  0.9246030E-003  0.1927578E+03  0.7818608E-02  0.1157400E+00
         21   -1    0    0  501  502  0.00000000000E+00  0.00000000000E+00  0.12433613718E+03  0.12433613718E+03  0.00000000000E+00 0.  1.
         21   -1    0    0  502  503 -0.00000000000E+00 -0.00000000000E+00 -0.40865981992E+03  0.40865981992E+03  0.00000000000E+00 0.  1.
          6    2    1    2  501    0  0.28427727161E+02  0.83429885128E+02  0.22703074676E+00  0.19275792395E+03  0.17142603157E+03 0.  0.
         24    2    3    3    0    0  0.72652594627E+02  0.56070805308E+02  0.39177642689E+02  0.12761501704E+03  0.79551053875E+02 0.  0.
         -6    2    1    2    0  503 -0.28427727161E+02 -0.83429885128E+02 -0.28455071348E+03  0.34023803315E+03  0.16439017383E+03 0.  0.
        -24    2    5    5    0    0 -0.70661619651E+02 -0.88853619272E+02 -0.24729680360E+03  0.28346601215E+03  0.79430729715E+02 0.  0.
          5    1    3    3  501    0 -0.44224867466E+02  0.27359079820E+02 -0.38950611942E+02  0.65142906917E+02  0.47000000000E+01 0. -1.
        -13    1    4    4    0    0  0.68762964649E+02  0.17381077130E+02 -0.20334850601E+01  0.70954789909E+02  0.00000000000E+00 0.  1.
         14    1    4    4    0    0  0.38896299785E+01  0.38689728178E+02  0.41211127749E+02  0.56660227128E+02  0.00000000000E+00 0. -1.
         -5    1    5    5    0  503  0.42233892490E+02  0.54237341441E+01 -0.37253909883E+02  0.56772021001E+02  0.47000000000E+01 0.  1.
         11    1    6    6    0    0 -0.29180138932E+02  0.94427879811E+01 -0.71910573148E+02  0.78177856733E+02  0.00000000000E+00 0. -1.
        -12    1    6    6    0    0 -0.41481480719E+02 -0.98296407253E+02 -0.17538623045E+03  0.20528815541E+03  0.00000000000E+00 0.  1.
</event>
<event>
12    1  0.9246030E-003  0.3767288E+03  0.7818608E-02  0.1052233E+00
         21   -1    0    0  503  502  0.00000000000E+00  0.00000000000E+00  0.26469336881E+03  0.26469336881E+03  0.00000000000E+00 0. -1.
         21   -1    0    0  501  503 -0.00000000000E+00 -0.00000000000E+00 -0.73968339361E+03  0.73968339361E+03  0.00000000000E+00 0.  1.
          6    2    1    2  501    0  0.18742729087E+03 -0.27823912121E+03 -0.50151962209E+03  0.62671504231E+03  0.16942200264E+03 0.  0.
         24    2    3    3    0    0  0.19055651038E+03 -0.23832185954E+03 -0.35493408047E+03  0.47468678571E+03  0.78995257196E+02 0.  0.
         -6    2    1    2    0  502 -0.18742729087E+03  0.27823912121E+03  0.26529597294E+02  0.37766172010E+03  0.17140174259E+03 0.  0.
        -24    2    5    5    0    0 -0.95406731289E+02  0.10660144741E+03 -0.45775962731E+02  0.16986985678E+03  0.79334837949E+02 0.  0.
          5    1    3    3  501    0 -0.31292195057E+01 -0.39917261669E+02 -0.14658554162E+03  0.15202825661E+03  0.47000000000E+01 0. -1.
        -11    1    4    4    0    0  0.18681446200E+02 -0.29877233174E+02 -0.10166352587E+02  0.36674244630E+02  0.00000000000E+00 0.  1.
         12    1    4    4    0    0  0.17187506418E+03 -0.20844462637E+03 -0.34476772789E+03  0.43801254108E+03  0.00000000000E+00 0. -1.
         -5    1    5    5    0  502 -0.92020559586E+02  0.17163767380E+03  0.72305560026E+02  0.20779186333E+03  0.47000000000E+01 0.  1.
         13    1    6    6    0    0  0.18063972924E+01  0.45378820008E+02 -0.28698190616E+02  0.53722309343E+02  0.00000000000E+00 0. -1.
        -14    1    6    6    0    0 -0.97213128581E+02  0.61222627400E+02 -0.17077772116E+02  0.11614754743E+03  0.00000000000E+00 0.  1.
</event>
<event>
12    1  0.9246030E-003  0.1775381E+03  0.7818608E-02  0.1170426E+00
         21   -1    0    0  503  502  0.00000000000E+00  0.00000000000E+00  0.10882330461E+02  0.10882330461E+02  0.00000000000E+00 0. -1.
         21   -1    0    0  501  503 -0.00000000000E+00 -0.00000000000E+00 -0.30344109422E+04  0.30344109422E+04  0.00000000000E+00 0. -1.
          6    2    1    2  501    0  0.32602303088E+02  0.27180011747E+02 -0.11669031858E+04  0.11801987042E+04  0.17147674207E+03 0.  0.
         24    2    3    3    0    0  0.12590527196E+02  0.81599031721E+02 -0.66248588930E+03  0.67243813074E+03  0.80427375963E+02 0.  0.
         -6    2    1    2    0  502 -0.32602303088E+02 -0.27180011747E+02 -0.18566254260E+04  0.18650945685E+04  0.17238942542E+03 0.  0.
        -24    2    5    5    0    0  0.84739430733E+01  0.29329342681E+02 -0.14495463015E+04  0.14520375886E+04  0.79351498387E+02 0.  0.
          5    1    3    3  501    0  0.20011775892E+02 -0.54419019974E+02 -0.50441729652E+03  0.50776057344E+03  0.47000000000E+01 0. -1.
        -11    1    4    4    0    0  0.41356199689E+02  0.54037869565E+02 -0.52187510380E+03  0.52629274227E+03  0.00000000000E+00 0.  1.
         12    1    4    4    0    0 -0.28765672493E+02  0.27561162156E+02 -0.14061078550E+03  0.14614538848E+03  0.00000000000E+00 0. -1.
         -5    1    5    5    0  502 -0.41076246161E+02 -0.56509354428E+02 -0.40707912444E+03  0.41305697996E+03  0.47000000000E+01 0.  1.
         13    1    6    6    0    0 -0.33614191184E+02  0.44294748751E+01 -0.76230857862E+03  0.76306218824E+03  0.00000000000E+00 0. -1.
        -14    1    6    6    0    0  0.42088134257E+02  0.24899867805E+02 -0.68723772291E+03  0.68897540032E+03  0.00000000000E+00 0.  1.
</event>
<event>
12    1  0.9246030E-003  0.1741593E+03  0.7818608E-02  0.1173587E+00
         21   -1    0    0  503  502  0.00000000000E+00  0.00000000000E+00  0.15069846789E+03  0.15069846789E+03  0.00000000000E+00 0.  1.
         21   -1    0    0  501  503 -0.00000000000E+00 -0.00000000000E+00 -0.22386182090E+03  0.22386182090E+03  0.00000000000E+00 0.  1.
          6    2    1    2  501    0 -0.47117648140E+00 -0.27723867296E+02 -0.96123490459E+02  0.19889400100E+03  0.17190190049E+03 0.  0.
         24    2    3    3    0    0 -0.65982770793E+02 -0.17473860567E+02 -0.41322647696E+02  0.11274265746E+03  0.79651012253E+02 0.  0.
         -6    2    1    2    0  502  0.47117648140E+00  0.27723867296E+02  0.22960137456E+02  0.17566628779E+03  0.17193790137E+03 0.  0.
        -24    2    5    5    0    0  0.22992747365E+02  0.43635837505E+02 -0.44471529183E+02  0.10266264667E+03  0.78288884059E+02 0.  0.
          5    1    3    3  501    0  0.65511594312E+02 -0.10250006729E+02 -0.54800842763E+02  0.86151343546E+02  0.47000000000E+01 0. -1.
        -11    1    4    4    0    0 -0.21394020484E+02 -0.11193919904E+02 -0.59477480182E+02  0.64191733145E+02  0.00000000000E+00 0.  1.
         12    1    4    4    0    0 -0.44588750309E+02 -0.62799406623E+01  0.18154832486E+02  0.48550924311E+02  0.00000000000E+00 0. -1.
         -5    1    5    5    0  502 -0.22521570883E+02 -0.15911970209E+02  0.67431666639E+02  0.73003641120E+02  0.47000000000E+01 0.  1.
         11    1    6    6    0    0  0.44032413498E+02  0.39810018340E+01 -0.82368578642E+01  0.44972743318E+02  0.00000000000E+00 0. -1.
        -12    1    6    6    0    0 -0.21039666134E+02  0.39654835671E+02 -0.36234671319E+02  0.57689903351E+02  0.00000000000E+00 0.  1.
</event>
<event>
12    1  0.9246030E-003  0.2283983E+03  0.7818608E-02  0.1127867E+00
         21   -1    0    0  501  502  0.00000000000E+00  0.00000000000E+00  0.15215627618E+03  0.15215627618E+03  0.00000000000E+00 0.  1.
         21   -1    0    0  502  503 -0.00000000000E+00 -0.00000000000E+00 -0.34245551572E+03  0.34245551572E+03  0.00000000000E+00 0. -1.
          6    2    1    2  501    0  0.52973965792E+00 -0.15064797912E+03 -0.10364941481E+03  0.25032924323E+03  0.17095740577E+03 0.  0.
         24    2    3    3    0    0  0.58778211097E+02 -0.63656598938E+02 -0.28023723195E+02  0.12109410914E+03  0.79821134536E+02 0.  0.
         -6    2    1    2    0  503 -0.52973965792E+00  0.15064797912E+03 -0.86649824729E+02  0.24428254867E+03  0.17167025725E+03 0.  0.
        -24    2    5    5    0    0 -0.49246677509E+02  0.14569253728E+03 -0.89283740612E+02  0.19501872878E+03  0.80057276836E+02 0.  0.
          5    1    3    3  501    0 -0.58248471439E+02 -0.86991380185E+02 -0.75625691613E+02  0.12923513409E+03  0.47000000000E+01 0. -1.
        -13    1    4    4    0    0  0.56574199390E+02 -0.81016150824E+02 -0.16606459104E+02  0.10019995616E+03  0.00000000000E+00 0.  1.
         14    1    4    4    0    0  0.22040117065E+01  0.17359551886E+02 -0.11417264091E+02  0.20894152977E+02  0.00000000000E+00 0. -1.
         -5    1    5    5    0  503  0.48716937851E+02  0.49554418461E+01  0.26339158831E+01  0.49263819892E+02  0.47000000000E+01 0.  1.
         11    1    6    6    0    0 -0.10224250186E+02 -0.61816151915E+01  0.39549552041E+01  0.12585282234E+02  0.00000000000E+00 0. -1.
        -12    1    6    6    0    0 -0.39022427324E+02  0.15187415247E+03 -0.93238695816E+02  0.18243344655E+03  0.00000000000E+00 0.  1.
</event>
<event>
12    1  0.9246030E-003  0.2959321E+03  0.7818608E-02  0.1087355E+00
         21   -1    0    0  503  502  0.00000000000E+00  0.00000000000E+00  0.40419376937E+03  0.40419376937E+03  0.00000000000E+00 0.  1.
         21   -1    0    0  501  503 -0.00000000000E+00 -0.00000000000E+00 -0.23654084630E+03  0.23654084630E+03  0.00000000000E+00 0.  1.
          6    2    1    2  501    0  0.15157269571E+03 -0.18619870475E+03 -0.98077890207E+01  0.29609455153E+03  0.17300737264E+03 0.  0.
         24    2    3    3    0    0  0.11088374519E+03 -0.18439339643E+03  0.38881078507E+02  0.23244279858E+03  0.78878303420E+02 0.  0.
         -6    2    1    2    0  502 -0.15157269571E+03  0.18619870475E+03  0.17746071209E+03  0.34464006414E+03  0.17216338095E+03 0.  0.
        -24    2    5    5    0    0 -0.43959938891E+02  0.11043135364E+03  0.15696163604E+03  0.21136028681E+03  0.76867779732E+02 0.  0.
          5    1    3    3  501    0  0.40688950526E+02 -0.18053083137E+01 -0.48688867528E+02  0.63651752954E+02  0.47000000000E+01 0. -1.
        -11    1    4    4    0    0  0.62027179810E+02 -0.98132588416E+02  0.60598287043E+02  0.13095620771E+03  0.00000000000E+00 0.  1.
         12    1    4    4    0    0  0.48856565377E+02 -0.86260808017E+02 -0.21717208536E+02  0.10148659087E+03  0.00000000000E+00 0. -1.
         -5    1    5    5    0  502 -0.10761275682E+03  0.75767351112E+02  0.20499076053E+02  0.13327977733E+03  0.47000000000E+01 0.  1.
         11    1    6    6    0    0 -0.23100012253E+02  0.50391219070E+01  0.67605601126E+02  0.71620671731E+02  0.00000000000E+00 0. -1.
        -12    1    6    6    0    0 -0.20859926638E+02  0.10539223173E+03  0.89356034915E+02  0.13973961508E+03  0.00000000000E+00 0.  1.
</event>
<event>
12    1  0.9246030E-003  0.2394828E+03  0.7818608E-02  0.1120536E+00
         21   -1    0    0  501  502  0.00000000000E+00  0.00000000000E+00  0.63475578252E+03  0.63475578252E+03  0.00000000000E+00 0.  1.
         21   -1    0    0  502  503 -0.00000000000E+00 -0.00000000000E+00 -0.12436108168E+03  0.12436108168E+03  0.00000000000E+00 0.  1.
          6    2    1    2  501    0 -0.72690220279E+02  0.14683504767E+03  0.53213058441E+02  0.24300924677E+03  0.17139855623E+03 0.  0.
         24    2    3    3    0    0  0.31224653629E+02  0.50940170473E+02  0.31577368497E+02  0.99885798056E+02  0.73553806769E+02 0.  0.
         -6    2    1    2    0  503  0.72690220279E+02 -0.14683504767E+03  0.45718164240E+03  0.51610761743E+03  0.17466430453E+03 0.  0.
        -24    2    5    5    0    0  0.16430999104E+02 -0.16161552835E+03  0.35058148953E+03  0.39457883414E+03  0.79971987695E+02 0.  0.
          5    1    3    3  501    0 -0.10391487391E+03  0.95894877198E+02  0.21635689944E+02  0.14312344871E+03  0.47000000000E+01 0. -1.
        -13    1    4    4    0    0 -0.31177397531E+01  0.59327018354E+02  0.19442279846E+02  0.62509340531E+02  0.00000000000E+00 0.  1.
         14    1    4    4    0    0  0.34342393382E+02 -0.83868478818E+01  0.12135088651E+02  0.37376457526E+02  0.00000000000E+00 0. -1.
         -5    1    5    5    0  503  0.56259221175E+02  0.14780480680E+02  0.10660015287E+03  0.12152878329E+03  0.47000000000E+01 0.  1.
         13    1    6    6    0    0 -0.16417213654E+02 -0.13490538613E+02  0.14182500573E+02  0.25547267148E+02  0.00000000000E+00 0. -1.
        -14    1    6    6    0    0  0.32848212758E+02 -0.14812498974E+03  0.33639898896E+03  0.36903156699E+03  0.00000000000E+00 0.  1.
</event>
<event>
12    1  0.9246030E-003  0.2444941E+03  0.7818608E-02  0.1116872E+00
         21   -1    0    0  503  502  0.00000000000E+00  0.00000000000E+00  0.59234888546E+02  0.59234888546E+02  0.00000000000E+00 0.  1.
         21   -1    0    0  501  503 -0.00000000000E+00 -0.00000000000E+00 -0.10082371250E+04  0.10082371250E+04  0.00000000000E+00 0.  1.
          6    2    1    2  501    0 -0.14122782810E+02  0.17136043560E+03 -0.47682574385E+03  0.53575026036E+03  0.17349841380E+03 0.  0.
         24    2    3    3    0    0  0.47464654250E+02  0.11635386790E+03 -0.23207188171E+03  0.27739918541E+03  0.85450768326E+02 0.  0.
         -6    2    1    2    0  502  0.14122782810E+02 -0.17136043560E+03 -0.47217649262E+03  0.53172175321E+03  0.17382039801E+03 0.  0.
        -24    2    5    5    0    0  0.13760310376E+01 -0.95949629924E+02 -0.42180273717E+03  0.44002183755E+03  0.80581905459E+02 0.  0.
          5    1    3    3  501    0 -0.61587437060E+02  0.55006567708E+02 -0.24475386214E+03  0.25835107495E+03  0.47000000000E+01 0. -1.
        -13    1    4    4    0    0  0.56058593095E+02  0.72315313814E+02 -0.20623873946E+03  0.22562466205E+03  0.00000000000E+00 0.  1.
         14    1    4    4    0    0 -0.85939388455E+01  0.44038554082E+02 -0.25833142254E+02  0.51774523361E+02  0.00000000000E+00 0. -1.
         -5    1    5    5    0  502  0.12746751773E+02 -0.75410805680E+02 -0.50373755449E+02  0.91699915660E+02  0.47000000000E+01 0.  1.
         13    1    6    6    0    0 -0.86465737315E+01  0.12732565187E+02 -0.37901432095E+02  0.40907212180E+02  0.00000000000E+00 0. -1.
        -14    1    6    6    0    0  0.10022604769E+02 -0.10868219511E+03 -0.38390130508E+03  0.39911462537E+03  0.00000000000E+00 0.  1.
</event>
<event>
12    1  0.9246030E-003  0.2686363E+03  0.7818608E-02  0.1102301E+00
         21   -1    0    0  503  502  0.00000000000E+00  0.00000000000E+00  0.21205936151E+03  0.21205936151E+03  0.00000000000E+00 0.  1.
         21   -1    0    0  501  503 -0.00000000000E+00 -0.00000000000E+00 -0.33823757458E+03  0.33823757458E+03  0.00000000000E+00 0. -1.
          6    2    1    2  501    0 -0.62651507234E+02 -0.19684876294E+03 -0.65362867401E+02  0.27647384171E+03  0.17172895471E+03 0.  0.
         24    2    3    3    0    0 -0.75470964671E+02 -0.57488460464E+02 -0.57061323626E+02  0.13620040151E+03  0.79333253581E+02 0.  0.
         -6    2    1    2    0  502  0.62651507234E+02  0.19684876294E+03 -0.60815345669E+02  0.27382309439E+03  0.16913288836E+03 0.  0.
        -24    2    5    5    0    0  0.72810276780E+02  0.21550901465E+03 -0.41236877031E+02  0.24455174275E+03  0.79747119436E+02 0.  0.
          5    1    3    3  501    0  0.12819457436E+02 -0.13936030247E+03 -0.83015437744E+01  0.14027344019E+03  0.47000000000E+01 0. -1.
        -11    1    4    4    0    0 -0.35992363492E+00 -0.24141191724E+02 -0.47732974232E+02  0.53491714423E+02  0.00000000000E+00 0.  1.
         12    1    4    4    0    0 -0.75111041036E+02 -0.33347268741E+02 -0.93283493942E+01  0.82708687091E+02  0.00000000000E+00 0. -1.
         -5    1    5    5    0  502 -0.10158769546E+02 -0.18660251709E+02 -0.19578468638E+02  0.29271351638E+02  0.47000000000E+01 0.  1.
         13    1    6    6    0    0  0.64103163542E+02  0.13642240583E+03 -0.60937849193E+02  0.16258446990E+03  0.00000000000E+00 0. -1.
        -14    1    6    6    0    0  0.87071132386E+01  0.79086608817E+02  0.19700972162E+02  0.81967272855E+02  0.00000000000E+00 0.  1.
</event>
<event>
12    1  0.9246030E-003  0.1752280E+03  0.7818608E-02  0.1172521E+00
         21   -1    0    0  503  502  0.00000000000E+00  0.00000000000E+00  0.20346251994E+03  0.20346251994E+03  0.00000000000E+00 0. -1.
         21   -1    0    0  501  503 -0.00000000000E+00 -0.00000000000E+00 -0.15207069059E+03  0.15207069059E+03  0.00000000000E+00 0. -1.
          6    2    1    2  501    0 -0.57356147961E+01  0.33251601275E+02  0.97581773489E+01  0.17542714216E+03  0.17187464594E+03 0.  0.
         24    2    3    3    0    0  0.29411262973E+02  0.36981568487E+02  0.62949183513E+02  0.11139130213E+03  0.78821086566E+02 0.  0.
         -6    2    1    2    0  502  0.57356147961E+01 -0.33251601275E+02  0.41633652005E+02  0.18010606836E+03  0.17194844756E+03 0.  0.
        -24    2    5    5    0    0  0.49423525119E-01  0.42231861889E+02  0.53172326938E+02  0.10339024860E+03  0.77966111567E+02 0.  0.
          5    1    3    3  501    0 -0.35146877769E+02 -0.37299672117E+01 -0.53191006164E+02  0.64035840035E+02  0.47000000000E+01 0. -1.
        -11    1    4    4    0    0  0.40932308220E+02  0.56102517827E+02  0.45069807144E+02  0.82790300632E+02  0.00000000000E+00 0.  1.
         12    1    4    4    0    0 -0.11521045247E+02 -0.19120949340E+02  0.17879376369E+02  0.28601001496E+02  0.00000000000E+00 0. -1.
         -5    1    5    5    0  502  0.56861912710E+01 -0.75483463165E+02 -0.11538674934E+02  0.76715819762E+02  0.47000000000E+01 0.  1.
         13    1    6    6    0    0 -0.34932360139E+02  0.22621541754E+01  0.26806298062E+02  0.44090415536E+02  0.00000000000E+00 0. -1.
        -14    1    6    6    0    0  0.34981783664E+02  0.39969707714E+02  0.26366028877E+02  0.59299833067E+02  0.00000000000E+00 0.  1.
</event>
<event>
12    1  0.9246030E-003  0.1731387E+03  0.7818608E-02  0.1174808E+00
         21   -1    0    0  501  502  0.00000000000E+00  0.00000000000E+00  0.19826738659E+02  0.19826738659E+02  0.00000000000E+00 0.  1.
         21   -1    0    0  502  503 -0.00000000000E+00 -0.00000000000E+00 -0.16757519980E+04  0.16757519980E+04  0.00000000000E+00 0.  1.
          6    2    1    2  501    0  0.84863654585E+01  0.61645852954E+01 -0.55593425479E+03  0.58204506748E+03  0.17205680577E+03 0.  0.
         24    2    3    3    0    0  0.45182932527E+02 -0.10505227679E+02 -0.52519197817E+03  0.53113634258E+03  0.64244402647E+02 0.  0.
         -6    2    1    2    0  503 -0.84863654585E+01 -0.61645852954E+01 -0.10999910046E+04  0.11135336692E+04  0.17282072156E+03 0.  0.
        -24    2    5    5    0    0 -0.50086381293E+02 -0.45129189719E+02 -0.88370037540E+03  0.88980944615E+03  0.79304524545E+02 0.  0.
          5    1    3    3  501    0 -0.36696567068E+02  0.16669812975E+02 -0.30742276624E+02  0.50908724903E+02  0.47000000000E+01 0. -1.
        -11    1    4    4    0    0  0.16182190242E+01  0.23444109259E+02 -0.18570509862E+03  0.18718608000E+03  0.00000000000E+00 0.  1.
         12    1    4    4    0    0  0.43564713502E+02 -0.33949336938E+02 -0.33948687955E+03  0.34395026257E+03  0.00000000000E+00 0. -1.
         -5    1    5    5    0  503  0.41600015835E+02  0.38964604424E+02 -0.21629062918E+03  0.22372422307E+03  0.47000000000E+01 0.  1.
         11    1    6    6    0    0  0.21776353622E+02 -0.94743363927E+01 -0.18452611791E+03  0.18604800675E+03  0.00000000000E+00 0. -1.
        -12    1    6    6    0    0 -0.71862734915E+02 -0.35654853327E+02 -0.69917425750E+03  0.70376143940E+03  0.00000000000E+00 0.  1.
</event>
<event>
12    1  0.9246030E-003  0.1739430E+03  0.7818608E-02  0.1174292E+00
         21   -1    0    0  501  502  0.00000000000E+00  0.00000000000E+00  0.53819543330E+03  0.53819543330E+03  0.00000000000E+00 0. -1.
         21   -1    0    0  502  503 -0.00000000000E+00 -0.00000000000E+00 -0.61584675437E+02  0.61584675437E+02  0.00000000000E+00 0. -1.
          6    2    1    2  501    0 -0.74887250148E+01  0.55630851349E+01  0.33306266642E+03  0.37574847319E+03  0.17369267810E+03 0.  0.
         24    2    3    3    0    0 -0.52546177469E+02 -0.44316308201E+02  0.22824624534E+03  0.25114229345E+03  0.79063690213E+02 0.  0.
         -6    2    1    2    0  503  0.74887250148E+01 -0.55630851349E+01  0.14354809144E+03  0.22403163554E+03  0.17174716955E+03 0.  0.
        -24    2    5    5    0    0  0.28810892294E+01  0.42816847460E+02  0.23103258221E+02  0.94066655509E+02  0.80456149775E+02 0.  0.
          5    1    3    3  501    0  0.45057452455E+02  0.49879393336E+02  0.10481642108E+03  0.12460617974E+03  0.47000000000E+01 0. -1.
        -13    1    4    4    0    0 -0.60296747207E+02 -0.79609608202E+00  0.14034898972E+03  0.15275526311E+03  0.00000000000E+00 0.  1.
         14    1    4    4    0    0  0.77505697373E+01 -0.43520212119E+02  0.87897255620E+02  0.98387030343E+02  0.00000000000E+00 0. -1.
         -5    1    5    5    0  503  0.46076357854E+01 -0.48379932595E+02  0.12044483322E+03  0.12996498003E+03  0.47000000000E+01 0.  1.
         13    1    6    6    0    0  0.30544341770E+02 -0.86036685380E+01  0.15062022771E+02  0.35126122137E+02  0.00000000000E+00 0. -1.
        -14    1    6    6    0    0 -0.27663252540E+02  0.51420515998E+02  0.80412354503E+01  0.58940533372E+02  0.00000000000E+00 0.  1.
</event>
<event>
12    1  0.9246030E-003  0.1727776E+03  0.7818608E-02  0.1175259E+00
         21   -1    0    0  501  502  0.00000000000E+00  0.00000000000E+00  0.11735698711E+04  0.11735698711E+04  0.00000000000E+00 0. -1.
         21   -1    0    0  502  503 -0.00000000000E+00 -0.00000000000E+00 -0.25598187076E+02  0.25598187076E+02  0.00000000000E+00 0. -1.
          6    2    1    2  501    0  0.13229937234E+02  0.69450191608E+01  0.63925481709E+03  0.66191116873E+03  0.17104505131E+03 0.  0.
         24    2    3    3    0    0 -0.96285795291E+01 -0.38017940637E+02  0.18958769283E+03  0.20939952005E+03  0.79790929128E+02 0.  0.
         -6    2    1    2    0  503 -0.13229937234E+02 -0.69450191608E+01  0.50871686696E+03  0.53725688948E+03  0.17213032862E+03 0.  0.
        -24    2    5    5    0    0 -0.54203966510E+01 -0.67071168545E+02  0.26133385735E+03  0.28250880566E+03  0.83593767290E+02 0.  0.
          5    1    3    3  501    0  0.22858516763E+02  0.44962959798E+02  0.44966712427E+03  0.45251164868E+03  0.47000000000E+01 0. -1.
        -11    1    4    4    0    0 -0.35238631911E+02 -0.13846156270E+02  0.15672036124E+03  0.16122887102E+03  0.00000000000E+00 0.  1.
         12    1    4    4    0    0  0.25610052382E+02 -0.24171784367E+02  0.32867331588E+02  0.48170649032E+02  0.00000000000E+00 0. -1.
         -5    1    5    5    0  503 -0.78095405829E+01  0.60126149385E+02  0.24738300961E+03  0.25474808382E+03  0.47000000000E+01 0.  1.
         13    1    6    6    0    0  0.33449534877E+02 -0.56227245037E+01  0.68900224754E+02  0.76796662593E+02  0.00000000000E+00 0. -1.
        -14    1    6    6    0    0 -0.38869931528E+02 -0.61448444042E+02  0.19243363259E+03  0.20571214307E+03  0.00000000000E+00 0.  1.
</event>
<event>
12    1  0.9246030E-003  0.1831617E+03  0.7818608E-02  0.1165481E+00
         21   -1    0    0  501  502  0.00000000000E+00  0.00000000000E+00  0.23882414877E+03  0.23882414877E+03  0.00000000000E+00 0. -1.
         21   -1    0    0  502  503 -0.00000000000E+00 -0.00000000000E+00 -0.15441147371E+03  0.15441147371E+03  0.00000000000E+00 0.  1.
          6    2    1    2  501    0 -0.12866734939E+02 -0.59590877091E+02  0.10556270451E+03  0.20885682842E+03  0.16959087444E+03 0.  0.
         24    2    3    3    0    0  0.36281742105E+00  0.21217582420E+02  0.94993078877E+02  0.12615957834E+03  0.80263545474E+02 0.  0.
         -6    2    1    2    0  503  0.12866734939E+02  0.59590877091E+02 -0.21150029452E+02  0.18437879407E+03  0.17271824008E+03 0.  0.
        -24    2    5    5    0    0  0.49444660889E+02 -0.19636470437E+02 -0.11197351297E+02  0.96423901847E+02  0.79635561840E+02 0.  0.
          5    1    3    3  501    0 -0.13229552360E+02 -0.80808459512E+02  0.10569625633E+02  0.82697250077E+02  0.47000000000E+01 0. -1.
        -11    1    4    4    0    0  0.31576119440E+02  0.18581566755E+02  0.13829363626E+02  0.39160914701E+02  0.00000000000E+00 0.  1.
         12    1    4    4    0    0 -0.31213302019E+02  0.26360156658E+01  0.81163715252E+02  0.86998663639E+02  0.00000000000E+00 0. -1.
         -5    1    5    5    0  503 -0.36577925949E+02  0.79227347528E+02 -0.99526781554E+01  0.87954892221E+02  0.47000000000E+01 0.  1.
         11    1    6    6    0    0  0.31569342181E+02 -0.46455827517E+02 -0.24852616371E+02  0.61420027813E+02  0.00000000000E+00 0. -1.
        -12    1    6    6    0    0  0.17875318708E+02  0.26819357080E+02  0.13655265075E+02  0.35003874034E+02  0.00000000000E+00 0.  1.
</event>
<event>
12    1  0.9246030E-003  0.2260494E+03  0.7818608E-02  0.1129519E+00
         21   -1    0    0  501  502  0.00000000000E+00  0.00000000000E+00  0.33051894267E+03  0.33051894267E+03  0.00000000000E+00 0. -1.
         21   -1    0    0  502  503 -0.00000000000E+00 -0.00000000000E+00 -0.16940356941E+03  0.16940356941E+03  0.00000000000E+00 0. -1.
          6    2    1    2  501    0 -0.92496432601E+02  0.11436340652E+03  0.15514682621E+03  0.27416937979E+03  0.17165002865E+03 0.  0.
         24    2    3    3    0    0 -0.33382727530E+01  0.69901865626E+02  0.13627925308E+03  0.17266035851E+03  0.79637614842E+02 0.  0.
         -6    2    1    2    0  503  0.92496432601E+02 -0.11436340652E+03  0.59685470526E+01  0.22575313229E+03  0.17115570218E+03 0.  0.
        -24    2    5    5    0    0  0.10864019283E+03 -0.13717279912E+03  0.21247683520E+02  0.19355947769E+03  0.79967112188E+02 0.  0.
          5    1    3    3  501    0 -0.89158159848E+02  0.44461540894E+02  0.18867573135E+02  0.10150902128E+03  0.47000000000E+01 0. -1.
        -13    1    4    4    0    0  0.33104810682E+02  0.11656089660E+02  0.30347343223E+02  0.46397781813E+02  0.00000000000E+00 0.  1.
         14    1    4    4    0    0 -0.36443083435E+02  0.58245775966E+02  0.10593190986E+03  0.12626257670E+03  0.00000000000E+00 0. -1.
         -5    1    5    5    0  503 -0.16143760230E+02  0.22809392601E+02 -0.15279136468E+02  0.32193654598E+02  0.47000000000E+01 0.  1.
         11    1    6    6    0    0  0.36375273340E+02 -0.38247380105E+02  0.44289156818E+02  0.68902481864E+02  0.00000000000E+00 0. -1.
        -12    1    6    6    0    0  0.72264919491E+02 -0.98925419016E+02 -0.23041473298E+02  0.12465699583E+03  0.00000000000E+00 0.  1.
</event>
<event>
12    1  0.9246030E-003  0.3441884E+03  0.7818608E-02  0.1065085E+00
         21   -1    0    0  501  502  0.00000000000E+00  0.00000000000E+00  0.91520055387E+02  0.91520055387E+02  0.00000000000E+00 0. -1.
         21   -1    0    0  502  503 -0.00000000000E+00 -0.00000000000E+00 -0.13453416930E+04  0.13453416930E+04  0.00000000000E+00 0. -1.
          6    2    1    2  501    0  0.29703847378E+03 -0.23030526481E+02 -0.48378318036E+03  0.59340170077E+03  0.17122252428E+03 0.  0.
         24    2    3    3    0    0  0.15946500501E+03 -0.66767556081E+02 -0.34065320599E+03  0.39006044418E+03  0.78838753125E+02 0.  0.
         -6    2    1    2    0  503 -0.29703847378E+03  0.23030526481E+02 -0.77003845730E+03  0.84346004767E+03  0.17234664556E+03 0.  0.
        -24    2    5    5    0    0 -0.55828753332E+02  0.31081155956E+02 -0.19905668526E+03  0.22354939614E+03  0.79169947673E+02 0.  0.
          5    1    3    3  501    0  0.13757346877E+03  0.43737029600E+02 -0.14312997437E+03  0.20334125659E+03  0.47000000000E+01 0. -1.
        -11    1    4    4    0    0  0.95816898917E+02 -0.37101266807E+02 -0.11734791160E+03  0.15597408270E+03  0.00000000000E+00 0.  1.
         12    1    4    4    0    0  0.63648106090E+02 -0.29666289273E+02 -0.22330529439E+03  0.23408636148E+03  0.00000000000E+00 0. -1.
         -5    1    5    5    0  503 -0.24120972045E+03 -0.80506294747E+01 -0.57098177205E+03  0.61991065153E+03  0.47000000000E+01 0.  1.
         11    1    6    6    0    0 -0.70709390853E+02  0.11368526993E+02 -0.17492855634E+03  0.18902132468E+03  0.00000000000E+00 0. -1.
        -12    1    6    6    0    0  0.14880637521E+02  0.19712628962E+02 -0.24128128919E+02  0.34528071460E+02  0.00000000000E+00 0.  1.
</event>
<event>
12    1  0.9246030E-003  0.2762671E+03  0.7818608E-02  0.1098636E+00
         21   -1    0    0  501  502  0.00000000000E+00  0.00000000000E+00  0.99733352056E+02  0.99733352056E+02  0.00000000000E+00 0.  1.
         21   -1    0    0  502  503 -0.00000000000E+00 -0.00000000000E+00 -0.75054761536E+03  0.75054761536E+03  0.00000000000E+00 0. -1.
          6    2    1    2  501    0 -0.20018775404E+03 -0.67999335470E+02 -0.29614559423E+03  0.40071074021E+03  0.16783276749E+03 0.  0.
         24    2    3    3    0    0 -0.16526138399E+03 -0.99856380894E+01 -0.13652301243E+03  0.22725498496E+03  0.74801452242E+02 0.  0.
         -6    2    1    2    0  503  0.20018775404E+03  0.67999335470E+02 -0.35466866907E+03  0.44957022720E+03  0.17783272443E+03 0.  0.
        -24    2    5    5    0    0  0.11979267861E+03  0.44698029829E+02 -0.32954465447E+03  0.36205094300E+03  0.78313513000E+02 0.  0.
          5    1    3    3  501    0 -0.34926370044E+02 -0.58013697380E+02 -0.15962258180E+03  0.17345575525E+03  0.47000000000E+01 0. -1.
        -13    1    4    4    0    0 -0.15235731959E+03 -0.30093597447E+02 -0.12988900870E+03  0.20245871683E+03  0.00000000000E+00 0.  1.
         14    1    4    4    0    0 -0.12904064408E+02  0.20107959358E+02 -0.66340037370E+01  0.24796268134E+02  0.00000000000E+00 0. -1.
         -5    1    5    5    0  503  0.80395075427E+02  0.23301305640E+02 -0.25124014593E+02  0.87519284199E+02  0.47000000000E+01 0.  1.
         11    1    6    6    0    0  0.41351764941E+02  0.56647648176E+02 -0.14059380489E+03  0.15711633423E+03  0.00000000000E+00 0. -1.
        -12    1    6    6    0    0  0.78440913671E+02 -0.11949618347E+02 -0.18895084958E+03  0.20493460877E+03  0.00000000000E+00 0.  1.
</event>
<event>
12    1  0.9246030E-003  0.1762897E+03  0.7818608E-02  0.1171577E+00
         21   -1    0    0  503  502  0.00000000000E+00  0.00000000000E+00  0.17252266161E+02  0.17252266161E+02  0.00000000000E+00 0.  1.
         21   -1    0    0  501  503 -0.00000000000E+00 -0.00000000000E+00 -0.18006705672E+04  0.18006705672E+04  0.00000000000E+00 0.  1.
          6    2    1    2  501    0 -0.33265189441E+01 -0.36522875830E+02 -0.93720502945E+03  0.95354157048E+03  0.17188156740E+03 0.  0.
         24    2    3    3    0    0 -0.48313834722E+02 -0.58264319297E+02 -0.45778579420E+03  0.47150273172E+03  0.83773713753E+02 0.  0.
         -6    2    1    2    0  502  0.33265189441E+01  0.36522875830E+02 -0.84621327157E+03  0.86438126286E+03  0.17243282874E+03 0.  0.
        -24    2    5    5    0    0  0.40547439187E+02  0.40228657777E+02 -0.27994855257E+03  0.29686302377E+03  0.80585501578E+02 0.  0.
          5    1    3    3  501    0  0.44987315778E+02  0.21741443467E+02 -0.47941923525E+03  0.48203883876E+03  0.47000000000E+01 0. -1.
        -13    1    4    4    0    0 -0.38126713580E+02 -0.36741865682E+01 -0.70298752560E+02  0.80056608390E+02  0.00000000000E+00 0.  1.
         14    1    4    4    0    0 -0.10187121142E+02 -0.54590132729E+02 -0.38748704164E+03  0.39144612333E+03  0.00000000000E+00 0. -1.
         -5    1    5    5    0  502 -0.37220920242E+02 -0.37057819469E+01 -0.56626471900E+03  0.56751823910E+03  0.47000000000E+01 0.  1.
         11    1    6    6    0    0 -0.13371689897E+02  0.33653014544E+01 -0.56604083632E+01  0.14905286559E+02  0.00000000000E+00 0. -1.
        -12    1    6    6    0    0  0.53919129083E+02  0.36863356323E+02 -0.27428814420E+03  0.28195773721E+03  0.00000000000E+00 0.  1.
</event>
<event>
12    1  0.9246030E-003  0.2293601E+03  0.7818608E-02  0.1127186E+00
         21   -1    0    0  501  502  0.00000000000E+00  0.00000000000E+00  0.30651905224E+03  0.30651905224E+03  0.00000000000E+00 0. -1.
         21   -1    0    0  502  503 -0.00000000000E+00 -0.00000000000E+00 -0.21448976372E+03  0.21448976372E+03  0.00000000000E+00 0.  1.
          6    2    1    2  501    0  0.12371124836E+03  0.87272144692E+02  0.16297138460E+03  0.28092794081E+03  0.17158069681E+03 0.  0.
         24    2    3    3    0    0  0.12988252553E+03  0.12196735026E+03  0.14599807863E+03  0.24153219146E+03  0.72641968452E+02 0.  0.
         -6    2    1    2    0  503 -0.12371124836E+03 -0.87272144692E+02 -0.70942096090E+02  0.24008087515E+03  0.17229377645E+03 0.  0.
        -24    2    5    5    0    0 -0.37654287850E+02 -0.10942057546E+03 -0.42490945736E+02  0.14665758365E+03  0.79449724009E+02 0.  0.
          5    1    3    3  501    0 -0.61712771625E+01 -0.34695205568E+02  0.16973305978E+02  0.39395749353E+02  0.47000000000E+01 0. -1.
        -13    1    4    4    0    0  0.63087499184E+02  0.10580237502E+03  0.85218224147E+02  0.14978758574E+03  0.00000000000E+00 0.  1.
         14    1    4    4    0    0  0.66795026342E+02  0.16164975239E+02  0.60779854480E+02  0.91744605722E+02  0.00000000000E+00 0. -1.
         -5    1    5    5    0  503 -0.86056960514E+02  0.22148430767E+02 -0.28451150354E+02  0.93423291501E+02  0.47000000000E+01 0.  1.
         13    1    6    6    0    0 -0.28135033652E+02 -0.85611991593E+02  0.75474842755E+01  0.90432061472E+02  0.00000000000E+00 0. -1.
        -14    1    6    6    0    0 -0.95192541982E+01 -0.23808583867E+02 -0.50038430012E+02  0.56225522179E+02  0.00000000000E+00 0.  1.
</event>
<event>
12    1  0.9246030E-003  0.1861698E+03  0.7818608E-02  0.1162201E+00
         21   -1    0    0  501  502  0.00000000000E+00  0.00000000000E+00  0.19746896143E+03  0.19746896143E+03  0.00000000000E+00 0.  1.
         21   -1    0    0  502  503 -0.00000000000E+00 -0.00000000000E+00 -0.18285637218E+03  0.18285637218E+03  0.00000000000E+00 0. -1.
          6    2    1    2  501    0 -0.27606844440E+02 -0.63699905568E+02 -0.33206147571E+02  0.18910806269E+03  0.17274083278E+03 0.  0.
         24    2    3    3    0    0 -0.77335076052E+02 -0.47490491011E+02  0.90800282414E+01  0.12168512294E+03  0.80552849162E+02 0.  0.
         -6    2    1    2    0  503  0.27606844440E+02  0.63699905568E+02  0.47818736823E+02  0.19121727091E+03  0.17163215688E+03 0.  0.
        -24    2    5    5    0    0 -0.60296776508E+01  0.93727901241E+02 -0.26657656475E+01  0.12336543872E+03  0.79941532888E+02 0.  0.
          5    1    3    3  501    0  0.49728231611E+02 -0.16209414557E+02 -0.42286175812E+02  0.67422939748E+02  0.47000000000E+01 0. -1.
        -11    1    4    4    0    0 -0.34977106806E+01 -0.47253380742E+02  0.85160698633E+00  0.47390307089E+02  0.00000000000E+00 0.  1.
         12    1    4    4    0    0 -0.73837365371E+02 -0.23711026909E+00  0.82284212551E+01  0.74294815852E+02  0.00000000000E+00 0. -1.
         -5    1    5    5    0  503  0.33636522091E+02 -0.30027995673E+02  0.50484502470E+02  0.67851832195E+02  0.47000000000E+01 0.  1.
         13    1    6    6    0    0  0.29489080904E+02  0.52642208042E+02 -0.24106030026E+02  0.64976215985E+02  0.00000000000E+00 0. -1.
        -14    1    6    6    0    0 -0.35518758555E+02  0.41085693199E+02  0.21440264379E+02  0.58389222735E+02  0.00000000000E+00 0.  1.
</event>
<event>
12    1  0.9246030E-003  0.1860703E+03  0.7818608E-02  0.1162232E+00
         21   -1    0    0  503  502  0.00000000000E+00  0.00000000000E+00  0.79588229346E+02  0.79588229346E+02  0.00000000000E+00 0. -1.
         21   -1    0    0  501  503 -0.00000000000E+00 -0.00000000000E+00 -0.48521679861E+03  0.48521679861E+03  0.00000000000E+00 0. -1.
          6    2    1    2  501    0 -0.69877966816E+02  0.14435814354E+02 -0.29487923535E+03  0.34826961213E+03  0.17101647965E+03 0.  0.
         24    2    3    3    0    0 -0.45237660885E+02  0.31416719244E+02 -0.30184561067E+03  0.31718720244E+03  0.80395848745E+02 0.  0.
         -6    2    1    2    0  502  0.69877966816E+02 -0.14435814354E+02 -0.11074933392E+03  0.21653541583E+03  0.17184541996E+03 0.  0.
        -24    2    5    5    0    0  0.15794257471E+02 -0.33651700329E+02  0.53862042912E+01  0.86905746671E+02  0.78369012395E+02 0.  0.
          5    1    3    3  501    0 -0.24640305931E+02 -0.16980904890E+02  0.69663753256E+01  0.31082409695E+02  0.47000000000E+01 0. -1.
        -13    1    4    4    0    0  0.77178171046E+01 -0.96619162104E+01 -0.58153507226E+01  0.13665124578E+02  0.00000000000E+00 0.  1.
         14    1    4    4    0    0 -0.52955477990E+02  0.41078635454E+02 -0.29603025995E+03  0.30352207786E+03  0.00000000000E+00 0. -1.
         -5    1    5    5    0  502  0.54083709345E+02  0.19215885975E+02 -0.11613553821E+03  0.12962966915E+03  0.47000000000E+01 0.  1.
         11    1    6    6    0    0 -0.40554962678E+01 -0.53356733352E+02 -0.10800817881E+02  0.54589794933E+02  0.00000000000E+00 0. -1.
        -12    1    6    6    0    0  0.19849753739E+02  0.19705033023E+02  0.16187022173E+02  0.32315951738E+02  0.00000000000E+00 0.  1.
</event>
<event>
12    1  0.9246030E-003  0.2816885E+03  0.7818608E-02  0.1095549E+00
         21   -1    0    0  501  502  0.00000000000E+00  0.00000000000E+00  0.31631565836E+03  0.31631565836E+03  0.00000000000E+00 0. -1.
         21   -1    0    0  502  503 -0.00000000000E+00 -0.00000000000E+00 -0.28838989216E+03  0.28838989216E+03  0.00000000000E+00 0. -1.
          6    2    1    2  501    0 -0.10492430762E+03  0.18909288537E+03  0.13024931626E+03  0.31034382186E+03  0.18050809886E+03 0.  0.
         24    2    3    3    0    0 -0.22270256300E+02  0.15592807276E+02  0.12107771805E+02  0.84703657386E+02  0.79303287965E+02 0.  0.
         -6    2    1    2    0  503  0.10492430762E+03 -0.18909288537E+03 -0.10232355006E+03  0.29436172866E+03  0.17150361155E+03 0.  0.
        -24    2    5    5    0    0  0.11271666821E+03 -0.12185656240E+03 -0.12497881138E+03  0.22282995338E+03  0.80494818082E+02 0.  0.
          5    1    3    3  501    0 -0.82654051322E+02  0.17350007809E+03  0.11814154445E+03  0.22564016447E+03  0.47000000000E+01 0. -1.
        -13    1    4    4    0    0 -0.34249454584E+02  0.34319649519E+02 -0.13949027196E+02  0.50452342286E+02  0.00000000000E+00 0.  1.
         14    1    4    4    0    0  0.11979198284E+02 -0.18726842243E+02  0.26056799001E+02  0.34251315100E+02  0.00000000000E+00 0. -1.
         -5    1    5    5    0  503 -0.77923605838E+01 -0.67236322964E+02  0.22655261316E+02  0.71531775279E+02  0.47000000000E+01 0.  1.
         11    1    6    6    0    0  0.73701687118E+02 -0.24486732581E+02 -0.69231267619E+02  0.10404089183E+03  0.00000000000E+00 0. -1.
        -12    1    6    6    0    0  0.39014981087E+02 -0.97369829824E+02 -0.55747543761E+02  0.11878906155E+03  0.00000000000E+00 0.  1.
</event>
<event>
12    1  0.9246030E-003  0.2405218E+03  0.7818608E-02  0.1119453E+00
         21   -1    0    0  503  502  0.00000000000E+00  0.00000000000E+00  0.99933775240E+02  0.99933775240E+02  0.00000000000E+00 0.  1.
         21   -1    0    0  501  503 -0.00000000000E+00 -0.00000000000E+00 -0.57891656001E+03  0.57891656001E+03  0.00000000000E+00 0.  1.
          6    2    1    2  501    0  0.15538294785E+03  0.59673587856E+02 -0.23445017211E+03  0.33585334464E+03  0.17356782055E+03 0.  0.
         24    2    3    3    0    0  0.17014972926E+03  0.10656635397E+02 -0.14970442857E+03  0.23673396959E+03  0.67580042754E+02 0.  0.
         -6    2    1    2    0  502 -0.15538294785E+03 -0.59673587856E+02 -0.24453261266E+03  0.34299699062E+03  0.17362586025E+03 0.  0.
        -24    2    5    5    0    0 -0.17136401218E+03 -0.80772877137E+02 -0.18085567847E+03  0.27387813376E+03  0.80066056243E+02 0.  0.
          5    1    3    3  501    0 -0.14766781412E+02  0.49016952459E+02 -0.84745743542E+02  0.99119375049E+02  0.47000000000E+01 0. -1.
        -11    1    4    4    0    0  0.48626882248E+02  0.11869161406E+02 -0.86036239515E+02  0.99537355699E+02  0.00000000000E+00 0.  1.
         12    1    4    4    0    0  0.12152284701E+03 -0.12125260090E+01 -0.63668189053E+02  0.13719661389E+03  0.00000000000E+00 0. -1.
         -5    1    5    5    0  502  0.15981064334E+02  0.21099289281E+02 -0.63676934194E+02  0.69118856861E+02  0.47000000000E+01 0.  1.
         11    1    6    6    0    0 -0.77993905833E+02  0.33058736586E+01 -0.51359294574E+02  0.93443861686E+02  0.00000000000E+00 0. -1.
        -12    1    6    6    0    0 -0.93370106351E+02 -0.84078750795E+02 -0.12949638390E+03  0.18043427207E+03  0.00000000000E+00 0.  1.
</event>
<event>
12    1  0.9246030E-003  0.2953298E+03  0.7818608E-02  0.1087679E+00
         21   -1    0    0  503  502  0.00000000000E+00  0.00000000000E+00  0.87941033927E+03  0.87941033927E+03  0.00000000000E+00 0. -1.
         21   -1    0    0  501  503 -0.00000000000E+00 -0.00000000000E+00 -0.10094327575E+03  0.10094327575E+03  0.00000000000E+00 0.  1.
          6    2    1    2  501    0 -0.22742561407E+03  0.75399144007E+02  0.32027850238E+03  0.43523302729E+03  0.17158679467E+03 0.  0.
         24    2    3    3    0    0 -0.16965584753E+03  0.19164724583E+02  0.13275526682E+03  0.23105979269E+03  0.81328184894E+02 0.  0.
         -6    2    1    2    0  502  0.22742561407E+03 -0.75399144007E+02  0.45818856114E+03  0.54512058773E+03  0.17266226209E+03 0.  0.
        -24    2    5    5    0    0  0.13364235258E+03 -0.11252967070E+03  0.32745148425E+03  0.37992903401E+03  0.81230481652E+02 0.  0.
          5    1    3    3  501    0 -0.57769766542E+02  0.56234419424E+02  0.18752323555E+03  0.20417323460E+03  0.47000000000E+01 0. -1.
        -13    1    4    4    0    0 -0.15478118165E+03  0.40211575167E+02  0.12803427752E+03  0.20485839302E+03  0.00000000000E+00 0.  1.
         14    1    4    4    0    0 -0.14874665883E+02 -0.21046850584E+02  0.47209893001E+01  0.26201399668E+02  0.00000000000E+00 0. -1.
         -5    1    5    5    0  502  0.93783261489E+02  0.37130526688E+02  0.13073707689E+03  0.16519155372E+03  0.47000000000E+01 0.  1.
         13    1    6    6    0    0  0.76728770618E+02 -0.10406685890E+03  0.26591513999E+03  0.29568239217E+03  0.00000000000E+00 0. -1.
        -14    1    6    6    0    0  0.56913581965E+02 -0.84628117977E+01  0.61536344259E+02  0.84246641834E+02  0.00000000000E+00 0.  1.
</event>
<event>
12    1  0.9246030E-003  0.1732259E+03  0.7818608E-02  0.1174775E+00
         21   -1    0    0  503  502  0.00000000000E+00  0.00000000000E+00  0.14254939459E+02  0.14254939459E+02  0.00000000000E+00 0.  1.
         21   -1    0    0  501  503 -0.00000000000E+00 -0.00000000000E+00 -0.38297706126E+04  0.38297706126E+04  0.00000000000E+00 0.  1.
          6    2    1    2  501    0 -0.70521369767E+01  0.15793216280E+02 -0.31990584935E+04  0.32036923077E+04  0.17137677631E+03 0.  0.
         24    2    3    3    0    0 -0.32319517255E+02 -0.40887028943E+02 -0.25095270171E+04  0.25113579682E+04  0.80477914394E+02 0.  0.
         -6    2    1    2    0  502  0.70521369767E+01 -0.15793216280E+02 -0.61645717969E+03  0.64033324438E+03  0.17236023656E+03 0.  0.
        -24    2    5    5    0    0 -0.17738447686E+02 -0.70391905847E+02 -0.46613556598E+03  0.47842503724E+03  0.79614555530E+02 0.  0.
          5    1    3    3  501    0  0.25267380279E+02  0.56680245223E+02 -0.68953147638E+03  0.69233433948E+03  0.47000000000E+01 0. -1.
        -11    1    4    4    0    0  0.12970918188E+02  0.17580796278E+02 -0.53173252468E+03  0.53218117866E+03  0.00000000000E+00 0.  1.
         12    1    4    4    0    0 -0.45290435444E+02 -0.58467825220E+02 -0.19777944924E+04  0.19791767896E+04  0.00000000000E+00 0. -1.
         -5    1    5    5    0  502  0.24790584663E+02  0.54598689567E+02 -0.15032161372E+03  0.16190820715E+03  0.47000000000E+01 0.  1.
         11    1    6    6    0    0  0.17109741089E+02 -0.40191090035E+02 -0.36084160999E+03  0.36347590630E+03  0.00000000000E+00 0. -1.
        -12    1    6    6    0    0 -0.34848188775E+02 -0.30200815812E+02 -0.10529395599E+03  0.11494913094E+03  0.00000000000E+00 0.  1.
</event>
<event>
12    1  0.9246030E-003  0.2086679E+03  0.7818608E-02  0.1142719E+00
         21   -1    0    0  501  502  0.00000000000E+00  0.00000000000E+00  0.87525934530E+03  0.87525934530E+03  0.00000000000E+00 0.  1.
         21   -1    0    0  502  503 -0.00000000000E+00 -0.00000000000E+00 -0.58667946812E+02  0.58667946812E+02  0.00000000000E+00 0.  1.
          6    2    1    2  501    0 -0.10222048108E+03  0.54692791194E+02  0.59189645411E+03  0.62760156558E+03  0.17349923508E+03 0.  0.
         24    2    3    3    0    0 -0.11857234370E+03  0.21718161463E+02  0.56125969702E+03  0.57948285299E+03  0.79100253936E+02 0.  0.
         -6    2    1    2    0  503  0.10222048108E+03 -0.54692791194E+02  0.22469494438E+03  0.30632572653E+03  0.17293728501E+03 0.  0.
        -24    2    5    5    0    0  0.43433831811E+02  0.19758605511E+02  0.17773461676E+03  0.20037176024E+03  0.79261264611E+02 0.  0.
          5    1    3    3  501    0  0.16351862621E+02  0.32974629732E+02  0.30636757083E+02  0.48118712594E+02  0.47000000000E+01 0. -1.
        -11    1    4    4    0    0 -0.54702416517E+02  0.46592841971E+02  0.22100189167E+03  0.23238993828E+03  0.00000000000E+00 0.  1.
         12    1    4    4    0    0 -0.63869927183E+02 -0.24874680508E+02  0.34025780536E+03  0.34709291470E+03  0.00000000000E+00 0. -1.
         -5    1    5    5    0  503  0.58786649268E+02 -0.74451396706E+02  0.46960327618E+02  0.10595396629E+03  0.47000000000E+01 0.  1.
         11    1    6    6    0    0  0.21447184662E+02 -0.19055139597E+02  0.13697109704E+03  0.13994342250E+03  0.00000000000E+00 0. -1.
        -12    1    6    6    0    0  0.21986647149E+02  0.38813745109E+02  0.40763519718E+02  0.60428337740E+02  0.00000000000E+00 0.  1.
</event>
<event>
12    1  0.9246030E-003  0.3083369E+03  0.7818608E-02  0.1081207E+00
         21   -1    0    0  503  502  0.00000000000E+00  0.00000000000E+00  0.77631890169E+02  0.77631890169E+02  0.00000000000E+00 0.  1.
         21   -1    0    0  501  503 -0.00000000000E+00 -0.00000000000E+00 -0.12613857417E+04  0.12613857417E+04  0.00000000000E+00 0.  1.
          6    2    1    2  501    0 -0.20134044142E+03 -0.15702237894E+03 -0.70969073613E+03  0.77377812867E+03  0.17285152766E+03 0.  0.
         24    2    3    3    0    0 -0.21695032498E+03 -0.13888141761E+03 -0.69398854419E+03  0.74477102998E+03  0.81904187700E+02 0.  0.
         -6    2    1    2    0  502  0.20134044142E+03  0.15702237894E+03 -0.47406311544E+03  0.56523950324E+03  0.17194725285E+03 0.  0.
        -24    2    5    5    0    0  0.15898427717E+03  0.82477174825E+02 -0.42087947359E+03  0.46423642474E+03  0.79356423858E+02 0.  0.
          5    1    3    3  501    0  0.15609883554E+02 -0.18140961330E+02 -0.15702191937E+02  0.29007098685E+02  0.47000000000E+01 0. -1.
        -11    1    4    4    0    0 -0.70177943459E+02 -0.88513519549E+02 -0.33975463881E+03  0.35804022328E+03  0.00000000000E+00 0.  1.
         12    1    4    4    0    0 -0.14677238152E+03 -0.50367898065E+02 -0.35423390538E+03  0.38673080671E+03  0.00000000000E+00 0. -1.
         -5    1    5    5    0  502  0.42356164249E+02  0.74545204118E+02 -0.53183641850E+02  0.10100307850E+03  0.47000000000E+01 0.  1.
         11    1    6    6    0    0  0.43260382671E+02  0.62644997692E+02 -0.20171545616E+03  0.21560376087E+03  0.00000000000E+00 0. -1.
        -12    1    6    6    0    0  0.11572389450E+03  0.19832177133E+02 -0.21916401743E+03  0.24863266387E+03  0.00000000000E+00 0.  1.
</event>
<event>
12    1  0.9246030E-003  0.1814781E+03  0.7818608E-02  0.1166672E+00
         21   -1    0    0  503  502  0.00000000000E+00  0.00000000000E+00  0.60644782599E+03  0.60644782599E+03  0.00000000000E+00 0. -1.
         21   -1    0    0  501  503 -0.00000000000E+00 -0.00000000000E+00 -0.67252508637E+02  0.67252508637E+02  0.00000000000E+00 0. -1.
          6    2    1    2  501    0 -0.42577997051E+02  0.36838245016E+02  0.12047954329E+03  0.21782929824E+03  0.17252344969E+03 0.  0.
         24    2    3    3    0    0 -0.63315516097E+02  0.76013717510E+02  0.11708604952E+03  0.17312618715E+03  0.80477287821E+02 0.  0.
         -6    2    1    2    0  502  0.42577997051E+02 -0.36838245016E+02  0.41871577407E+03  0.45587103639E+03  0.17124707366E+03 0.  0.
        -24    2    5    5    0    0  0.86871280167E+02 -0.52143688175E+02  0.25551031084E+03  0.28600560510E+03  0.79044947145E+02 0.  0.
          5    1    3    3  501    0  0.20737519046E+02 -0.39175472495E+02  0.33934937637E+01  0.44703111092E+02  0.47000000000E+01 0. -1.
        -13    1    4    4    0    0 -0.29061890200E+02  0.77571175214E+02  0.11067667289E+03  0.13824328775E+03  0.00000000000E+00 0.  1.
         14    1    4    4    0    0 -0.34253625897E+02 -0.15574577037E+01  0.64093766349E+01  0.34882899398E+02  0.00000000000E+00 0. -1.
         -5    1    5    5    0  502 -0.44293283116E+02  0.15305443159E+02  0.16320546323E+03  0.16986543129E+03  0.47000000000E+01 0.  1.
         13    1    6    6    0    0  0.70551221232E+02 -0.44564187261E+01  0.19402407406E+03  0.20650103099E+03  0.00000000000E+00 0. -1.
        -14    1    6    6    0    0  0.16320058936E+02 -0.47687269449E+02  0.61486236779E+02  0.79504574110E+02  0.00000000000E+00 0.  1.
</event>
<event>
12    1  0.9246030E-003  0.2065041E+03  0.7818608E-02  0.1145075E+00
         21   -1    0    0  503  502  0.00000000000E+00  0.00000000000E+00  0.90295266673E+02  0.90295266673E+02  0.00000000000E+00 0.  1.
         21   -1    0    0  501  503 -0.00000000000E+00 -0.00000000000E+00 -0.48927025062E+03  0.48927025062E+03  0.00000000000E+00 0.  1.
          6    2    1    2  501    0 -0.74629447087E+02 -0.77329845452E+02 -0.26649909588E+03  0.33714346099E+03  0.17633628614E+03 0.  0.
         24    2    3    3    0    0 -0.11564536411E+03 -0.33707808433E+02 -0.20107604180E+03  0.24833212405E+03  0.82019526085E+02 0.  0.
         -6    2    1    2    0  502  0.74629447087E+02  0.77329845452E+02 -0.13247588807E+03  0.24242205631E+03  0.17224730214E+03 0.  0.
        -24    2    5    5    0    0  0.10133616155E+01  0.14697291115E+02 -0.32466155563E+01  0.80977143794E+02  0.79559537685E+02 0.  0.
          5    1    3    3  501    0  0.41015917025E+02 -0.43622037019E+02 -0.65423054082E+02  0.88811336937E+02  0.47000000000E+01 0. -1.
        -11    1    4    4    0    0 -0.80463326330E+02 -0.56811100898E+02 -0.16822571045E+03  0.19494034402E+03  0.00000000000E+00 0.  1.
         12    1    4    4    0    0 -0.35182037783E+02  0.23103292465E+02 -0.32850331353E+02  0.53391780035E+02  0.00000000000E+00 0. -1.
         -5    1    5    5    0  502  0.73616085472E+02  0.62632554337E+02 -0.12922927251E+03  0.16144491252E+03  0.47000000000E+01 0.  1.
         13    1    6    6    0    0  0.69797061775E+00  0.56439508924E+01 -0.41386914340E+02  0.41775806674E+02  0.00000000000E+00 0. -1.
        -14    1    6    6    0    0  0.31539099773E+00  0.90533402225E+01  0.38140298784E+02  0.39201337120E+02  0.00000000000E+00 0.  1.
</event>
<event>
12    1  0.9246030E-003  0.1794685E+03  0.7818608E-02  0.1168491E+00
         21   -1    0    0  501  502  0.00000000000E+00  0.00000000000E+00  0.31823967498E+03  0.31823967498E+03  0.00000000000E+00 0. -1.
         21   -1    0    0  502  503 -0.00000000000E+00 -0.00000000000E+00 -0.16295904815E+03  0.16295904815E+03  0.00000000000E+00 0.  1.
          6    2    1    2  501    0 -0.48695347738E+02 -0.11280627930E+02  0.22632039755E+03  0.28884226973E+03  0.17236718069E+03 0.  0.
         24    2    3    3    0    0 -0.88753890759E+02 -0.10468444809E+02  0.98243936997E+02  0.15456265006E+03  0.79062634509E+02 0.  0.
         -6    2    1    2    0  503  0.48695347738E+02  0.11280627930E+02 -0.71039770722E+02  0.19235645339E+03  0.17162711523E+03 0.  0.
        -24    2    5    5    0    0  0.86525737509E+02 -0.88190778870E+01 -0.86678224209E+02  0.14651119419E+03  0.79924564962E+02 0.  0.
          5    1    3    3  501    0  0.40058543021E+02 -0.81218312060E+00  0.12807646056E+03  0.13427961967E+03  0.47000000000E+01 0. -1.
        -13    1    4    4    0    0 -0.18493111678E+02  0.30558639337E+02  0.16910493364E+02  0.39519493968E+02  0.00000000000E+00 0.  1.
         14    1    4    4    0    0 -0.70260779081E+02 -0.41027084146E+02  0.81333443632E+02  0.11504315609E+03  0.00000000000E+00 0. -1.
         -5    1    5    5    0  503 -0.37830389771E+02  0.20099705817E+02  0.15638453488E+02  0.45845259206E+02  0.47000000000E+01 0.  1.
         13    1    6    6    0    0  0.46658019963E+02  0.19426683304E+02 -0.42873178847E+01  0.50722262821E+02  0.00000000000E+00 0. -1.
        -14    1    6    6    0    0  0.39867717546E+02 -0.28245761191E+02 -0.82390906325E+02  0.95788931368E+02  0.00000000000E+00 0.  1.
</event>
<event>
12    1  0.9246030E-003  0.1734258E+03  0.7818608E-02  0.1174465E+00
         21   -1    0    0  501  502  0.00000000000E+00  0.00000000000E+00  0.10778667675E+03  0.10778667675E+03  0.00000000000E+00 0. -1.
         21   -1    0    0  502  503 -0.00000000000E+00 -0.00000000000E+00 -0.28051532735E+03  0.28051532735E+03  0.00000000000E+00 0. -1.
          6    2    1    2  501    0  0.92102098501E+01 -0.23026116996E+02 -0.10411273383E+03  0.20179554661E+03  0.17107586404E+03 0.  0.
         24    2    3    3    0    0  0.66668604089E+02 -0.50929645349E+00 -0.35764126425E+02  0.10958873336E+03  0.79282126523E+02 0.  0.
         -6    2    1    2    0  503 -0.92102098501E+01  0.23026116996E+02 -0.68615916775E+02  0.18650645749E+03  0.17164348115E+03 0.  0.
        -24    2    5    5    0    0  0.75132929458E+01 -0.35570636848E+02 -0.83854967771E+02  0.12351777770E+03  0.83085895376E+02 0.  0.
          5    1    3    3  501    0 -0.57458394239E+02 -0.22516820542E+02 -0.68348607404E+02  0.92206813251E+02  0.47000000000E+01 0. -1.
        -11    1    4    4    0    0  0.77861353313E+02 -0.11789075185E+02 -0.45504234871E+02  0.90950580123E+02  0.00000000000E+00 0.  1.
         12    1    4    4    0    0 -0.11192749225E+02  0.11279778732E+02  0.97401084463E+01  0.18638153234E+02  0.00000000000E+00 0. -1.
         -5    1    5    5    0  503 -0.16723502796E+02  0.58596753844E+02  0.15239050996E+02  0.62988679793E+02  0.47000000000E+01 0.  1.
         11    1    6    6    0    0  0.31500264516E+02 -0.60154846029E-02 -0.72643430085E+02  0.79179130049E+02  0.00000000000E+00 0. -1.
        -12    1    6    6    0    0 -0.23986971571E+02 -0.35564621364E+02 -0.11211537685E+02  0.44338647647E+02  0.00000000000E+00 0.  1.
</event>
<event>
12    1  0.9246030E-003  0.1715075E+03  0.7818608E-02  0.1176527E+00
         21   -1    0    0  501  502  0.00000000000E+00  0.00000000000E+00  0.18006240699E+03  0.18006240699E+03  0.00000000000E+00 0. -1.
         21   -1    0    0  502  503 -0.00000000000E+00 -0.00000000000E+00 -0.16262939153E+03  0.16262939153E+03  0.00000000000E+00 0. -1.
          6    2    1    2  501    0  0.60012757699E+01  0.11185386524E+02  0.32774315863E+01  0.17060112763E+03  0.17009666372E+03 0.  0.
         24    2    3    3    0    0  0.25511921701E+02  0.46657773617E+02 -0.46112322419E+02  0.10656681377E+03  0.80014583242E+02 0.  0.
         -6    2    1    2    0  503 -0.60012757699E+01 -0.11185386524E+02  0.14155583872E+02  0.17209067089E+03  0.17103710202E+03 0.  0.
        -24    2    5    5    0    0 -0.45967030808E+02  0.45173422711E+02  0.66482516649E+01  0.10243417807E+03  0.79340755898E+02 0.  0.
          5    1    3    3  501    0 -0.19510645931E+02 -0.35472387094E+02  0.49389754005E+02  0.64034313859E+02  0.47000000000E+01 0. -1.
        -13    1    4    4    0    0 -0.93530555340E+01 -0.40937159817E+01 -0.43774194822E+02  0.44949063290E+02  0.00000000000E+00 0.  1.
         14    1    4    4    0    0  0.34864977235E+02  0.50751489599E+02 -0.23381275968E+01  0.61617750485E+02  0.00000000000E+00 0. -1.
         -5    1    5    5    0  503  0.39965755038E+02 -0.56358809235E+02  0.75073322074E+01  0.69656492813E+02  0.47000000000E+01 0.  1.
         13    1    6    6    0    0  0.12463400693E+01  0.23955566021E+01 -0.29203982221E+02  0.29328563425E+02  0.00000000000E+00 0. -1.
        -14    1    6    6    0    0 -0.47213370877E+02  0.42777866109E+02  0.35852233886E+02  0.73105614648E+02  0.00000000000E+00 0.  1.
</event>
<event>
12    1  0.9246030E-003  0.2014759E+03  0.7818608E-02  0.1148534E+00
         21   -1    0    0  503  502  0.00000000000E+00  0.00000000000E+00  0.12748838505E+04  0.12748838505E+04  0.00000000000E+00 0.  1.
         21   -1    0    0  501  503 -0.00000000000E+00 -0.00000000000E+00 -0.34825780475E+02  0.34825780475E+02  0.00000000000E+00 0.  1.
          6    2    1    2  501    0  0.67638615838E+02  0.78865017566E+02  0.42768516985E+03  0.47276540132E+03  0.17262052841E+03 0.  0.
         24    2    3    3    0    0 -0.18088392668E+02  0.86469574778E+02  0.19388029686E+03  0.22357921007E+03  0.67778435745E+02 0.  0.
         -6    2    1    2    0  502 -0.67638615838E+02 -0.78865017566E+02  0.81237290022E+03  0.83694422970E+03  0.17242749568E+03 0.  0.
        -24    2    5    5    0    0 -0.61279182430E+02  0.66961454936E+01  0.58999135524E+03  0.59853953896E+03  0.79748378546E+02 0.  0.
          5    1    3    3  501    0  0.85727008506E+02 -0.76045572120E+01  0.23380487299E+03  0.24918619125E+03  0.47000000000E+01 0. -1.
        -11    1    4    4    0    0 -0.75679562115E+01  0.34460615322E+02  0.17487051579E+02  0.39377721398E+02  0.00000000000E+00 0.  1.
         12    1    4    4    0    0 -0.10520436456E+02  0.52008959456E+02  0.17639324529E+03  0.18420148867E+03  0.00000000000E+00 0. -1.
         -5    1    5    5    0  502 -0.63594334079E+01 -0.85561163060E+02  0.22238154498E+03  0.23840469074E+03  0.47000000000E+01 0.  1.
         13    1    6    6    0    0  0.18978043416E+02 -0.13545870263E+01  0.15163666762E+03  0.15282565231E+03  0.00000000000E+00 0. -1.
        -14    1    6    6    0    0 -0.80257225847E+02  0.80507325200E+01  0.43835468762E+03  0.44571388665E+03  0.00000000000E+00 0.  1.
</event>
<event>
12    1  0.9246030E-003  0.2098486E+03  0.7818608E-02  0.1142250E+00
         21   -1    0    0  501  502  0.00000000000E+00  0.00000000000E+00  0.32860895904E+03  0.32860895904E+03  0.00000000000E+00 0.  1.
         21   -1    0    0  502  503 -0.00000000000E+00 -0.00000000000E+00 -0.20159846168E+03  0.20159846168E+03  0.00000000000E+00 0. -1.
          6    2    1    2  501    0 -0.11497079557E+03  0.75589223105E+01  0.21931414789E+03  0.30353768069E+03  0.17538816093E+03 0.  0.
         24    2    3    3    0    0 -0.55399776193E+02 -0.82631049483E+01  0.26201321238E+02  0.10077255373E+03  0.79568739113E+02 0.  0.
         -6    2    1    2    0  503  0.11497079557E+03 -0.75589223105E+01 -0.92303650537E+02  0.22666974003E+03  0.17199937791E+03 0.  0.
        -24    2    5    5    0    0  0.12109603276E+03 -0.44562572431E+02 -0.31482673342E+02  0.15505919667E+03  0.80013272275E+02 0.  0.
          5    1    3    3  501    0 -0.59571019373E+02  0.15822027259E+02  0.19311282665E+03  0.20276512697E+03  0.47000000000E+01 0. -1.
        -13    1    4    4    0    0 -0.20072617670E+02  0.17880975282E+02  0.45440727207E+02  0.52796770226E+02  0.00000000000E+00 0.  1.
         14    1    4    4    0    0 -0.35327158522E+02 -0.26144080231E+02 -0.19239405969E+02  0.47975783499E+02  0.00000000000E+00 0. -1.
         -5    1    5    5    0  503 -0.61252371916E+01  0.37003650120E+02 -0.60820977195E+02  0.71610543357E+02  0.47000000000E+01 0.  1.
         13    1    6    6    0    0  0.16275430832E+02  0.19296866892E+02  0.74004843162E+01  0.26306384942E+02  0.00000000000E+00 0. -1.
        -14    1    6    6    0    0  0.10482060192E+03 -0.63859439322E+02 -0.38883157658E+02  0.12875281173E+03  0.00000000000E+00 0.  1.
</event>
<event>
12    1  0.9246030E-003  0.1812886E+03  0.7818608E-02  0.1166595E+00
         21   -1    0    0  501  502  0.00000000000E+00  0.00000000000E+00  0.11721384403E+03  0.11721384403E+03  0.00000000000E+00 0. -1.
         21   -1    0    0  502  503 -0.00000000000E+00 -0.00000000000E+00 -0.38095742331E+03  0.38095742331E+03  0.00000000000E+00 0. -1.
          6    2    1    2  501    0 -0.57200476742E+02  0.76997674445E+01 -0.37933792786E+01  0.18132827907E+03  0.17185567813E+03 0.  0.
         24    2    3    3    0    0 -0.53107613271E+02 -0.20310461515E+02  0.57547768979E+02  0.11360715292E+03  0.79761557439E+02 0.  0.
         -6    2    1    2    0  503  0.57200476742E+02 -0.76997674445E+01 -0.25995020000E+03  0.31684298827E+03  0.17170961470E+03 0.  0.
        -24    2    5    5    0    0 -0.12675107562E+02  0.47997065654E+01 -0.61307115942E+02  0.10584536038E+03  0.85211397797E+02 0.  0.
          5    1    3    3  501    0 -0.40928634714E+01  0.28010228959E+02 -0.61341148257E+02  0.67721126152E+02  0.47000000000E+01 0. -1.
        -13    1    4    4    0    0 -0.11343788426E+02 -0.51540228099E+01 -0.20389806212E+02  0.23895390441E+02  0.00000000000E+00 0.  1.
         14    1    4    4    0    0 -0.41763824845E+02 -0.15156438705E+02  0.77937575190E+02  0.89711762475E+02  0.00000000000E+00 0. -1.
         -5    1    5    5    0  503  0.69875584304E+02 -0.12499474010E+02 -0.19864308405E+03  0.21099762789E+03  0.47000000000E+01 0.  1.
         11    1    6    6    0    0  0.85575858176E+01 -0.35228458383E+02 -0.44777855124E+02  0.57613651720E+02  0.00000000000E+00 0. -1.
        -12    1    6    6    0    0 -0.21232693379E+02  0.40028164948E+02 -0.16529260818E+02  0.48231708662E+02  0.00000000000E+00 0.  1.
</event>
<event>
12    1  0.9246030E-003  0.1803329E+03  0.7818608E-02  0.1168127E+00
         21   -1    0    0  503  502  0.00000000000E+00  0.00000000000E+00  0.26940325386E+02  0.26940325386E+02  0.00000000000E+00 0.  1.
         21   -1    0    0  501  503 -0.00000000000E+00 -0.00000000000E+00 -0.14698525305E+04  0.14698525305E+04  0.00000000000E+00 0.  1.
          6    2    1    2  501    0  0.44201297855E+02 -0.15778869545E+02 -0.10526823367E+04  0.10680168814E+04  0.17411843491E+03 0.  0.
         24    2    3    3    0    0  0.57433927043E+02 -0.32372648095E+02 -0.34503032330E+03  0.36003106367E+03  0.78929072514E+02 0.  0.
         -6    2    1    2    0  502 -0.44201297855E+02  0.15778869545E+02 -0.39022986840E+03  0.42877597453E+03  0.17136732094E+03 0.  0.
        -24    2    5    5    0    0 -0.42142124536E+02 -0.58314754049E+02 -0.29568697665E+03  0.30854888261E+03  0.50941688193E+02 0.  0.
          5    1    3    3  501    0 -0.13232629188E+02  0.16593778549E+02 -0.70765201344E+03  0.70798581772E+03  0.47000000000E+01 0. -1.
        -11    1    4    4    0    0  0.25884655464E+02  0.37554647194E+01 -0.24195169060E+02  0.35630395866E+02  0.00000000000E+00 0.  1.
         12    1    4    4    0    0  0.31549271579E+02 -0.36128112814E+02 -0.32083515424E+03  0.32440066780E+03  0.00000000000E+00 0. -1.
         -5    1    5    5    0  502 -0.20591733185E+01  0.74093623594E+02 -0.94542891746E+02  0.12022709192E+03  0.47000000000E+01 0.  1.
         11    1    6    6    0    0 -0.10891468102E+02 -0.31254799706E+00 -0.82751421228E+01  0.13682095630E+02  0.00000000000E+00 0. -1.
        -12    1    6    6    0    0 -0.31250656434E+02 -0.58002206052E+02 -0.28741183453E+03  0.29486678698E+03  0.00000000000E+00 0.  1.
</event>
<event>
12    1  0.9246030E-003  0.2512484E+03  0.7818608E-02  0.1112593E+00
         21   -1    0    0  501  502  0.00000000000E+00  0.00000000000E+00  0.93673538054E+03  0.93673538054E+03  0.00000000000E+00 0.  1.
         21   -1    0    0  502  503 -0.00000000000E+00 -0.00000000000E+00 -0.95164332830E+02  0.95164332830E+02  0.00000000000E+00 0. -1.
          6    2    1    2  501    0  0.97293384575E+02 -0.15502402203E+03  0.70044260694E+03  0.74414084030E+03  0.17212581011E+03 0.  0.
         24    2    3    3    0    0  0.69177197303E+02 -0.12037972588E+03  0.67151632172E+03  0.69075950256E+03  0.83293199068E+02 0.  0.
         -6    2    1    2    0  503 -0.97293384575E+02  0.15502402203E+03  0.14112844078E+03  0.28775887307E+03  0.17143360856E+03 0.  0.
        -24    2    5    5    0    0  0.46655373645E+01  0.10115976353E+03  0.10767345401E+03  0.16759936971E+03  0.78999436922E+02 0.  0.
          5    1    3    3  501    0  0.28116187272E+02 -0.34644296154E+02  0.28926285213E+02  0.53381337740E+02  0.47000000000E+01 0. -1.
        -13    1    4    4    0    0  0.31660870057E+02 -0.33198756252E+02  0.84777695863E+02  0.96394117171E+02  0.00000000000E+00 0.  1.
         14    1    4    4    0    0  0.37516327247E+02 -0.87180969624E+02  0.58673862586E+03  0.59436538539E+03  0.00000000000E+00 0. -1.
         -5    1    5    5    0  503 -0.10195892194E+03  0.53864258502E+02  0.33454986768E+02  0.12015950336E+03  0.47000000000E+01 0.  1.
         11    1    6    6    0    0 -0.16884826633E+02  0.44871680126E+02  0.45563023826E+01  0.48159370211E+02  0.00000000000E+00 0. -1.
        -12    1    6    6    0    0  0.21550363997E+02  0.56288083403E+02  0.10311715162E+03  0.11943999950E+03  0.00000000000E+00 0.  1.
</event>
<event>
12    1  0.9246030E-003  0.2683727E+03  0.7818608E-02  0.1103065E+00
         21   -1    0    0  501  502  0.00000000000E+00  0.00000000000E+00  0.11002048349E+04  0.11002048349E+04  0.00000000000E+00 0. -1.
         21   -1    0    0  502  503 -0.00000000000E+00 -0.00000000000E+00 -0.76595060187E+02  0.76595060187E+02  0.00000000000E+00 0. -1.
          6    2    1    2  501    0 -0.33488237168E+02 -0.20337538471E+03  0.75461063051E+03  0.80091268119E+03  0.17187469295E+03 0.  0.
         24    2    3    3    0    0  0.27285622012E+02 -0.17662059297E+03  0.48093701204E+03  0.51925931216E+03  0.79940507139E+02 0.  0.
         -6    2    1    2    0  503  0.33488237168E+02  0.20337538471E+03  0.26899914422E+03  0.37588721391E+03  0.16262733121E+03 0.  0.
        -24    2    5    5    0    0  0.79605955095E+02  0.14774114785E+03  0.22457758529E+03  0.29093206624E+03  0.77729148314E+02 0.  0.
          5    1    3    3  501    0 -0.60773859181E+02 -0.26754791739E+02  0.27367361847E+03  0.28165336904E+03  0.47000000000E+01 0. -1.
        -13    1    4    4    0    0  0.15644398032E+02 -0.17564985375E+02  0.15075653539E+03  0.15258049962E+03  0.00000000000E+00 0.  1.
         14    1    4    4    0    0  0.11641223980E+02 -0.15905560760E+03  0.33018047665E+03  0.36667881254E+03  0.00000000000E+00 0. -1.
         -5    1    5    5    0  503 -0.46117717927E+02  0.55634236865E+02  0.44421558925E+02  0.84955147670E+02  0.47000000000E+01 0.  1.
         11    1    6    6    0    0 -0.33568575203E+00  0.29357164133E+02  0.90030549623E+02  0.94696650608E+02  0.00000000000E+00 0. -1.
        -12    1    6    6    0    0  0.79941640847E+02  0.11838398372E+03  0.13454703567E+03  0.19623541564E+03  0.00000000000E+00 0.  1.
</event>
<event>
12    1  0.9246030E-003  0.1755497E+03  0.7818608E-02  0.1172234E+00
         21   -1    0    0  503  502  0.00000000000E+00  0.00000000000E+00  0.57178083093E+02  0.57178083093E+02  0.00000000000E+00 0.  1.
         21   -1    0    0  501  503 -0.00000000000E+00 -0.00000000000E+00 -0.85867320074E+03  0.85867320074E+03  0.00000000000E+00 0.  1.
          6    2    1    2  501    0  0.32673411435E+02 -0.19469285953E+02 -0.68029456579E+03  0.70252693823E+03  0.17116307368E+03 0.  0.
         24    2    3    3    0    0 -0.36789527451E+02  0.18493323407E+02 -0.27679056315E+03  0.29130457779E+03  0.80931260020E+02 0.  0.
         -6    2    1    2    0  502 -0.32673411435E+02  0.19469285953E+02 -0.12120055185E+03  0.21332434559E+03  0.17137998058E+03 0.  0.
        -24    2    5    5    0    0  0.15122758882E+02  0.61267652129E+02 -0.36440836012E+02  0.10731549341E+03  0.78779804283E+02 0.  0.
          5    1    3    3  501    0  0.69462938886E+02 -0.37962609360E+02 -0.40350400264E+03  0.41122236045E+03  0.47000000000E+01 0. -1.
        -11    1    4    4    0    0 -0.21742721043E+02  0.40044335880E+02 -0.24867966869E+03  0.25281984173E+03  0.00000000000E+00 0.  1.
         12    1    4    4    0    0 -0.15046806409E+02 -0.21551012473E+02 -0.28110894468E+02  0.38484736059E+02  0.00000000000E+00 0. -1.
         -5    1    5    5    0  502 -0.47796170316E+02 -0.41798366177E+02 -0.84759715841E+02  0.10600885218E+03  0.47000000000E+01 0.  1.
         13    1    6    6    0    0  0.39214945761E+02  0.17038577362E+02  0.36925076398E+01  0.42915727913E+02  0.00000000000E+00 0. -1.
        -14    1    6    6    0    0 -0.24092186880E+02  0.44229074767E+02 -0.40133343652E+02  0.64399765497E+02  0.00000000000E+00 0.  1.
</event>
<event>
12    1  0.9246030E-003  0.2266976E+03  0.7818608E-02  0.1129027E+00
         21   -1    0    0  501  502  0.00000000000E+00  0.00000000000E+00  0.12584342882E+03  0.12584342882E+03  0.00000000000E+00 0. -1.
         21   -1    0    0  502  503 -0.00000000000E+00 -0.00000000000E+00 -0.40869582672E+03  0.40869582672E+03  0.00000000000E+00 0. -1.
          6    2    1    2  501    0 -0.85617243152E+02 -0.11266803741E+03 -0.13009189014E+03  0.26117577774E+03  0.17681766886E+03 0.  0.
         24    2    3    3    0    0 -0.39009660854E+02  0.13755086001E+02 -0.60675118183E+02  0.10953194803E+03  0.81270053785E+02 0.  0.
         -6    2    1    2    0  503  0.85617243152E+02  0.11266803741E+03 -0.15276050776E+03  0.27336347780E+03  0.17710849580E+03 0.  0.
        -24    2    5    5    0    0  0.87170784300E+02  0.15452579839E+02 -0.11522333048E+03  0.16903520570E+03  0.86365253544E+02 0.  0.
          5    1    3    3  501    0 -0.46607582298E+02 -0.12642312341E+03 -0.69416771960E+02  0.15164382971E+03  0.47000000000E+01 0. -1.
        -11    1    4    4    0    0 -0.26577423343E+02  0.11453099509E+02  0.15145937471E+02  0.32663930288E+02  0.00000000000E+00 0.  1.
         12    1    4    4    0    0 -0.12432237511E+02  0.23019864919E+01 -0.75821055655E+02  0.76868017744E+02  0.00000000000E+00 0. -1.
         -5    1    5    5    0  503 -0.15535411482E+01  0.97215457572E+02 -0.37537177278E+02  0.10432827210E+03  0.47000000000E+01 0.  1.
         11    1    6    6    0    0  0.17914907369E+02  0.34319859066E+02 -0.72619550964E+01  0.39389498907E+02  0.00000000000E+00 0. -1.
        -12    1    6    6    0    0  0.69255876931E+02 -0.18867279227E+02 -0.10796137538E+03  0.12964570679E+03  0.00000000000E+00 0.  1.
</event>
<event>
12    1  0.9246030E-003  0.2308081E+03  0.7818608E-02  0.1126280E+00
         21   -1    0    0  501  502  0.00000000000E+00  0.00000000000E+00  0.32654622991E+03  0.32654622991E+03  0.00000000000E+00 0.  1.
         21   -1    0    0  502  503 -0.00000000000E+00 -0.00000000000E+00 -0.18624971131E+03  0.18624971131E+03  0.00000000000E+00 0.  1.
          6    2    1    2  501    0  0.11929785133E+02  0.15262563937E+03  0.16192714122E+03  0.28097649658E+03  0.17114463766E+03 0.  0.
         24    2    3    3    0    0  0.47665082058E+02  0.24076772471E+02  0.64755269781E+02  0.11585143723E+03  0.79853988776E+02 0.  0.
         -6    2    1    2    0  503 -0.11929785133E+02 -0.15262563937E+03 -0.21630622620E+02  0.23181944464E+03  0.17272945757E+03 0.  0.
        -24    2    5    5    0    0  0.42971611209E+02 -0.37537099817E+02  0.48007002814E+01  0.10151119438E+03  0.83820538225E+02 0.  0.
          5    1    3    3  501    0 -0.35735296925E+02  0.12854886690E+03  0.97171871440E+02  0.16512505935E+03  0.47000000000E+01 0. -1.
        -13    1    4    4    0    0  0.83170425293E+00  0.80750088026E+01  0.65849235644E+02  0.66347715364E+02  0.00000000000E+00 0.  1.
         14    1    4    4    0    0  0.46833377805E+02  0.16001763668E+02 -0.10939658633E+01  0.49503721865E+02  0.00000000000E+00 0. -1.
         -5    1    5    5    0  503 -0.54901396341E+02 -0.11508853955E+03 -0.26431322901E+02  0.13030825026E+03  0.47000000000E+01 0.  1.
         13    1    6    6    0    0  0.21530204558E+01 -0.41362108548E+02  0.31975820001E+02  0.52325066510E+02  0.00000000000E+00 0. -1.
        -14    1    6    6    0    0  0.40818590753E+02  0.38250087307E+01 -0.27175119720E+02  0.49186127868E+02  0.00000000000E+00 0.  1.
</event>
<event>
12    1  0.9246030E-003  0.1945313E+03  0.7818608E-02  0.1154510E+00
         21   -1    0    0  501  502  0.00000000000E+00  0.00000000000E+00  0.15310795652E+03  0.15310795652E+03  0.00000000000E+00 0.  1.
         21   -1    0    0  502  503 -0.00000000000E+00 -0.00000000000E+00 -0.32754016043E+03  0.32754016043E+03  0.00000000000E+00 0.  1.
          6    2    1    2  501    0 -0.83465124408E+02 -0.36149612526E+02  0.32206867998E+02  0.19684868888E+03  0.17157768645E+03 0.  0.
         24    2    3    3    0    0 -0.64719944030E+02 -0.89063769603E+02  0.10253552082E+02  0.13638938118E+03  0.79849243944E+02 0.  0.
         -6    2    1    2    0  503  0.83465124408E+02  0.36149612526E+02 -0.20663907191E+03  0.28379942807E+03  0.17195693605E+03 0.  0.
        -24    2    5    5    0    0  0.12153956144E+03  0.23330822520E+02 -0.12673351402E+03  0.19423954691E+03  0.79695832585E+02 0.  0.
          5    1    3    3  501    0 -0.18745180378E+02  0.52914157078E+02  0.21953315916E+02  0.60459307690E+02  0.47000000000E+01 0. -1.
        -11    1    4    4    0    0 -0.26359471913E+02  0.11131776427E+02  0.43173215524E+01  0.28937475207E+02  0.00000000000E+00 0.  1.
         12    1    4    4    0    0 -0.38360472117E+02 -0.10019554603E+03  0.59362305292E+01  0.10745190598E+03  0.00000000000E+00 0. -1.
         -5    1    5    5    0  503 -0.38074437034E+02  0.12818790006E+02 -0.79905557890E+02  0.89559881165E+02  0.47000000000E+01 0.  1.
         11    1    6    6    0    0  0.80159643497E+02  0.29538736874E+02 -0.32982902742E+02  0.91574981818E+02  0.00000000000E+00 0. -1.
        -12    1    6    6    0    0  0.41379917945E+02 -0.62079143546E+01 -0.93750611277E+02  0.10266456509E+03  0.00000000000E+00 0.  1.
</event>
<event>
12    1  0.9246030E-003  0.2115976E+03  0.7818608E-02  0.1140351E+00
         21   -1    0    0  503  502  0.00000000000E+00  0.00000000000E+00  0.22498663892E+03  0.22498663892E+03  0.00000000000E+00 0. -1.
         21   -1    0    0  501  503 -0.00000000000E+00 -0.00000000000E+00 -0.19972463621E+03  0.19972463621E+03  0.00000000000E+00 0.  1.
          6    2    1    2  501    0 -0.11101914278E+03  0.53780584810E+02  0.27129249334E+02  0.21332968771E+03  0.17191846359E+03 0.  0.
         24    2    3    3    0    0 -0.56022719205E+01  0.66739215628E+02  0.27060429963E+02  0.10701535419E+03  0.78958918496E+02 0.  0.
         -6    2    1    2    0  502  0.11101914278E+03 -0.53780584810E+02 -0.18672466271E+01  0.21138158742E+03  0.17164232440E+03 0.  0.
        -24    2    5    5    0    0  0.78518807226E+02 -0.10044433516E+03 -0.19618914866E+02  0.15162383367E+03  0.79690762097E+02 0.  0.
          5    1    3    3  501    0 -0.10541687086E+03 -0.12958630817E+02  0.68819370997E-01  0.10631433352E+03  0.47000000000E+01 0. -1.
        -11    1    4    4    0    0 -0.41113969845E+02  0.41530315850E+02  0.63222074027E+01  0.58780064286E+02  0.00000000000E+00 0.  1.
         12    1    4    4    0    0  0.35511697924E+02  0.25208899777E+02  0.20738222561E+02  0.48235289907E+02  0.00000000000E+00 0. -1.
         -5    1    5    5    0  502  0.32500335556E+02  0.46663750350E+02  0.17751668239E+02  0.59757753750E+02  0.47000000000E+01 0.  1.
         11    1    6    6    0    0  0.45480614831E+02 -0.82304725534E+02  0.20853488816E+02  0.96319375862E+02  0.00000000000E+00 0. -1.
        -12    1    6    6    0    0  0.33038192395E+02 -0.18139609626E+02 -0.40472403682E+02  0.55304457813E+02  0.00000000000E+00 0.  1.
</event>
<event>
12    1  0.9246030E-003  0.1861154E+03  0.7818608E-02  0.1162622E+00
         21   -1    0    0  501  502  0.00000000000E+00  0.00000000000E+00  0.90719129883E+03  0.90719129883E+03  0.00000000000E+00 0.  1.
         21   -1    0    0  502  503 -0.00000000000E+00 -0.00000000000E+00 -0.37680617101E+02  0.37680617101E+02  0.00000000000E+00 0.  1.
          6    2    1    2  501    0  0.55331106787E+02 -0.31307783094E+02  0.44547961098E+03  0.48179383603E+03  0.17213804918E+03 0.  0.
         24    2    3    3    0    0  0.49721495087E+02  0.21273252711E+02  0.40075968655E+03  0.41238061891E+03  0.80775430265E+02 0.  0.
         -6    2    1    2    0  503 -0.55331106787E+02  0.31307783094E+02  0.42403107075E+03  0.46307807990E+03  0.17492069765E+03 0.  0.
        -24    2    5    5    0    0  0.39045094419E+02  0.27899318309E+02  0.21210973926E+03  0.23101941118E+03  0.77952135929E+02 0.  0.
          5    1    3    3  501    0  0.56096116998E+01 -0.52581035805E+02  0.44719924432E+02  0.69413217120E+02  0.47000000000E+01 0. -1.
        -13    1    4    4    0    0  0.44786566674E+02  0.36748224168E+02  0.14556932215E+03  0.15667385259E+03  0.00000000000E+00 0.  1.
         14    1    4    4    0    0  0.49349284133E+01 -0.15474971457E+02  0.25519036439E+03  0.25570676632E+03  0.00000000000E+00 0. -1.
         -5    1    5    5    0  503 -0.94376201206E+02  0.34084647850E+01  0.21192133149E+03  0.23205866872E+03  0.47000000000E+01 0.  1.
         13    1    6    6    0    0  0.55861809325E+02  0.35555604607E+02  0.11983660426E+03  0.13691440567E+03  0.00000000000E+00 0. -1.
        -14    1    6    6    0    0 -0.16816714906E+02 -0.76562862981E+01  0.92273134999E+02  0.94105005513E+02  0.00000000000E+00 0.  1.
</event>
<event>
12    1  0.9246030E-003  0.2269113E+03  0.7818608E-02  0.1128991E+00
         21   -1    0    0  503  502  0.00000000000E+00  0.00000000000E+00  0.13529744025E+03  0.13529744025E+03  0.00000000000E+00 0. -1.
         21   -1    0    0  501  503 -0.00000000000E+00 -0.00000000000E+00 -0.55863348307E+03  0.55863348307E+03  0.00000000000E+00 0. -1.
          6    2    1    2  501    0 -0.12523966152E+03  0.76646152646E+02 -0.40865214141E+03  0.46742412932E+03  0.17300040016E+03 0.  0.
         24    2    3    3    0    0 -0.74089818346E+02  0.10858906059E+03 -0.35389012859E+03  0.38582986560E+03  0.79659128852E+02 0.  0.
         -6    2    1    2    0  502  0.12523966152E+03 -0.76646152646E+02 -0.14683901403E+02  0.22650679400E+03  0.17184325776E+03 0.  0.
        -24    2    5    5    0    0  0.62373405110E+02 -0.94297623182E+02  0.43520686771E+02  0.13890768047E+03  0.67961828363E+02 0.  0.
          5    1    3    3  501    0 -0.51149843173E+02 -0.31942907943E+02 -0.54762012823E+02  0.81594263725E+02  0.47000000000E+01 0. -1.
        -11    1    4    4    0    0 -0.58201142297E+01  0.45408258528E+01 -0.12565840756E+03  0.12587505003E+03  0.00000000000E+00 0.  1.
         12    1    4    4    0    0 -0.68269704116E+02  0.10404823474E+03 -0.22823172103E+03  0.25995481557E+03  0.00000000000E+00 0. -1.
         -5    1    5    5    0  502  0.62866256409E+02  0.17651470536E+02 -0.58204588174E+02  0.87599113531E+02  0.47000000000E+01 0.  1.
         13    1    6    6    0    0  0.18971631648E+02 -0.26089040979E+02 -0.18342429008E+02  0.37108025662E+02  0.00000000000E+00 0. -1.
        -14    1    6    6    0    0  0.43401773462E+02 -0.68208582203E+02  0.61863115778E+02  0.10179965481E+03  0.00000000000E+00 0.  1.
</event>
<event>
12    1  0.9246030E-003  0.2432626E+03  0.7818608E-02  0.1117679E+00
         21   -1    0    0  503  502  0.00000000000E+00  0.00000000000E+00  0.75940066754E+03  0.75940066754E+03  0.00000000000E+00 0. -1.
         21   -1    0    0  501  503 -0.00000000000E+00 -0.00000000000E+00 -0.11728249827E+03  0.11728249827E+03  0.00000000000E+00 0.  1.
          6    2    1    2  501    0  0.10263870126E+03 -0.13772043484E+03  0.66765014934E+02  0.25201688110E+03  0.17191079074E+03 0.  0.
         24    2    3    3    0    0 -0.30185433960E+01 -0.10547148723E+03  0.36633967601E+02  0.13741575552E+03  0.80048085930E+02 0.  0.
         -6    2    1    2    0  502 -0.10263870126E+03  0.13772043484E+03  0.57535315434E+03  0.62466628471E+03  0.17226460425E+03 0.  0.
        -24    2    5    5    0    0 -0.69031212710E+02  0.14412374786E+03  0.55916087249E+03  0.58652515604E+03  0.76249028349E+02 0.  0.
          5    1    3    3  501    0  0.10565724466E+03 -0.32248947613E+02  0.30131047332E+02  0.11460112558E+03  0.47000000000E+01 0. -1.
        -11    1    4    4    0    0 -0.16117160395E+02 -0.62355602906E+02 -0.17733338792E+02  0.66801612089E+02  0.00000000000E+00 0.  1.
         12    1    4    4    0    0  0.13098616999E+02 -0.43115884320E+02  0.54367306394E+02  0.70614143431E+02  0.00000000000E+00 0. -1.
         -5    1    5    5    0  502 -0.33607488555E+02 -0.64033130167E+01  0.16192281852E+02  0.38141128669E+02  0.47000000000E+01 0.  1.
         13    1    6    6    0    0  0.16362922968E+01  0.72761135293E+02  0.17678626923E+03  0.19118118435E+03  0.00000000000E+00 0. -1.
        -14    1    6    6    0    0 -0.70667505006E+02  0.71362612563E+02  0.38237460326E+03  0.39534397169E+03  0.00000000000E+00 0.  1.
</event>
<event>
12    1  0.9246030E-003  0.1768765E+03  0.7818608E-02  0.1171200E+00
         21   -1    0    0  503  502  0.00000000000E+00  0.00000000000E+00  0.34477597923E+03  0.34477597923E+03  0.00000000000E+00 0. -1.
         21   -1    0    0  501  503 -0.00000000000E+00 -0.00000000000E+00 -0.90589832004E+02  0.90589832004E+02  0.00000000000E+00 0. -1.
          6    2    1    2  501    0  0.21460878786E+02  0.32603098225E+02  0.14451683545E+03  0.22840840158E+03  0.17251594376E+03 0.  0.
         24    2    3    3    0    0 -0.12588445369E+01 -0.18715674345E+02  0.96139287856E+01  0.82221239106E+02  0.79473538852E+02 0.  0.
         -6    2    1    2    0  502 -0.21460878786E+02 -0.32603098225E+02  0.10966931178E+03  0.20695740966E+03  0.17111540005E+03 0.  0.
        -24    2    5    5    0    0 -0.63743308676E+02  0.16140983025E+02  0.38979280828E+02  0.11112964849E+03  0.80663955430E+02 0.  0.
          5    1    3    3  501    0  0.22719723323E+02  0.51318772570E+02  0.13490290666E+03  0.14618716247E+03  0.47000000000E+01 0. -1.
        -11    1    4    4    0    0 -0.37601743899E+02 -0.93061018416E+01  0.19546148035E+02  0.43388323069E+02  0.00000000000E+00 0.  1.
         12    1    4    4    0    0  0.36342899362E+02 -0.94095725034E+01 -0.99322192494E+01  0.38832916037E+02  0.00000000000E+00 0. -1.
         -5    1    5    5    0  502  0.42282429890E+02 -0.48744081250E+02  0.70690030953E+02  0.95827761168E+02  0.47000000000E+01 0.  1.
         13    1    6    6    0    0 -0.86303897506E+01 -0.26057134479E+02  0.30768644117E+02  0.41233085566E+02  0.00000000000E+00 0. -1.
        -14    1    6    6    0    0 -0.55112918925E+02  0.42198117504E+02  0.82106367111E+01  0.69896562924E+02  0.00000000000E+00 0.  1.
</event>
<event>
12    1  0.9246030E-003  0.1740828E+03  0.7818608E-02  0.1174044E+00
         21   -1    0    0  503  502  0.00000000000E+00  0.00000000000E+00  0.39228211339E+04  0.39228211339E+04  0.00000000000E+00 0. -1.
         21   -1    0    0  501  503 -0.00000000000E+00 -0.00000000000E+00 -0.77632766139E+01  0.77632766139E+01  0.00000000000E+00 0. -1.
          6    2    1    2  501    0 -0.25861231472E+02  0.14190010934E+02  0.17196159218E+04  0.17282515337E+04  0.17001260347E+03 0.  0.
         24    2    3    3    0    0 -0.28136948257E+02  0.11581615278E+02  0.42227495716E+03  0.43089743736E+03  0.80191273904E+02 0.  0.
         -6    2    1    2    0  502  0.25861231472E+02 -0.14190010934E+02  0.21954419355E+04  0.22023328769E+04  0.17156529001E+03 0.  0.
        -24    2    5    5    0    0  0.56753204221E+01 -0.68171995626E+02  0.95805529549E+03  0.96359589409E+03  0.77249385942E+02 0.  0.
          5    1    3    3  501    0  0.22757167854E+01  0.26083956564E+01  0.12973409646E+04  0.12973540963E+04  0.47000000000E+01 0. -1.
        -13    1    4    4    0    0  0.27299176578E+02  0.97037567610E+01  0.11098802436E+03  0.11470723381E+03  0.00000000000E+00 0.  1.
         14    1    4    4    0    0 -0.55436124836E+02  0.18778585170E+01  0.31128693280E+03  0.31619020355E+03  0.00000000000E+00 0. -1.
         -5    1    5    5    0  502  0.20185911050E+02  0.53981984691E+02  0.12373866400E+04  0.12387369828E+04  0.47000000000E+01 0.  1.
         11    1    6    6    0    0  0.38989713433E+02 -0.25349116471E+02  0.34037598563E+03  0.34353833418E+03  0.00000000000E+00 0. -1.
        -12    1    6    6    0    0 -0.33314393011E+02 -0.42822879155E+02  0.61767930986E+03  0.62005755990E+03  0.00000000000E+00 0.  1.
</event>
<event>
12    1  0.9246030E-003  0.1774250E+03  0.7818608E-02  0.1170794E+00
         21   -1    0    0  501  502  0.00000000000E+00  0.00000000000E+00  0.86634785741E+02  0.86634785741E+02  0.00000000000E+00 0.  1.
         21   -1    0    0  502  503 -0.00000000000E+00 -0.00000000000E+00 -0.36023741211E+03  0.36023741211E+03  0.00000000000E+00 0.  1.
          6    2    1    2  501    0 -0.40341767895E+02 -0.10830531067E+02 -0.14651695961E+03  0.22862832211E+03  0.17046680491E+03 0.  0.
         24    2    3    3    0    0 -0.47491148388E+02 -0.15157074833E+02 -0.17298962504E+03  0.20047295606E+03  0.88197787101E+02 0.  0.
         -6    2    1    2    0  503  0.40341767895E+02  0.10830531067E+02 -0.12708566676E+03  0.21824387574E+03  0.17243800034E+03 0.  0.
        -24    2    5    5    0    0  0.49747829619E+02  0.27718534345E+02 -0.15628870968E+03  0.18290853411E+03  0.76067124169E+02 0.  0.
          5    1    3    3  501    0  0.71493804928E+01  0.43265437658E+01  0.26472665428E+02  0.28155366047E+02  0.47000000000E+01 0.  1.
        -11    1    4    4    0    0 -0.62398920846E+02  0.17976211331E+02 -0.10813218701E+03  0.12613222968E+03  0.00000000000E+00 0.  1.
         12    1    4    4    0    0  0.14907772458E+02 -0.33133286164E+02 -0.64857438027E+02  0.74340726383E+02  0.00000000000E+00 0. -1.
         -5    1    5    5    0  503 -0.94060617231E+01 -0.16888003278E+02  0.29203042924E+02  0.35335341626E+02  0.47000000000E+01 0.  1.
         11    1    6    6    0    0  0.57015171334E+02  0.46653529871E+02 -0.13288230282E+03  0.15193744771E+03  0.00000000000E+00 0. -1.
        -12    1    6    6    0    0 -0.72673417158E+01 -0.18934995526E+02 -0.23406406857E+02  0.30971086406E+02  0.00000000000E+00 0.  1.
</event>
<event>
12    1  0.9246030E-003  0.1994211E+03  0.7818608E-02  0.1150353E+00
         21   -1    0    0  501  502  0.00000000000E+00  0.00000000000E+00  0.26707877156E+03  0.26707877156E+03  0.00000000000E+00 0. -1.
         21   -1    0    0  502  503 -0.00000000000E+00 -0.00000000000E+00 -0.15861587692E+03  0.15861587692E+03  0.00000000000E+00 0. -1.
          6    2    1    2  501    0 -0.81037112152E+02 -0.60249437914E+02  0.10800552422E+03  0.22627298243E+03  0.17128123364E+03 0.  0.
         24    2    3    3    0    0 -0.41312185820E+02 -0.17007504075E+02 -0.15982180410E+02  0.89003264301E+02  0.75300724256E+02 0.  0.
         -6    2    1    2    0  503  0.81037112152E+02  0.60249437914E+02  0.45737041956E+00  0.19942166605E+03  0.17196448292E+03 0.  0.
        -24    2    5    5    0    0 -0.24914489978E+02  0.35907239139E+02  0.34967948724E+01  0.90565739540E+02  0.79245592752E+02 0.  0.
          5    1    3    3  501    0 -0.39724926332E+02 -0.43241933839E+02  0.12398770463E+03  0.13726971812E+03  0.47000000000E+01 0. -1.
        -11    1    4    4    0    0 -0.53175432325E+02 -0.36610349161E+02 -0.13501543444E+02  0.65956318454E+02  0.00000000000E+00 0.  1.
         12    1    4    4    0    0  0.11863246505E+02  0.19602845086E+02 -0.24806369658E+01  0.23046945847E+02  0.00000000000E+00 0. -1.
         -5    1    5    5    0  503  0.10595160213E+03  0.24342198775E+02 -0.30394244528E+01  0.10885592651E+03  0.47000000000E+01 0.  1.
         13    1    6    6    0    0 -0.23326298844E+02  0.41543782687E+01 -0.33977130392E+02  0.41422463304E+02  0.00000000000E+00 0. -1.
        -14    1    6    6    0    0 -0.15881911344E+01  0.31752860870E+02  0.37473925264E+02  0.49143276236E+02  0.00000000000E+00 0.  1.
</event>
<event>
12    1  0.9246030E-003  0.2248184E+03  0.7818608E-02  0.1130409E+00
         21   -1    0    0  503  502  0.00000000000E+00  0.00000000000E+00  0.52473188945E+02  0.52473188945E+02  0.00000000000E+00 0.  1.
         21   -1    0    0  501  503 -0.00000000000E+00 -0.00000000000E+00 -0.96463868665E+03  0.96463868665E+03  0.00000000000E+00 0. -1.
          6    2    1    2  501    0 -0.85346186440E+02 -0.11706390993E+03 -0.48414333232E+03  0.53363873635E+03  0.17142813118E+03 0.  0.
         24    2    3    3    0    0 -0.69574847170E+02 -0.11756950768E+03 -0.49106370420E+03  0.51577894020E+03  0.78873982249E+02 0.  0.
         -6    2    1    2    0  502  0.85346186440E+02  0.11706390993E+03 -0.42802216539E+03  0.48347313924E+03  0.17191675823E+03 0.  0.
        -24    2    5    5    0    0  0.67310205142E+02  0.46215570044E+02 -0.11887159290E+03  0.16576108351E+03  0.81729667680E+02 0.  0.
          5    1    3    3  501    0 -0.15771339270E+02  0.50559775288E+00  0.69203718851E+01  0.17859796149E+02  0.47000000000E+01 0. -1.
        -13    1    4    4    0    0 -0.21492433558E+02 -0.69501595887E+02 -0.13570535703E+03  0.15397512935E+03  0.00000000000E+00 0.  1.
         14    1    4    4    0    0 -0.48082413612E+02 -0.48067911791E+02 -0.35535834717E+03  0.36180381086E+03  0.00000000000E+00 0. -1.
         -5    1    5    5    0  502  0.18035981299E+02  0.70848339881E+02 -0.30915057249E+03  0.31771205573E+03  0.47000000000E+01 0.  1.
         13    1    6    6    0    0  0.22134564962E+02  0.32701426065E+02 -0.11117975833E+03  0.11798415527E+03  0.00000000000E+00 0. -1.
        -14    1    6    6    0    0  0.45175640180E+02  0.13514143979E+02 -0.76918345649E+01  0.47776928241E+02  0.00000000000E+00 0.  1.
</event>
<event>
12    1  0.9246030E-003  0.2320285E+03  0.7818608E-02  0.1125376E+00
         21   -1    0    0  501  502  0.00000000000E+00  0.00000000000E+00  0.37880672150E+03  0.37880672150E+03  0.00000000000E+00 0.  1.
         21   -1    0    0  502  503 -0.00000000000E+00 -0.00000000000E+00 -0.15429397164E+03  0.15429397164E+03  0.00000000000E+00 0.  1.
          6    2    1    2  501    0 -0.13159844647E+03  0.80605151295E+02  0.18858503695E+03  0.29830713566E+03  0.17206826987E+03 0.  0.
         24    2    3    3    0    0 -0.11152927139E+03  0.88033001942E+02  0.21079109088E+03  0.26711188626E+03  0.82020046227E+02 0.  0.
         -6    2    1    2    0  503  0.13159844647E+03 -0.80605151295E+02  0.35927712915E+02  0.23479355748E+03  0.17326820986E+03 0.  0.
        -24    2    5    5    0    0  0.37901904102E+02  0.21976093008E+02 -0.51268973481E+01  0.89846930202E+02  0.78273129436E+02 0.  0.
          5    1    3    3  501    0 -0.20069175079E+02 -0.74278506470E+01 -0.22206053931E+02  0.31195249394E+02  0.47000000000E+01 0. -1.
        -13    1    4    4    0    0 -0.10311735012E+03  0.10112363935E+03  0.16782289125E+03  0.22141296520E+03  0.00000000000E+00 0.  1.
         14    1    4    4    0    0 -0.84119212748E+01 -0.13090637412E+02  0.42968199623E+02  0.45698921062E+02  0.00000000000E+00 0. -1.
         -5    1    5    5    0  503  0.93696542367E+02 -0.10258124430E+03  0.41054610263E+02  0.14494662727E+03  0.47000000000E+01 0.  1.
         13    1    6    6    0    0  0.53657086573E+02  0.26555234363E+02  0.17060494799E+02  0.62252099517E+02  0.00000000000E+00 0. -1.
        -14    1    6    6    0    0 -0.15755182471E+02 -0.45791413545E+01 -0.22187392147E+02  0.27594830684E+02  0.00000000000E+00 0.  1.
</event>
<event>
12    1  0.9246030E-003  0.2111229E+03  0.7818608E-02  0.1140705E+00
         21   -1    0    0  503  502  0.00000000000E+00  0.00000000000E+00  0.26339969325E+03  0.26339969325E+03  0.00000000000E+00 0.  1.
         21   -1    0    0  501  503 -0.00000000000E+00 -0.00000000000E+00 -0.17232983628E+03  0.17232983628E+03  0.00000000000E+00 0. -1.
          6    2    1    2  501    0  0.15431873852E+02 -0.12170314175E+03  0.15779113008E+02  0.21158317052E+03  0.17166438244E+03 0.  0.
         24    2    3    3    0    0 -0.34290544189E+01 -0.89122866312E+02  0.74466004588E+02  0.14170148332E+03  0.81113998930E+02 0.  0.
         -6    2    1    2    0  502 -0.15431873852E+02  0.12170314175E+03  0.75290743963E+02  0.22414635900E+03  0.17182286426E+03 0.  0.
        -24    2    5    5    0    0  0.28929809431E+02  0.48582520903E+01  0.35385353401E+02  0.92863392169E+02  0.80690457198E+02 0.  0.
          5    1    3    3  501    0  0.18860928270E+02 -0.32580275439E+02 -0.58686891580E+02  0.69881687202E+02  0.47000000000E+01 0. -1.
        -13    1    4    4    0    0 -0.39011777901E+02 -0.23520301707E+02  0.22877485121E+02  0.50975511109E+02  0.00000000000E+00 0.  1.
         14    1    4    4    0    0  0.35582723482E+02 -0.65602564605E+02  0.51588519466E+02  0.90725972212E+02  0.00000000000E+00 0. -1.
         -5    1    5    5    0  502 -0.44361683283E+02  0.11684488966E+03  0.39905390562E+02  0.13128296683E+03  0.47000000000E+01 0.  1.
         13    1    6    6    0    0  0.67382617425E+01  0.16113013800E+02 -0.23301032737E+02  0.29119950406E+02  0.00000000000E+00 0. -1.
        -14    1    6    6    0    0  0.22191547689E+02 -0.11254761710E+02  0.58686386137E+02  0.63743441763E+02  0.00000000000E+00 0.  1.
</event>
<event>
12    1  0.9246030E-003  0.2966156E+03  0.7818608E-02  0.1087787E+00
         21   -1    0    0  501  502  0.00000000000E+00  0.00000000000E+00  0.22311082357E+03  0.22311082357E+03  0.00000000000E+00 0.  1.
         21   -1    0    0  502  503 -0.00000000000E+00 -0.00000000000E+00 -0.52467346360E+03  0.52467346360E+03  0.00000000000E+00 0. -1.
          6    2    1    2  501    0  0.44353551766E+02 -0.23128195112E+03 -0.34198942555E+03  0.44842640195E+03  0.16932481302E+03 0.  0.
         24    2    3    3    0    0 -0.34601231718E+02 -0.86470605575E+02 -0.14113419521E+03  0.18848583722E+03  0.83268474890E+02 0.  0.
         -6    2    1    2    0  503 -0.44353551766E+02  0.23128195112E+03  0.40426785522E+02  0.29935788523E+03  0.18033923587E+03 0.  0.
        -24    2    5    5    0    0 -0.79981472375E+01  0.24451259343E+03  0.27897040412E+02  0.25842074015E+03  0.78438863902E+02 0.  0.
          5    1    3    3  501    0  0.78954783484E+02 -0.14481134554E+03 -0.20085523034E+03  0.25994056472E+03  0.47000000000E+01 0. -1.
        -13    1    4    4    0    0  0.26259382014E+02 -0.14528952911E+02 -0.26010036936E+02  0.39713569946E+02  0.00000000000E+00 0.  1.
         14    1    4    4    0    0 -0.60860613732E+02 -0.71941652664E+02 -0.11512415828E+03  0.14877226728E+03  0.00000000000E+00 0. -1.
         -5    1    5    5    0  503 -0.36355404529E+02 -0.13230642314E+02  0.12529745110E+02  0.40937145077E+02  0.47000000000E+01 0.  1.
         13    1    6    6    0    0 -0.33048497459E+02  0.21490825559E+03  0.16794502648E+02  0.21808213321E+03  0.00000000000E+00 0. -1.
        -14    1    6    6    0    0  0.25050350222E+02  0.29604337840E+02  0.11102537764E+02  0.40338606941E+02  0.00000000000E+00 0.  1.
</event>
<event>
12    1  0.9246030E-003  0.1761430E+03  0.7818608E-02  0.1172194E+00
         21   -1    0    0  501  502  0.00000000000E+00  0.00000000000E+00  0.92603226754E+02  0.92603226754E+02  0.00000000000E+00 0. -1.
         21   -1    0    0  502  503 -0.00000000000E+00 -0.00000000000E+00 -0.38714212804E+03  0.38714212804E+03  0.00000000000E+00 0. -1.
          6    2    1    2  501    0 -0.17399455010E+02 -0.10220755290E+02 -0.56363565147E+02  0.18494107753E+03  0.17498327294E+03 0.  0.
         24    2    3    3    0    0 -0.54477235471E+02 -0.59635886984E+02 -0.30940542845E+02  0.11797065788E+03  0.80221884352E+02 0.  0.
         -6    2    1    2    0  503  0.17399455010E+02  0.10220755290E+02 -0.23817533614E+03  0.29480427727E+03  0.17255395179E+03 0.  0.
        -24    2    5    5    0    0  0.24411566376E+02  0.41779098017E+01 -0.33273641117E+02  0.89639757162E+02  0.79465535722E+02 0.  0.
          5    1    3    3  501    0  0.37077780461E+02  0.49415131694E+02 -0.25423022302E+02  0.66970419644E+02  0.47000000000E+01 0. -1.
        -13    1    4    4    0    0 -0.21651507982E+02 -0.44415009286E+02  0.21803964045E+02  0.54008274328E+02  0.00000000000E+00 0.  1.
         14    1    4    4    0    0 -0.32825727489E+02 -0.15220877698E+02 -0.52744506890E+02  0.63962383556E+02  0.00000000000E+00 0. -1.
         -5    1    5    5    0  503 -0.70121113668E+01  0.60428454881E+01 -0.20490169502E+03  0.20516452010E+03  0.47000000000E+01 0.  1.
         11    1    6    6    0    0 -0.20516752469E+02 -0.22663578998E+02 -0.16146618964E+02  0.34572940992E+02  0.00000000000E+00 0. -1.
        -12    1    6    6    0    0  0.44928318846E+02  0.26841488800E+02 -0.17127022153E+02  0.55066816170E+02  0.00000000000E+00 0.  1.
</event>
<event>
12    1  0.9246030E-003  0.1871009E+03  0.7818608E-02  0.1161347E+00
         21   -1    0    0  503  502  0.00000000000E+00  0.00000000000E+00  0.23546275619E+03  0.23546275619E+03  0.00000000000E+00 0.  1.
         21   -1    0    0  501  503 -0.00000000000E+00 -0.00000000000E+00 -0.18168634547E+03  0.18168634547E+03  0.00000000000E+00 0.  1.
          6    2    1    2  501    0 -0.14972092644E+02 -0.63395929831E+02 -0.63206626889E+02  0.19648698399E+03  0.17426660529E+03 0.  0.
         24    2    3    3    0    0 -0.40125304580E+01 -0.54052147988E+02 -0.11213887415E+03  0.14526322891E+03  0.74756561412E+02 0.  0.
         -6    2    1    2    0  502  0.14972092644E+02  0.63395929831E+02  0.11698303761E+03  0.22066211767E+03  0.17539535800E+03 0.  0.
        -24    2    5    5    0    0  0.42177488606E+01  0.11135057772E+03  0.97470330261E+02  0.16757596210E+03  0.78514312253E+02 0.  0.
          5    1    3    3  501    0 -0.10959562186E+02 -0.93437818428E+01  0.48932247265E+02  0.51223755083E+02  0.47000000000E+01 0. -1.
        -13    1    4    4    0    0  0.11556427803E+02 -0.49147613284E+02 -0.24502474000E+02  0.56119605729E+02  0.00000000000E+00 0.  1.
         14    1    4    4    0    0 -0.15568958261E+02 -0.49045347042E+01 -0.87636400154E+02  0.89143623181E+02  0.00000000000E+00 0. -1.
         -5    1    5    5    0  502  0.10754343784E+02 -0.47954647892E+02  0.19512707351E+02  0.53086155566E+02  0.47000000000E+01 0.  1.
         11    1    6    6    0    0  0.37124601120E+02  0.35869990853E+02  0.53029577219E+02  0.74006947728E+02  0.00000000000E+00 0. -1.
        -12    1    6    6    0    0 -0.32906852259E+02  0.75480586870E+02  0.44440753043E+02  0.93569014374E+02  0.00000000000E+00 0.  1.
</event>
<event>
12    1  0.9246030E-003  0.1734176E+03  0.7818608E-02  0.1174499E+00
         21   -1    0    0  503  502  0.00000000000E+00  0.00000000000E+00  0.12675298022E+03  0.12675298022E+03  0.00000000000E+00 0.  1.
         21   -1    0    0  501  503 -0.00000000000E+00 -0.00000000000E+00 -0.40391871788E+03  0.40391871788E+03  0.00000000000E+00 0.  1.
          6    2    1    2  501    0 -0.13061907465E+02 -0.15926130988E+02 -0.30963602585E+03  0.35489171121E+03  0.17219002035E+03 0.  0.
         24    2    3    3    0    0 -0.64754643448E+02 -0.44293674737E+02 -0.18200985357E+03  0.21422406624E+03  0.81297418709E+02 0.  0.
         -6    2    1    2    0  502  0.13061907465E+02  0.15926130988E+02  0.32470288186E+02  0.17577998690E+03  0.17152267811E+03 0.  0.
        -24    2    5    5    0    0  0.37717506092E+02  0.29897784295E+02 -0.32757628802E+02  0.10450673249E+03  0.86787712951E+02 0.  0.
          5    1    3    3  501    0  0.51692735983E+02  0.28367543749E+02 -0.12762617227E+03  0.14066764497E+03  0.47000000000E+01 0. -1.
        -11    1    4    4    0    0 -0.35472241179E+01 -0.44332796067E+02 -0.11585108818E+03  0.12409453751E+03  0.00000000000E+00 0.  1.
         12    1    4    4    0    0 -0.61207419330E+02  0.39121329741E-01 -0.66158765389E+02  0.90129528731E+02  0.00000000000E+00 0. -1.
         -5    1    5    5    0  502 -0.24655598627E+02 -0.13971653307E+02  0.65227916988E+02  0.71273254412E+02  0.47000000000E+01 0.  1.
         13    1    6    6    0    0  0.55868621634E+02 -0.16286328191E+01 -0.51245333095E+00  0.55894704012E+02  0.00000000000E+00 0. -1.
        -14    1    6    6    0    0 -0.18151115542E+02  0.31526417114E+02 -0.32245175471E+02  0.48612028477E+02  0.00000000000E+00 0.  1.
</event>
<event>
12    1  0.9246030E-003  0.2247405E+03  0.7818608E-02  0.1131547E+00
         21   -1    0    0  503  502  0.00000000000E+00  0.00000000000E+00  0.10215830231E+03  0.10215830231E+03  0.00000000000E+00 0. -1.
         21   -1    0    0  501  503 -0.00000000000E+00 -0.00000000000E+00 -0.48221409464E+03  0.48221409464E+03  0.00000000000E+00 0.  1.
          6    2    1    2  501    0 -0.84137354397E+02  0.11815828965E+03 -0.20338385695E+03  0.29850311339E+03  0.16339718364E+03 0.  0.
         24    2    3    3    0    0  0.13448076023E+02  0.67370319900E+02 -0.70935093200E+02  0.12626171558E+03  0.78680509799E+02 0.  0.
         -6    2    1    2    0  502  0.84137354397E+02 -0.11815828965E+03 -0.17667193539E+03  0.28586928356E+03  0.17166187320E+03 0.  0.
        -24    2    5    5    0    0  0.11441058465E+03 -0.68384064924E+02 -0.85400484244E+02  0.17748796731E+03  0.80265644058E+02 0.  0.
          5    1    3    3  501    0 -0.97585430420E+02  0.50787969746E+02 -0.13244876375E+03  0.17224139781E+03  0.47000000000E+01 0. -1.
        -13    1    4    4    0    0  0.22779539622E+00  0.20114918894E+02 -0.74398226904E+02  0.77069825609E+02  0.00000000000E+00 0.  1.
         14    1    4    4    0    0  0.13220280627E+02  0.47255401006E+02  0.34631337044E+01  0.49191889973E+02  0.00000000000E+00 0. -1.
         -5    1    5    5    0  502 -0.30273230254E+02 -0.49774224723E+02 -0.91271451146E+02  0.10838131624E+03  0.47000000000E+01 0.  1.
         11    1    6    6    0    0  0.25540186976E+01 -0.31301961466E+02  0.90791073852E+00  0.31419104142E+02  0.00000000000E+00 0. -1.
        -12    1    6    6    0    0  0.11185656595E+03 -0.37082103457E+02 -0.86308394983E+02  0.14606886317E+03  0.00000000000E+00 0.  1.
</event>
<event>
12    1  0.9246030E-003  0.1907912E+03  0.7818608E-02  0.1157783E+00
         21   -1    0    0  503  502  0.00000000000E+00  0.00000000000E+00  0.92083822339E+02  0.92083822339E+02  0.00000000000E+00 0. -1.
         21   -1    0    0  501  503 -0.00000000000E+00 -0.00000000000E+00 -0.46187476654E+03  0.46187476654E+03  0.00000000000E+00 0. -1.
          6    2    1    2  501    0 -0.75260841109E+02 -0.31076212927E+02 -0.79559301152E+02  0.20671469757E+03  0.17254378742E+03 0.  0.
         24    2    3    3    0    0  0.11320022621E+02 -0.51911866079E+02 -0.67976932715E+02  0.11678910797E+03  0.78713706595E+02 0.  0.
         -6    2    1    2    0  502  0.75260841109E+02  0.31076212927E+02 -0.29023164305E+03  0.34724389131E+03  0.17237745854E+03 0.  0.
        -24    2    5    5    0    0  0.11759480914E+02  0.76614584000E+02 -0.18450318102E+03  0.21568871783E+03  0.80449483029E+02 0.  0.
          5    1    3    3  501    0 -0.86580863731E+02  0.20835653152E+02 -0.11582368437E+02  0.89925589602E+02  0.47000000000E+01 0. -1.
        -13    1    4    4    0    0  0.11202293084E+02 -0.46774610038E+02  0.51953620862E+00  0.48100160420E+02  0.00000000000E+00 0.  1.
         14    1    4    4    0    0  0.11772953735E+00 -0.51372560418E+01 -0.68496468924E+02  0.68688947546E+02  0.00000000000E+00 0. -1.
         -5    1    5    5    0  502  0.63501360195E+02 -0.45538371073E+02 -0.10572846203E+03  0.13155517348E+03  0.47000000000E+01 0.  1.
         11    1    6    6    0    0 -0.13773614210E+01  0.58025869378E+02 -0.42666006450E+02  0.72036704172E+02  0.00000000000E+00 0. -1.
        -12    1    6    6    0    0  0.13136842335E+02  0.18588714622E+02 -0.14183717457E+03  0.14365201366E+03  0.00000000000E+00 0.  1.
</event>
<event>
12    1  0.9246030E-003  0.1850930E+03  0.7818608E-02  0.1163005E+00
         21   -1    0    0  501  502  0.00000000000E+00  0.00000000000E+00  0.37311815844E+02  0.37311815844E+02  0.00000000000E+00 0. -1.
         21   -1    0    0  502  503 -0.00000000000E+00 -0.00000000000E+00 -0.95900371340E+03  0.95900371340E+03  0.00000000000E+00 0.  1.
          6    2    1    2  501    0 -0.23272288632E+02 -0.61231671771E+02 -0.35718092607E+03  0.40229047390E+03  0.17311410801E+03 0.  0.
         24    2    3    3    0    0  0.45551647122E+02 -0.33417939681E+02 -0.12838700230E+03  0.16170974445E+03  0.80468054792E+02 0.  0.
         -6    2    1    2    0  503  0.23272288632E+02  0.61231671771E+02 -0.56451097148E+03  0.59402505534E+03  0.17292256189E+03 0.  0.
        -24    2    5    5    0    0  0.65190090221E+02  0.44945331054E+02 -0.50922682552E+03  0.52260535373E+03  0.86801873675E+02 0.  0.
          5    1    3    3  501    0 -0.68823935755E+02 -0.27813732090E+02 -0.22879392378E+03  0.24058072945E+03  0.47000000000E+01 0. -1.
        -11    1    4    4    0    0 -0.13385307669E+02  0.12333534819E+02 -0.51281059611E+02  0.54415343584E+02  0.00000000000E+00 0.  1.
         12    1    4    4    0    0  0.58936954791E+02 -0.45751474501E+02 -0.77105942688E+02  0.10729440086E+03  0.00000000000E+00 0. -1.
         -5    1    5    5    0  503 -0.41917801588E+02  0.16286340718E+02 -0.55284145956E+02  0.71419701610E+02  0.47000000000E+01 0.  1.
         13    1    6    6    0    0  0.49887059806E+01  0.11903126647E+02 -0.51882017109E+01  0.13910034088E+02  0.00000000000E+00 0. -1.
        -14    1    6    6    0    0  0.60201384240E+02  0.33042204407E+02 -0.50403862381E+03  0.50869531965E+03  0.00000000000E+00 0.  1.
</event>
<event>
12    1  0.9246030E-003  0.2222476E+03  0.7818608E-02  0.1132268E+00
         21   -1    0    0  503  502  0.00000000000E+00  0.00000000000E+00  0.38114324209E+02  0.38114324209E+02  0.00000000000E+00 0. -1.
         21   -1    0    0  501  503 -0.00000000000E+00 -0.00000000000E+00 -0.16849072018E+04  0.16849072018E+04  0.00000000000E+00 0.  1.
          6    2    1    2  501    0  0.14031058793E+03 -0.17823268748E+02 -0.12377808946E+04  0.12575273735E+04  0.17108133128E+03 0.  0.
         24    2    3    3    0    0  0.45254706800E+01  0.18476165645E+02 -0.50717574338E+03  0.51351042202E+03  0.78127269699E+02 0.  0.
         -6    2    1    2    0  502 -0.14031058793E+03  0.17823268748E+02 -0.40901198299E+03  0.46549415257E+03  0.17143300107E+03 0.  0.
        -24    2    5    5    0    0 -0.85377223466E+02 -0.92615887940E+01 -0.11041787804E+03  0.16064698832E+03  0.78995567929E+02 0.  0.
          5    1    3    3  501    0  0.13578511725E+03 -0.36299434393E+02 -0.73060515126E+03  0.74401695146E+03  0.47000000000E+01 0. -1.
        -13    1    4    4    0    0 -0.21865211150E+02  0.30116883444E+01 -0.42894383799E+03  0.42951131984E+03  0.00000000000E+00 0.  1.
         14    1    4    4    0    0  0.26390681830E+02  0.15464477300E+02 -0.78231905385E+02  0.83999102173E+02  0.00000000000E+00 0. -1.
         -5    1    5    5    0  502 -0.54933364463E+02  0.27084857542E+02 -0.29859410496E+03  0.30484716425E+03  0.47000000000E+01 0.  1.
         11    1    6    6    0    0 -0.93439567141E+01 -0.28774138538E+02 -0.60443451672E+02  0.67591947936E+02  0.00000000000E+00 0. -1.
        -12    1    6    6    0    0 -0.76033266751E+02  0.19512549744E+02 -0.49974426364E+02  0.93055040383E+02  0.00000000000E+00 0.  1.
</event>
<event>
12    1  0.9246030E-003  0.2142886E+03  0.7818608E-02  0.1139614E+00
         21   -1    0    0  501  502  0.00000000000E+00  0.00000000000E+00  0.19058138537E+03  0.19058138537E+03  0.00000000000E+00 0.  1.
         21   -1    0    0  502  503 -0.00000000000E+00 -0.00000000000E+00 -0.24693763003E+03  0.24693763003E+03  0.00000000000E+00 0.  1.
          6    2    1    2  501    0  0.56126988687E+02  0.10111963189E+03 -0.79697624757E+02  0.22196294310E+03  0.17187326117E+03 0.  0.
         24    2    3    3    0    0  0.38694254113E+02  0.31637305637E+02 -0.10695443494E+03  0.14517285521E+03  0.84485160392E+02 0.  0.
         -6    2    1    2    0  503 -0.56126988687E+02 -0.10111963189E+03  0.23341380094E+02  0.21555607230E+03  0.18040005949E+03 0.  0.
        -24    2    5    5    0    0 -0.64287951368E+02  0.91007671752E+01 -0.43895206091E+00  0.10240691463E+03  0.79191027465E+02 0.  0.
          5    1    3    3  501    0  0.17432734574E+02  0.69482326256E+02  0.27256810185E+02  0.76790087890E+02  0.47000000000E+01 0. -1.
        -13    1    4    4    0    0  0.55829577720E+02  0.19758795590E+01 -0.92354473144E+02  0.10793606699E+03  0.00000000000E+00 0.  1.
         14    1    4    4    0    0 -0.17135323607E+02  0.29661426078E+02 -0.14599961799E+02  0.37236788216E+02  0.00000000000E+00 0. -1.
         -5    1    5    5    0  503  0.81609626810E+01 -0.11022039907E+03  0.23780332155E+02  0.11314915766E+03  0.47000000000E+01 0.  1.
         11    1    6    6    0    0  0.31263888896E+01  0.18594282018E+02  0.23600568499E+02  0.30207755043E+02  0.00000000000E+00 0. -1.
        -12    1    6    6    0    0 -0.67414340258E+02 -0.94935148431E+01 -0.24039520560E+02  0.72199159588E+02  0.00000000000E+00 0.  1.
</event>
<event>
12    1  0.9246030E-003  0.1918642E+03  0.7818608E-02  0.1157912E+00
         21   -1    0    0  501  502  0.00000000000E+00  0.00000000000E+00  0.17480043592E+03  0.17480043592E+03  0.00000000000E+00 0. -1.
         21   -1    0    0  502  503 -0.00000000000E+00 -0.00000000000E+00 -0.20543384624E+03  0.20543384624E+03  0.00000000000E+00 0.  1.
          6    2    1    2  501    0 -0.64233192225E+02 -0.57573944749E+02 -0.21808969214E+02  0.18816725347E+03  0.16580296150E+03 0.  0.
         24    2    3    3    0    0 -0.95962131284E+02 -0.39105471932E+02  0.16217754559E+02  0.13510189959E+03  0.85155969452E+02 0.  0.
         -6    2    1    2    0  503  0.64233192225E+02  0.57573944749E+02 -0.88244410987E+01  0.19206702869E+03  0.17138030999E+03 0.  0.
        -24    2    5    5    0    0  0.39056684980E+02  0.46486741431E+01  0.54770423866E+02  0.10545676581E+03  0.81082028294E+02 0.  0.
          5    1    3    3  501    0  0.31728939059E+02 -0.18468472818E+02 -0.38026723773E+02  0.53065353886E+02  0.47000000000E+01 0. -1.
        -11    1    4    4    0    0  0.11778921800E+02 -0.20609655237E+02  0.95322454852E+01  0.25580551045E+02  0.00000000000E+00 0.  1.
         12    1    4    4    0    0 -0.10774105308E+03 -0.18495816694E+02  0.66855090740E+01  0.10952134854E+03  0.00000000000E+00 0. -1.
         -5    1    5    5    0  503  0.25176507245E+02  0.52925270606E+02 -0.63594864965E+02  0.86610262877E+02  0.47000000000E+01 0.  1.
         11    1    6    6    0    0 -0.13030347420E+02 -0.68936139615E+01  0.49729655625E+02  0.51868588914E+02  0.00000000000E+00 0. -1.
        -12    1    6    6    0    0  0.52087032400E+02  0.11542288105E+02  0.50407682409E+01  0.53588176899E+02  0.00000000000E+00 0.  1.
</event>
<event>
12    1  0.9246030E-003  0.2319407E+03  0.7818608E-02  0.1125420E+00
         21   -1    0    0  501  502  0.00000000000E+00  0.00000000000E+00  0.14739344067E+03  0.14739344067E+03  0.00000000000E+00 0. -1.
         21   -1    0    0  502  503 -0.00000000000E+00 -0.00000000000E+00 -0.56314382186E+03  0.56314382186E+03  0.00000000000E+00 0.  1.
          6    2    1    2  501    0 -0.15527625434E+03  0.89020543638E+01  0.33024419950E+01  0.23196423966E+03  0.17206551259E+03 0.  0.
         24    2    3    3    0    0 -0.22671230813E+02  0.22600134269E+02 -0.33923196632E+02  0.93473922924E+02  0.81005186387E+02 0.  0.
         -6    2    1    2    0  503  0.15527625434E+03 -0.89020543638E+01 -0.41905282318E+03  0.47857302287E+03  0.17098803429E+03 0.  0.
        -24    2    5    5    0    0  0.17789539301E+03 -0.12666128868E+02 -0.30360108946E+03  0.36077240101E+03  0.78586908158E+02 0.  0.
          5    1    3    3  501    0 -0.13260502352E+03 -0.13698079905E+02  0.37225638627E+02  0.13849031673E+03  0.47000000000E+01 0. -1.
        -11    1    4    4    0    0 -0.18125536545E+02 -0.15955571362E+02 -0.46724096909E+02  0.52595214273E+02  0.00000000000E+00 0.  1.
         12    1    4    4    0    0 -0.45456942684E+01  0.38555705631E+02  0.12800900277E+02  0.40878708651E+02  0.00000000000E+00 0. -1.
         -5    1    5    5    0  503 -0.22619138675E+02  0.37640745040E+01 -0.11545173372E+03  0.11780062186E+03  0.47000000000E+01 0.  1.
         11    1    6    6    0    0 -0.76361775143E+01  0.44043101952E+00 -0.55552415011E+01  0.94533536192E+01  0.00000000000E+00 0. -1.
        -12    1    6    6    0    0  0.18553157053E+03 -0.13106559887E+02 -0.29804584796E+03  0.35131904739E+03  0.00000000000E+00 0.  1.
</event>
<event>
12    1  0.9246030E-003  0.2259949E+03  0.7818608E-02  0.1129492E+00
         21   -1    0    0  501  502  0.00000000000E+00  0.00000000000E+00  0.27943932130E+02  0.27943932130E+02  0.00000000000E+00 0. -1.
         21   -1    0    0  502  503 -0.00000000000E+00 -0.00000000000E+00 -0.18459531266E+04  0.18459531266E+04  0.00000000000E+00 0.  1.
          6    2    1    2  501    0 -0.58196801370E+02 -0.13459687142E+03 -0.81576998039E+03  0.84649395419E+03  0.17195397084E+03 0.  0.
         24    2    3    3    0    0 -0.84493845173E+02 -0.33741528465E+02 -0.49286916680E+03  0.50715583353E+03  0.77519825114E+02 0.  0.
         -6    2    1    2    0  503  0.58196801370E+02  0.13459687142E+03 -0.10022392141E+04  0.10274031045E+04  0.17196078475E+03 0.  0.
        -24    2    5    5    0    0 -0.44624552035E+01  0.11775912342E+03 -0.85069706560E+03  0.86248856619E+03  0.79460082660E+02 0.  0.
          5    1    3    3  501    0  0.26297043803E+02 -0.10085534296E+03 -0.32290081359E+03  0.33933812066E+03  0.47000000000E+01 0. -1.
        -11    1    4    4    0    0 -0.44303931577E+02 -0.54550983339E+02 -0.23271820386E+03  0.24309753299E+03  0.00000000000E+00 0.  1.
         12    1    4    4    0    0 -0.40189913597E+02  0.20809454874E+02 -0.26015096293E+03  0.26405830054E+03  0.00000000000E+00 0. -1.
         -5    1    5    5    0  503  0.62659256574E+02  0.16837748001E+02 -0.15154214846E+03  0.16491453833E+03  0.47000000000E+01 0.  1.
         13    1    6    6    0    0  0.19059153841E+02  0.11230147870E+03 -0.60676214187E+03  0.61736145836E+03  0.00000000000E+00 0. -1.
        -14    1    6    6    0    0 -0.23521609045E+02  0.54576447159E+01 -0.24393492373E+03  0.24512710783E+03  0.00000000000E+00 0.  1.
</event>
<event>
12    1  0.9246030E-003  0.1950232E+03  0.7818608E-02  0.1154040E+00
         21   -1    0    0  501  502  0.00000000000E+00  0.00000000000E+00  0.96237329718E+03  0.96237329718E+03  0.00000000000E+00 0.  1.
         21   -1    0    0  502  503 -0.00000000000E+00 -0.00000000000E+00 -0.39544926924E+02  0.39544926924E+02  0.00000000000E+00 0.  1.
          6    2    1    2  501    0  0.71167097815E+02 -0.59663910171E+02  0.47974910913E+03  0.51781775556E+03  0.17132274300E+03 0.  0.
         24    2    3    3    0    0  0.11191826878E+03 -0.66011785034E+02  0.36473018641E+03  0.39553776523E+03  0.80862600717E+02 0.  0.
         -6    2    1    2    0  503 -0.71167097815E+02  0.59663910171E+02  0.44307926113E+03  0.48410046855E+03  0.17149196489E+03 0.  0.
        -24    2    5    5    0    0 -0.68243720211E+02  0.10482039608E+03  0.34782827931E+03  0.37854245657E+03  0.81641648400E+02 0.  0.
          5    1    3    3  501    0 -0.40751170963E+02  0.63478748628E+01  0.11501892272E+03  0.12227999032E+03  0.47000000000E+01 0. -1.
        -11    1    4    4    0    0  0.10320825299E+03 -0.34914871065E+02  0.33256725965E+03  0.34995996042E+03  0.00000000000E+00 0.  1.
         12    1    4    4    0    0  0.87100157893E+01 -0.31096913969E+02  0.32162926759E+02  0.45577804808E+02  0.00000000000E+00 0. -1.
         -5    1    5    5    0  503 -0.29233776038E+01 -0.45156485913E+02  0.95250981817E+02  0.10555801198E+03  0.47000000000E+01 0.  1.
         11    1    6    6    0    0 -0.49617767500E+02  0.32888018453E+02  0.74866938188E+02  0.95648330059E+02  0.00000000000E+00 0. -1.
        -12    1    6    6    0    0 -0.18625952710E+02  0.71932377631E+02  0.27296134112E+03  0.28289412651E+03  0.00000000000E+00 0.  1.
</event>
<event>
12    1  0.9246030E-003  0.3100917E+03  0.7818608E-02  0.1080627E+00
         21   -1    0    0  501  502  0.00000000000E+00  0.00000000000E+00  0.35506000728E+03  0.35506000728E+03  0.00000000000E+00 0. -1.
         21   -1    0    0  502  503 -0.00000000000E+00 -0.00000000000E+00 -0.27050642843E+03  0.27050642843E+03  0.00000000000E+00 0.  1.
          6    2    1    2  501    0 -0.17534265874E+03 -0.18666721964E+03  0.69631502007E+02  0.31781350176E+03  0.17483471328E+03 0.  0.
         24    2    3    3    0    0 -0.15573989993E+03 -0.77546152562E+02  0.93865944366E+01  0.19154705998E+03  0.79585462379E+02 0.  0.
         -6    2    1    2    0  503  0.17534265874E+03  0.18666721964E+03  0.14922076839E+02  0.30775293395E+03  0.16999853268E+03 0.  0.
        -24    2    5    5    0    0  0.33528779879E+02  0.12462814861E+03  0.20573601644E+02  0.15278825312E+03  0.79149369556E+02 0.  0.
          5    1    3    3  501    0 -0.19602758805E+02 -0.10912106708E+03  0.60244907571E+02  0.12626644179E+03  0.47000000000E+01 0. -1.
        -11    1    4    4    0    0 -0.78919897211E+02 -0.74307818514E+02  0.28974334716E+02  0.11220300415E+03  0.00000000000E+00 0.  1.
         12    1    4    4    0    0 -0.76820002722E+02 -0.32383340478E+01 -0.19587740280E+02  0.79344055826E+02  0.00000000000E+00 0. -1.
         -5    1    5    5    0  503  0.14181387886E+03  0.62039071035E+02 -0.56515248059E+01  0.15496468083E+03  0.47000000000E+01 0.  1.
         13    1    6    6    0    0  0.52174751929E+02  0.12181934047E+03  0.18789825306E+02  0.13384772686E+03  0.00000000000E+00 0. -1.
        -14    1    6    6    0    0 -0.18645972050E+02  0.28088081372E+01  0.17837763381E+01  0.18940526256E+02  0.00000000000E+00 0.  1.
</event>
<event>
12    1  0.9246030E-003  0.3283929E+03  0.7818608E-02  0.1072082E+00
         21   -1    0    0  501  502  0.00000000000E+00  0.00000000000E+00  0.92169389429E+03  0.92169389429E+03  0.00000000000E+00 0.  1.
         21   -1    0    0  502  503 -0.00000000000E+00 -0.00000000000E+00 -0.11739966913E+03  0.11739966913E+03  0.00000000000E+00 0. -1.
          6    2    1    2  501    0  0.78410489124E+02  0.26574699966E+03  0.45445502772E+03  0.56068819699E+03  0.17627311021E+03 0.  0.
         24    2    3    3    0    0  0.47102301274E+02  0.21477923660E+03  0.44074575895E+03  0.49914187664E+03  0.80851974149E+02 0.  0.
         -6    2    1    2    0  503 -0.78410489124E+02 -0.26574699966E+03  0.34983919744E+03  0.47840536643E+03  0.17237911105E+03 0.  0.
        -24    2    5    5    0    0 -0.82273993747E+02 -0.83064503859E+02  0.16345817448E+03  0.21735403688E+03  0.82797830248E+02 0.  0.
          5    1    3    3  501    0  0.31308187851E+02  0.50967763063E+02  0.13709268776E+02  0.61546320349E+02  0.47000000000E+01 0. -1.
        -11    1    4    4    0    0  0.12200268052E+02  0.19078910351E+03  0.37529563683E+03  0.42118421573E+03  0.00000000000E+00 0.  1.
         12    1    4    4    0    0  0.34902033222E+02  0.23990133091E+02  0.65450122117E+02  0.77957660906E+02  0.00000000000E+00 0. -1.
         -5    1    5    5    0  503  0.38635046225E+01 -0.18268249581E+03  0.18638102296E+03  0.26105132955E+03  0.47000000000E+01 0.  1.
         11    1    6    6    0    0 -0.66661689885E+02 -0.90303266284E+02  0.95880206596E+02  0.14761935787E+03  0.00000000000E+00 0. -1.
        -12    1    6    6    0    0 -0.15612303862E+02  0.72387624250E+01  0.67577967885E+02  0.69734679011E+02  0.00000000000E+00 0.  1.
</event>
<event>
12    1  0.9246030E-003  0.2861166E+03  0.7818608E-02  0.1093234E+00
         21   -1    0    0  501  502  0.00000000000E+00  0.00000000000E+00  0.34447598974E+03  0.34447598974E+03  0.00000000000E+00 0.  1.
         21   -1    0    0  502  503 -0.00000000000E+00 -0.00000000000E+00 -0.24145947167E+03  0.24145947167E+03  0.00000000000E+00 0. -1.
          6    2    1    2  501    0  0.22102320911E+03  0.56650937838E+02  0.10854564356E+03  0.30601448112E+03  0.17263290010E+03 0.  0.
         24    2    3    3    0    0  0.13060539100E+03  0.38045710307E+02 -0.97366619471E+01  0.15590009101E+03  0.75530070566E+02 0.  0.
         -6    2    1    2    0  503 -0.22102320911E+03 -0.56650937838E+02 -0.55291254909E+01  0.27992098029E+03  0.16206355622E+03 0.  0.
        -24    2    5    5    0    0 -0.11948811344E+03  0.28454744773E+02 -0.79444517032E+01  0.14733034462E+03  0.80969342227E+02 0.  0.
          5    1    3    3  501    0  0.90417818108E+02  0.18605227532E+02  0.11828230551E+03  0.15011439011E+03  0.47000000000E+01 0. -1.
        -11    1    4    4    0    0  0.43281690669E+01 -0.13800588905E+02 -0.12866197916E+02  0.19357901498E+02  0.00000000000E+00 0.  1.
         12    1    4    4    0    0  0.12627722193E+03  0.51846299211E+02  0.31295359694E+01  0.13654218951E+03  0.00000000000E+00 0. -1.
         -5    1    5    5    0  503 -0.10153509567E+03 -0.85105682611E+02  0.24153262124E+01  0.13259063566E+03  0.47000000000E+01 0.  1.
         13    1    6    6    0    0 -0.59769370314E+02  0.12522299251E+02 -0.44464386260E+02  0.75539838839E+02  0.00000000000E+00 0. -1.
        -14    1    6    6    0    0 -0.59718743125E+02  0.15932445522E+02  0.36519934557E+02  0.71790505785E+02  0.00000000000E+00 0.  1.
</event>
<event>
12    1  0.9246030E-003  0.1996390E+03  0.7818608E-02  0.1154291E+00
         21   -1    0    0  501  502  0.00000000000E+00  0.00000000000E+00  0.54013473320E+03  0.54013473320E+03  0.00000000000E+00 0. -1.
         21   -1    0    0  502  503 -0.00000000000E+00 -0.00000000000E+00 -0.66947075454E+02  0.66947075454E+02  0.00000000000E+00 0. -1.
          6    2    1    2  501    0 -0.53273906536E+02  0.20688633190E+00  0.23097630620E+03  0.29319958262E+03  0.17256242146E+03 0.  0.
         24    2    3    3    0    0 -0.56750250028E+02 -0.22370083914E+02  0.24584734370E+03  0.26554018447E+03  0.79684764130E+02 0.  0.
         -6    2    1    2    0  503  0.53273906536E+02 -0.20688633190E+00  0.24221135154E+03  0.31388222604E+03  0.19239948307E+03 0.  0.
        -24    2    5    5    0    0  0.45658994457E+02 -0.35048138689E+02  0.30742039007E+02  0.99375210076E+02  0.74948272928E+02 0.  0.
          5    1    3    3  501    0  0.34763434924E+01  0.22576970246E+02 -0.14871037495E+02  0.27659398145E+02  0.47000000000E+01 0. -1.
        -11    1    4    4    0    0  0.85074353600E+01 -0.98179786388E+01  0.24321515713E+01  0.13216827237E+02  0.00000000000E+00 0.  1.
         12    1    4    4    0    0 -0.65257685388E+02 -0.12552105275E+02  0.24341519212E+03  0.25232335723E+03  0.00000000000E+00 0. -1.
         -5    1    5    5    0  503  0.76149120787E+01  0.34841252358E+02  0.21146931254E+03  0.21450701596E+03  0.47000000000E+01 0.  1.
         11    1    6    6    0    0  0.11738239328E+02  0.19846188740E+02 -0.76442902020E+01  0.24291822548E+02  0.00000000000E+00 0. -1.
        -12    1    6    6    0    0  0.33920755130E+02 -0.54894327429E+02  0.38386329209E+02  0.75083387528E+02  0.00000000000E+00 0.  1.
</event>
<event>
12    1  0.9246030E-003  0.2067448E+03  0.7818608E-02  0.1144700E+00
         21   -1    0    0  503  502  0.00000000000E+00  0.00000000000E+00  0.14203909922E+03  0.14203909922E+03  0.00000000000E+00 0.  1.
         21   -1    0    0  501  503 -0.00000000000E+00 -0.00000000000E+00 -0.33805231584E+03  0.33805231584E+03  0.00000000000E+00 0. -1.
          6    2    1    2  501    0  0.58171703557E+02  0.93343093070E+02 -0.18095766231E+03  0.27279917649E+03  0.17197917032E+03 0.  0.
         24    2    3    3    0    0  0.90380253716E+02  0.21548552758E+02 -0.88969862416E+02  0.15165590572E+03  0.80317787164E+02 0.  0.
         -6    2    1    2    0  502 -0.58171703557E+02 -0.93343093070E+02 -0.15055554303E+02  0.20729223856E+03  0.17506148158E+03 0.  0.
        -24    2    5    5    0    0 -0.87451850081E+02 -0.10663495600E+03 -0.41805789635E+02  0.16520107927E+03  0.80776436041E+02 0.  0.
          5    1    3    3  501    0 -0.32208550159E+02  0.71794540312E+02 -0.91987799899E+02  0.12114327077E+03  0.47000000000E+01 0. -1.
        -13    1    4    4    0    0 -0.14865185252E+02 -0.10049944631E+01 -0.14342446813E+02  0.20680655866E+02  0.00000000000E+00 0.  1.
         14    1    4    4    0    0  0.10524543897E+03  0.22553547222E+02 -0.74627415603E+02  0.13097524986E+03  0.00000000000E+00 0. -1.
         -5    1    5    5    0  502  0.29280146523E+02  0.13291862932E+02  0.26750235332E+02  0.42091159297E+02  0.47000000000E+01 0.  1.
         13    1    6    6    0    0  0.44665097428E+00  0.51573977773E+00 -0.25664367604E+02  0.25673434697E+02  0.00000000000E+00 0. -1.
        -14    1    6    6    0    0 -0.87898501055E+02 -0.10715069578E+03 -0.16141422031E+02  0.13952764457E+03  0.00000000000E+00 0.  1.
</event>
<event>
12    1  0.9246030E-003  0.1951046E+03  0.7818608E-02  0.1154492E+00
         21   -1    0    0  503  502  0.00000000000E+00  0.00000000000E+00  0.55722876054E+02  0.55722876054E+02  0.00000000000E+00 0.  1.
         21   -1    0    0  501  503 -0.00000000000E+00 -0.00000000000E+00 -0.73355060680E+03  0.73355060680E+03  0.00000000000E+00 0.  1.
          6    2    1    2  501    0  0.54950471556E+02 -0.69103772160E+02 -0.44905254766E+03  0.48860107586E+03  0.17113718218E+03 0.  0.
         24    2    3    3    0    0 -0.34456686092E+02 -0.17945499934E+02 -0.17954489179E+03  0.20004037994E+03  0.79186370396E+02 0.  0.
         -6    2    1    2    0  502 -0.54950471556E+02  0.69103772160E+02 -0.22877518309E+03  0.30067240699E+03  0.17398541973E+03 0.  0.
        -24    2    5    5    0    0 -0.16400745201E+00 -0.27810476846E+02 -0.10706298963E+03  0.13565763085E+03  0.78530628028E+02 0.  0.
          5    1    3    3  501    0  0.89407157648E+02 -0.51158272226E+02 -0.26950765587E+03  0.28856069592E+03  0.47000000000E+01 0. -1.
        -13    1    4    4    0    0 -0.19251926771E+02  0.31197318284E+02 -0.69993101279E+02  0.79012300177E+02  0.00000000000E+00 0.  1.
         14    1    4    4    0    0 -0.15204759321E+02 -0.49142818218E+02 -0.10955179051E+03  0.12102807977E+03  0.00000000000E+00 0. -1.
         -5    1    5    5    0  502 -0.54786464104E+02  0.96914249005E+02 -0.12171219346E+03  0.16501477615E+03  0.47000000000E+01 0.  1.
         11    1    6    6    0    0  0.39152852082E+02 -0.12238694130E+02 -0.52916786558E+02  0.66954594762E+02  0.00000000000E+00 0. -1.
        -12    1    6    6    0    0 -0.39316859534E+02 -0.15571782715E+02 -0.54146203069E+02  0.68703036085E+02  0.00000000000E+00 0.  1.
</event>
<event>
12    1  0.9246030E-003  0.2122251E+03  0.7818608E-02  0.1140481E+00
         21   -1    0    0  503  502  0.00000000000E+00  0.00000000000E+00  0.19785888845E+03  0.19785888845E+03  0.00000000000E+00 0. -1.
         21   -1    0    0  501  503 -0.00000000000E+00 -0.00000000000E+00 -0.23402258009E+03  0.23402258009E+03  0.00000000000E+00 0. -1.
          6    2    1    2  501    0 -0.16527795368E+02  0.12206884737E+03  0.26685242121E+02  0.21054581705E+03  0.16865191198E+03 0.  0.
         24    2    3    3    0    0  0.44064215723E+02  0.10556388363E+03 -0.28586269773E+01  0.14098479465E+03  0.82359892790E+02 0.  0.
         -6    2    1    2    0  502  0.16527795368E+02 -0.12206884737E+03 -0.62848933757E+02  0.22133565148E+03  0.17281640728E+03 0.  0.
        -24    2    5    5    0    0  0.16143012426E+02 -0.11827018669E+03 -0.10345204039E+03  0.18028348773E+03  0.86898661549E+02 0.  0.
          5    1    3    3  501    0 -0.60592011091E+02  0.16504963741E+02  0.29543869098E+02  0.69561022401E+02  0.47000000000E+01 0. -1.
        -13    1    4    4    0    0 -0.12455003569E+02  0.40051218658E+01 -0.19593165150E+02  0.23559716374E+02  0.00000000000E+00 0.  1.
         14    1    4    4    0    0  0.56519219291E+02  0.10155876177E+03  0.16734538173E+02  0.11742507828E+03  0.00000000000E+00 0. -1.
         -5    1    5    5    0  502  0.38478294208E+00 -0.37986606873E+01  0.40603106629E+02  0.41052163754E+02  0.47000000000E+01 0.  1.
         11    1    6    6    0    0  0.30130175743E+02 -0.10743530470E+02 -0.24240843312E+01  0.32080011254E+02  0.00000000000E+00 0. -1.
        -12    1    6    6    0    0 -0.13987163316E+02 -0.10752665622E+03 -0.10102795606E+03  0.14820347648E+03  0.00000000000E+00 0.  1.
</event>
<event>
12    1  0.9246030E-003  0.2024242E+03  0.7818608E-02  0.1147756E+00
         21   -1    0    0  503  502  0.00000000000E+00  0.00000000000E+00  0.74978360214E+02  0.74978360214E+02  0.00000000000E+00 0. -1.
         21   -1    0    0  501  503 -0.00000000000E+00 -0.00000000000E+00 -0.77244072666E+03  0.77244072666E+03  0.00000000000E+00 0.  1.
          6    2    1    2  501    0 -0.20764617376E+01  0.10898730889E+03 -0.57832998763E+03  0.61273252518E+03  0.17056678351E+03 0.  0.
         24    2    3    3    0    0 -0.26125755357E+01  0.12067240572E+02 -0.41550539141E+03  0.42318641946E+03  0.79306818629E+02 0.  0.
         -6    2    1    2    0  502  0.20764617376E+01 -0.10898730889E+03 -0.11913237882E+03  0.23468656169E+03  0.17030183018E+03 0.  0.
        -24    2    5    5    0    0 -0.35465361738E+02 -0.12861033081E+03 -0.72010576963E+02  0.17114912620E+03  0.79423492306E+02 0.  0.
          5    1    3    3  501    0  0.53611379810E+00  0.96920068314E+02 -0.16282459622E+03  0.18954610572E+03  0.47000000000E+01 0. -1.
        -11    1    4    4    0    0  0.35878296690E+02  0.17045262793E+02 -0.25374059497E+03  0.25683084451E+03  0.00000000000E+00 0.  1.
         12    1    4    4    0    0 -0.38490872226E+02 -0.49780222209E+01 -0.16176479645E+03  0.16635557496E+03  0.00000000000E+00 0. -1.
         -5    1    5    5    0  502  0.37541823476E+02  0.19623021919E+02 -0.47121801854E+02  0.63537435493E+02  0.47000000000E+01 0.  1.
         11    1    6    6    0    0 -0.76502053229E+01 -0.64858884386E+02  0.72351792914E+01  0.65708053879E+02  0.00000000000E+00 0. -1.
        -12    1    6    6    0    0 -0.27815156415E+02 -0.63751446419E+02 -0.79245756254E+02  0.10544107232E+03  0.00000000000E+00 0.  1.
</event>
<event>
12    1  0.9246030E-003  0.1781946E+03  0.7818608E-02  0.1169871E+00
         21   -1    0    0  503  502  0.00000000000E+00  0.00000000000E+00  0.29321667502E+03  0.29321667502E+03  0.00000000000E+00 0. -1.
         21   -1    0    0  501  503 -0.00000000000E+00 -0.00000000000E+00 -0.14859347456E+03  0.14859347456E+03  0.00000000000E+00 0. -1.
          6    2    1    2  501    0  0.44414422989E+02  0.28619248129E+01 -0.43998371676E+02  0.18232721009E+03  0.17124988539E+03 0.  0.
         24    2    3    3    0    0  0.56856726030E+02 -0.63902691920E+01 -0.94780150299E+02  0.12902342937E+03  0.66258928459E+02 0.  0.
         -6    2    1    2    0  502 -0.44414422989E+02 -0.28619248129E+01  0.18862157214E+03  0.25948293949E+03  0.17254699890E+03 0.  0.
        -24    2    5    5    0    0  0.53583835222E+01 -0.43395250653E+02  0.16606778542E+03  0.19128436130E+03  0.84257566263E+02 0.  0.
          5    1    3    3  501    0 -0.12442303041E+02  0.92521940049E+01  0.50781778622E+02  0.53303780719E+02  0.47000000000E+01 0. -1.
        -13    1    4    4    0    0 -0.82708803290E+01  0.32398721832E+00  0.50075305427E+01  0.96740783163E+01  0.00000000000E+00 0.  1.
         14    1    4    4    0    0  0.65127606359E+02 -0.67142564103E+01 -0.99787680841E+02  0.11934935105E+03  0.00000000000E+00 0. -1.
         -5    1    5    5    0  502 -0.49772806511E+02  0.40533325840E+02  0.22553786720E+02  0.68198578189E+02  0.47000000000E+01 0.  1.
         13    1    6    6    0    0  0.10306381481E+02  0.11309539598E+02 -0.10833188861E+01  0.15339516451E+02  0.00000000000E+00 0. -1.
        -14    1    6    6    0    0 -0.49479979585E+01 -0.54704790251E+02  0.16715110430E+03  0.17594484485E+03  0.00000000000E+00 0.  1.
</event>
<event>
12    1  0.9246030E-003  0.2072655E+03  0.7818608E-02  0.1143931E+00
         21   -1    0    0  501  502  0.00000000000E+00  0.00000000000E+00  0.10389726971E+03  0.10389726971E+03  0.00000000000E+00 0. -1.
         21   -1    0    0  502  503 -0.00000000000E+00 -0.00000000000E+00 -0.47589494507E+03  0.47589494507E+03  0.00000000000E+00 0. -1.
          6    2    1    2  501    0 -0.11070256447E+03 -0.29934259344E+02 -0.79162696473E+02  0.22102861818E+03  0.17156864480E+03 0.  0.
         24    2    3    3    0    0 -0.20493116541E+02 -0.55017843684E+02 -0.81995351078E+02  0.12723605647E+03  0.77581218854E+02 0.  0.
         -6    2    1    2    0  503  0.11070256447E+03  0.29934259344E+02 -0.29283497888E+03  0.35876359660E+03  0.17264957494E+03 0.  0.
        -24    2    5    5    0    0 -0.13153480336E+02  0.22051664807E+02 -0.11546644695E+03  0.14223613587E+03  0.78989417071E+02 0.  0.
          5    1    3    3  501    0 -0.90209447933E+02  0.25083584341E+02  0.28326546055E+01  0.93792561708E+02  0.47000000000E+01 0. -1.
        -13    1    4    4    0    0 -0.51183664051E+01 -0.67833912037E+02 -0.35758033883E+02  0.76852288737E+02  0.00000000000E+00 0.  1.
         14    1    4    4    0    0 -0.15374750136E+02  0.12816068353E+02 -0.46237317196E+02  0.50383767736E+02  0.00000000000E+00 0. -1.
         -5    1    5    5    0  503  0.12385604481E+03  0.78825945367E+01 -0.17736853193E+03  0.21652746073E+03  0.47000000000E+01 0.  1.
         11    1    6    6    0    0  0.10453756563E+02  0.24077560611E+02 -0.11559904326E+03  0.11854175954E+03  0.00000000000E+00 0. -1.
        -12    1    6    6    0    0 -0.23607236899E+02 -0.20258958044E+01  0.13259631200E+00  0.23694376328E+02  0.00000000000E+00 0.  1.
</event>
<event>
12    1  0.9246030E-003  0.2735237E+03  0.7818608E-02  0.1100644E+00
         21   -1    0    0  501  502  0.00000000000E+00  0.00000000000E+00  0.42469822394E+03  0.42469822394E+03  0.00000000000E+00 0.  1.
         21   -1    0    0  502  503 -0.00000000000E+00 -0.00000000000E+00 -0.17037181977E+03  0.17037181977E+03  0.00000000000E+00 0. -1.
          6    2    1    2  501    0 -0.47299719345E+02 -0.20742114244E+03  0.13711627675E+03  0.29749076960E+03  0.15633007025E+03 0.  0.
         24    2    3    3    0    0 -0.66719240582E+02 -0.98772297653E+02  0.38882265464E+02  0.14966079885E+03  0.81725762745E+02 0.  0.
         -6    2    1    2    0  503  0.47299719345E+02  0.20742114244E+03  0.11721012741E+03  0.29757927411E+03  0.17191398032E+03 0.  0.
        -24    2    5    5    0    0 -0.27553233615E+02  0.46544446762E+02  0.32717757555E+02  0.10099512840E+03  0.78765462575E+02 0.  0.
          5    1    3    3  501    0  0.19419521237E+02 -0.10864884479E+03  0.98234011289E+02  0.14782997076E+03  0.47000000000E+01 0. -1.
        -13    1    4    4    0    0 -0.60542723926E+02 -0.17536068070E+02  0.15732822539E+02  0.64965042975E+02  0.00000000000E+00 0.  1.
         14    1    4    4    0    0 -0.61765166563E+01 -0.81236229583E+02  0.23149442926E+02  0.84695755871E+02  0.00000000000E+00 0. -1.
         -5    1    5    5    0  503  0.74852952960E+02  0.16087669568E+03  0.84492369856E+02  0.19658414571E+03  0.47000000000E+01 0.  1.
         13    1    6    6    0    0  0.11605858383E+02  0.43454137907E+02 -0.65513417905E+01  0.45451932075E+02  0.00000000000E+00 0. -1.
        -14    1    6    6    0    0 -0.39159091998E+02  0.30903088546E+01  0.39269099345E+02  0.55543196327E+02  0.00000000000E+00 0.  1.
</event>
<event>
12    1  0.9246030E-003  0.1898522E+03  0.7818608E-02  0.1159494E+00
         21   -1    0    0  503  502  0.00000000000E+00  0.00000000000E+00  0.10125337768E+03  0.10125337768E+03  0.00000000000E+00 0.  1.
         21   -1    0    0  501  503 -0.00000000000E+00 -0.00000000000E+00 -0.35901612565E+03  0.35901612565E+03  0.00000000000E+00 0. -1.
          6    2    1    2  501    0 -0.78133505919E+02 -0.23007025435E+02 -0.16671539571E+03  0.24971431106E+03  0.16711985523E+03 0.  0.
         24    2    3    3    0    0 -0.35792857561E+02 -0.22521019161E+02 -0.15855844046E+02  0.92954427685E+02  0.81245263736E+02 0.  0.
         -6    2    1    2    0  502  0.78133505919E+02  0.23007025435E+02 -0.91047352256E+02  0.21055519226E+03  0.17149256739E+03 0.  0.
        -24    2    5    5    0    0  0.10851738952E+03  0.97180100853E+01 -0.20867820134E+02  0.13279250815E+03  0.72992607537E+02 0.  0.
          5    1    3    3  501    0 -0.42340648358E+02 -0.48600627472E+00 -0.15085955167E+03  0.15675988337E+03  0.47000000000E+01 0. -1.
        -13    1    4    4    0    0 -0.61421424585E+02 -0.82463879198E+01 -0.14160098363E+02  0.63569668061E+02  0.00000000000E+00 0.  1.
         14    1    4    4    0    0  0.25628567024E+02 -0.14274631241E+02 -0.16957456826E+01  0.29384759624E+02  0.00000000000E+00 0. -1.
         -5    1    5    5    0  502 -0.30383883602E+02  0.13289015350E+02 -0.70179532122E+02  0.77762684114E+02  0.47000000000E+01 0.  1.
         11    1    6    6    0    0 -0.38015071560E+01  0.17446462927E+02 -0.76831009600E+01  0.19438635901E+02  0.00000000000E+00 0. -1.
        -12    1    6    6    0    0  0.11231889668E+03 -0.77284528419E+01 -0.13184719174E+02  0.11335387225E+03  0.00000000000E+00 0.  1.
</event>
<event>
12    1  0.9246030E-003  0.2749044E+03  0.7818608E-02  0.1098577E+00
         21   -1    0    0  501  502  0.00000000000E+00  0.00000000000E+00  0.47479418766E+03  0.47479418766E+03  0.00000000000E+00 0. -1.
         21   -1    0    0  502  503 -0.00000000000E+00 -0.00000000000E+00 -0.16211926251E+03  0.16211926251E+03  0.00000000000E+00 0. -1.
          6    2    1    2  501    0  0.20907547820E+03  0.47195647241E+02  0.20127231420E+03  0.34029417846E+03  0.17131724585E+03 0.  0.
         24    2    3    3    0    0  0.18798005503E+03  0.44254773857E+02  0.22661191551E+03  0.30685989950E+03  0.74263393231E+02 0.  0.
         -6    2    1    2    0  503 -0.20907547820E+03 -0.47195647241E+02  0.11140261095E+03  0.29661927171E+03  0.17214083166E+03 0.  0.
        -24    2    5    5    0    0 -0.94466812377E+02 -0.11980209575E+02 -0.11655217692E+02  0.12474550257E+03  0.79737646371E+02 0.  0.
          5    1    3    3  501    0  0.21095423168E+02  0.29408733840E+01 -0.25339601307E+02  0.33434278956E+02  0.47000000000E+01 0. -1.
        -11    1    4    4    0    0  0.31449177563E+02  0.27433517127E+02  0.17850042145E+02  0.45390226216E+02  0.00000000000E+00 0.  1.
         12    1    4    4    0    0  0.15653087747E+03  0.16821256729E+02  0.20876187336E+03  0.26146967328E+03  0.00000000000E+00 0. -1.
         -5    1    5    5    0  503 -0.11460866582E+03 -0.35215437666E+02  0.12305782864E+03  0.17187376915E+03  0.47000000000E+01 0.  1.
         13    1    6    6    0    0 -0.96298397479E+02  0.71268277482E+01  0.84723028350E+01  0.96932723815E+02  0.00000000000E+00 0. -1.
        -14    1    6    6    0    0  0.18315851025E+01 -0.19107037323E+02 -0.20127520527E+02  0.27812778751E+02  0.00000000000E+00 0.  1.
</event>
<event>
12    1  0.9246030E-003  0.1766919E+03  0.7818608E-02  0.1171208E+00
         21   -1    0    0  503  502  0.00000000000E+00  0.00000000000E+00  0.45566741650E+03  0.45566741650E+03  0.00000000000E+00 0.  1.
         21   -1    0    0  501  503 -0.00000000000E+00 -0.00000000000E+00 -0.13556885052E+03  0.13556885052E+03  0.00000000000E+00 0.  1.
          6    2    1    2  501    0  0.11414614105E+02 -0.35686717008E+02 -0.48100895363E+02  0.18312213820E+03  0.17267364066E+03 0.  0.
         24    2    3    3    0    0 -0.16704975813E+02 -0.85051457881E+02 -0.19289877041E+02  0.11924918809E+03  0.79595620478E+02 0.  0.
         -6    2    1    2    0  502 -0.11414614105E+02  0.35686717008E+02  0.36819946135E+03  0.40811412882E+03  0.17199553372E+03 0.  0.
        -24    2    5    5    0    0 -0.60645420553E+02  0.57340114974E+02  0.29762114455E+03  0.31925507892E+03  0.79873048736E+02 0.  0.
          5    1    3    3  501    0  0.28119589918E+02  0.49364740873E+02 -0.28811018323E+02  0.63872950107E+02  0.47000000000E+01 0. -1.
        -13    1    4    4    0    0 -0.25065279228E+02  0.63653818721E+01 -0.51391909027E+01  0.26366599938E+02  0.00000000000E+00 0.  1.
         14    1    4    4    0    0  0.83603034152E+01 -0.91416839753E+02 -0.14150686138E+02  0.92882588152E+02  0.00000000000E+00 0. -1.
         -5    1    5    5    0  502  0.49230806447E+02 -0.21653397966E+02  0.70578316795E+02  0.88859049897E+02  0.47000000000E+01 0. -1.
         13    1    6    6    0    0  0.49531911714E+00  0.38593142116E+01 -0.47630593213E+01  0.61503155456E+01  0.00000000000E+00 0. -1.
        -14    1    6    6    0    0 -0.61140739670E+02  0.53480800762E+02  0.30238420387E+03  0.31310476338E+03  0.00000000000E+00 0.  1.
</event>
<event>
12    1  0.9246030E-003  0.3031794E+03  0.7818608E-02  0.1083773E+00
         21   -1    0    0  501  502  0.00000000000E+00  0.00000000000E+00  0.11278520452E+04  0.11278520452E+04  0.00000000000E+00 0.  1.
         21   -1    0    0  502  503 -0.00000000000E+00 -0.00000000000E+00 -0.12180002624E+03  0.12180002624E+03  0.00000000000E+00 0.  1.
          6    2    1    2  501    0 -0.21287316556E+03 -0.12871138556E+03  0.86402208588E+03  0.91567020227E+03  0.17330940263E+03 0.  0.
         24    2    3    3    0    0 -0.19652180082E+03 -0.12704353400E+03  0.57308744322E+03  0.62423375095E+03  0.80484038887E+02 0.  0.
         -6    2    1    2    0  503  0.21287316556E+03  0.12871138556E+03  0.14202993311E+03  0.33398186921E+03  0.17172589109E+03 0.  0.
        -24    2    5    5    0    0  0.22114525354E+03  0.14421881599E+03  0.14998685776E+03  0.31412461642E+03  0.80460717673E+02 0.  0.
          5    1    3    3  501    0 -0.16351364745E+02 -0.16678515560E+01  0.29093464266E+03  0.29143645132E+03  0.47000000000E+01 0. -1.
        -13    1    4    4    0    0 -0.38685639191E+02 -0.20091334679E+01  0.16082006088E+03  0.16541979107E+03  0.00000000000E+00 0.  1.
         14    1    4    4    0    0 -0.15783616163E+03 -0.12503440053E+03  0.41226738234E+03  0.45881395988E+03  0.00000000000E+00 0. -1.
         -5    1    5    5    0  503 -0.82720879806E+01 -0.15507430438E+02 -0.79569246509E+01  0.19857252787E+02  0.47000000000E+01 0.  1.
         11    1    6    6    0    0  0.72355907264E+01  0.34848699374E+02  0.23050779284E+02  0.42404292787E+02  0.00000000000E+00 0. -1.
        -12    1    6    6    0    0  0.21390966282E+03  0.10937011662E+03  0.12693607848E+03  0.27172032363E+03  0.00000000000E+00 0.  1.
</event>
<event>
12    1  0.9246030E-003  0.2456830E+03  0.7818608E-02  0.1116298E+00
         21   -1    0    0  503  502  0.00000000000E+00  0.00000000000E+00  0.21413590130E+03  0.21413590130E+03  0.00000000000E+00 0.  1.
         21   -1    0    0  501  503 -0.00000000000E+00 -0.00000000000E+00 -0.30177908892E+03  0.30177908892E+03  0.00000000000E+00 0. -1.
          6    2    1    2  501    0 -0.16339636992E+03 -0.57587491544E+02 -0.11264536616E+03  0.26896309721E+03  0.17215538404E+03 0.  0.
         24    2    3    3    0    0 -0.23818157635E+02  0.14052896532E+02 -0.38994255905E+02  0.95582018099E+02  0.82768240625E+02 0.  0.
         -6    2    1    2    0  502  0.16339636992E+03  0.57587491544E+02  0.25002178550E+02  0.24695189302E+03  0.17419941345E+03 0.  0.
        -24    2    5    5    0    0  0.71185804298E+02  0.90800828982E+02 -0.11188954734E+02  0.14236794432E+03  0.82651252765E+02 0.  0.
          5    1    3    3  501    0 -0.13957821229E+03 -0.71640388076E+02 -0.73651110258E+02  0.17338107911E+03  0.47000000000E+01 0. -1.
        -11    1    4    4    0    0 -0.76675503052E+01  0.56213835311E+01  0.26209564061E+02  0.27880683793E+02  0.00000000000E+00 0.  1.
         12    1    4    4    0    0 -0.16150607330E+02  0.84315130009E+01 -0.65203819966E+02  0.67701334306E+02  0.00000000000E+00 0. -1.
         -5    1    5    5    0  502  0.92210565627E+02 -0.33213337438E+02  0.36191133285E+02  0.10458394870E+03  0.47000000000E+01 0.  1.
         13    1    6    6    0    0  0.38545457287E+02  0.71497666480E+02  0.29807432403E+02  0.86522549754E+02  0.00000000000E+00 0. -1.
        -14    1    6    6    0    0  0.32640347011E+02  0.19303162502E+02 -0.40996387137E+02  0.55845394563E+02  0.00000000000E+00 0.  1.
</event>
<event>
12    1  0.9246030E-003  0.2056243E+03  0.7818608E-02  0.1145146E+00
         21   -1    0    0  503  502  0.00000000000E+00  0.00000000000E+00  0.34190826856E+03  0.34190826856E+03  0.00000000000E+00 0.  1.
         21   -1    0    0  501  503 -0.00000000000E+00 -0.00000000000E+00 -0.13623250573E+03  0.13623250573E+03  0.00000000000E+00 0.  1.
          6    2    1    2  501    0  0.59142730650E+02 -0.95254076791E+02  0.29571241512E+02  0.20741187118E+03  0.17197099828E+03 0.  0.
         24    2    3    3    0    0  0.47509250917E+02 -0.13042594495E+03  0.44596406364E+02  0.16715961983E+03  0.81764558346E+02 0.  0.
         -6    2    1    2    0  502 -0.59142730650E+02  0.95254076791E+02  0.17610452132E+03  0.27072890311E+03  0.17236628096E+03 0.  0.
        -24    2    5    5    0    0 -0.55067193069E+02  0.11066316755E+03  0.69197438583E+02  0.16253803277E+03  0.79696889437E+02 0.  0.
          5    1    3    3  501    0  0.11633479733E+02  0.35171868158E+02 -0.15025164851E+02  0.40252251356E+02  0.47000000000E+01 0. -1.
        -11    1    4    4    0    0  0.52425532962E+00  0.11142729908E+02  0.75379623470E+01  0.13463140414E+02  0.00000000000E+00 0.  1.
         12    1    4    4    0    0  0.46984995587E+02 -0.14156867486E+03  0.37058444017E+02  0.15369647941E+03  0.00000000000E+00 0. -1.
         -5    1    5    5    0  502 -0.40755375806E+01 -0.15409090756E+02  0.10690708274E+03  0.10819087034E+03  0.47000000000E+01 0.  1.
         13    1    6    6    0    0 -0.99590564345E+01  0.34306484417E+01  0.41684920186E+02  0.42995170946E+02  0.00000000000E+00 0. -1.
        -14    1    6    6    0    0 -0.45108136634E+02  0.10723251910E+03  0.27512518397E+02  0.11954286182E+03  0.00000000000E+00 0.  1.
</event>
<event>
12    1  0.9246030E-003  0.2294750E+03  0.7818608E-02  0.1127116E+00
         21   -1    0    0  503  502  0.00000000000E+00  0.00000000000E+00  0.98884477694E+02  0.98884477694E+02  0.00000000000E+00 0. -1.
         21   -1    0    0  501  503 -0.00000000000E+00 -0.00000000000E+00 -0.69129558031E+03  0.69129558031E+03  0.00000000000E+00 0.  1.
          6    2    1    2  501    0  0.46007390625E+02  0.14431967374E+03 -0.48607540334E+03  0.53726489987E+03  0.17157921401E+03 0.  0.
         24    2    3    3    0    0  0.76865905716E+02  0.58496476180E+02 -0.36604187415E+03  0.38644047439E+03  0.77584672628E+02 0.  0.
         -6    2    1    2    0  502 -0.46007390625E+02 -0.14431967374E+03 -0.10633569928E+03  0.25291515813E+03  0.17237734205E+03 0.  0.
        -24    2    5    5    0    0 -0.79279996103E+01 -0.12149436099E+03 -0.90512186690E+01  0.14587593594E+03  0.79838156258E+02 0.  0.
          5    1    3    3  501    0 -0.30858515091E+02  0.85823197556E+02 -0.12003352919E+03  0.15082442548E+03  0.47000000000E+01 0. -1.
        -13    1    4    4    0    0 -0.11478122508E+02  0.15818580640E+02 -0.11960246797E+03  0.12118879954E+03  0.00000000000E+00 0.  1.
         14    1    4    4    0    0  0.88344028223E+02  0.42677895540E+02 -0.24643940618E+03  0.26525167485E+03  0.00000000000E+00 0. -1.
         -5    1    5    5    0  502 -0.38079391015E+02 -0.22825312744E+02 -0.97284480606E+02  0.10703922220E+03  0.47000000000E+01 0.  1.
         11    1    6    6    0    0 -0.72780783780E+01 -0.13326709367E+03 -0.11028792192E+02  0.13392058444E+03  0.00000000000E+00 0. -1.
        -12    1    6    6    0    0 -0.64992123227E+00  0.11772732677E+02  0.19775735231E+01  0.11955351493E+02  0.00000000000E+00 0.  1.
</event>
<event>
12    1  0.9246030E-003  0.2140383E+03  0.7818608E-02  0.1138622E+00
         21   -1    0    0  501  502  0.00000000000E+00  0.00000000000E+00  0.98587101422E+02  0.98587101422E+02  0.00000000000E+00 0.  1.
         21   -1    0    0  502  503 -0.00000000000E+00 -0.00000000000E+00 -0.10484664537E+04  0.10484664537E+04  0.00000000000E+00 0.  1.
          6    2    1    2  501    0  0.87588632459E+02  0.89537039004E+02 -0.45563132093E+02  0.21775263416E+03  0.17219628564E+03 0.  0.
         24    2    3    3    0    0  0.11960537162E+03  0.33312152134E+02 -0.26975111196E+02  0.15026994000E+03  0.80238730327E+02 0.  0.
         -6    2    1    2    0  503 -0.87588632459E+02 -0.89537039004E+02 -0.90431622018E+03  0.92930092096E+03  0.17356187866E+03 0.  0.
        -24    2    5    5    0    0  0.23547666078E+02 -0.61089280742E+02 -0.45538757719E+03  0.46592249213E+03  0.73617460017E+02 0.  0.
          5    1    3    3  501    0 -0.32016739157E+02  0.56224886870E+02 -0.18588020897E+02  0.67482694157E+02  0.47000000000E+01 0. -1.
        -13    1    4    4    0    0  0.55484071663E+01 -0.68682284964E+00  0.21161438120E+02  0.21887508105E+02  0.00000000000E+00 0.  1.
         14    1    4    4    0    0  0.11405696445E+03  0.33998974984E+02 -0.48136549316E+02  0.12838243190E+03  0.00000000000E+00 0. -1.
         -5    1    5    5    0  503 -0.11113629854E+03 -0.28447758262E+02 -0.44892864299E+03  0.46337842882E+03  0.47000000000E+01 0.  1.
         11    1    6    6    0    0  0.45327246201E+02 -0.15449742911E+02 -0.22967838319E+03  0.23461758994E+03  0.00000000000E+00 0. -1.
        -12    1    6    6    0    0 -0.21779580123E+02 -0.45639537830E+02 -0.22570919399E+03  0.23130490219E+03  0.00000000000E+00 0.  1.
</event>
<event>
12    1  0.9246030E-003  0.1772915E+03  0.7818608E-02  0.1172278E+00
         21   -1    0    0  501  502  0.00000000000E+00  0.00000000000E+00  0.62747860745E+03  0.62747860745E+03  0.00000000000E+00 0.  1.
         21   -1    0    0  502  503 -0.00000000000E+00 -0.00000000000E+00 -0.70939504913E+02  0.70939504913E+02  0.00000000000E+00 0.  1.
          6    2    1    2  501    0 -0.14674416071E+02  0.24792739206E+02  0.47259569894E+03  0.50225807124E+03  0.16759014608E+03 0.  0.
         24    2    3    3    0    0  0.20778677642E+02  0.62737497194E+02  0.20886361522E+03  0.23342089282E+03  0.80582606351E+02 0.  0.
         -6    2    1    2    0  503  0.14674416071E+02 -0.24792739206E+02  0.83943403596E+02  0.19616004113E+03  0.17493498313E+03 0.  0.
        -24    2    5    5    0    0 -0.98323196061E+00 -0.52322825214E+02  0.11689432266E+03  0.15021528468E+03  0.78496524119E+02 0.  0.
          5    1    3    3  501    0 -0.35453093713E+02 -0.37944757988E+02  0.26373208373E+03  0.26883717842E+03  0.47000000000E+01 0. -1.
        -13    1    4    4    0    0 -0.28246789358E+02  0.32781571447E+02  0.12037822715E+03  0.12791962362E+03  0.00000000000E+00 0.  1.
         14    1    4    4    0    0  0.49025467001E+02  0.29955925747E+02  0.88485388067E+02  0.10550126920E+03  0.00000000000E+00 0. -1.
         -5    1    5    5    0  503  0.15657648032E+02  0.27530086008E+02 -0.32950919064E+02  0.45944756443E+02  0.47000000000E+01 0.  1.
         11    1    6    6    0    0  0.33373766433E+02 -0.21242653158E+01  0.44265386827E+02  0.55477430186E+02  0.00000000000E+00 0. -1.
        -12    1    6    6    0    0 -0.34356998394E+02 -0.50198559898E+02  0.72628935832E+02  0.94737854496E+02  0.00000000000E+00 0.  1.
</event>
<event>
12    1  0.9246030E-003  0.1899748E+03  0.7818608E-02  0.1158806E+00
         21   -1    0    0  501  502  0.00000000000E+00  0.00000000000E+00  0.42605753041E+03  0.42605753041E+03  0.00000000000E+00 0.  1.
         21   -1    0    0  502  503 -0.00000000000E+00 -0.00000000000E+00 -0.12634138379E+03  0.12634138379E+03  0.00000000000E+00 0.  1.
          6    2    1    2  501    0 -0.79291823529E+02 -0.19152586887E+01  0.30998528646E+03  0.36356747321E+03  0.17262551451E+03 0.  0.
         24    2    3    3    0    0 -0.81765668401E+02  0.16294879146E+02  0.32146104420E+03  0.34139740230E+03  0.79144398085E+02 0.  0.
         -6    2    1    2    0  503  0.79291823529E+02  0.19152586887E+01 -0.10269139838E+02  0.18883144100E+03  0.17105845896E+03 0.  0.
        -24    2    5    5    0    0  0.66621714784E+02 -0.36715397033E+01  0.63160949372E+02  0.11395947045E+03  0.67420488691E+02 0.  0.
          5    1    3    3  501    0  0.24738448717E+01 -0.18210137835E+02 -0.11475757735E+02  0.22170070906E+02  0.47000000000E+01 0. -1.
        -13    1    4    4    0    0 -0.11699585575E+02  0.18013635906E+02  0.20011966382E+03  0.20126910153E+03  0.00000000000E+00 0.  1.
         14    1    4    4    0    0 -0.70066082826E+02 -0.17187567600E+01  0.12134138037E+03  0.14012830078E+03  0.00000000000E+00 0. -1.
         -5    1    5    5    0  503  0.12670108745E+02  0.55867983920E+01 -0.73430089211E+02  0.74871970546E+02  0.47000000000E+01 0.  1.
         11    1    6    6    0    0 -0.92276071715E+01  0.14047524101E+02  0.13777817370E+02  0.21732692400E+02  0.00000000000E+00 0. -1.
        -12    1    6    6    0    0  0.75849321956E+02 -0.17719063804E+02  0.49383132002E+02  0.92226778051E+02  0.00000000000E+00 0.  1.
</event>
<event>
12    1  0.9246030E-003  0.1997279E+03  0.7818608E-02  0.1150158E+00
         21   -1    0    0  501  502  0.00000000000E+00  0.00000000000E+00  0.10886143984E+03  0.10886143984E+03  0.00000000000E+00 0.  1.
         21   -1    0    0  502  503 -0.00000000000E+00 -0.00000000000E+00 -0.38714551076E+03  0.38714551076E+03  0.00000000000E+00 0. -1.
          6    2    1    2  501    0 -0.82238589894E+02  0.58986702082E+02 -0.79273471198E+02  0.21405582688E+03  0.17115197075E+03 0.  0.
         24    2    3    3    0    0 -0.12399269804E+03  0.53413863515E+02 -0.61447347575E+02  0.16807406135E+03  0.79030902767E+02 0.  0.
         -6    2    1    2    0  503  0.82238589894E+02 -0.58986702082E+02 -0.19901059972E+03  0.28195112372E+03  0.17218769026E+03 0.  0.
        -24    2    5    5    0    0  0.77727644779E+02 -0.14927799308E+02 -0.20817306772E+03  0.23648051388E+03  0.79514661336E+02 0.  0.
          5    1    3    3  501    0  0.41754108150E+02  0.55728385671E+01 -0.17826123624E+02  0.45981765522E+02  0.47000000000E+01 0. -1.
        -13    1    4    4    0    0 -0.11213438335E+03  0.55009975257E+02 -0.21963750504E+02  0.12681728448E+03  0.00000000000E+00 0.  1.
         14    1    4    4    0    0 -0.11858314691E+02 -0.15961117421E+01 -0.39483597071E+02  0.41256776870E+02  0.00000000000E+00 0. -1.
         -5    1    5    5    0  503  0.45109451149E+01 -0.44058902774E+02  0.91624679988E+01  0.45470609841E+02  0.47000000000E+01 0.  1.
         13    1    6    6    0    0 -0.99394607885E+01 -0.18015336233E+02 -0.19211054287E+02  0.28149774904E+02  0.00000000000E+00 0. -1.
        -14    1    6    6    0    0  0.87667105567E+02  0.30875369241E+01 -0.18896201343E+03  0.20833073898E+03  0.00000000000E+00 0.  1.
</event>
<event>
12    1  0.9246030E-003  0.1976011E+03  0.7818608E-02  0.1151906E+00
         21   -1    0    0  501  502  0.00000000000E+00  0.00000000000E+00  0.59639997495E+03  0.59639997495E+03  0.00000000000E+00 0. -1.
         21   -1    0    0  502  503 -0.00000000000E+00 -0.00000000000E+00 -0.69192493234E+02  0.69192493234E+02  0.00000000000E+00 0. -1.
          6    2    1    2  501    0  0.96304109611E+01 -0.95192038312E+02  0.34243636277E+03  0.39506230971E+03  0.17221294097E+03 0.  0.
         24    2    3    3    0    0 -0.38447789472E+02 -0.42070032549E+02  0.29022949329E+03  0.30628670454E+03  0.79562971591E+02 0.  0.
         -6    2    1    2    0  503 -0.96304109611E+01  0.95192038312E+02  0.18477111895E+03  0.27053015847E+03  0.17289283175E+03 0.  0.
        -24    2    5    5    0    0 -0.53145394553E+02  0.98250133332E+02  0.18154298428E+03  0.22653678857E+03  0.76704235671E+02 0.  0.
          5    1    3    3  501    0  0.48078200433E+02 -0.53122005763E+02  0.52206869474E+02  0.88775605171E+02  0.47000000000E+01 0. -1.
        -13    1    4    4    0    0 -0.35480549142E+00 -0.56819315348E+02  0.15909144772E+03  0.16893386049E+03  0.00000000000E+00 0.  1.
         14    1    4    4    0    0 -0.38092983981E+02  0.14749282799E+02  0.13113804557E+03  0.13735284405E+03  0.00000000000E+00 0. -1.
         -5    1    5    5    0  503  0.43514983592E+02 -0.30580950195E+01  0.32281346667E+01  0.43993369904E+02  0.47000000000E+01 0.  1.
         11    1    6    6    0    0  0.58273033498E+01  0.11638383083E+02  0.78517868270E+02  0.79589352698E+02  0.00000000000E+00 0. -1.
        -12    1    6    6    0    0 -0.58972697902E+02  0.86611750249E+02  0.10302511601E+03  0.14694743587E+03  0.00000000000E+00 0.  1.
</event>
<event>
12    1  0.9246030E-003  0.1834051E+03  0.7818608E-02  0.1166204E+00
         21   -1    0    0  501  502  0.00000000000E+00  0.00000000000E+00  0.50344265924E+02  0.50344265924E+02  0.00000000000E+00 0.  1.
         21   -1    0    0  502  503 -0.00000000000E+00 -0.00000000000E+00 -0.66125503505E+03  0.66125503505E+03  0.00000000000E+00 0.  1.
          6    2    1    2  501    0  0.32755557698E+02 -0.30722191631E+02 -0.24123038120E+03  0.29892387592E+03  0.17072377446E+03 0.  0.
         24    2    3    3    0    0 -0.41397787138E+02 -0.40505957120E+00 -0.82983270448E+02  0.12149195910E+03  0.78486509020E+02 0.  0.
         -6    2    1    2    0  503 -0.32755557698E+02  0.30722191631E+02 -0.36968038792E+03  0.41267542505E+03  0.17782192667E+03 0.  0.
        -24    2    5    5    0    0  0.40117017117E+02  0.41379684195E+02 -0.27567580307E+03  0.29316414407E+03  0.81402786454E+02 0.  0.
          5    1    3    3  501    0  0.74153344836E+02 -0.30317132060E+02 -0.15824711075E+03  0.17743191683E+03  0.47000000000E+01 0. -1.
        -11    1    4    4    0    0 -0.15232183234E+02 -0.33087411587E+02 -0.67786042695E+02  0.76952867366E+02  0.00000000000E+00 0.  1.
         12    1    4    4    0    0 -0.26165603905E+02  0.32682352016E+02 -0.15197227753E+02  0.44539091733E+02  0.00000000000E+00 0. -1.
         -5    1    5    5    0  503 -0.72872574814E+02 -0.10657492563E+02 -0.94004584849E+02  0.11951128098E+03  0.47000000000E+01 0.  1.
         11    1    6    6    0    0  0.20977922623E+02  0.37945424172E+02 -0.48093669425E+02  0.64752833853E+02  0.00000000000E+00 0. -1.
        -12    1    6    6    0    0  0.19139094493E+02  0.34342600229E+01 -0.22758213365E+03  0.22841131022E+03  0.00000000000E+00 0.  1.
</event>
<event>
12    1  0.9246030E-003  0.2244520E+03  0.7818608E-02  0.1130746E+00
         21   -1    0    0  503  502  0.00000000000E+00  0.00000000000E+00  0.21640148882E+03  0.21640148882E+03  0.00000000000E+00 0.  1.
         21   -1    0    0  501  503 -0.00000000000E+00 -0.00000000000E+00 -0.24458472755E+03  0.24458472755E+03  0.00000000000E+00 0. -1.
          6    2    1    2  501    0 -0.13425534254E+03  0.51691775078E+02 -0.66333478839E+02  0.23331505204E+03  0.17128702952E+03 0.  0.
         24    2    3    3    0    0 -0.14127252915E+03 -0.85411772831E+01 -0.54583850403E+02  0.17136835538E+03  0.79729776756E+02 0.  0.
         -6    2    1    2    0  502  0.13425534254E+03 -0.51691775078E+02  0.38150240115E+02  0.22767116433E+03  0.17228517532E+03 0.  0.
        -24    2    5    5    0    0  0.93145787089E+02  0.30916875200E+02 -0.23986910030E+01  0.12677274777E+03  0.80209631798E+02 0.  0.
          5    1    3    3  501    0  0.70171866101E+01  0.60232952361E+02 -0.11749628436E+02  0.61946696655E+02  0.47000000000E+01 0. -1.
        -13    1    4    4    0    0 -0.62549004884E+02 -0.19769783456E+02  0.13158228456E+02  0.66905615056E+02  0.00000000000E+00 0.  1.
         14    1    4    4    0    0 -0.78723524262E+02  0.11228606173E+02 -0.67742078859E+02  0.10446274033E+03  0.00000000000E+00 0. -1.
         -5    1    5    5    0  502  0.41109555447E+02 -0.82608650278E+02  0.40548931118E+02  0.10089841656E+03  0.47000000000E+01 0.  1.
         13    1    6    6    0    0  0.45196467597E+02 -0.12416648199E+02  0.28794890025E+02  0.55009449436E+02  0.00000000000E+00 0. -1.
        -14    1    6    6    0    0  0.47949319492E+02  0.43333523399E+02 -0.31193581028E+02  0.71763298330E+02  0.00000000000E+00 0.  1.
</event>
<event>
12    1  0.9246030E-003  0.2178584E+03  0.7818608E-02  0.1135517E+00
         21   -1    0    0  503  502  0.00000000000E+00  0.00000000000E+00  0.26017233799E+03  0.26017233799E+03  0.00000000000E+00 0. -1.
         21   -1    0    0  501  503 -0.00000000000E+00 -0.00000000000E+00 -0.18256656021E+03  0.18256656021E+03  0.00000000000E+00 0.  1.
          6    2    1    2  501    0  0.11568061866E+03 -0.66765736158E+02  0.30401451503E+02  0.21982517617E+03  0.17192786501E+03 0.  0.
         24    2    3    3    0    0  0.54466168054E+02 -0.22331753714E+02 -0.52698079123E+02  0.10735647053E+03  0.72684616903E+02 0.  0.
         -6    2    1    2    0  502 -0.11568061866E+03  0.66765736158E+02  0.47204326277E+02  0.22291372204E+03  0.17211220177E+03 0.  0.
        -24    2    5    5    0    0 -0.53047285926E+02 -0.20789321628E+02 -0.13712219478E+02  0.99132713563E+02  0.79956610092E+02 0.  0.
          5    1    3    3  501    0  0.61214450604E+02 -0.44433982444E+02  0.83099530626E+02  0.11246870564E+03  0.47000000000E+01 0. -1.
        -13    1    4    4    0    0 -0.15775671576E+02 -0.77079874775E+01 -0.24776218666E+02  0.30366855221E+02  0.00000000000E+00 0.  1.
         14    1    4    4    0    0  0.70241839630E+02 -0.14623766237E+02 -0.27921860458E+02  0.76989615306E+02  0.00000000000E+00 0. -1.
         -5    1    5    5    0  502 -0.62633332732E+02  0.87555057786E+02  0.60916545755E+02  0.12378100848E+03  0.47000000000E+01 0.  1.
         13    1    6    6    0    0  0.18175039917E+02  0.42512610010E+01 -0.14494684207E+02  0.23632629272E+02  0.00000000000E+00 0. -1.
        -14    1    6    6    0    0 -0.71222325842E+02 -0.25040582629E+02  0.78246472904E+00  0.75500084290E+02  0.00000000000E+00 0.  1.
</event>
<event>
12    1  0.9246030E-003  0.2060394E+03  0.7818608E-02  0.1145458E+00
         21   -1    0    0  501  502  0.00000000000E+00  0.00000000000E+00  0.37659244092E+03  0.37659244092E+03  0.00000000000E+00 0.  1.
         21   -1    0    0  502  503 -0.00000000000E+00 -0.00000000000E+00 -0.11106052468E+03  0.11106052468E+03  0.00000000000E+00 0. -1.
          6    2    1    2  501    0  0.10746676004E+03 -0.31031573599E+02  0.14295509220E+03  0.24790874325E+03  0.16885059527E+03 0.  0.
         24    2    3    3    0    0  0.11505904329E+03 -0.10714856497E+02  0.16495209760E+03  0.21666182332E+03  0.79873397269E+02 0.  0.
         -6    2    1    2    0  503 -0.10746676004E+03  0.31031573599E+02  0.12257682404E+03  0.23974422235E+03  0.17303222615E+03 0.  0.
        -24    2    5    5    0    0 -0.88288312394E+02 -0.30905080659E+02  0.20411845693E+02  0.11865031336E+03  0.70080691344E+02 0.  0.
          5    1    3    3  501    0 -0.75922832444E+01 -0.20316717102E+02 -0.21997005400E+02  0.31246919932E+02  0.47000000000E+01 0. -1.
        -11    1    4    4    0    0 -0.11563312590E+02  0.22592516262E+01  0.24046846717E+02  0.26778074109E+02  0.00000000000E+00 0.  1.
         12    1    4    4    0    0  0.12662235588E+03 -0.12974108124E+02  0.14090525088E+03  0.18988374921E+03  0.00000000000E+00 0. -1.
         -5    1    5    5    0  503 -0.19178447648E+02  0.61936654258E+02  0.10216497835E+03  0.12109390899E+03  0.47000000000E+01 0.  1.
         13    1    6    6    0    0  0.11116072285E+01  0.14523641445E+02 -0.46418064540E+01  0.15287844799E+02  0.00000000000E+00 0. -1.
        -14    1    6    6    0    0 -0.89399919622E+02 -0.45428722104E+02  0.25053652147E+02  0.10336246856E+03  0.00000000000E+00 0.  1.
</event>
<event>
12    1  0.9246030E-003  0.2000485E+03  0.7818608E-02  0.1149782E+00
         21   -1    0    0  501  502  0.00000000000E+00  0.00000000000E+00  0.48249734676E+02  0.48249734676E+02  0.00000000000E+00 0.  1.
         21   -1    0    0  502  503 -0.00000000000E+00 -0.00000000000E+00 -0.12308572776E+04  0.12308572776E+04  0.00000000000E+00 0. -1.
          6    2    1    2  501    0 -0.60914836920E+02  0.81073687947E+02 -0.22491682072E+03  0.30074565733E+03  0.17197910897E+03 0.  0.
         24    2    3    3    0    0 -0.62714100635E+02 -0.14846624732E+02 -0.11128062883E+03  0.15195312444E+03  0.80949941261E+02 0.  0.
         -6    2    1    2    0  503  0.60914836920E+02 -0.81073687947E+02 -0.95769072224E+03  0.97836135499E+03  0.17244089201E+03 0.  0.
        -24    2    5    5    0    0  0.10435188367E+03 -0.38059931570E+02 -0.73003568100E+03  0.74259480081E+03  0.78466990755E+02 0.  0.
          5    1    3    3  501    0  0.17992637157E+01  0.95920312679E+02 -0.11363619189E+03  0.14879253288E+03  0.47000000000E+01 0. -1.
        -13    1    4    4    0    0 -0.15838005804E+02  0.89328993634E+00  0.11497442119E+02  0.19591619893E+02  0.00000000000E+00 0.  1.
         14    1    4    4    0    0 -0.46876094832E+02 -0.15739914668E+02 -0.12277807095E+03  0.13236150455E+03  0.00000000000E+00 0. -1.
         -5    1    5    5    0  503 -0.43437046751E+02 -0.43013756377E+02 -0.22765504124E+03  0.23576655418E+03  0.47000000000E+01 0.  1.
         11    1    6    6    0    0  0.15156702742E+02  0.18435040337E+02 -0.65260985159E+02  0.69487930853E+02  0.00000000000E+00 0. -1.
        -12    1    6    6    0    0  0.89195180928E+02 -0.56494971907E+02 -0.66477469584E+03  0.67310686996E+03  0.00000000000E+00 0.  1.
</event>
<event>
12    1  0.9246030E-003  0.1736914E+03  0.7818608E-02  0.1174608E+00
         21   -1    0    0  503  502  0.00000000000E+00  0.00000000000E+00  0.51006006945E+03  0.51006006945E+03  0.00000000000E+00 0.  1.
         21   -1    0    0  501  503 -0.00000000000E+00 -0.00000000000E+00 -0.66674758820E+02  0.66674758820E+02  0.00000000000E+00 0.  1.
          6    2    1    2  501    0  0.13937992983E+02  0.22394486253E+00  0.11893131559E+03  0.20871432247E+03  0.17094646173E+03 0.  0.
         24    2    3    3    0    0 -0.23055558965E+02 -0.56161895930E+01 -0.21232444583E+00  0.83734616050E+02  0.80301559503E+02 0.  0.
         -6    2    1    2    0  502 -0.13937992983E+02 -0.22394486253E+00  0.32445399504E+03  0.36802050580E+03  0.17313110637E+03 0.  0.
        -24    2    5    5    0    0  0.56965714190E+02 -0.26892530344E+02  0.21665409101E+03  0.23618174651E+03  0.69817773176E+02 0.  0.
          5    1    3    3  501    0  0.36993551948E+02  0.58401344556E+01  0.11914364003E+03  0.12497970642E+03  0.47000000000E+01 0. -1.
        -11    1    4    4    0    0  0.18513516616E+02 -0.29931193791E+02 -0.40365917304E+01  0.35424860367E+02  0.00000000000E+00 0.  1.
         12    1    4    4    0    0 -0.41569075582E+02  0.24315004198E+02  0.38242672846E+01  0.48309755683E+02  0.00000000000E+00 0. -1.
         -5    1    5    5    0  502 -0.70903707172E+02  0.26668585482E+02  0.10779990403E+03  0.13183875929E+03  0.47000000000E+01 0.  1.
         11    1    6    6    0    0 -0.37144752859E+01  0.86625445221E+01  0.11539571112E+01  0.94957159426E+01  0.00000000000E+00 0. -1.
        -12    1    6    6    0    0  0.60680189476E+02 -0.35555074866E+02  0.21550013390E+03  0.22668603057E+03  0.00000000000E+00 0.  1.
</event>
<event>
12    1  0.9246030E-003  0.1734182E+03  0.7818608E-02  0.1174466E+00
         21   -1    0    0  501  502  0.00000000000E+00  0.00000000000E+00  0.14081077935E+04  0.14081077935E+04  0.00000000000E+00 0. -1.
         21   -1    0    0  502  503 -0.00000000000E+00 -0.00000000000E+00 -0.27526719132E+02  0.27526719132E+02  0.00000000000E+00 0. -1.
          6    2    1    2  501    0  0.16138849005E+02 -0.70176074421E+01  0.10310981962E+04  0.10454907477E+04  0.17198169727E+03 0.  0.
         24    2    3    3    0    0 -0.10540823607E+02 -0.65216396967E+02  0.52343743805E+03  0.53378727953E+03  0.81103765923E+02 0.  0.
         -6    2    1    2    0  503 -0.16138849005E+02  0.70176074421E+01  0.34948287819E+03  0.39014376489E+03  0.17252294303E+03 0.  0.
        -24    2    5    5    0    0 -0.22914020857E+02  0.15300349768E+02  0.66640656461E+02  0.10706017447E+03  0.79131225241E+02 0.  0.
          5    1    3    3  501    0  0.26679672612E+02  0.58198789524E+02  0.50766075812E+03  0.51170346820E+03  0.47000000000E+01 0. -1.
        -11    1    4    4    0    0  0.57209534912E+01 -0.77134868959E+02  0.31417970976E+03  0.32356051573E+03  0.00000000000E+00 0.  1.
         12    1    4    4    0    0 -0.16261777098E+02  0.11918471993E+02  0.20925772829E+03  0.21022676380E+03  0.00000000000E+00 0. -1.
         -5    1    5    5    0  503  0.67751718520E+01 -0.82827423254E+01  0.28284222173E+03  0.28308359042E+03  0.47000000000E+01 0.  1.
         11    1    6    6    0    0  0.21071817690E+02  0.77516127359E+01 -0.46725504674E+01  0.22933419471E+02  0.00000000000E+00 0. -1.
        -12    1    6    6    0    0 -0.43985838547E+02  0.75487370317E+01  0.71313206929E+02  0.84126754994E+02  0.00000000000E+00 0.  1.
</event>
<event>
12    1  0.9246030E-003  0.2937023E+03  0.7818608E-02  0.1088706E+00
         21   -1    0    0  503  502  0.00000000000E+00  0.00000000000E+00  0.32754465284E+03  0.32754465284E+03  0.00000000000E+00 0. -1.
         21   -1    0    0  501  503 -0.00000000000E+00 -0.00000000000E+00 -0.48664631760E+03  0.48664631760E+03  0.00000000000E+00 0.  1.
          6    2    1    2  501    0 -0.17812568004E+03  0.15514531566E+03 -0.35663509174E+03  0.46200610152E+03  0.17453430126E+03 0.  0.
         24    2    3    3    0    0 -0.10139977338E+03  0.16215493235E+03 -0.30678263911E+03  0.37011836288E+03  0.79346573672E+02 0.  0.
         -6    2    1    2    0  502  0.17812568004E+03 -0.15514531566E+03  0.19753342698E+03  0.35218486892E+03  0.17092659318E+03 0.  0.
        -24    2    5    5    0    0  0.61468270080E+02 -0.36920634157E+02  0.22394906208E+02  0.11076900764E+03  0.81404912487E+02 0.  0.
          5    1    3    3  501    0 -0.76725906655E+02 -0.70096166879E+01 -0.49852452631E+02  0.91887738635E+02  0.47000000000E+01 0. -1.
        -11    1    4    4    0    0 -0.38161476929E+02  0.10191130321E+03 -0.10955388257E+03  0.15441588400E+03  0.00000000000E+00 0.  1.
         12    1    4    4    0    0 -0.63238296452E+02  0.60243629138E+02 -0.19722875654E+03  0.21570247889E+03  0.00000000000E+00 0. -1.
         -5    1    5    5    0  502  0.11665740996E+03 -0.11822468151E+03  0.17513852078E+03  0.24141586127E+03  0.47000000000E+01 0.  1.
         11    1    6    6    0    0  0.16562864026E+02  0.11295324473E+02  0.38084088507E+02  0.43038478332E+02  0.00000000000E+00 0. -1.
        -12    1    6    6    0    0  0.44905406054E+02 -0.48215958630E+02 -0.15689182300E+02  0.67730529311E+02  0.00000000000E+00 0.  1.
</event>
<event>
12    1  0.9246030E-003  0.1754765E+03  0.7818608E-02  0.1172283E+00
         21   -1    0    0  503  502  0.00000000000E+00  0.00000000000E+00  0.62161735983E+03  0.62161735983E+03  0.00000000000E+00 0.  1.
         21   -1    0    0  501  503 -0.00000000000E+00 -0.00000000000E+00 -0.66800885190E+02  0.66800885190E+02  0.00000000000E+00 0.  1.
          6    2    1    2  501    0 -0.32021396381E+02  0.23506231222E+02  0.10218402219E+03  0.20296162088E+03  0.17080378340E+03 0.  0.
         24    2    3    3    0    0 -0.30042189292E+02  0.80440063204E+02  0.61496784039E+02  0.13279809878E+03  0.80500581897E+02 0.  0.
         -6    2    1    2    0  502  0.32021396381E+02 -0.23506231222E+02  0.45263245245E+03  0.48545662415E+03  0.17092128067E+03 0.  0.
        -24    2    5    5    0    0  0.40852946497E+01 -0.34627531367E+02  0.10644927282E+03  0.13793828945E+03  0.80497008951E+02 0.  0.
          5    1    3    3  501    0 -0.19792070888E+01 -0.56933831981E+02  0.40687238155E+02  0.70163522100E+02  0.47000000000E+01 0. -1.
        -13    1    4    4    0    0 -0.14531026873E+02  0.54785129345E+02  0.79644400820E+02  0.97753729961E+02  0.00000000000E+00 0.  1.
         14    1    4    4    0    0 -0.15511162419E+02  0.25654933859E+02 -0.18147616780E+02  0.35044368816E+02  0.00000000000E+00 0. -1.
         -5    1    5    5    0  502  0.27936101731E+02  0.11121300145E+02  0.34618317963E+03  0.34751833470E+03  0.47000000000E+01 0.  1.
         11    1    6    6    0    0 -0.37854918708E+02 -0.10778329257E+02  0.44285754266E+02  0.59248588869E+02  0.00000000000E+00 0. -1.
        -12    1    6    6    0    0  0.41940213358E+02 -0.23849202110E+02  0.62163518557E+02  0.78689700578E+02  0.00000000000E+00 0.  1.
</event>
<event>
12    1  0.9246030E-003  0.2117817E+03  0.7818608E-02  0.1140387E+00
         21   -1    0    0  503  502  0.00000000000E+00  0.00000000000E+00  0.80093485121E+03  0.80093485121E+03  0.00000000000E+00 0.  1.
         21   -1    0    0  501  503 -0.00000000000E+00 -0.00000000000E+00 -0.65196609498E+02  0.65196609498E+02  0.00000000000E+00 0.  1.
          6    2    1    2  501    0  0.37112649886E+02 -0.11679857160E+03  0.53401842305E+03  0.57447989130E+03  0.17272004586E+03 0.  0.
         24    2    3    3    0    0  0.46303353646E+02 -0.10398616628E+03  0.21979890804E+03  0.25982989467E+03  0.79011966517E+02 0.  0.
         -6    2    1    2    0  502 -0.37112649886E+02  0.11679857160E+03  0.20171981866E+03  0.29165156941E+03  0.17131986922E+03 0.  0.
        -24    2    5    5    0    0  0.28649380848E+02  0.30361534844E+02  0.13969262414E+03  0.16648979861E+03  0.80387896976E+02 0.  0.
          5    1    3    3  501    0 -0.91907037596E+01 -0.12812405322E+02  0.31421951501E+03  0.31464999663E+03  0.47000000000E+01 0. -1.
        -13    1    4    4    0    0  0.68290141471E+02 -0.87949976208E+02  0.17700430939E+03  0.20911544008E+03  0.00000000000E+00 0.  1.
         14    1    4    4    0    0 -0.21986787825E+02 -0.16036190071E+02  0.42794598646E+02  0.50714454588E+02  0.00000000000E+00 0. -1.
         -5    1    5    5    0  502 -0.65762030734E+02  0.86437036757E+02  0.62027194521E+02  0.12516177080E+03  0.47000000000E+01 0.  1.
         13    1    6    6    0    0 -0.64938626488E+01 -0.14549425999E+02  0.35799558973E+00  0.15936882061E+02  0.00000000000E+00 0. -1.
        -14    1    6    6    0    0  0.35143243497E+02  0.44910960842E+02  0.13933462855E+03  0.15055291655E+03  0.00000000000E+00 0.  1.
</event>
<event>
12    1  0.9246030E-003  0.1743827E+03  0.7818608E-02  0.1173816E+00
         21   -1    0    0  503  502  0.00000000000E+00  0.00000000000E+00  0.25087377331E+03  0.25087377331E+03  0.00000000000E+00 0. -1.
         21   -1    0    0  501  503 -0.00000000000E+00 -0.00000000000E+00 -0.20630380499E+03  0.20630380499E+03  0.00000000000E+00 0. -1.
          6    2    1    2  501    0  0.16253740482E+02 -0.95063608063E+01 -0.12553935544E+03  0.21487079093E+03  0.17336312196E+03 0.  0.
         24    2    3    3    0    0 -0.53737259991E+01 -0.35680198978E+02 -0.14725016835E+03  0.17429658104E+03  0.85992630815E+02 0.  0.
         -6    2    1    2    0  502 -0.16253740482E+02  0.95063608063E+01  0.17010932376E+03  0.24230678736E+03  0.17152504831E+03 0.  0.
        -24    2    5    5    0    0 -0.29443579965E+02  0.51789832293E+02  0.16972819854E+03  0.19776356023E+03  0.82180613570E+02 0.  0.
          5    1    3    3  501    0  0.21627466481E+02  0.26173838172E+02  0.21710812909E+02  0.40574209890E+02  0.47000000000E+01 0. -1.
        -11    1    4    4    0    0 -0.39777995222E+01  0.23585924540E+02 -0.12293449287E+02  0.26893263484E+02  0.00000000000E+00 0.  1.
         12    1    4    4    0    0 -0.13959264769E+01 -0.59266123518E+02 -0.13495671906E+03  0.14740331756E+03  0.00000000000E+00 0. -1.
         -5    1    5    5    0  502  0.13189839483E+02 -0.42283471487E+02  0.38112521922E+00  0.44543227128E+02  0.47000000000E+01 0.  1.
         11    1    6    6    0    0  0.20580992445E+02 -0.61969269027E+01  0.18964397919E+02  0.28664046147E+02  0.00000000000E+00 0. -1.
        -12    1    6    6    0    0 -0.50024572410E+02  0.57986759196E+02  0.15076380062E+03  0.16909951409E+03  0.00000000000E+00 0.  1.
</event>
<event>
12    1  0.9246030E-003  0.1978318E+03  0.7818608E-02  0.1151592E+00
         21   -1    0    0  503  502  0.00000000000E+00  0.00000000000E+00  0.28568581497E+03  0.28568581497E+03  0.00000000000E+00 0.  1.
         21   -1    0    0  501  503 -0.00000000000E+00 -0.00000000000E+00 -0.15207778875E+03  0.15207778875E+03  0.00000000000E+00 0. -1.
          6    2    1    2  501    0 -0.58944878675E+02 -0.77755663820E+02 -0.22023425717E+01  0.19784406414E+03  0.17209584953E+03 0.  0.
         24    2    3    3    0    0  0.18978319288E+02 -0.17670787141E+02  0.35674521772E+02  0.92302773457E+02  0.81084506306E+02 0.  0.
         -6    2    1    2    0  502  0.58944878675E+02  0.77755663820E+02  0.13581036879E+03  0.23991953958E+03  0.17203629624E+03 0.  0.
        -24    2    5    5    0    0  0.86690706962E+01 -0.23560785645E+02  0.72662235330E+02  0.11029524957E+03  0.79088420316E+02 0.  0.
          5    1    3    3  501    0 -0.77923197963E+02 -0.60084876679E+02 -0.37876864344E+02  0.10554129068E+03  0.47000000000E+01 0. -1.
        -11    1    4    4    0    0 -0.92596200484E+01 -0.16731649137E+02  0.54895557788E+02  0.58130980649E+02  0.00000000000E+00 0.  1.
         12    1    4    4    0    0  0.28237939337E+02 -0.93913800354E+00 -0.19221036016E+02  0.34171792808E+02  0.00000000000E+00 0. -1.
         -5    1    5    5    0  502  0.50275807979E+02  0.10131644947E+03  0.63148133461E+02  0.12962429001E+03  0.47000000000E+01 0.  1.
         13    1    6    6    0    0  0.19292844628E+02  0.13178552166E+01  0.79968955444E+02  0.82273838071E+02  0.00000000000E+00 0. -1.
        -14    1    6    6    0    0 -0.10623773932E+02 -0.24878640862E+02 -0.73067201139E+01  0.28021411501E+02  0.00000000000E+00 0.  1.
</event>
<event>
12    1  0.9246030E-003  0.2900562E+03  0.7818608E-02  0.1090425E+00
         21   -1    0    0  501  502  0.00000000000E+00  0.00000000000E+00  0.13308741314E+03  0.13308741314E+03  0.00000000000E+00 0.  1.
         21   -1    0    0  502  503 -0.00000000000E+00 -0.00000000000E+00 -0.83514843660E+03  0.83514843660E+03  0.00000000000E+00 0. -1.
          6    2    1    2  501    0  0.23311571747E+03  0.17566060025E+02 -0.11169859368E+03  0.31082018045E+03  0.17170062478E+03 0.  0.
         24    2    3    3    0    0  0.17541122510E+03  0.24413049593E+02 -0.10637943048E+02  0.19414955513E+03  0.78840275522E+02 0.  0.
         -6    2    1    2    0  503 -0.23311571747E+03 -0.17566060025E+02 -0.59036242978E+03  0.65741566929E+03  0.17034100955E+03 0.  0.
        -24    2    5    5    0    0 -0.18022054946E+03 -0.59759695531E+02 -0.52239226687E+03  0.56139361598E+03  0.78857110762E+02 0.  0.
          5    1    3    3  501    0  0.57704492368E+02 -0.68469895681E+01 -0.10106065063E+03  0.11667062532E+03  0.47000000000E+01 0. -1.
        -13    1    4    4    0    0  0.10894267296E+03  0.53398381179E+02 -0.79650601462E+01  0.12158673976E+03  0.00000000000E+00 0.  1.
         14    1    4    4    0    0  0.66468552146E+02 -0.28985331585E+02 -0.26728829017E+01  0.72562815371E+02  0.00000000000E+00 0. -1.
         -5    1    5    5    0  503 -0.52895168009E+02  0.42193635506E+02 -0.67970162909E+02  0.96022053309E+02  0.47000000000E+01 0.  1.
         11    1    6    6    0    0 -0.92794571333E+02 -0.30848237961E+02 -0.16026864477E+03  0.18774579822E+03  0.00000000000E+00 0. -1.
        -12    1    6    6    0    0 -0.87425978129E+02 -0.28911457570E+02 -0.36212362210E+03  0.37364781775E+03  0.00000000000E+00 0.  1.
</event>
<event>
12    1  0.9246030E-003  0.1888823E+03  0.7818608E-02  0.1160088E+00
         21   -1    0    0  503  502  0.00000000000E+00  0.00000000000E+00  0.76694998908E+02  0.76694998908E+02  0.00000000000E+00 0.  1.
         21   -1    0    0  501  503 -0.00000000000E+00 -0.00000000000E+00 -0.48851090060E+03  0.48851090060E+03  0.00000000000E+00 0. -1.
          6    2    1    2  501    0  0.11211684675E+02 -0.75479151764E+02 -0.27446960630E+03  0.33166674658E+03  0.16984246166E+03 0.  0.
         24    2    3    3    0    0  0.47437491988E+02 -0.65362229671E+02 -0.27059192070E+03  0.29356441498E+03  0.80234291189E+02 0.  0.
         -6    2    1    2    0  502 -0.11211684675E+02  0.75479151764E+02 -0.13734629540E+03  0.23353915293E+03  0.17278231063E+03 0.  0.
        -24    2    5    5    0    0 -0.55371779751E+02  0.74876105959E+02 -0.42629975798E+02  0.12892677861E+03  0.78309221488E+02 0.  0.
          5    1    3    3  501    0 -0.36225807313E+02 -0.10116922093E+02 -0.38776856019E+01  0.38102331605E+02  0.47000000000E+01 0. -1.
        -13    1    4    4    0    0  0.14725874367E+02  0.13845241091E+02 -0.18857555263E+02  0.27643253557E+02  0.00000000000E+00 0.  1.
         14    1    4    4    0    0  0.32711617621E+02 -0.79207470762E+02 -0.25173436543E+03  0.26592116142E+03  0.00000000000E+00 0. -1.
         -5    1    5    5    0  502  0.44160095076E+02  0.60304580442E+00 -0.94716319600E+02  0.10461237432E+03  0.47000000000E+01 0.  1.
         11    1    6    6    0    0 -0.15974904226E+02 -0.12659789313E+01 -0.40072672517E+02  0.43158073988E+02  0.00000000000E+00 0. -1.
        -12    1    6    6    0    0 -0.39396875525E+02  0.76142084890E+02 -0.25573032807E+01  0.85768704623E+02  0.00000000000E+00 0.  1.
</event>
<event>
12    1  0.9246030E-003  0.2069524E+03  0.7818608E-02  0.1146294E+00
         21   -1    0    0  501  502  0.00000000000E+00  0.00000000000E+00  0.14713887126E+04  0.14713887126E+04  0.00000000000E+00 0. -1.
         21   -1    0    0  502  503 -0.00000000000E+00 -0.00000000000E+00 -0.27699543081E+02  0.27699543081E+02  0.00000000000E+00 0.  1.
          6    2    1    2  501    0 -0.11480584247E+03 -0.67698252709E+01  0.79124238633E+03  0.81785928132E+03  0.17205545072E+03 0.  0.
         24    2    3    3    0    0 -0.43626873506E+02 -0.58937065546E+02  0.55528589205E+03  0.56589614161E+03  0.80741187719E+02 0.  0.
         -6    2    1    2    0  503  0.11480584247E+03  0.67698252709E+01  0.65244678322E+03  0.68122897439E+03  0.15861872089E+03 0.  0.
        -24    2    5    5    0    0  0.10746584387E+03 -0.93691243822E+01  0.30671568835E+03  0.33501167090E+03  0.80756535763E+02 0.  0.
          5    1    3    3  501    0 -0.71178968959E+02  0.52167240275E+02  0.23595649428E+03  0.25196313971E+03  0.47000000000E+01 0. -1.
        -11    1    4    4    0    0 -0.44883261737E+02 -0.54895505593E+02  0.23227134791E+03  0.24285387125E+03  0.00000000000E+00 0.  1.
         12    1    4    4    0    0  0.12563882305E+01 -0.40415599529E+01  0.32301454414E+03  0.32304227037E+03  0.00000000000E+00 0. -1.
         -5    1    5    5    0  503  0.73399985929E+01  0.16138949653E+02  0.34573109487E+03  0.34621730349E+03  0.47000000000E+01 0.  1.
         13    1    6    6    0    0  0.32470640565E+02  0.19189882972E+02  0.18780894739E+03  0.19155885474E+03  0.00000000000E+00 0. -1.
        -14    1    6    6    0    0  0.74995203308E+02 -0.28559007354E+02  0.11890674096E+03  0.14345281616E+03  0.00000000000E+00 0.  1.
</event>
<event>
12    1  0.9246030E-003  0.2021174E+03  0.7818608E-02  0.1148015E+00
         21   -1    0    0  501  502  0.00000000000E+00  0.00000000000E+00  0.84018058044E+02  0.84018058044E+02  0.00000000000E+00 0.  1.
         21   -1    0    0  502  503 -0.00000000000E+00 -0.00000000000E+00 -0.49868559260E+03  0.49868559260E+03  0.00000000000E+00 0. -1.
          6    2    1    2  501    0 -0.10472012147E+03  0.20322810940E+01 -0.16033393392E+03  0.25798917786E+03  0.17286124933E+03 0.  0.
         24    2    3    3    0    0 -0.76162846878E+02  0.51570998276E+00 -0.21435313918E+02  0.11609931015E+03  0.84961944033E+02 0.  0.
         -6    2    1    2    0  503  0.10472012147E+03 -0.20322810940E+01 -0.25433360064E+03  0.32471447278E+03  0.17257889331E+03 0.  0.
        -24    2    5    5    0    0  0.10321974059E+03  0.43334178168E+02 -0.24466285668E+03  0.27806707138E+03  0.70208382019E+02 0.  0.
          5    1    3    3  501    0 -0.28557274589E+02  0.15165711112E+01 -0.13889862001E+03  0.14188986771E+03  0.47000000000E+01 0. -1.
        -13    1    4    4    0    0 -0.73435794265E+02 -0.25828776620E+02 -0.36118102933E+02  0.85816425819E+02  0.00000000000E+00 0.  1.
         14    1    4    4    0    0 -0.27270526132E+01  0.26344486602E+02  0.14682789015E+02  0.30282884334E+02  0.00000000000E+00 0. -1.
         -5    1    5    5    0  503  0.15003808811E+01 -0.45366459262E+02 -0.96707439596E+01  0.46647401401E+02  0.47000000000E+01 0.  1.
         11    1    6    6    0    0  0.75175803990E+02  0.42270182344E+02 -0.23155076680E+03  0.24709092947E+03  0.00000000000E+00 0. -1.
        -12    1    6    6    0    0  0.28043936596E+02  0.10639958237E+01 -0.13112089880E+02  0.30976141915E+02  0.00000000000E+00 0.  1.
</event>
<event>
12    1  0.9246030E-003  0.2810526E+03  0.7818608E-02  0.1095381E+00
         21   -1    0    0  501  502  0.00000000000E+00  0.00000000000E+00  0.46958053777E+03  0.46958053777E+03  0.00000000000E+00 0.  1.
         21   -1    0    0  502  503 -0.00000000000E+00 -0.00000000000E+00 -0.18082754440E+03  0.18082754440E+03  0.00000000000E+00 0.  1.
          6    2    1    2  501    0  0.20455192159E+03  0.86791204096E+02  0.23460546496E+03  0.36610147487E+03  0.17209405561E+03 0.  0.
         24    2    3    3    0    0  0.32868086004E+02  0.65144916394E+02  0.83084914619E+02  0.13604828895E+03  0.79258202605E+02 0.  0.
         -6    2    1    2    0  503 -0.20455192159E+03 -0.86791204096E+02  0.54147528408E+02  0.28430660731E+03  0.16889076468E+03 0.  0.
        -24    2    5    5    0    0 -0.18212440978E+03 -0.12293077882E+03  0.59149875275E+02  0.24122325065E+03  0.80054180982E+02 0.  0.
          5    1    3    3  501    0  0.17168383558E+03  0.21646287702E+02  0.15152055034E+03  0.23005318591E+03  0.47000000000E+01 0.  1.
        -13    1    4    4    0    0  0.10149348746E+02 -0.17519769429E+02  0.69946226400E+01  0.21421399270E+02  0.00000000000E+00 0.  1.
         14    1    4    4    0    0  0.22718737258E+02  0.82664685824E+02  0.76090291979E+02  0.11462688968E+03  0.00000000000E+00 0. -1.
         -5    1    5    5    0  503 -0.22427511811E+02  0.36139574719E+02 -0.50023468676E+01  0.43083356660E+02  0.47000000000E+01 0.  1.
         11    1    6    6    0    0 -0.53696945632E+02 -0.72236098827E+02 -0.24340348138E+01  0.90040771151E+02  0.00000000000E+00 0. -1.
        -12    1    6    6    0    0 -0.12842746415E+03 -0.50694679988E+02  0.61583910089E+02  0.15118247950E+03  0.00000000000E+00 0.  1.
</event>
<event>
12    1  0.9246030E-003  0.2876519E+03  0.7818608E-02  0.1091585E+00
         21   -1    0    0  503  502  0.00000000000E+00  0.00000000000E+00  0.44849794146E+03  0.44849794146E+03  0.00000000000E+00 0.  1.
         21   -1    0    0  501  503 -0.00000000000E+00 -0.00000000000E+00 -0.21701439674E+03  0.21701439674E+03  0.00000000000E+00 0. -1.
          6    2    1    2  501    0 -0.20318653675E+03  0.10826715303E+03 -0.13114793341E+02  0.28792528022E+03  0.17240192586E+03 0.  0.
         24    2    3    3    0    0 -0.15571655325E+03  0.55242713834E+02  0.52563074718E+02  0.19096826480E+03  0.80041232800E+02 0.  0.
         -6    2    1    2    0  502  0.20318653675E+03 -0.10826715303E+03  0.24459833806E+03  0.37758705798E+03  0.17244446708E+03 0.  0.
        -24    2    5    5    0    0  0.57647801994E+02  0.98121989349E+01  0.77335192319E+02  0.12634353746E+03  0.81008698081E+02 0.  0.
          5    1    3    3  501    0 -0.47469983500E+02  0.53024439200E+02 -0.65677868060E+02  0.96957015419E+02  0.47000000000E+01 0. -1.
        -11    1    4    4    0    0  0.59522846128E+01 -0.47437340416E+01 -0.50788659544E+01  0.91502778183E+01  0.00000000000E+00 0.  1.
         12    1    4    4    0    0 -0.16166883787E+03  0.59986447876E+02  0.57641940673E+02  0.18181798698E+03  0.00000000000E+00 0. -1.
         -5    1    5    5    0  502  0.14553873476E+03 -0.11807935197E+03  0.16726314574E+03  0.25124352051E+03  0.47000000000E+01 0.  1.
         11    1    6    6    0    0  0.65741956183E+02 -0.10642755426E+02  0.27845167214E+02  0.72184668614E+02  0.00000000000E+00 0. -1.
        -12    1    6    6    0    0 -0.80941541885E+01  0.20454954361E+02  0.49490025106E+02  0.54158868848E+02  0.00000000000E+00 0.  1.
</event>
<event>
12    1  0.9246030E-003  0.1758600E+03  0.7818608E-02  0.1171965E+00
         21   -1    0    0  503  502  0.00000000000E+00  0.00000000000E+00  0.92603562894E+02  0.92603562894E+02  0.00000000000E+00 0.  1.
         21   -1    0    0  501  503 -0.00000000000E+00 -0.00000000000E+00 -0.40388418637E+03  0.40388418637E+03  0.00000000000E+00 0.  1.
          6    2    1    2  501    0 -0.21819639881E+02  0.30518437069E+02 -0.51693423883E+02  0.18293989422E+03  0.17142731153E+03 0.  0.
         24    2    3    3    0    0  0.50836733051E+02  0.81770297214E+01 -0.16970927073E+02  0.99239065103E+02  0.83121251401E+02 0.  0.
         -6    2    1    2    0  502  0.21819639881E+02 -0.30518437069E+02 -0.25958719960E+03  0.31354785505E+03  0.17181173280E+03 0.  0.
        -24    2    5    5    0    0 -0.22165499576E+02 -0.30640862645E+02 -0.25353575491E+03  0.26890015115E+03  0.81220320328E+02 0.  0.
          5    1    3    3  501    0 -0.72656372932E+02  0.22341407347E+02 -0.34722496810E+02  0.83700829115E+02  0.47000000000E+01 0. -1.
        -13    1    4    4    0    0 -0.18393368359E+02 -0.44342096948E+01 -0.21603442104E+02  0.28717362796E+02  0.00000000000E+00 0.  1.
         14    1    4    4    0    0  0.69230101410E+02  0.12611239416E+02  0.46325150307E+01  0.70521702307E+02  0.00000000000E+00 0. -1.
         -5    1    5    5    0  502  0.43985139457E+02  0.12242557629E+00 -0.60514446880E+01  0.44647703904E+02  0.47000000000E+01 0.  1.
         11    1    6    6    0    0  0.23582747813E+01  0.24552632225E+02 -0.11748076111E+03  0.12004216943E+03  0.00000000000E+00 0. -1.
        -12    1    6    6    0    0 -0.24523774357E+02 -0.55193494870E+02 -0.13605499380E+03  0.14885798172E+03  0.00000000000E+00 0.  1.
</event>
<event>
12    1  0.9246030E-003  0.2118229E+03  0.7818608E-02  0.1140588E+00
         21   -1    0    0  503  502  0.00000000000E+00  0.00000000000E+00  0.19282607641E+03  0.19282607641E+03  0.00000000000E+00 0. -1.
         21   -1    0    0  501  503 -0.00000000000E+00 -0.00000000000E+00 -0.23259191646E+03  0.23259191646E+03  0.00000000000E+00 0.  1.
          6    2    1    2  501    0  0.10563655190E+02 -0.12172748701E+03  0.20293150593E+01  0.20951108957E+03  0.17018109951E+03 0.  0.
         24    2    3    3    0    0  0.35051275312E+02 -0.39154090621E+02  0.39221806024E+02  0.11557823741E+03  0.95175333898E+02 0.  0.
         -6    2    1    2    0  502 -0.10563655190E+02  0.12172748701E+03 -0.41795155106E+02  0.21590690330E+03  0.17303116482E+03 0.  0.
        -24    2    5    5    0    0  0.44594192765E+01  0.15520055141E+03 -0.31293259656E+02  0.17745539338E+03  0.80025314499E+02 0.  0.
          5    1    3    3  501    0 -0.24487620122E+02 -0.82573396385E+02 -0.37192490965E+02  0.93932852155E+02  0.47000000000E+01 0. -1.
        -11    1    4    4    0    0  0.11224047185E+02  0.53046244577E+01 -0.28528591528E+02  0.31112679255E+02  0.00000000000E+00 0.  1.
         12    1    4    4    0    0  0.23827228127E+02 -0.44458715078E+02  0.67750397552E+02  0.84465558159E+02  0.00000000000E+00 0. -1.
         -5    1    5    5    0  502 -0.15023074466E+02 -0.33473064408E+02 -0.10501895450E+02  0.38451509922E+02  0.47000000000E+01 0.  1.
         13    1    6    6    0    0  0.16909860745E+02  0.11024132512E+02  0.15406740868E+02  0.25393750259E+02  0.00000000000E+00 0. -1.
        -14    1    6    6    0    0 -0.12450441468E+02  0.14417641890E+03 -0.46700000524E+02  0.15206164312E+03  0.00000000000E+00 0.  1.
</event>
<event>
12    1  0.9246030E-003  0.2227356E+03  0.7818608E-02  0.1131988E+00
         21   -1    0    0  501  502  0.00000000000E+00  0.00000000000E+00  0.38720915767E+03  0.38720915767E+03  0.00000000000E+00 0.  1.
         21   -1    0    0  502  503 -0.00000000000E+00 -0.00000000000E+00 -0.12974918236E+03  0.12974918236E+03  0.00000000000E+00 0.  1.
          6    2    1    2  501    0  0.12852285360E+03 -0.59129718842E+02  0.96230674836E+02  0.24199279085E+03  0.17113071173E+03 0.  0.
         24    2    3    3    0    0  0.12428496223E+03  0.13573177930E+02  0.74613131852E+02  0.16588051138E+03  0.79487367633E+02 0.  0.
         -6    2    1    2    0  503 -0.12852285360E+03  0.59129718842E+02  0.16122930047E+03  0.27496554918E+03  0.17203696800E+03 0.  0.
        -24    2    5    5    0    0 -0.86905243773E+02  0.45019711309E+02  0.20480755110E+02  0.12744144681E+03  0.79009905916E+02 0.  0.
          5    1    3    3  501    0  0.42378913672E+01 -0.72702896772E+02  0.21617542984E+02  0.76112279475E+02  0.47000000000E+01 0. -1.
        -13    1    4    4    0    0  0.72052277290E+01  0.29062904804E+02  0.12555529096E+02  0.32468585635E+02  0.00000000000E+00 0.  1.
         14    1    4    4    0    0  0.11707973451E+03 -0.15489726874E+02  0.62057602755E+02  0.13341192574E+03  0.00000000000E+00 0. -1.
         -5    1    5    5    0  503 -0.41617609829E+02  0.14110007533E+02  0.14074854536E+03  0.14752410238E+03  0.47000000000E+01 0.  1.
         11    1    6    6    0    0 -0.17134435627E+02  0.42313882309E+02 -0.16360896601E+02  0.48494664221E+02  0.00000000000E+00 0. -1.
        -12    1    6    6    0    0 -0.69770808145E+02  0.27058290000E+01  0.36841651711E+02  0.78946782586E+02  0.00000000000E+00 0.  1.
</event>
<event>
12    1  0.9246030E-003  0.2000780E+03  0.7818608E-02  0.1149813E+00
         21   -1    0    0  503  502  0.00000000000E+00  0.00000000000E+00  0.68504253083E+03  0.68504253083E+03  0.00000000000E+00 0. -1.
         21   -1    0    0  501  503 -0.00000000000E+00 -0.00000000000E+00 -0.60574340526E+02  0.60574340526E+02  0.00000000000E+00 0. -1.
          6    2    1    2  501    0 -0.27124232785E+02 -0.98203298409E+02  0.38487852352E+03  0.43347202808E+03  0.17142610490E+03 0.  0.
         24    2    3    3    0    0 -0.63887612792E+02 -0.90903968642E+02  0.36639080459E+03  0.39141596935E+03  0.81357733468E+02 0.  0.
         -6    2    1    2    0  502  0.27124232785E+02  0.98203298409E+02  0.23958966678E+03  0.31214484327E+03  0.17219634993E+03 0.  0.
        -24    2    5    5    0    0  0.66692316969E+02  0.22861947307E+02  0.84753238205E+02  0.13540106803E+03  0.78611729786E+02 0.  0.
          5    1    3    3  501    0  0.36763380007E+02 -0.72993297669E+01  0.18487718932E+02  0.42056058729E+02  0.47000000000E+01 0. -1.
        -11    1    4    4    0    0 -0.35312995703E+02 -0.35678810681E+02  0.28287552791E+03  0.28729523054E+03  0.00000000000E+00 0.  1.
         12    1    4    4    0    0 -0.28574617089E+02 -0.55225157961E+02  0.83515276675E+02  0.10412073882E+03  0.00000000000E+00 0. -1.
         -5    1    5    5    0  502 -0.39568084184E+02  0.75341351102E+02  0.15483642858E+03  0.17674377524E+03  0.47000000000E+01 0.  1.
         11    1    6    6    0    0 -0.35415812334E+01  0.32868838243E+02  0.38337408369E+02  0.50622724201E+02  0.00000000000E+00 0. -1.
        -12    1    6    6    0    0  0.70233898203E+02 -0.10006890936E+02  0.46415829835E+02  0.84778343828E+02  0.00000000000E+00 0.  1.
</event>
<event>
12    1  0.9246030E-003  0.1900173E+03  0.7818608E-02  0.1158448E+00
         21   -1    0    0  503  502  0.00000000000E+00  0.00000000000E+00  0.45143119770E+03  0.45143119770E+03  0.00000000000E+00 0.  1.
         21   -1    0    0  501  503 -0.00000000000E+00 -0.00000000000E+00 -0.12934585525E+03  0.12934585525E+03  0.00000000000E+00 0.  1.
          6    2    1    2  501    0 -0.14601821099E+02 -0.82145482294E+02 -0.18354727360E+02  0.19090169301E+03  0.17072043503E+03 0.  0.
         24    2    3    3    0    0  0.16385507320E+02 -0.27384322300E+02  0.48993695048E+02  0.98614645343E+02  0.79410831526E+02 0.  0.
         -6    2    1    2    0  502  0.14601821099E+02  0.82145482294E+02  0.34044006980E+03  0.38987535994E+03  0.17071104744E+03 0.  0.
        -24    2    5    5    0    0 -0.24846714173E+02 -0.17882829173E+02  0.91692674471E+02  0.11884177030E+03  0.69127888953E+02 0.  0.
          5    1    3    3  501    0 -0.30987328419E+02 -0.54761159993E+02 -0.67348422408E+02  0.92287047667E+02  0.47000000000E+01 0. -1.
        -13    1    4    4    0    0  0.39321209048E+02 -0.42354835492E+02  0.37612632445E+02  0.68955055580E+02  0.00000000000E+00 0.  1.
         14    1    4    4    0    0 -0.22935701728E+02  0.14970513191E+02  0.11381062602E+02  0.29659589763E+02  0.00000000000E+00 0. -1.
         -5    1    5    5    0  502  0.39448535272E+02  0.10002831147E+03  0.24874739533E+03  0.27103358964E+03  0.47000000000E+01 0.  1.
         13    1    6    6    0    0 -0.45129371727E+02 -0.24586284790E+02  0.78200430307E+02  0.93575920474E+02  0.00000000000E+00 0. -1.
        -14    1    6    6    0    0  0.20282657554E+02  0.67034556179E+01  0.13492244164E+02  0.25265849823E+02  0.00000000000E+00 0.  1.
</event>
<event>
12    1  0.9246030E-003  0.1759679E+03  0.7818608E-02  0.1171882E+00
         21   -1    0    0  501  502  0.00000000000E+00  0.00000000000E+00  0.24533846406E+03  0.24533846406E+03  0.00000000000E+00 0.  1.
         21   -1    0    0  502  503 -0.00000000000E+00 -0.00000000000E+00 -0.13485272923E+03  0.13485272923E+03  0.00000000000E+00 0.  1.
          6    2    1    2  501    0 -0.33261917636E+02 -0.28207454176E+02  0.10436762303E+03  0.20459061108E+03  0.17047786299E+03 0.  0.
         24    2    3    3    0    0  0.44536552702E+02 -0.70318696744E+01  0.36838551863E+02  0.99313487167E+02  0.80455814658E+02 0.  0.
         -6    2    1    2    0  503  0.33261917636E+02  0.28207454176E+02  0.61181117984E+01  0.17560058221E+03  0.16998858063E+03 0.  0.
        -24    2    5    5    0    0  0.39876127248E+01 -0.27078175755E+02 -0.42020682102E+02  0.96525179695E+02  0.82475717235E+02 0.  0.
          5    1    3    3  501    0 -0.77798470338E+02 -0.21175584502E+02  0.67529071172E+02  0.10527712391E+03  0.47000000000E+01 0. -1.
        -13    1    4    4    0    0 -0.15776670336E+02 -0.24175320340E+01 -0.13276600064E+02  0.20760922361E+02  0.00000000000E+00 0.  1.
         14    1    4    4    0    0  0.60313223038E+02 -0.46143376404E+01  0.50115151926E+02  0.78552564806E+02  0.00000000000E+00 0. -1.
         -5    1    5    5    0  503  0.29274304912E+02  0.55285629932E+02  0.48138793900E+02  0.79075402517E+02  0.47000000000E+01 0.  1.
         11    1    6    6    0    0  0.34637110602E+02  0.43968826594E+01 -0.39210790001E+02  0.52502838595E+02  0.00000000000E+00 0. -1.
        -12    1    6    6    0    0 -0.30649497878E+02 -0.31475058415E+02 -0.28098921011E+01  0.44022341101E+02  0.00000000000E+00 0.  1.
</event>
<event>
12    1  0.9246030E-003  0.2211909E+03  0.7818608E-02  0.1133250E+00
         21   -1    0    0  501  502  0.00000000000E+00  0.00000000000E+00  0.23177235228E+03  0.23177235228E+03  0.00000000000E+00 0.  1.
         21   -1    0    0  502  503 -0.00000000000E+00 -0.00000000000E+00 -0.22888137765E+03  0.22888137765E+03  0.00000000000E+00 0.  1.
          6    2    1    2  501    0 -0.80113645611E+02  0.11369554566E+03  0.67949333247E+02  0.23139259499E+03  0.17198996428E+03 0.  0.
         24    2    3    3    0    0 -0.80765088575E+02  0.61613227769E+02  0.10572733318E+03  0.16687701941E+03  0.79689906867E+02 0.  0.
         -6    2    1    2    0  503  0.80113645611E+02 -0.11369554566E+03 -0.65058358616E+02  0.22926113494E+03  0.17024454367E+03 0.  0.
        -24    2    5    5    0    0  0.18358556325E+02 -0.70622084462E+02 -0.99511203797E+02  0.14632680758E+03  0.78641843396E+02 0.  0.
          5    1    3    3  501    0  0.65144296399E+00  0.52082317889E+02 -0.37777999929E+02  0.64515575586E+02  0.47000000000E+01 0. -1.
        -13    1    4    4    0    0 -0.18490165703E+02  0.40976778778E+02  0.88160254233E+02  0.98960664171E+02  0.00000000000E+00 0.  1.
         14    1    4    4    0    0 -0.62274922872E+02  0.20636448991E+02  0.17567078943E+02  0.67916355234E+02  0.00000000000E+00 0. -1.
         -5    1    5    5    0  503  0.61755089286E+02 -0.43073461196E+02  0.34452845181E+02  0.82934327351E+02  0.47000000000E+01 0.  1.
         11    1    6    6    0    0 -0.22228161179E+01  0.59776426661E+01 -0.55011469184E+02  0.55379913914E+02  0.00000000000E+00 0. -1.
        -12    1    6    6    0    0  0.20581372443E+02 -0.76599727128E+02 -0.44499734613E+02  0.90946893671E+02  0.00000000000E+00 0.  1.
</event>
<event>
12    1  0.9246030E-003  0.1924076E+03  0.7818608E-02  0.1156985E+00
         21   -1    0    0  503  502  0.00000000000E+00  0.00000000000E+00  0.41532441367E+03  0.41532441367E+03  0.00000000000E+00 0.  1.
         21   -1    0    0  501  503 -0.00000000000E+00 -0.00000000000E+00 -0.28171009512E+03  0.28171009512E+03  0.00000000000E+00 0.  1.
          6    2    1    2  501    0 -0.52604799556E+02 -0.58198136049E+02 -0.22254981198E+03  0.29222148903E+03  0.17236789683E+03 0.  0.
         24    2    3    3    0    0 -0.70332115909E+02  0.18281069360E+02 -0.17117523245E+03  0.19828127385E+03  0.68801884644E+02 0.  0.
         -6    2    1    2    0  502  0.52604799556E+02  0.58198136049E+02  0.35616413054E+03  0.40481301976E+03  0.17568837500E+03 0.  0.
        -24    2    5    5    0    0  0.49989935597E+02  0.64344549271E+02  0.10929712717E+03  0.15781094839E+03  0.79493513837E+02 0.  0.
          5    1    3    3  501    0  0.17727316352E+02 -0.76479205408E+02 -0.51374579534E+02  0.93940215175E+02  0.47000000000E+01 0. -1.
        -11    1    4    4    0    0 -0.12327524625E+02  0.37006180089E+02 -0.71473125041E+02  0.81423785415E+02  0.00000000000E+00 0.  1.
         12    1    4    4    0    0 -0.58004591284E+02 -0.18725110729E+02 -0.99702107409E+02  0.11685748844E+03  0.00000000000E+00 0. -1.
         -5    1    5    5    0  502  0.26148639594E+01 -0.61464132226E+01  0.24686700337E+03  0.24700207137E+03  0.47000000000E+01 0.  1.
         13    1    6    6    0    0 -0.18412966313E+02  0.32592187879E+02  0.46353058205E+02  0.59580987271E+02  0.00000000000E+00 0. -1.
        -14    1    6    6    0    0  0.68402901910E+02  0.31752361393E+02  0.62944068964E+02  0.98229961119E+02  0.00000000000E+00 0.  1.
</event>
<event>
12    1  0.9246030E-003  0.1855026E+03  0.7818608E-02  0.1162621E+00
         21   -1    0    0  501  502  0.00000000000E+00  0.00000000000E+00  0.95190292381E+03  0.95190292381E+03  0.00000000000E+00 0.  1.
         21   -1    0    0  502  503 -0.00000000000E+00 -0.00000000000E+00 -0.36407788066E+02  0.36407788066E+02  0.00000000000E+00 0.  1.
          6    2    1    2  501    0  0.68844147566E+02  0.13852653519E+02  0.41337489537E+03  0.45302019628E+03  0.17151408528E+03 0.  0.
         24    2    3    3    0    0  0.11231684780E+03  0.24871981668E+01  0.27147391488E+03  0.30410066262E+03  0.78472072057E+02 0.  0.
         -6    2    1    2    0  503 -0.68844147566E+02 -0.13852653519E+02  0.50212024037E+03  0.53529051560E+03  0.17169678981E+03 0.  0.
        -24    2    5    5    0    0  0.26374203041E+02 -0.28300118734E+02  0.24977819829E+03  0.26515377291E+03  0.80130391509E+02 0.  0.
          5    1    3    3  501    0 -0.43472700231E+02  0.11365455353E+02  0.14190098048E+03  0.14891953365E+03  0.47000000000E+01 0. -1.
        -11    1    4    4    0    0  0.39328296969E+02  0.32049377086E+02  0.15825692622E+03  0.16619004847E+03  0.00000000000E+00 0.  1.
         12    1    4    4    0    0  0.72988550828E+02 -0.29562178919E+02  0.11321698867E+03  0.13791061416E+03  0.00000000000E+00 0. -1.
         -5    1    5    5    0  503 -0.95218350608E+02  0.14447465215E+02  0.25234204209E+03  0.27013674268E+03  0.47000000000E+01 0.  1.
         11    1    6    6    0    0  0.19126048253E+02  0.17708059473E+02  0.17589177833E+03  0.17781253829E+03  0.00000000000E+00 0. -1.
        -12    1    6    6    0    0  0.72481547885E+01 -0.46008178207E+02  0.73886419961E+02  0.87341234617E+02  0.00000000000E+00 0.  1.
</event>
<event>
12    1  0.9246030E-003  0.2970960E+03  0.7818608E-02  0.1086851E+00
         21   -1    0    0  501  502  0.00000000000E+00  0.00000000000E+00  0.14148405709E+04  0.14148405709E+04  0.00000000000E+00 0. -1.
         21   -1    0    0  502  503 -0.00000000000E+00 -0.00000000000E+00 -0.64621654312E+02  0.64621654312E+02  0.00000000000E+00 0. -1.
          6    2    1    2  501    0  0.18684874288E+03 -0.15393893895E+03  0.53140928932E+03  0.60882007775E+03  0.17221035003E+03 0.  0.
         24    2    3    3    0    0  0.15682175176E+03 -0.49621767134E+02  0.27337932879E+03  0.32884643067E+03  0.79676445404E+02 0.  0.
         -6    2    1    2    0  503 -0.18684874288E+03  0.15393893895E+03  0.81880962730E+03  0.87064214749E+03  0.17017312830E+03 0.  0.
        -24    2    5    5    0    0 -0.60043557067E+02  0.76983615444E+02  0.25483156893E+03  0.28746548705E+03  0.90363554208E+02 0.  0.
          5    1    3    3  501    0  0.30026991114E+02 -0.10431717182E+03  0.25802996053E+03  0.27997364708E+03  0.47000000000E+01 0. -1.
        -11    1    4    4    0    0  0.16425767539E+03 -0.48857123243E+02  0.27162819236E+03  0.32116892331E+03  0.00000000000E+00 0.  1.
         12    1    4    4    0    0 -0.74359236243E+01 -0.76464389125E+00  0.17511364331E+01  0.76775073582E+01  0.00000000000E+00 0. -1.
         -5    1    5    5    0  503 -0.12680518581E+03  0.76955323506E+02  0.56397805837E+03  0.58317666044E+03  0.47000000000E+01 0.  1.
         13    1    6    6    0    0 -0.80830596764E+02  0.51841915628E+02  0.21830773543E+03  0.23849410252E+03  0.00000000000E+00 0. -1.
        -14    1    6    6    0    0  0.20787039697E+02  0.25141699815E+02  0.36523833499E+02  0.48971384526E+02  0.00000000000E+00 0.  1.
</event>
<event>
12    1  0.9246030E-003  0.1928986E+03  0.7818608E-02  0.1156071E+00
         21   -1    0    0  501  502  0.00000000000E+00  0.00000000000E+00  0.77261448665E+02  0.77261448665E+02  0.00000000000E+00 0. -1.
         21   -1    0    0  502  503 -0.00000000000E+00 -0.00000000000E+00 -0.48499811515E+03  0.48499811515E+03  0.00000000000E+00 0.  1.
          6    2    1    2  501    0  0.13256749097E+02  0.84447621943E+02 -0.23460978700E+03  0.30372954507E+03  0.17292409360E+03 0.  0.
         24    2    3    3    0    0  0.36753961937E+02  0.12468979283E+03 -0.18986251808E+03  0.23895331946E+03  0.64440010518E+02 0.  0.
         -6    2    1    2    0  503 -0.13256749097E+02 -0.84447621943E+02 -0.17312687948E+03  0.25853001874E+03  0.17192356424E+03 0.  0.
        -24    2    5    5    0    0  0.10635803215E+02  0.21179528091E+02 -0.66087519947E+02  0.10619005888E+03  0.79668535771E+02 0.  0.
          5    1    3    3  501    0 -0.23497212840E+02 -0.40242170886E+02 -0.44747268922E+02  0.64776225615E+02  0.47000000000E+01 0. -1.
        -13    1    4    4    0    0  0.18510437381E+02  0.18278946273E+02 -0.83259076123E+02  0.87228607267E+02  0.00000000000E+00 0.  1.
         14    1    4    4    0    0  0.18243524555E+02  0.10641084656E+03 -0.10660344196E+03  0.15172471219E+03  0.00000000000E+00 0. -1.
         -5    1    5    5    0  503 -0.23892552312E+02 -0.10562715003E+03 -0.10703935953E+03  0.15233995986E+03  0.47000000000E+01 0.  1.
         11    1    6    6    0    0  0.21369488839E+02 -0.23995462051E+02 -0.10593614409E+02  0.33832852651E+02  0.00000000000E+00 0. -1.
        -12    1    6    6    0    0 -0.10733685623E+02  0.45174990141E+02 -0.55493905538E+02  0.72357206229E+02  0.00000000000E+00 0.  1.
</event>
<event>
12    1  0.9246030E-003  0.2398480E+03  0.7818608E-02  0.1120053E+00
         21   -1    0    0  503  502  0.00000000000E+00  0.00000000000E+00  0.94493663107E+02  0.94493663107E+02  0.00000000000E+00 0.  1.
         21   -1    0    0  501  503 -0.00000000000E+00 -0.00000000000E+00 -0.60957727223E+03  0.60957727223E+03  0.00000000000E+00 0.  1.
          6    2    1    2  501    0 -0.50369534204E+02  0.15874759385E+03 -0.28253211936E+03  0.36999419195E+03  0.17127000635E+03 0.  0.
         24    2    3    3    0    0 -0.92613349537E+02  0.94067899827E+02 -0.22840304360E+03  0.27554817776E+03  0.79579178510E+02 0.  0.
         -6    2    1    2    0  502  0.50369534204E+02 -0.15874759385E+03 -0.23255148976E+03  0.33407674339E+03  0.17259544188E+03 0.  0.
        -24    2    5    5    0    0  0.16963535464E+02 -0.61259572872E+02 -0.29655931779E+02  0.10646177808E+03  0.80088320611E+02 0.  0.
          5    1    3    3  501    0  0.42243815333E+02  0.64679694019E+02 -0.54129075760E+02  0.94446014182E+02  0.47000000000E+01 0. -1.
        -13    1    4    4    0    0 -0.17145753931E+02  0.53579920405E+02 -0.41340256552E+02  0.69812617486E+02  0.00000000000E+00 0.  1.
         14    1    4    4    0    0 -0.75467595605E+02  0.40487979422E+02 -0.18706278705E+03  0.20573556028E+03  0.00000000000E+00 0. -1.
         -5    1    5    5    0  502  0.33405998740E+02 -0.97488020974E+02 -0.20289555799E+03  0.22761496532E+03  0.47000000000E+01 0.  1.
         13    1    6    6    0    0  0.21102832108E+02 -0.79347699989E+02 -0.16584155035E+02  0.83764080695E+02  0.00000000000E+00 0. -1.
        -14    1    6    6    0    0 -0.41392966439E+01  0.18088127117E+02 -0.13071776743E+02  0.22697697384E+02  0.00000000000E+00 0.  1.
</event>
<event>
12    1  0.9246030E-003  0.1792403E+03  0.7818608E-02  0.1168707E+00
         21   -1    0    0  501  502  0.00000000000E+00  0.00000000000E+00  0.10294105670E+04  0.10294105670E+04  0.00000000000E+00 0.  1.
         21   -1    0    0  502  503 -0.00000000000E+00 -0.00000000000E+00 -0.31090111347E+02  0.31090111347E+02  0.00000000000E+00 0.  1.
          6    2    1    2  501    0 -0.49905913204E+02 -0.81068456732E+01  0.49912396686E+03  0.53010060922E+03  0.17124719117E+03 0.  0.
         24    2    3    3    0    0 -0.53093714653E+02  0.43448630131E+02  0.43538723881E+03  0.44792646690E+03  0.79808182762E+02 0.  0.
         -6    2    1    2    0  503  0.49905913204E+02  0.81068456732E+01  0.49919648878E+03  0.53040006911E+03  0.17196155903E+03 0.  0.
        -24    2    5    5    0    0 -0.35082424855E+02  0.27568259605E+02  0.26277951988E+03  0.27837459933E+03  0.80302901625E+02 0.  0.
          5    1    3    3  501    0  0.31878014487E+01 -0.51555475805E+02  0.63736728053E+02  0.82174142322E+02  0.47000000000E+01 0. -1.
        -11    1    4    4    0    0  0.28485287372E+01  0.18936309156E+02  0.18626760432E+02  0.26714305618E+02  0.00000000000E+00 0.  1.
         12    1    4    4    0    0 -0.55942243390E+02  0.24512320975E+02  0.41676047838E+03  0.42121216128E+03  0.00000000000E+00 0. -1.
         -5    1    5    5    0  503  0.84988338059E+02 -0.19461413932E+02  0.23641696890E+03  0.25202546979E+03  0.47000000000E+01 0.  1.
         13    1    6    6    0    0 -0.16101503641E+00 -0.19738130719E+02  0.18276688006E+02  0.26900874607E+02  0.00000000000E+00 0. -1.
        -14    1    6    6    0    0 -0.34921409819E+02  0.47306390324E+02  0.24450283188E+03  0.25147372472E+03  0.00000000000E+00 0.  1.
</event>
<event>
12    1  0.9246030E-003  0.1909574E+03  0.7818608E-02  0.1157627E+00
         21   -1    0    0  503  502  0.00000000000E+00  0.00000000000E+00  0.30815724137E+03  0.30815724137E+03  0.00000000000E+00 0. -1.
         21   -1    0    0  501  503 -0.00000000000E+00 -0.00000000000E+00 -0.22242161458E+03  0.22242161458E+03  0.00000000000E+00 0. -1.
          6    2    1    2  501    0 -0.14994091545E+02 -0.79501789520E+02  0.22442072617E+03  0.29466825900E+03  0.17297214575E+03 0.  0.
         24    2    3    3    0    0  0.62121001414E+01 -0.62602413744E+02  0.40478037156E+02  0.10867822080E+03  0.78834204435E+02 0.  0.
         -6    2    1    2    0  502  0.14994091545E+02  0.79501789520E+02 -0.13868509938E+03  0.23591059695E+03  0.17284355830E+03 0.  0.
        -24    2    5    5    0    0  0.36599900873E+02  0.10934405135E+03 -0.70064445283E+02  0.15788332123E+03  0.81990501393E+02 0.  0.
          5    1    3    3  501    0 -0.21206191687E+02 -0.16899375777E+02  0.18394268901E+03  0.18599003820E+03  0.47000000000E+01 0. -1.
        -11    1    4    4    0    0  0.21969910361E+02  0.10333862823E+02  0.19573201347E+02  0.31186149058E+02  0.00000000000E+00 0.  1.
         12    1    4    4    0    0 -0.15757810219E+02 -0.72936276567E+02  0.20904835810E+02  0.77492071740E+02  0.00000000000E+00 0. -1.
         -5    1    5    5    0  502 -0.21605809327E+02 -0.29842261834E+02 -0.68620654101E+02  0.78027275727E+02  0.47000000000E+01 0.  1.
         13    1    6    6    0    0  0.27251456806E+01  0.66236823750E+02 -0.78134218287E+02  0.10246804042E+03  0.00000000000E+00 0. -1.
        -14    1    6    6    0    0  0.33874755192E+02  0.43107227604E+02  0.80697730040E+01  0.55415280811E+02  0.00000000000E+00 0.  1.
</event>
<event>
12    1  0.9246030E-003  0.2408321E+03  0.7818608E-02  0.1120238E+00
         21   -1    0    0  503  502  0.00000000000E+00  0.00000000000E+00  0.11512431033E+04  0.11512431033E+04  0.00000000000E+00 0. -1.
         21   -1    0    0  501  503 -0.00000000000E+00 -0.00000000000E+00 -0.52225812565E+02  0.52225812565E+02  0.00000000000E+00 0. -1.
          6    2    1    2  501    0 -0.84910936789E+02  0.13670252085E+03  0.70211043570E+03  0.74226624303E+03  0.17917216643E+03 0.  0.
         24    2    3    3    0    0 -0.25644055691E+02  0.41663416206E+01  0.95132252047E+02  0.11814845973E+03  0.65068711079E+02 0.  0.
         -6    2    1    2    0  502  0.84910936789E+02 -0.13670252085E+03  0.39690685508E+03  0.46120267288E+03  0.17110057707E+03 0.  0.
        -24    2    5    5    0    0  0.74961178166E+02 -0.20184620188E+02  0.12851216245E+03  0.16840031650E+03  0.76267251007E+02 0.  0.
          5    1    3    3  501    0 -0.59266881098E+02  0.13253617923E+03  0.60697818365E+03  0.62411778330E+03  0.47000000000E+01 0. -1.
        -13    1    4    4    0    0 -0.18143011548E+02  0.31745499306E+02  0.74206750698E+02  0.82725978044E+02  0.00000000000E+00 0.  1.
         14    1    4    4    0    0 -0.75010441426E+01 -0.27579157685E+02  0.20925501349E+02  0.35422481682E+02  0.00000000000E+00 0. -1.
         -5    1    5    5    0  502  0.99497586225E+01 -0.11651790066E+03  0.26839469263E+03  0.29280235638E+03  0.47000000000E+01 0.  1.
         13    1    6    6    0    0  0.53538504920E+02  0.57455515710E+01  0.12306216155E+03  0.13432676009E+03  0.00000000000E+00 0. -1.
        -14    1    6    6    0    0  0.21422673246E+02 -0.25930171759E+02  0.54500008989E+01  0.34073556408E+02  0.00000000000E+00 0.  1.
</event>
<event>
12    1  0.9246030E-003  0.1797674E+03  0.7818608E-02  0.1168236E+00
         21   -1    0    0  501  502  0.00000000000E+00  0.00000000000E+00  0.30354662644E+03  0.30354662644E+03  0.00000000000E+00 0.  1.
         21   -1    0    0  502  503 -0.00000000000E+00 -0.00000000000E+00 -0.11055907178E+03  0.11055907178E+03  0.00000000000E+00 0.  1.
          6    2    1    2  501    0 -0.53364465228E+02 -0.30689180381E+01  0.54469549654E+02  0.18783832862E+03  0.17163659707E+03 0.  0.
         24    2    3    3    0    0 -0.39637962636E+02 -0.58939644904E+02 -0.42757486224E+01  0.10547902397E+03  0.77862010297E+02 0.  0.
         -6    2    1    2    0  503  0.53364465228E+02  0.30689180381E+01  0.13851800501E+03  0.22626736959E+03  0.17074103322E+03 0.  0.
        -24    2    5    5    0    0 -0.19143877843E+02  0.38496951979E+02  0.40325964419E+02  0.99081001460E+02  0.79638923106E+02 0.  0.
          5    1    3    3  501    0 -0.13726502592E+02  0.55870726865E+02  0.58745298276E+02  0.82359304656E+02  0.47000000000E+01 0. -1.
        -13    1    4    4    0    0  0.95586513276E+01 -0.51345280517E+02  0.11070552609E+02  0.53387852379E+02  0.00000000000E+00 0.  1.
         14    1    4    4    0    0 -0.49196613964E+02 -0.75943643866E+01 -0.15346301232E+02  0.52091171588E+02  0.00000000000E+00 0. -1.
         -5    1    5    5    0  503  0.72508343071E+02 -0.35428033941E+02  0.98192040588E+02  0.12718636813E+03  0.47000000000E+01 0.  1.
         13    1    6    6    0    0 -0.14349998043E+02  0.40008937429E+02 -0.13825638137E+02  0.44696597051E+02  0.00000000000E+00 0. -1.
        -14    1    6    6    0    0 -0.47938797995E+01 -0.15119854493E+01  0.54151602557E+02  0.54384404410E+02  0.00000000000E+00 0.  1.
</event>
<event>
12    1  0.9246030E-003  0.2535191E+03  0.7818608E-02  0.1111160E+00
         21   -1    0    0  503  502  0.00000000000E+00  0.00000000000E+00  0.48742886803E+03  0.48742886803E+03  0.00000000000E+00 0.  1.
         21   -1    0    0  501  503 -0.00000000000E+00 -0.00000000000E+00 -0.16897412528E+03  0.16897412528E+03  0.00000000000E+00 0.  1.
          6    2    1    2  501    0 -0.14608613002E+03  0.11638045744E+03  0.49064598051E+01  0.25318533132E+03  0.17086009010E+03 0.  0.
         24    2    3    3    0    0 -0.10349764796E+03  0.15075741472E+02  0.39711871931E+02  0.13781665708E+03  0.80482029572E+02 0.  0.
         -6    2    1    2    0  502  0.14608613002E+03 -0.11638045744E+03  0.31354828295E+03  0.40321766199E+03  0.17142458675E+03 0.  0.
        -24    2    5    5    0    0  0.51207949837E+02 -0.47204667170E+01  0.73526432573E+02  0.12196617086E+03  0.82614003748E+02 0.  0.
          5    1    3    3  501    0 -0.42588482063E+02  0.10130471597E+03 -0.34805412126E+02  0.11536867423E+03  0.47000000000E+01 0. -1.
        -13    1    4    4    0    0 -0.10795801955E+03  0.11788783208E+02  0.11661239885E+02  0.10922405371E+03  0.00000000000E+00 0.  1.
         14    1    4    4    0    0  0.44603715895E+01  0.32869582643E+01  0.28050632046E+02  0.28592603370E+02  0.00000000000E+00 0. -1.
         -5    1    5    5    0  502  0.94878180184E+02 -0.11165999072E+03  0.24002185038E+03  0.28125149113E+03  0.47000000000E+01 0.  1.
         13    1    6    6    0    0  0.60232116269E+02 -0.17341927203E+02  0.19329112652E+02  0.65591652406E+02  0.00000000000E+00 0. -1.
        -14    1    6    6    0    0 -0.90241664323E+01  0.12621460486E+02  0.54197319921E+02  0.56374518456E+02  0.00000000000E+00 0.  1.
</event>
<event>
12    1  0.9246030E-003  0.2665422E+03  0.7818608E-02  0.1103373E+00
         21   -1    0    0  503  502  0.00000000000E+00  0.00000000000E+00  0.93069164323E+03  0.93069164323E+03  0.00000000000E+00 0.  1.
         21   -1    0    0  501  503 -0.00000000000E+00 -0.00000000000E+00 -0.84682479646E+02  0.84682479646E+02  0.00000000000E+00 0. -1.
          6    2    1    2  501    0 -0.20210117424E+03 -0.24829658730E+02  0.26227214284E+03  0.37394040373E+03  0.17199811642E+03 0.  0.
         24    2    3    3    0    0 -0.14552137858E+03  0.20348859224E+02  0.98432182804E+02  0.19475336663E+03  0.81544046418E+02 0.  0.
         -6    2    1    2    0  502  0.20210117424E+03  0.24829658730E+02  0.58373702075E+03  0.64143371914E+03  0.17095879645E+03 0.  0.
        -24    2    5    5    0    0  0.17836855011E+03 -0.37197963982E+02  0.40909990052E+03  0.45453567960E+03  0.77723402048E+02 0.  0.
          5    1    3    3  501    0 -0.56579795653E+02 -0.45178517953E+02  0.16383996004E+03  0.17918703710E+03  0.47000000000E+01 0. -1.
        -11    1    4    4    0    0 -0.10772485453E+03  0.17306066903E+02  0.11017589539E+03  0.15505764141E+03  0.00000000000E+00 0.  1.
         12    1    4    4    0    0 -0.37796524053E+02  0.30427923201E+01 -0.11743712584E+02  0.39695725221E+02  0.00000000000E+00 0. -1.
         -5    1    5    5    0  502  0.23732624132E+02  0.62027622711E+02  0.17463712022E+03  0.18689803955E+03  0.47000000000E+01 0.  1.
         11    1    6    6    0    0  0.78612764071E+02 -0.17716283567E+02  0.95932501625E+02  0.12528718309E+03  0.00000000000E+00 0. -1.
        -12    1    6    6    0    0  0.99755786035E+02 -0.19481680414E+02  0.31316739890E+03  0.32924849651E+03  0.00000000000E+00 0.  1.
</event>
<event>
12    1  0.9246030E-003  0.1797706E+03  0.7818608E-02  0.1168282E+00
         21   -1    0    0  501  502  0.00000000000E+00  0.00000000000E+00  0.49334473956E+02  0.49334473956E+02  0.00000000000E+00 0. -1.
         21   -1    0    0  502  503 -0.00000000000E+00 -0.00000000000E+00 -0.67551633730E+03  0.67551633730E+03  0.00000000000E+00 0. -1.
          6    2    1    2  501    0  0.11355324806E+01  0.49421416063E+02 -0.24347963384E+03  0.30202876826E+03  0.17174189635E+03 0.  0.
         24    2    3    3    0    0  0.17830787283E+02 -0.43297233577E+01 -0.23042012766E+03  0.24405845496E+03  0.78322479067E+02 0.  0.
         -6    2    1    2    0  503 -0.11355324806E+01 -0.49421416063E+02 -0.38270222951E+03  0.42282204300E+03  0.17284015094E+03 0.  0.
        -24    2    5    5    0    0  0.27987610624E+02  0.28837868962E+02 -0.19801656472E+03  0.22008191886E+03  0.87238535472E+02 0.  0.
          5    1    3    3  501    0 -0.16695254802E+02  0.53751139421E+02 -0.13059506174E+02  0.57970313295E+02  0.47000000000E+01 0. -1.
        -11    1    4    4    0    0  0.32849908774E+02  0.28972961850E+02 -0.13193321246E+03  0.13901410567E+03  0.00000000000E+00 0.  1.
         12    1    4    4    0    0 -0.15019121492E+02 -0.33302685208E+02 -0.98486915200E+02  0.10504434929E+03  0.00000000000E+00 0. -1.
         -5    1    5    5    0  503 -0.29123143105E+02 -0.78259285026E+02 -0.18468566479E+03  0.20274012414E+03  0.47000000000E+01 0.  1.
         13    1    6    6    0    0  0.17086187627E+02  0.52858922092E+02 -0.17937674844E+03  0.18778184505E+03  0.00000000000E+00 0. -1.
        -14    1    6    6    0    0  0.10901422998E+02 -0.24021053130E+02 -0.18639816283E+02  0.32300073806E+02  0.00000000000E+00 0.  1.
</event>
<event>
12    1  0.9246030E-003  0.1757958E+03  0.7818608E-02  0.1172616E+00
         21   -1    0    0  503  502  0.00000000000E+00  0.00000000000E+00  0.16786294223E+03  0.16786294223E+03  0.00000000000E+00 0. -1.
         21   -1    0    0  501  503 -0.00000000000E+00 -0.00000000000E+00 -0.18445555251E+03  0.18445555251E+03  0.00000000000E+00 0. -1.
          6    2    1    2  501    0  0.27311094007E+02 -0.14294585017E+02 -0.31467497562E+02  0.17858993976E+03  0.17307204328E+03 0.  0.
         24    2    3    3    0    0  0.19610462050E+02  0.40811211825E+02  0.24550579877E+02  0.99494658120E+02  0.85125382758E+02 0.  0.
         -6    2    1    2    0  502 -0.27311094007E+02  0.14294585017E+02  0.14874887279E+02  0.17372855497E+03  0.17032356714E+03 0.  0.
        -24    2    5    5    0    0 -0.16025538346E+02  0.27167515606E+02  0.73481989875E+02  0.11249164957E+03  0.79119381972E+02 0.  0.
          5    1    3    3  501    0  0.77006319566E+01 -0.55105796842E+02 -0.56018077440E+02  0.79095281643E+02  0.47000000000E+01 0. -1.
        -13    1    4    4    0    0  0.51801024618E+02  0.11901595514E+02  0.13324343939E+02  0.54795367219E+02  0.00000000000E+00 0.  1.
         14    1    4    4    0    0 -0.32190562568E+02  0.28909616311E+02  0.11226235938E+02  0.44699290901E+02  0.00000000000E+00 0. -1.
         -5    1    5    5    0  502 -0.11285555661E+02 -0.12872930589E+02 -0.58607102597E+02  0.61236905403E+02  0.47000000000E+01 0.  1.
         11    1    6    6    0    0  0.83973440439E+01  0.42623152317E+02  0.12817449918E+02  0.45293879529E+02  0.00000000000E+00 0. -1.
        -12    1    6    6    0    0 -0.24422882390E+02 -0.15455636710E+02  0.60664539957E+02  0.67197770041E+02  0.00000000000E+00 0.  1.
</event>
<event>
12    1  0.9246030E-003  0.3196225E+03  0.7818608E-02  0.1075861E+00
         21   -1    0    0  501  502  0.00000000000E+00  0.00000000000E+00  0.14495750160E+03  0.14495750160E+03  0.00000000000E+00 0. -1.
         21   -1    0    0  502  503 -0.00000000000E+00 -0.00000000000E+00 -0.94477899626E+03  0.94477899626E+03  0.00000000000E+00 0. -1.
          6    2    1    2  501    0  0.24218524414E+02  0.26801077558E+03 -0.12470110010E+03  0.34277858751E+03  0.17184435673E+03 0.  0.
         24    2    3    3    0    0  0.21124629101E+02  0.22493063316E+03 -0.15551060428E+03  0.28951709667E+03  0.92717644134E+02 0.  0.
         -6    2    1    2    0  503 -0.24218524414E+02 -0.26801077558E+03 -0.67512039456E+03  0.74695791035E+03  0.17245944428E+03 0.  0.
        -24    2    5    5    0    0 -0.61244753079E+02 -0.24119598625E+03 -0.63079544672E+03  0.68310835642E+03  0.82508832497E+02 0.  0.
          5    1    3    3  501    0  0.30938953137E+01  0.43080142420E+02  0.30809504176E+02  0.53261490842E+02  0.47000000000E+01 0. -1.
        -13    1    4    4    0    0  0.42110801621E+02  0.59799020746E+02 -0.22738913663E+02  0.76591779519E+02  0.00000000000E+00 0.  1.
         14    1    4    4    0    0 -0.20986172521E+02  0.16513161241E+03 -0.13277169062E+03  0.21292531715E+03  0.00000000000E+00 0. -1.
         -5    1    5    5    0  503  0.37026228664E+02 -0.26814789328E+02 -0.44324947845E+02  0.63849553932E+02  0.47000000000E+01 0.  1.
         11    1    6    6    0    0 -0.59983559089E+02 -0.21072029365E+03 -0.45877863261E+03  0.50840820534E+03  0.00000000000E+00 0. -1.
        -12    1    6    6    0    0 -0.12611939892E+01 -0.30475692599E+02 -0.17201681410E+03  0.17470015107E+03  0.00000000000E+00 0.  1.
</event>
<event>
12    1  0.9246030E-003  0.1741772E+03  0.7818608E-02  0.1174602E+00
         21   -1    0    0  501  502  0.00000000000E+00  0.00000000000E+00  0.69718668780E+02  0.69718668780E+02  0.00000000000E+00 0.  1.
         21   -1    0    0  502  503 -0.00000000000E+00 -0.00000000000E+00 -0.44402005306E+03  0.44402005306E+03  0.00000000000E+00 0.  1.
          6    2    1    2  501    0 -0.11528024320E+02  0.27451796505E+02 -0.13615814056E+03  0.22108079856E+03  0.17161347201E+03 0.  0.
         24    2    3    3    0    0 -0.21564977511E+02 -0.18278686405E+02 -0.72205765400E+01  0.83825551258E+02  0.78583889484E+02 0.  0.
         -6    2    1    2    0  503  0.11528024320E+02 -0.27451796505E+02 -0.23814324372E+03  0.29265792328E+03  0.16748122000E+03 0.  0.
        -24    2    5    5    0    0  0.15401220902E+02 -0.52083103804E+02 -0.62090182645E+02  0.11478585334E+03  0.79817003444E+02 0.  0.
          5    1    3    3  501    0  0.10036953191E+02  0.45730482910E+02 -0.12893756402E+03  0.13725524730E+03  0.47000000000E+01 0. -1.
        -13    1    4    4    0    0  0.10264306779E+02  0.24550209333E+02  0.89394928392E+01  0.28071040312E+02  0.00000000000E+00 0.  1.
         14    1    4    4    0    0 -0.31829284290E+02 -0.42828895738E+02 -0.16160069379E+02  0.55754510947E+02  0.00000000000E+00 0. -1.
         -5    1    5    5    0  503 -0.38731965820E+01  0.24631307298E+02 -0.17605306108E+03  0.17787206994E+03  0.47000000000E+01 0.  1.
         13    1    6    6    0    0  0.14649743063E+02  0.16329866805E+02  0.66290282543E+00  0.21948096998E+02  0.00000000000E+00 0. -1.
        -14    1    6    6    0    0  0.75147783914E+00 -0.68412970608E+02 -0.62753085471E+02  0.92837756341E+02  0.00000000000E+00 0.  1.
</event>
<event>
12    1  0.9246030E-003  0.2293026E+03  0.7818608E-02  0.1127180E+00
         21   -1    0    0  503  502  0.00000000000E+00  0.00000000000E+00  0.96841721471E+03  0.96841721471E+03  0.00000000000E+00 0.  1.
         21   -1    0    0  501  503 -0.00000000000E+00 -0.00000000000E+00 -0.56775691655E+02  0.56775691655E+02  0.00000000000E+00 0. -1.
          6    2    1    2  501    0 -0.11738877750E+03 -0.97681302054E+02  0.34702343930E+03  0.41578886705E+03  0.17068495153E+03 0.  0.
         24    2    3    3    0    0 -0.12833614240E+03 -0.15153509715E+02  0.21869299416E+03  0.26274810628E+03  0.67157630649E+02 0.  0.
         -6    2    1    2    0  502  0.11738877750E+03  0.97681302054E+02  0.56461808375E+03  0.60940403932E+03  0.17104952728E+03 0.  0.
        -24    2    5    5    0    0  0.97016117604E+02  0.39922774278E+01  0.24068877363E+03  0.27155057025E+03  0.79878414460E+02 0.  0.
          5    1    3    3  501    0  0.10947364895E+02 -0.82527792339E+02  0.12833044514E+03  0.15304076077E+03  0.47000000000E+01 0. -1.
        -11    1    4    4    0    0 -0.31424550102E+01  0.47255923256E+01  0.57036652122E+02  0.57318286189E+02  0.00000000000E+00 0.  1.
         12    1    4    4    0    0 -0.12519368739E+03 -0.19879102040E+02  0.16165634204E+03  0.20542982009E+03  0.00000000000E+00 0. -1.
         -5    1    5    5    0  502  0.20372659900E+02  0.93689024626E+02  0.32392931012E+03  0.33785346907E+03  0.47000000000E+01 0.  1.
         11    1    6    6    0    0  0.27228896594E+02  0.15024844647E+02  0.13997790348E+02  0.34104206500E+02  0.00000000000E+00 0. -1.
        -12    1    6    6    0    0  0.69787221010E+02 -0.11032567219E+02  0.22669098328E+03  0.23744636375E+03  0.00000000000E+00 0.  1.
</event>
<event>
12    1  0.9246030E-003  0.2389362E+03  0.7818608E-02  0.1120901E+00
         21   -1    0    0  501  502  0.00000000000E+00  0.00000000000E+00  0.26500456100E+03  0.26500456100E+03  0.00000000000E+00 0.  1.
         21   -1    0    0  502  503 -0.00000000000E+00 -0.00000000000E+00 -0.22070718935E+03  0.22070718935E+03  0.00000000000E+00 0. -1.
          6    2    1    2  501    0  0.14653787620E+03 -0.74870844782E+02 -0.22204475173E+02  0.23996570020E+03  0.17323829252E+03 0.  0.
         24    2    3    3    0    0  0.54952409525E+01 -0.50611737556E+02 -0.53596042364E+01  0.95787446226E+02  0.80961496067E+02 0.  0.
         -6    2    1    2    0  503 -0.14653787620E+03  0.74870844782E+02  0.66501846823E+02  0.24574605014E+03  0.16996950600E+03 0.  0.
        -24    2    5    5    0    0 -0.17116999077E+03  0.65003826525E+02  0.33241007039E+02  0.20293866082E+03  0.80959695548E+02 0.  0.
          5    1    3    3  501    0  0.14104263525E+03 -0.24259107226E+02 -0.16844870936E+02  0.14417825397E+03  0.47000000000E+01 0. -1.
        -11    1    4    4    0    0  0.97417894665E+01 -0.70455307748E+02 -0.15957717091E+02  0.72893769189E+02  0.00000000000E+00 0.  1.
         12    1    4    4    0    0 -0.42465485140E+01  0.19843570191E+02  0.10598112855E+02  0.22893677037E+02  0.00000000000E+00 0. -1.
         -5    1    5    5    0  503  0.24632114569E+02  0.98670182569E+01  0.33260839784E+02  0.42807389322E+02  0.47000000000E+01 0.  1.
         13    1    6    6    0    0 -0.12581787835E+02  0.13271120250E+02 -0.20700525110E+02  0.27621291745E+02  0.00000000000E+00 0. -1.
        -14    1    6    6    0    0 -0.15858820294E+03  0.51732706275E+02  0.53941532149E+02  0.17531736908E+03  0.00000000000E+00 0.  1.
</event>
<event>
12    1  0.9246030E-003  0.2360602E+03  0.7818608E-02  0.1122834E+00
         21   -1    0    0  503  502  0.00000000000E+00  0.00000000000E+00  0.10768898956E+03  0.10768898956E+03  0.00000000000E+00 0.  1.
         21   -1    0    0  501  503 -0.00000000000E+00 -0.00000000000E+00 -0.53217655807E+03  0.53217655807E+03  0.00000000000E+00 0.  1.
          6    2    1    2  501    0  0.11663181611E+03 -0.11233591558E+03 -0.27278537921E+03  0.35926270534E+03  0.16862825944E+03 0.  0.
         24    2    3    3    0    0  0.51645811648E+02 -0.85249013599E+02 -0.25675078085E+03  0.28690194678E+03  0.80355954474E+02 0.  0.
         -6    2    1    2    0  502 -0.11663181611E+03  0.11233591558E+03 -0.15170218931E+03  0.28060284229E+03  0.17176164415E+03 0.  0.
        -24    2    5    5    0    0  0.24125021488E+01  0.80160936342E+02 -0.74213276271E+02  0.13488599137E+03  0.79088712282E+02 0.  0.
          5    1    3    3  501    0  0.64986004463E+02 -0.27086901979E+02 -0.16034598361E+02  0.72360758561E+02  0.47000000000E+01 0. -1.
        -11    1    4    4    0    0  0.55199808001E+02 -0.15616810000E+02 -0.98796680749E+02  0.11424398315E+03  0.00000000000E+00 0.  1.
         12    1    4    4    0    0 -0.35539963531E+01 -0.69632203599E+02 -0.15795410010E+03  0.17265796364E+03  0.00000000000E+00 0. -1.
         -5    1    5    5    0  502 -0.11904431826E+03  0.32174979236E+02 -0.77488913035E+02  0.14571685092E+03  0.47000000000E+01 0.  1.
         11    1    6    6    0    0  0.18798804537E+02  0.25866004998E+01 -0.47615603252E+02  0.51257499229E+02  0.00000000000E+00 0. -1.
        -12    1    6    6    0    0 -0.16386302388E+02  0.77574335842E+02 -0.26597673019E+02  0.83628492139E+02  0.00000000000E+00 0.  1.
</event>
<event>
12    1  0.9246030E-003  0.2056331E+03  0.7818608E-02  0.1146516E+00
         21   -1    0    0  503  502  0.00000000000E+00  0.00000000000E+00  0.55458845221E+03  0.55458845221E+03  0.00000000000E+00 0. -1.
         21   -1    0    0  501  503 -0.00000000000E+00 -0.00000000000E+00 -0.13070894879E+03  0.13070894879E+03  0.00000000000E+00 0.  1.
          6    2    1    2  501    0 -0.11150391773E+03 -0.13269048342E+02 -0.12305708771E+02  0.20600098864E+03  0.17226661180E+03 0.  0.
         24    2    3    3    0    0 -0.12040663409E+03  0.25191650260E+02 -0.46623617785E+02  0.15348153915E+03  0.79059751777E+02 0.  0.
         -6    2    1    2    0  502  0.11150391773E+03  0.13269048342E+02  0.43618521219E+03  0.47929641236E+03  0.16388508245E+03 0.  0.
        -24    2    5    5    0    0  0.40950284391E+02 -0.14916547036E+02  0.10531603291E+03  0.13978389895E+03  0.80923682871E+02 0.  0.
          5    1    3    3  501    0  0.89027163579E+01 -0.38460698603E+02  0.34317909014E+02  0.52519449489E+02  0.47000000000E+01 0. -1.
        -13    1    4    4    0    0 -0.48365408278E+02  0.49153719309E+02 -0.32596873886E+02  0.76274878085E+02  0.00000000000E+00 0.  1.
         14    1    4    4    0    0 -0.72041225808E+02 -0.23962069049E+02 -0.14026743899E+02  0.77206661069E+02  0.00000000000E+00 0. -1.
         -5    1    5    5    0  502  0.70553633337E+02  0.28185595378E+02  0.33086917928E+03  0.33951251341E+03  0.47000000000E+01 0.  1.
         11    1    6    6    0    0 -0.92981106540E+01  0.18435412915E+02  0.62497402604E+02  0.65819789147E+02  0.00000000000E+00 0. -1.
        -12    1    6    6    0    0  0.50248395045E+02 -0.33351959951E+02  0.42818630307E+02  0.73964109800E+02  0.00000000000E+00 0.  1.
</event>
<event>
12    1  0.9246030E-003  0.2040539E+03  0.7818608E-02  0.1148231E+00
         21   -1    0    0  501  502  0.00000000000E+00  0.00000000000E+00  0.61741676102E+03  0.61741676102E+03  0.00000000000E+00 0.  1.
         21   -1    0    0  502  503 -0.00000000000E+00 -0.00000000000E+00 -0.73871526799E+02  0.73871526799E+02  0.00000000000E+00 0.  1.
          6    2    1    2  501    0 -0.50795821368E+02  0.77097029260E+02  0.38932799659E+03  0.43551311905E+03  0.17196284643E+03 0.  0.
         24    2    3    3    0    0 -0.91084942932E+02  0.88491106110E+02  0.33249144174E+03  0.36476340336E+03  0.79841335858E+02 0.  0.
         -6    2    1    2    0  503  0.50795821368E+02 -0.77097029260E+02  0.15421723764E+03  0.25577516877E+03  0.18197201209E+03 0.  0.
        -24    2    5    5    0    0 -0.17088830491E+02  0.10048853135E+02  0.10873079911E+03  0.13621833347E+03  0.79624368890E+02 0.  0.
          5    1    3    3  501    0  0.40289121565E+02 -0.11394076850E+02  0.56836554846E+02  0.70749715692E+02  0.47000000000E+01 0. -1.
        -11    1    4    4    0    0 -0.41388022284E+02  0.29541032962E+02  0.47704058507E+02  0.69723154082E+02  0.00000000000E+00 0.  1.
         12    1    4    4    0    0 -0.49696920649E+02  0.58950073148E+02  0.28478738323E+03  0.29504024928E+03  0.00000000000E+00 0. -1.
         -5    1    5    5    0  503  0.67884651859E+02 -0.87145882395E+02  0.45486438522E+02  0.11955683530E+03  0.47000000000E+01 0.  1.
         13    1    6    6    0    0 -0.45415701253E+02  0.96604254153E+01  0.37912499947E+02  0.59943868675E+02  0.00000000000E+00 0. -1.
        -14    1    6    6    0    0  0.28326870762E+02  0.38842771996E+00  0.70818299166E+02  0.76274464797E+02  0.00000000000E+00 0.  1.
</event>
<event>
12    1  0.9246030E-003  0.1920845E+03  0.7818608E-02  0.1156628E+00
         21   -1    0    0  503  502  0.00000000000E+00  0.00000000000E+00  0.41406653215E+03  0.41406653215E+03  0.00000000000E+00 0. -1.
         21   -1    0    0  501  503 -0.00000000000E+00 -0.00000000000E+00 -0.90369963920E+02  0.90369963920E+02  0.00000000000E+00 0. -1.
          6    2    1    2  501    0 -0.40822233136E+02 -0.76495038554E+02  0.13129206415E+03  0.23266731670E+03  0.17140165842E+03 0.  0.
         24    2    3    3    0    0  0.44256792737E+02  0.10234019812E+02  0.46990825098E+02  0.84717463320E+02  0.53902802183E+02 0.  0.
         -6    2    1    2    0  502  0.40822233136E+02  0.76495038554E+02  0.19240450407E+03  0.27176917937E+03  0.17123389858E+03 0.  0.
        -24    2    5    5    0    0  0.12708888331E+02  0.10986519553E+03  0.18119696436E+03  0.22647429578E+03  0.78907475724E+02 0.  0.
          5    1    3    3  501    0 -0.85079025873E+02 -0.86729058366E+02  0.84301239054E+02  0.14794985338E+03  0.47000000000E+01 0. -1.
        -11    1    4    4    0    0  0.31335584120E+02  0.19651305333E+02  0.55430357134E+02  0.66637955592E+02  0.00000000000E+00 0.  1.
         12    1    4    4    0    0  0.12921208617E+02 -0.94172855209E+01 -0.84395320362E+01  0.18079507729E+02  0.00000000000E+00 0. -1.
         -5    1    5    5    0  502  0.28113344805E+02 -0.33370156977E+02  0.11207539719E+02  0.45294883589E+02  0.47000000000E+01 0.  1.
         13    1    6    6    0    0 -0.19967593438E+02  0.60124799816E+02  0.44607127345E+02  0.77482205381E+02  0.00000000000E+00 0. -1.
        -14    1    6    6    0    0  0.32676481769E+02  0.49740395715E+02  0.13658983701E+03  0.14899209040E+03  0.00000000000E+00 0.  1.
</event>
<event>
12    1  0.9246030E-003  0.1807712E+03  0.7818608E-02  0.1167104E+00
         21   -1    0    0  501  502  0.00000000000E+00  0.00000000000E+00  0.87235375774E+02  0.87235375774E+02  0.00000000000E+00 0. -1.
         21   -1    0    0  502  503 -0.00000000000E+00 -0.00000000000E+00 -0.61057994742E+03  0.61057994742E+03  0.00000000000E+00 0.  1.
          6    2    1    2  501    0 -0.30901019787E+02 -0.46778885759E+02 -0.44498343354E+02  0.18598338056E+03  0.17165831791E+03 0.  0.
         24    2    3    3    0    0 -0.78903127599E+02 -0.35349638230E+02 -0.61186690210E+02  0.13368212844E+03  0.81558567522E+02 0.  0.
         -6    2    1    2    0  503  0.30901019787E+02  0.46778885759E+02 -0.47884622829E+03  0.51183194263E+03  0.17185776087E+03 0.  0.
        -24    2    5    5    0    0  0.16835187251E+02 -0.40585889541E+02 -0.27481927153E+03  0.28939197164E+03  0.79318618785E+02 0.  0.
          5    1    3    3  501    0  0.48002107812E+02 -0.11429247529E+02  0.16688346856E+02  0.52301252129E+02  0.47000000000E+01 0. -1.
        -11    1    4    4    0    0 -0.79586546398E+02 -0.34333866663E+02 -0.15588144792E+02  0.88067150661E+02  0.00000000000E+00 0.  1.
         12    1    4    4    0    0  0.68341879856E+00 -0.10157715664E+01 -0.45598545417E+02  0.45614977774E+02  0.00000000000E+00 0. -1.
         -5    1    5    5    0  503  0.14065832536E+02  0.87364775300E+02 -0.20402695676E+03  0.22243997099E+03  0.47000000000E+01 0.  1.
         13    1    6    6    0    0  0.37106187240E+01  0.17944640251E+02 -0.18093793259E+02  0.25751973897E+02  0.00000000000E+00 0. -1.
        -14    1    6    6    0    0  0.13124568527E+02 -0.58530529792E+02 -0.25672547827E+03  0.26363999774E+03  0.00000000000E+00 0.  1.
</event>
<event>
12    1  0.9246030E-003  0.1771447E+03  0.7818608E-02  0.1170597E+00
         21   -1    0    0  501  502  0.00000000000E+00  0.00000000000E+00  0.40271191326E+02  0.40271191326E+02  0.00000000000E+00 0. -1.
         21   -1    0    0  502  503 -0.00000000000E+00 -0.00000000000E+00 -0.79929519022E+03  0.79929519022E+03  0.00000000000E+00 0. -1.
          6    2    1    2  501    0  0.16502637227E+02  0.35568477672E+02 -0.44609092400E+03  0.47997643003E+03  0.17275070843E+03 0.  0.
         24    2    3    3    0    0 -0.45166294762E+02  0.35241457700E+02 -0.36336615246E+03  0.37668731181E+03  0.81095102210E+02 0.  0.
         -6    2    1    2    0  503 -0.16502637227E+02 -0.35568477672E+02 -0.31293307489E+03  0.35958995152E+03  0.17274365468E+03 0.  0.
        -24    2    5    5    0    0 -0.36442838748E+02 -0.83445557571E+02 -0.24751337552E+03  0.27597384373E+03  0.81286221379E+02 0.  0.
          5    1    3    3  501    0  0.61668931989E+02  0.32701997118E+00 -0.82724771539E+02  0.10328911821E+03  0.47000000000E+01 0. -1.
        -13    1    4    4    0    0  0.12298231514E+02  0.27275475527E+02 -0.22004453308E+03  0.22206934638E+03  0.00000000000E+00 0.  1.
         14    1    4    4    0    0 -0.57464526276E+02  0.79659821729E+01 -0.14332161938E+03  0.15461796543E+03  0.00000000000E+00 0. -1.
         -5    1    5    5    0  503  0.19940201520E+02  0.47877079899E+02 -0.65419699370E+02  0.83616107791E+02  0.47000000000E+01 0.  1.
         13    1    6    6    0    0  0.23459177814E+02 -0.43563380412E+02 -0.87445897885E+02  0.10047331085E+03  0.00000000000E+00 0. -1.
        -14    1    6    6    0    0 -0.59902016562E+02 -0.39882177159E+02 -0.16006747764E+03  0.17550053288E+03  0.00000000000E+00 0.  1.
</event>
<event>
12    1  0.9246030E-003  0.2670529E+03  0.7818608E-02  0.1104445E+00
         21   -1    0    0  501  502  0.00000000000E+00  0.00000000000E+00  0.14558614074E+04  0.14558614074E+04  0.00000000000E+00 0.  1.
         21   -1    0    0  502  503 -0.00000000000E+00 -0.00000000000E+00 -0.12748299834E+03  0.12748299834E+03  0.00000000000E+00 0. -1.
          6    2    1    2  501    0 -0.99601987490E+02  0.16270389226E+03  0.12970985461E+04  0.13243043116E+04  0.18688006547E+03 0.  0.
         24    2    3    3    0    0 -0.12247550969E+03  0.18385999541E+03  0.11005979743E+04  0.11252933987E+04  0.78514863292E+02 0.  0.
         -6    2    1    2    0  503  0.99601987490E+02 -0.16270389226E+03  0.31279862972E+02  0.25904009418E+03  0.17242455770E+03 0.  0.
        -24    2    5    5    0    0  0.13303636616E+03 -0.15149962307E+03  0.43656332423E+02  0.22137498670E+03  0.80313130091E+02 0.  0.
          5    1    3    3  501    0  0.22873522200E+02 -0.21156103156E+02  0.19650057177E+03  0.19901091283E+03  0.47000000000E+01 0. -1.
        -13    1    4    4    0    0 -0.11288370913E+03  0.11224431774E+03  0.66826544283E+03  0.68696449743E+03  0.00000000000E+00 0.  1.
         14    1    4    4    0    0 -0.95918005571E+01  0.71615677676E+02  0.43233253150E+03  0.43832890130E+03  0.00000000000E+00 0. -1.
         -5    1    5    5    0  503 -0.33434378673E+02 -0.11204269191E+02 -0.12376469451E+02  0.37665107480E+02  0.47000000000E+01 0.  1.
         13    1    6    6    0    0  0.31038998693E+02 -0.16878293970E+02 -0.20330484224E+02  0.40763032713E+02  0.00000000000E+00 0. -1.
        -14    1    6    6    0    0  0.10199736747E+03 -0.13462132910E+03  0.63986816647E+02  0.18061195399E+03  0.00000000000E+00 0.  1.
</event>
<event>
12    1  0.9246030E-003  0.1727548E+03  0.7818608E-02  0.1175375E+00
         21   -1    0    0  501  502  0.00000000000E+00  0.00000000000E+00  0.15281637010E+03  0.15281637010E+03  0.00000000000E+00 0.  1.
         21   -1    0    0  502  503 -0.00000000000E+00 -0.00000000000E+00 -0.35163176195E+03  0.35163176195E+03  0.00000000000E+00 0.  1.
          6    2    1    2  501    0 -0.66672215031E+01  0.10524220153E+02  0.69872404787E+02  0.18501528408E+03  0.17086044404E+03 0.  0.
         24    2    3    3    0    0  0.21597785437E+02 -0.19739017271E+02 -0.16659737111E+02  0.88970108569E+02  0.82353143471E+02 0.  0.
         -6    2    1    2    0  503  0.66672215031E+01 -0.10524220153E+02 -0.26868779664E+03  0.31943284797E+03  0.17230496582E+03 0.  0.
        -24    2    5    5    0    0 -0.44096384115E+02 -0.46165373434E+02 -0.11588111445E+03  0.15445040168E+03  0.79691662648E+02 0.  0.
          5    1    3    3  501    0 -0.28265006940E+02  0.30263237424E+02  0.86532141898E+02  0.96045175507E+02  0.47000000000E+01 0. -1.
        -11    1    4    4    0    0 -0.57053871733E+01 -0.46481268805E+02  0.10644925474E+01  0.46842213194E+02  0.00000000000E+00 0.  1.
         12    1    4    4    0    0  0.27303172610E+02  0.26742251534E+02 -0.17724229659E+02  0.42127895374E+02  0.00000000000E+00 0. -1.
         -5    1    5    5    0  503  0.50763605618E+02  0.35641153281E+02 -0.15280668219E+03  0.16498244629E+03  0.47000000000E+01 0.  1.
         11    1    6    6    0    0 -0.12310909717E+02  0.26174920261E+01  0.97908039476E+01  0.15945833453E+02  0.00000000000E+00 0. -1.
        -12    1    6    6    0    0 -0.31785474398E+02 -0.48782865460E+02 -0.12567191840E+03  0.13850456822E+03  0.00000000000E+00 0.  1.
</event>
<event>
12    1  0.9246030E-003  0.2444504E+03  0.7818608E-02  0.1116878E+00
         21   -1    0    0  501  502  0.00000000000E+00  0.00000000000E+00  0.20870697081E+03  0.20870697081E+03  0.00000000000E+00 0.  1.
         21   -1    0    0  502  503 -0.00000000000E+00 -0.00000000000E+00 -0.28863279563E+03  0.28863279563E+03  0.00000000000E+00 0.  1.
          6    2    1    2  501    0  0.23587680757E+02  0.17152511698E+03 -0.17177904372E+02  0.24496449268E+03  0.17243920042E+03 0.  0.
         24    2    3    3    0    0  0.24299299175E+02  0.86281179715E+02  0.55505526668E+02  0.13283953387E+03  0.80812006258E+02 0.  0.
         -6    2    1    2    0  503 -0.23587680757E+02 -0.17152511698E+03 -0.62747920444E+02  0.25237527376E+03  0.17256515537E+03 0.  0.
        -24    2    5    5    0    0 -0.26791227497E+02 -0.57434923282E+02  0.29373913029E+02  0.10562597321E+03  0.79230544407E+02 0.  0.
          5    1    3    3  501    0 -0.71161841874E+00  0.85243937263E+02 -0.72683431039E+02  0.11212495881E+03  0.47000000000E+01 0. -1.
        -11    1    4    4    0    0 -0.22218266046E+02  0.21054859494E+02  0.41408776075E+02  0.51494127728E+02  0.00000000000E+00 0.  1.
         12    1    4    4    0    0  0.46517565221E+02  0.65226320220E+02  0.14096750593E+02  0.81345406145E+02  0.00000000000E+00 0. -1.
         -5    1    5    5    0  503  0.32035467404E+01 -0.11409019370E+03 -0.92121833473E+02  0.14674930055E+03  0.47000000000E+01 0.  1.
         13    1    6    6    0    0 -0.51972100020E+02 -0.49545721239E+02  0.91614181052E+01  0.72386526752E+02  0.00000000000E+00 0. -1.
        -14    1    6    6    0    0  0.25180872522E+02 -0.78892020432E+01  0.20212494924E+02  0.33239446459E+02  0.00000000000E+00 0.  1.
</event>
<event>
12    1  0.9246030E-003  0.2078512E+03  0.7818608E-02  0.1143318E+00
         21   -1    0    0  503  502  0.00000000000E+00  0.00000000000E+00  0.30286164630E+02  0.30286164630E+02  0.00000000000E+00 0. -1.
         21   -1    0    0  501  503 -0.00000000000E+00 -0.00000000000E+00 -0.19876610228E+04  0.19876610228E+04  0.00000000000E+00 0. -1.
          6    2    1    2  501    0  0.11487837985E+03  0.21222861202E+02 -0.15151180667E+04  0.15292824695E+04  0.17168186711E+03 0.  0.
         24    2    3    3    0    0  0.51985425334E+02  0.29276216114E+02 -0.13260813858E+04  0.13298399039E+04  0.80142042208E+02 0.  0.
         -6    2    1    2    0  502 -0.11487837985E+03 -0.21222861202E+02 -0.44225679149E+03  0.48866471794E+03  0.17191476071E+03 0.  0.
        -24    2    5    5    0    0 -0.11776391505E+03  0.52423769909E+01 -0.43879294216E+03  0.46140993124E+03  0.80399355417E+02 0.  0.
          5    1    3    3  501    0  0.62892954518E+02 -0.80533549116E+01 -0.18903668089E+03  0.19944256561E+03  0.47000000000E+01 0. -1.
        -13    1    4    4    0    0 -0.19362658612E+02  0.16826894372E+02 -0.47036192708E+03  0.47106092958E+03  0.00000000000E+00 0.  1.
         14    1    4    4    0    0  0.71348083946E+02  0.12449321742E+02 -0.85571945874E+03  0.85877897434E+03  0.00000000000E+00 0. -1.
         -5    1    5    5    0  502  0.28855351991E+01 -0.26465238193E+02 -0.34638493235E+01  0.27254786701E+02  0.47000000000E+01 0.  1.
         13    1    6    6    0    0 -0.99506297222E+02  0.36843496591E+02 -0.31947270704E+03  0.33663297072E+03  0.00000000000E+00 0. -1.
        -14    1    6    6    0    0 -0.18257617830E+02 -0.31601119601E+02 -0.11932023512E+03  0.12477696052E+03  0.00000000000E+00 0.  1.
</event>
<event>
12    1  0.9246030E-003  0.1932914E+03  0.7818608E-02  0.1155661E+00
         21   -1    0    0  501  502  0.00000000000E+00  0.00000000000E+00  0.10088499937E+03  0.10088499937E+03  0.00000000000E+00 0. -1.
         21   -1    0    0  502  503 -0.00000000000E+00 -0.00000000000E+00 -0.67386341619E+03  0.67386341619E+03  0.00000000000E+00 0. -1.
          6    2    1    2  501    0  0.51441882090E+02  0.71906659303E+02 -0.25758694129E+02  0.19439421528E+03  0.17119803073E+03 0.  0.
         24    2    3    3    0    0  0.54254541873E+02  0.20381057583E+02 -0.78812083646E+02  0.12023525880E+03  0.69901574425E+02 0.  0.
         -6    2    1    2    0  503 -0.51441882090E+02 -0.71906659303E+02 -0.54721972269E+03  0.58035420028E+03  0.17188582839E+03 0.  0.
        -24    2    5    5    0    0 -0.33577347469E+02 -0.11093643396E+03 -0.33375641368E+03  0.36256728792E+03  0.81408623314E+02 0.  0.
          5    1    3    3  501    0 -0.28126597826E+01  0.51525601721E+02  0.53053389518E+02  0.74158956486E+02  0.47000000000E+01 0. -1.
        -13    1    4    4    0    0 -0.65538576161E+01  0.25284268090E+02 -0.92441611051E+01  0.27707431801E+02  0.00000000000E+00 0.  1.
         14    1    4    4    0    0  0.60808399489E+02 -0.49032105072E+01 -0.69567922541E+02  0.92527826995E+02  0.00000000000E+00 0. -1.
         -5    1    5    5    0  503 -0.17864534621E+02  0.39029774653E+02 -0.21346330900E+03  0.21778691236E+03  0.47000000000E+01 0.  1.
         11    1    6    6    0    0  0.23465215811E+01 -0.61154495306E+02 -0.75879247683E+02  0.97483530346E+02  0.00000000000E+00 0. -1.
        -12    1    6    6    0    0 -0.35923869050E+02 -0.49781938650E+02 -0.25787716600E+03  0.26508375757E+03  0.00000000000E+00 0.  1.
</event>
<event>
12    1  0.9246030E-003  0.2790675E+03  0.7818608E-02  0.1096212E+00
         21   -1    0    0  501  502  0.00000000000E+00  0.00000000000E+00  0.47340459168E+03  0.47340459168E+03  0.00000000000E+00 0.  1.
         21   -1    0    0  502  503 -0.00000000000E+00 -0.00000000000E+00 -0.20669922414E+03  0.20669922414E+03  0.00000000000E+00 0.  1.
          6    2    1    2  501    0  0.37630879177E+02 -0.21759403000E+03  0.28707037923E+03  0.40029419780E+03  0.17047814291E+03 0.  0.
         24    2    3    3    0    0 -0.33711160578E+02 -0.10240840970E+03  0.93641892751E+02  0.16408648595E+03  0.80818599769E+02 0.  0.
         -6    2    1    2    0  503 -0.37630879177E+02  0.21759403000E+03 -0.20365011687E+02  0.27980961801E+03  0.17063248129E+03 0.  0.
        -24    2    5    5    0    0 -0.15063506731E+02  0.31776256825E+02  0.16999649686E+02  0.88875757614E+02  0.79832778163E+02 0.  0.
          5    1    3    3  501    0  0.71342039755E+02 -0.11518562030E+03  0.19342848648E+03  0.23620771186E+03  0.47000000000E+01 0. -1.
        -13    1    4    4    0    0 -0.10707904743E+02 -0.10965757210E+03  0.81753333141E+02  0.13719712032E+03  0.00000000000E+00 0.  1.
         14    1    4    4    0    0 -0.23003255835E+02  0.72491624038E+01  0.11888559610E+02  0.26889365633E+02  0.00000000000E+00 0. -1.
         -5    1    5    5    0  503 -0.22567372446E+02  0.18581777317E+03 -0.37364661374E+02  0.19093386039E+03  0.47000000000E+01 0.  1.
         13    1    6    6    0    0 -0.24033078610E+02  0.50873683681E+02  0.30329605377E+02  0.63918741548E+02  0.00000000000E+00 0. -1.
        -14    1    6    6    0    0  0.89695718789E+01 -0.19097426856E+02 -0.13329955691E+02  0.24957016066E+02  0.00000000000E+00 0.  1.
</event>
<event>
12    1  0.9246030E-003  0.1880591E+03  0.7818608E-02  0.1160267E+00
         21   -1    0    0  501  502  0.00000000000E+00  0.00000000000E+00  0.51915451067E+03  0.51915451067E+03  0.00000000000E+00 0. -1.
         21   -1    0    0  502  503 -0.00000000000E+00 -0.00000000000E+00 -0.73913439177E+02  0.73913439177E+02  0.00000000000E+00 0. -1.
          6    2    1    2  501    0 -0.24673689640E+02  0.70875312798E+02  0.13902826556E+03  0.23371781011E+03  0.17222965834E+03 0.  0.
         24    2    3    3    0    0 -0.58746799381E+02  0.95409307709E+02  0.14324862722E+03  0.19125847467E+03  0.59207368602E+02 0.  0.
         -6    2    1    2    0  503  0.24673689640E+02 -0.70875312798E+02  0.30621280594E+03  0.35935013974E+03  0.17243589965E+03 0.  0.
        -24    2    5    5    0    0  0.73724798282E+02 -0.18820418181E+02  0.22672856216E+03  0.25231949777E+03  0.80434656913E+02 0.  0.
          5    1    3    3  501    0  0.34073109741E+02 -0.24533994911E+02 -0.42203616583E+01  0.42459335442E+02  0.47000000000E+01 0. -1.
        -11    1    4    4    0    0 -0.40200294822E+02  0.32508678323E+02  0.10038105513E+03  0.11291250639E+03  0.00000000000E+00 0.  1.
         12    1    4    4    0    0 -0.18546504559E+02  0.62900629385E+02  0.42867572086E+02  0.78345968275E+02  0.00000000000E+00 0. -1.
         -5    1    5    5    0  503 -0.49051108642E+02 -0.52054894617E+02  0.79484243780E+02  0.10703064198E+03  0.47000000000E+01 0.  1.
         11    1    6    6    0    0  0.90836086540E+02 -0.10367818865E+02  0.19317968432E+03  0.21372196125E+03  0.00000000000E+00 0. -1.
        -12    1    6    6    0    0 -0.17111288259E+02 -0.84525993164E+01  0.33548877842E+02  0.38597536522E+02  0.00000000000E+00 0.  1.
</event>
<event>
12    1  0.9246030E-003  0.1850297E+03  0.7818608E-02  0.1163025E+00
         21   -1    0    0  501  502  0.00000000000E+00  0.00000000000E+00  0.23583933566E+02  0.23583933566E+02  0.00000000000E+00 0.  1.
         21   -1    0    0  502  503 -0.00000000000E+00 -0.00000000000E+00 -0.18180861327E+04  0.18180861327E+04  0.00000000000E+00 0.  1.
          6    2    1    2  501    0  0.69058825035E+02 -0.52794570189E+01 -0.48383146488E+03  0.51800469310E+03  0.17157791723E+03 0.  0.
         24    2    3    3    0    0 -0.47567377427E+01  0.39383223764E+02 -0.32461064707E+03  0.33685047375E+03  0.80762024531E+02 0.  0.
         -6    2    1    2    0  503 -0.69058825035E+02  0.52794570189E+01 -0.13106707342E+04  0.13236653731E+04  0.17156704962E+03 0.  0.
        -24    2    5    5    0    0 -0.98062237828E+02 -0.39097372537E+02 -0.94999188232E+03  0.95908091768E+03  0.78783393859E+02 0.  0.
          5    1    3    3  501    0  0.73815562777E+02 -0.44662680783E+02 -0.15922081781E+03  0.18115421934E+03  0.47000000000E+01 0. -1.
        -11    1    4    4    0    0  0.18788922647E+02  0.67643876190E+01 -0.15890818919E+02  0.25520554069E+02  0.00000000000E+00 0.  1.
         12    1    4    4    0    0 -0.23545660390E+02  0.32618836145E+02 -0.30871982815E+03  0.31132991968E+03  0.00000000000E+00 0. -1.
         -5    1    5    5    0  503  0.29003412794E+02  0.44376829556E+02 -0.36067885191E+03  0.36458445547E+03  0.47000000000E+01 0.  1.
         13    1    6    6    0    0 -0.43942832312E+02 -0.56471224941E+02 -0.63321415058E+03  0.63724417004E+03  0.00000000000E+00 0. -1.
        -14    1    6    6    0    0 -0.54119405517E+02  0.17373852404E+02 -0.31677773174E+03  0.32183674764E+03  0.00000000000E+00 0.  1.
</event>
<event>
12    1  0.9246030E-003  0.2269385E+03  0.7818608E-02  0.1128889E+00
         21   -1    0    0  501  502  0.00000000000E+00  0.00000000000E+00  0.54860436516E+03  0.54860436516E+03  0.00000000000E+00 0.  1.
         21   -1    0    0  502  503 -0.00000000000E+00 -0.00000000000E+00 -0.96427899606E+02  0.96427899606E+02  0.00000000000E+00 0. -1.
          6    2    1    2  501    0  0.75234413870E+02 -0.12741415329E+03  0.17166142307E+03  0.28421404110E+03  0.17150916448E+03 0.  0.
         24    2    3    3    0    0  0.11733054018E+03 -0.95512288495E+02  0.11404524224E+03  0.20590997274E+03  0.80644570100E+02 0.  0.
         -6    2    1    2    0  503 -0.75234413870E+02  0.12741415329E+03  0.28051504248E+03  0.36081822366E+03  0.17206544679E+03 0.  0.
        -24    2    5    5    0    0 -0.59979928464E+02  0.13388148867E+03  0.13777486304E+03  0.21704279259E+03  0.81263867157E+02 0.  0.
          5    1    3    3  501    0 -0.42096126307E+02 -0.31901864795E+02  0.57616180832E+02  0.78304068356E+02  0.47000000000E+01 0. -1.
        -13    1    4    4    0    0  0.44165625792E+02 -0.25472195629E+01  0.63196381188E+02  0.77141904464E+02  0.00000000000E+00 0.  1.
         14    1    4    4    0    0  0.73164914385E+02 -0.92965068932E+02  0.50848861051E+02  0.12876806828E+03  0.00000000000E+00 0. -1.
         -5    1    5    5    0  503 -0.15254485406E+02 -0.64673353768E+01  0.14274017944E+03  0.14377543107E+03  0.47000000000E+01 0.  1.
         13    1    6    6    0    0 -0.22976126142E+02  0.58750991275E+01 -0.21627319017E+01  0.23813789525E+02  0.00000000000E+00 0. -1.
        -14    1    6    6    0    0 -0.37003802321E+02  0.12800638954E+03  0.13993759494E+03  0.19322900307E+03  0.00000000000E+00 0.  1.
</event>
<event>
12    1  0.9246030E-003  0.1946337E+03  0.7818608E-02  0.1154547E+00
         21   -1    0    0  501  502  0.00000000000E+00  0.00000000000E+00  0.16854356263E+03  0.16854356263E+03  0.00000000000E+00 0.  1.
         21   -1    0    0  502  503 -0.00000000000E+00 -0.00000000000E+00 -0.29247159641E+03  0.29247159641E+03  0.00000000000E+00 0.  1.
          6    2    1    2  501    0 -0.23625554860E+02  0.84146097491E+02  0.49692688267E+02  0.20087713506E+03  0.17390666335E+03 0.  0.
         24    2    3    3    0    0  0.73784355401E+01  0.12036676664E+03  0.47053637387E+02  0.15289548353E+03  0.81365743843E+02 0.  0.
         -6    2    1    2    0  503  0.23625554860E+02 -0.84146097491E+02 -0.17362072204E+03  0.26013802398E+03  0.17288407629E+03 0.  0.
        -24    2    5    5    0    0  0.46590063656E+02 -0.49991671625E+02 -0.18765092593E+03  0.21640211091E+03  0.83349879069E+02 0.  0.
          5    1    3    3  501    0 -0.31003990400E+02 -0.36220669145E+02  0.26390508797E+01  0.47981651530E+02  0.47000000000E+01 0. -1.
        -11    1    4    4    0    0 -0.34062593030E+02  0.55924913830E+02  0.38095263109E+02  0.75756882870E+02  0.00000000000E+00 0.  1.
         12    1    4    4    0    0  0.41441028570E+02  0.64441852806E+02  0.89583742776E+01  0.77138600660E+02  0.00000000000E+00 0. -1.
         -5    1    5    5    0  503 -0.22964508796E+02 -0.34154425866E+02  0.14030203893E+02  0.43735913067E+02  0.47000000000E+01 0.  1.
         11    1    6    6    0    0 -0.87464153874E+01  0.16827582897E+02 -0.19573692563E+02  0.27254298172E+02  0.00000000000E+00 0. -1.
        -12    1    6    6    0    0  0.55336479043E+02 -0.66819254521E+02 -0.16807723337E+03  0.18914781274E+03  0.00000000000E+00 0.  1.
</event>
<event>
12    1  0.9246030E-003  0.5081636E+03  0.7818608E-02  0.1011824E+00
         21   -1    0    0  501  502  0.00000000000E+00  0.00000000000E+00  0.33328506113E+03  0.33328506113E+03  0.00000000000E+00 0.  1.
         21   -1    0    0  502  503 -0.00000000000E+00 -0.00000000000E+00 -0.78970881932E+03  0.78970881932E+03  0.00000000000E+00 0. -1.
          6    2    1    2  501    0  0.43433248118E+03 -0.19988027681E+03 -0.14158379648E+03  0.52520260814E+03  0.16490900190E+03 0.  0.
         24    2    3    3    0    0  0.27632908126E+03 -0.19301887609E+03 -0.10986513111E+03  0.36383248409E+03  0.81790474776E+02 0.  0.
         -6    2    1    2    0  503 -0.43433248118E+03  0.19988027681E+03 -0.31483996171E+03  0.59779127230E+03  0.17214347063E+03 0.  0.
        -24    2    5    5    0    0 -0.35339971907E+03  0.19010418620E+03 -0.19494202736E+03  0.45272822190E+03  0.77003154618E+02 0.  0.
          5    1    3    3  501    0  0.15800339992E+03 -0.68614007205E+01 -0.31718665369E+02  0.16137012406E+03  0.47000000000E+01 0. -1.
        -11    1    4    4    0    0  0.26450706222E+03 -0.15519637842E+03 -0.90651019430E+02  0.31979291606E+03  0.00000000000E+00 0.  1.
         12    1    4    4    0    0  0.11822019046E+02 -0.37822497675E+02 -0.19214111681E+02  0.44039568031E+02  0.00000000000E+00 0. -1.
         -5    1    5    5    0  503 -0.80932762113E+02  0.97760906102E+01 -0.11989793435E+03  0.14506305040E+03  0.47000000000E+01 0.  1.
         11    1    6    6    0    0 -0.22737797212E+03  0.10945241873E+03 -0.16090892484E+03  0.29928624470E+03  0.00000000000E+00 0. -1.
        -12    1    6    6    0    0 -0.12602174695E+03  0.80651767468E+02 -0.34033102523E+02  0.15344197720E+03  0.00000000000E+00 0.  1.
</event>
<event>
12    1  0.9246030E-003  0.1834449E+03  0.7818608E-02  0.1164568E+00
         21   -1    0    0  503  502  0.00000000000E+00  0.00000000000E+00  0.33964134271E+03  0.33964134271E+03  0.00000000000E+00 0. -1.
         21   -1    0    0  501  503 -0.00000000000E+00 -0.00000000000E+00 -0.10692450524E+03  0.10692450524E+03  0.00000000000E+00 0. -1.
          6    2    1    2  501    0 -0.64498218368E+02  0.51080983616E+01  0.55449752374E+02  0.19164217137E+03  0.17165644167E+03 0.  0.
         24    2    3    3    0    0  0.57665962386E+01 -0.33734058761E+02 -0.12226113844E+02  0.86532846327E+02  0.78531619626E+02 0.  0.
         -6    2    1    2    0  502  0.64498218368E+02 -0.51080983616E+01  0.17726708510E+03  0.25492367658E+03  0.17139529918E+03 0.  0.
        -24    2    5    5    0    0  0.84624186927E+02  0.47224282321E+02  0.13176957644E+03  0.18256453084E+03  0.81087611824E+02 0.  0.
          5    1    3    3  501    0 -0.70264814606E+02  0.38842157123E+02  0.67675866218E+02  0.10510932504E+03  0.47000000000E+01 0. -1.
        -11    1    4    4    0    0  0.33495000260E+02 -0.61503581965E+01  0.16658832501E+02  0.37911194239E+02  0.00000000000E+00 0.  1.
         12    1    4    4    0    0 -0.27728404021E+02 -0.27583700564E+02 -0.28884946345E+02  0.48621652088E+02  0.00000000000E+00 0. -1.
         -5    1    5    5    0  502 -0.20125968559E+02 -0.52332380683E+02  0.45497508669E+02  0.72359145749E+02  0.47000000000E+01 0.  1.
         13    1    6    6    0    0  0.36563409706E+02  0.59548034139E+02  0.10517150482E+03  0.12626914399E+03  0.00000000000E+00 0. -1.
        -14    1    6    6    0    0  0.48060777221E+02 -0.12323751818E+02  0.26598071620E+02  0.56295386844E+02  0.00000000000E+00 0.  1.
</event>
<event>
12    1  0.9246030E-003  0.3126322E+03  0.7818608E-02  0.1079153E+00
         21   -1    0    0  503  502  0.00000000000E+00  0.00000000000E+00  0.12987609470E+03  0.12987609470E+03  0.00000000000E+00 0. -1.
         21   -1    0    0  501  503 -0.00000000000E+00 -0.00000000000E+00 -0.88444150767E+03  0.88444150767E+03  0.00000000000E+00 0.  1.
          6    2    1    2  501    0 -0.25327056884E+03  0.62915668989E+02 -0.57378966177E+03  0.65318221620E+03  0.17119599635E+03 0.  0.
         24    2    3    3    0    0 -0.27165347419E+03  0.49436856159E+02 -0.54442794459E+03  0.61571476312E+03  0.80394464312E+02 0.  0.
         -6    2    1    2    0  502  0.25327056884E+03 -0.62915668989E+02 -0.18077575121E+03  0.36113538617E+03  0.17214683406E+03 0.  0.
        -24    2    5    5    0    0  0.67682095721E+02 -0.69912014068E+02 -0.79153612943E+02  0.14937802695E+03  0.81116858307E+02 0.  0.
          5    1    3    3  501    0  0.18382905351E+02  0.13478812830E+02 -0.29361717177E+02  0.37467453076E+02  0.47000000000E+01 0. -1.
        -11    1    4    4    0    0 -0.13581020901E+03 -0.96333439884E+01 -0.21454797786E+03  0.25410243799E+03  0.00000000000E+00 0.  1.
         12    1    4    4    0    0 -0.13584326518E+03  0.59070200147E+02 -0.32987996673E+03  0.36161232514E+03  0.00000000000E+00 0. -1.
         -5    1    5    5    0  502  0.18558847311E+03  0.69963450794E+01 -0.10162213826E+03  0.21175735922E+03  0.47000000000E+01 0.  1.
         13    1    6    6    0    0  0.14046427085E+02 -0.34637015433E+02  0.10764081187E+02  0.38895891760E+02  0.00000000000E+00 0. -1.
        -14    1    6    6    0    0  0.53635668635E+02 -0.35274998635E+02 -0.89917694130E+02  0.11048213519E+03  0.00000000000E+00 0.  1.
</event>
<event>
12    1  0.9246030E-003  0.2686628E+03  0.7818608E-02  0.1102065E+00
         21   -1    0    0  501  502  0.00000000000E+00  0.00000000000E+00  0.28340205880E+04  0.28340205880E+04  0.00000000000E+00 0. -1.
         21   -1    0    0  502  503 -0.00000000000E+00 -0.00000000000E+00 -0.26795276759E+02  0.26795276759E+02  0.00000000000E+00 0.  1.
          6    2    1    2  501    0 -0.20160672039E+03 -0.38168107407E+02  0.17235802935E+04  0.17443935156E+04  0.17342904920E+03 0.  0.
         24    2    3    3    0    0 -0.16529467917E+03 -0.89425777234E+02  0.13869016652E+04  0.14018727107E+04  0.80197054111E+02 0.  0.
         -6    2    1    2    0  503  0.20160672039E+03  0.38168107407E+02  0.10836450177E+04  0.11164223491E+04  0.17323470503E+03 0.  0.
        -24    2    5    5    0    0  0.13035003912E+03  0.89886691977E+02  0.63912339527E+03  0.66324038847E+03  0.79613745245E+02 0.  0.
          5    1    3    3  501    0 -0.36312041217E+02  0.51257669827E+02  0.33667862830E+03  0.34252080493E+03  0.47000000000E+01 0. -1.
        -13    1    4    4    0    0 -0.10160807249E+03 -0.53028231302E+02  0.55307817799E+03  0.56482888088E+03  0.00000000000E+00 0.  1.
         14    1    4    4    0    0 -0.63686606680E+02 -0.36397545932E+02  0.83382348723E+03  0.83704382984E+03  0.00000000000E+00 0. -1.
         -5    1    5    5    0  503  0.71256681270E+02 -0.51718584570E+02  0.44452162241E+03  0.45318196059E+03  0.47000000000E+01 0.  1.
         13    1    6    6    0    0  0.27935282326E+02  0.64218639683E+02  0.29976422476E+03  0.30783600200E+03  0.00000000000E+00 0. -1.
        -14    1    6    6    0    0  0.10241475679E+03  0.25668052295E+02  0.33935917051E+03  0.35540438647E+03  0.00000000000E+00 0.  1.
</event>
<event>
12    1  0.9246030E-003  0.2222937E+03  0.7818608E-02  0.1132221E+00
         21   -1    0    0  503  502  0.00000000000E+00  0.00000000000E+00  0.10897845121E+04  0.10897845121E+04  0.00000000000E+00 0. -1.
         21   -1    0    0  501  503 -0.00000000000E+00 -0.00000000000E+00 -0.45383114425E+02  0.45383114425E+02  0.00000000000E+00 0. -1.
          6    2    1    2  501    0 -0.13530046774E+03 -0.39221694068E+02  0.54625423570E+03  0.58975263412E+03  0.17195906946E+03 0.  0.
         24    2    3    3    0    0 -0.39929223256E+02 -0.52077852319E+01  0.40889227888E+03  0.41903937321E+03  0.82338549129E+02 0.  0.
         -6    2    1    2    0  502  0.13530046774E+03  0.39221694068E+02  0.49814716192E+03  0.54541499236E+03  0.17170428388E+03 0.  0.
        -24    2    5    5    0    0  0.45836375718E+02 -0.15661519059E+02  0.11658347023E+03  0.14965126024E+03  0.80358805629E+02 0.  0.
          5    1    3    3  501    0 -0.95371244480E+02 -0.34013908837E+02  0.13736195682E+03  0.17071326091E+03  0.47000000000E+01 0. -1.
        -11    1    4    4    0    0 -0.18108321401E+02 -0.36099437155E+02  0.31854675474E+03  0.32109673873E+03  0.00000000000E+00 0.  1.
         12    1    4    4    0    0 -0.21820901855E+02  0.30891651923E+02  0.90345524140E+02  0.97942634478E+02  0.00000000000E+00 0. -1.
         -5    1    5    5    0  502  0.89464092019E+02  0.54883213128E+02  0.38156369169E+03  0.39576373212E+03  0.47000000000E+01 0.  1.
         13    1    6    6    0    0  0.43147533143E+02  0.10140334314E+02  0.11547144895E+03  0.12368585820E+03  0.00000000000E+00 0. -1.
        -14    1    6    6    0    0  0.26888425745E+01 -0.25801853373E+02  0.11120212850E+01  0.25965402042E+02  0.00000000000E+00 0.  1.
</event>
<event>
12    1  0.9246030E-003  0.1974009E+03  0.7818608E-02  0.1152022E+00
         21   -1    0    0  503  502  0.00000000000E+00  0.00000000000E+00  0.67136445840E+03  0.67136445840E+03  0.00000000000E+00 0.  1.
         21   -1    0    0  501  503 -0.00000000000E+00 -0.00000000000E+00 -0.74203639892E+02  0.74203639892E+02  0.00000000000E+00 0.  1.
          6    2    1    2  501    0 -0.84080471121E+02  0.48568257952E+02  0.12427606928E+03  0.23326304604E+03  0.17186828080E+03 0.  0.
         24    2    3    3    0    0 -0.11703150366E+03 -0.19299163205E+01  0.82285188317E+02  0.15963451737E+03  0.70797100880E+02 0.  0.
         -6    2    1    2    0  502  0.84080471121E+02 -0.48568257952E+02  0.47288474923E+03  0.51230505226E+03  0.17148783983E+03 0.  0.
        -24    2    5    5    0    0  0.71129665103E+02  0.21668774806E+02  0.17595571860E+03  0.20687109315E+03  0.79412021839E+02 0.  0.
          5    1    3    3  501    0  0.32951032537E+02  0.50498174272E+02  0.41990880964E+02  0.73628528670E+02  0.47000000000E+01 0. -1.
        -11    1    4    4    0    0 -0.80699475259E+02  0.20747452289E+02  0.81855252978E+02  0.11680387204E+03  0.00000000000E+00 0.  1.
         12    1    4    4    0    0 -0.36332028400E+02 -0.22677368610E+02  0.42993533967E+00  0.42830645327E+02  0.00000000000E+00 0. -1.
         -5    1    5    5    0  502  0.12950806018E+02 -0.70237032757E+02  0.29692903063E+03  0.30543395911E+03  0.47000000000E+01 0.  1.
         13    1    6    6    0    0  0.81163669861E+02  0.13001102773E+01  0.10721800095E+03  0.13448022650E+03  0.00000000000E+00 0. -1.
        -14    1    6    6    0    0 -0.10034004757E+02  0.20368664528E+02  0.68737717649E+02  0.72390866645E+02  0.00000000000E+00 0.  1.
</event>
<event>
12    1  0.9246030E-003  0.1932382E+03  0.7818608E-02  0.1155795E+00
         21   -1    0    0  503  502  0.00000000000E+00  0.00000000000E+00  0.50962401242E+03  0.50962401242E+03  0.00000000000E+00 0.  1.
         21   -1    0    0  501  503 -0.00000000000E+00 -0.00000000000E+00 -0.12242199832E+03  0.12242199832E+03  0.00000000000E+00 0. -1.
          6    2    1    2  501    0 -0.80419970430E+02  0.38487993436E+02  0.39491358918E+03  0.43965641182E+03  0.17144188595E+03 0.  0.
         24    2    3    3    0    0 -0.49894364751E+02 -0.20488499572E+02  0.34123954389E+03  0.35414014163E+03  0.77856196620E+02 0.  0.
         -6    2    1    2    0  502  0.80419970430E+02 -0.38487993436E+02 -0.77115750673E+01  0.19238959892E+03  0.17031028184E+03 0.  0.
        -24    2    5    5    0    0  0.44775749768E+02 -0.26973395144E+02  0.61687127457E+02  0.11338728027E+03  0.79491772024E+02 0.  0.
          5    1    3    3  501    0 -0.30525605679E+02  0.58976493008E+02  0.53674045283E+02  0.85516270186E+02  0.47000000000E+01 0. -1.
        -13    1    4    4    0    0 -0.12626088242E+02  0.25588912749E+02  0.18214258443E+03  0.18436412781E+03  0.00000000000E+00 0.  1.
         14    1    4    4    0    0 -0.37268276509E+02 -0.46077412321E+02  0.15909695946E+03  0.16977601382E+03  0.00000000000E+00 0. -1.
         -5    1    5    5    0  502  0.35644220662E+02 -0.11514598292E+02 -0.69398702524E+02  0.79002318652E+02  0.47000000000E+01 0.  1.
         13    1    6    6    0    0  0.52872846545E+02 -0.11361744909E+02  0.53205973626E+01  0.54340922935E+02  0.00000000000E+00 0. -1.
        -14    1    6    6    0    0 -0.80970967774E+01 -0.15611650235E+02  0.56366530094E+02  0.59046357332E+02  0.00000000000E+00 0.  1.
</event>
<event>
12    1  0.9246030E-003  0.1763663E+03  0.7818608E-02  0.1171662E+00
         21   -1    0    0  503  502  0.00000000000E+00  0.00000000000E+00  0.30815071304E+03  0.30815071304E+03  0.00000000000E+00 0. -1.
         21   -1    0    0  501  503 -0.00000000000E+00 -0.00000000000E+00 -0.10365733609E+03  0.10365733609E+03  0.00000000000E+00 0. -1.
          6    2    1    2  501    0 -0.31653529732E+02  0.15291333308E+02  0.64657306822E+02  0.18673209791E+03  0.17161741824E+03 0.  0.
         24    2    3    3    0    0 -0.14440099455E+02 -0.56914194656E+02  0.48725095241E+02  0.11066721891E+03  0.80158320901E+02 0.  0.
         -6    2    1    2    0  502  0.31653529732E+02 -0.15291333308E+02  0.13983607013E+03  0.22507595123E+03  0.17282733144E+03 0.  0.
        -24    2    5    5    0    0  0.70564616589E+02 -0.11759232469E+02  0.14966897080E+03  0.18451335328E+03  0.80788192566E+02 0.  0.
          5    1    3    3  501    0 -0.17213430277E+02  0.72205527964E+02  0.15932211581E+02  0.76064878994E+02  0.47000000000E+01 0. -1.
        -13    1    4    4    0    0  0.29978486976E+02 -0.22286299871E+02  0.38090675160E+02  0.53350617405E+02  0.00000000000E+00 0.  1.
         14    1    4    4    0    0 -0.44418586431E+02 -0.34627894786E+02  0.10634420081E+02  0.57316601507E+02  0.00000000000E+00 0. -1.
         -5    1    5    5    0  502 -0.38911086857E+02 -0.35321008382E+01 -0.98329006646E+01  0.40562597947E+02  0.47000000000E+01 0.  1.
         11    1    6    6    0    0  0.36024168074E+02 -0.22625019437E+00  0.62743590542E+01  0.36567190980E+02  0.00000000000E+00 0. -1.
        -12    1    6    6    0    0  0.34540448514E+02 -0.11532982275E+02  0.14339461174E+03  0.14794616230E+03  0.00000000000E+00 0.  1.
</event>
<event>
12    1  0.9246030E-003  0.1809387E+03  0.7818608E-02  0.1167740E+00
         21   -1    0    0  501  502  0.00000000000E+00  0.00000000000E+00  0.43258939217E+02  0.43258939217E+02  0.00000000000E+00 0.  1.
         21   -1    0    0  502  503 -0.00000000000E+00 -0.00000000000E+00 -0.80172715871E+03  0.80172715871E+03  0.00000000000E+00 0.  1.
          6    2    1    2  501    0  0.41008540652E+02  0.28565986348E+02 -0.49079249883E+03  0.52189307423E+03  0.17028619451E+03 0.  0.
         24    2    3    3    0    0  0.72037057403E+02 -0.52760459280E+01 -0.44295556491E+03  0.45542116853E+03  0.77341023804E+02 0.  0.
         -6    2    1    2    0  503 -0.41008540652E+02 -0.28565986348E+02 -0.26767572067E+03  0.32309302370E+03  0.17389966804E+03 0.  0.
        -24    2    5    5    0    0 -0.82889443105E+02  0.18738675550E+02 -0.14761840142E+03  0.18734476061E+03  0.78006853222E+02 0.  0.
          5    1    3    3  501    0 -0.31028516751E+02  0.33842032276E+02 -0.47836933918E+02  0.66471905697E+02  0.47000000000E+01 0. -1.
        -13    1    4    4    0    0  0.52619159734E+02 -0.26002425666E+02 -0.39758757751E+03  0.40189648406E+03  0.00000000000E+00 0.  1.
         14    1    4    4    0    0  0.19417897669E+02  0.20726379738E+02 -0.45367987401E+02  0.53524684471E+02  0.00000000000E+00 0. -1.
         -5    1    5    5    0  503  0.41880902453E+02 -0.47304661898E+02 -0.12005731925E+03  0.13574826309E+03  0.47000000000E+01 0.  1.
         13    1    6    6    0    0 -0.39233503375E+02 -0.77521892018E+00 -0.13095151604E+03  0.13670467550E+03  0.00000000000E+00 0. -1.
        -14    1    6    6    0    0 -0.43655939729E+02  0.19513894470E+02 -0.16666885381E+02  0.50640085104E+02  0.00000000000E+00 0.  1.
</event>
<event>
12    1  0.9246030E-003  0.3170547E+03  0.7818608E-02  0.1077101E+00
         21   -1    0    0  501  502  0.00000000000E+00  0.00000000000E+00  0.62317159561E+03  0.62317159561E+03  0.00000000000E+00 0. -1.
         21   -1    0    0  502  503 -0.00000000000E+00 -0.00000000000E+00 -0.24966885714E+03  0.24966885714E+03  0.00000000000E+00 0.  1.
          6    2    1    2  501    0 -0.18931029417E+03  0.18713708492E+03  0.44679708297E+03  0.54742423416E+03  0.17084198185E+03 0.  0.
         24    2    3    3    0    0 -0.16497458598E+03  0.90404763080E+02  0.22467716864E+03  0.30389042722E+03  0.80497990272E+02 0.  0.
         -6    2    1    2    0  503  0.18931029417E+03 -0.18713708492E+03 -0.73294344504E+02  0.32541621858E+03  0.17223524131E+03 0.  0.
        -24    2    5    5    0    0  0.16596976451E+03 -0.84992474314E+02 -0.10647475281E+02  0.20324821121E+03  0.80167220294E+02 0.  0.
          5    1    3    3  501    0 -0.24335708187E+02  0.96732321845E+02  0.22211991433E+03  0.24353380694E+03  0.47000000000E+01 0. -1.
        -11    1    4    4    0    0 -0.33124204226E+02 -0.14459650418E+02  0.38492547282E+02  0.52801236652E+02  0.00000000000E+00 0.  1.
         12    1    4    4    0    0 -0.13185038176E+03  0.10486441350E+03  0.18618462136E+03  0.25108919057E+03  0.00000000000E+00 0. -1.
         -5    1    5    5    0  503  0.23340529662E+02 -0.10214461061E+03 -0.62646869223E+02  0.12216800737E+03  0.47000000000E+01 0.  1.
         13    1    6    6    0    0  0.54371207687E+02 -0.17848803279E+02  0.32791104299E+02  0.65955018952E+02  0.00000000000E+00 0. -1.
        -14    1    6    6    0    0  0.11159855682E+03 -0.67143671035E+02 -0.43438579580E+02  0.13729319226E+03  0.00000000000E+00 0.  1.
</event>
<event>
12    1  0.9246030E-003  0.1938562E+03  0.7818608E-02  0.1155452E+00
         21   -1    0    0  503  502  0.00000000000E+00  0.00000000000E+00  0.24594952215E+03  0.24594952215E+03  0.00000000000E+00 0. -1.
         21   -1    0    0  501  503 -0.00000000000E+00 -0.00000000000E+00 -0.25199837722E+03  0.25199837722E+03  0.00000000000E+00 0. -1.
          6    2    1    2  501    0  0.80106828507E+02  0.38701870213E+02 -0.16042826304E+03  0.25162956281E+03  0.17223608962E+03 0.  0.
         24    2    3    3    0    0  0.11549870482E+03  0.48565898636E+02 -0.96943914690E+02  0.17812965498E+03  0.81446019305E+02 0.  0.
         -6    2    1    2    0  502 -0.80106828507E+02 -0.38701870213E+02  0.15437940797E+03  0.24631833656E+03  0.17007287435E+03 0.  0.
        -24    2    5    5    0    0 -0.11470712192E+03 -0.54652714975E+02  0.10502215311E+03  0.18378963627E+03  0.81267057788E+02 0.  0.
          5    1    3    3  501    0 -0.35391876317E+02 -0.98640284228E+01 -0.63484348353E+02  0.73499907835E+02  0.47000000000E+01 0. -1.
        -11    1    4    4    0    0  0.10498452107E+03  0.13890806015E+02 -0.94298958510E+02  0.14179914574E+03  0.00000000000E+00 0.  1.
         12    1    4    4    0    0  0.10514183751E+02  0.34675092622E+02 -0.26449561807E+01  0.36330509238E+02  0.00000000000E+00 0. -1.
         -5    1    5    5    0  502  0.34600293417E+02  0.15950844762E+02  0.49357254858E+02  0.62528700293E+02  0.47000000000E+01 0.  1.
         13    1    6    6    0    0 -0.98804411286E+02 -0.57316969983E+01  0.75487957441E+02  0.12447327327E+03  0.00000000000E+00 0. -1.
        -14    1    6    6    0    0 -0.15902710638E+02 -0.48921017977E+02  0.29534195674E+02  0.59316363001E+02  0.00000000000E+00 0.  1.
</event>
<event>
12    1  0.9246030E-003  0.1938334E+03  0.7818608E-02  0.1155165E+00
         21   -1    0    0  501  502  0.00000000000E+00  0.00000000000E+00  0.73585545070E+02  0.73585545070E+02  0.00000000000E+00 0.  1.
         21   -1    0    0  502  503 -0.00000000000E+00 -0.00000000000E+00 -0.53661265071E+03  0.53661265071E+03  0.00000000000E+00 0. -1.
          6    2    1    2  501    0  0.33301570511E+02  0.82057425320E+02 -0.16224840923E+03  0.25237254641E+03  0.17182822887E+03 0.  0.
         24    2    3    3    0    0 -0.18369314453E+02  0.12678425553E+02 -0.18852503057E+02  0.84838066768E+02  0.79648644141E+02 0.  0.
         -6    2    1    2    0  503 -0.33301570511E+02 -0.82057425320E+02 -0.30077869641E+03  0.35782564937E+03  0.17242086731E+03 0.  0.
        -24    2    5    5    0    0  0.45886475563E+02 -0.33202414780E+02 -0.12316020602E+03  0.15725651709E+03  0.79707006172E+02 0.  0.
          5    1    3    3  501    0  0.51670884964E+02  0.69378999768E+02 -0.14339590617E+03  0.16753447964E+03  0.47000000000E+01 0. -1.
        -13    1    4    4    0    0 -0.13193356485E+02  0.46459369655E+02 -0.14247461216E+02  0.50354025014E+02  0.00000000000E+00 0.  1.
         14    1    4    4    0    0 -0.51759579682E+01 -0.33780944102E+02 -0.46050418412E+01  0.34484041754E+02  0.00000000000E+00 0. -1.
         -5    1    5    5    0  503 -0.79188046074E+02 -0.48855010541E+02 -0.17761849039E+03  0.20056913228E+03  0.47000000000E+01 0.  1.
         13    1    6    6    0    0  0.50619721167E+02 -0.33764145494E+02 -0.13303600064E+03  0.14629063934E+03  0.00000000000E+00 0. -1.
        -14    1    6    6    0    0 -0.47332456040E+01  0.56173071412E+00  0.98757946222E+01  0.10965877747E+02  0.00000000000E+00 0.  1.
</event>
<event>
12    1  0.9246030E-003  0.1966717E+03  0.7818608E-02  0.1152669E+00
         21   -1    0    0  501  502  0.00000000000E+00  0.00000000000E+00  0.28126673118E+03  0.28126673118E+03  0.00000000000E+00 0. -1.
         21   -1    0    0  502  503 -0.00000000000E+00 -0.00000000000E+00 -0.13797987269E+03  0.13797987269E+03  0.00000000000E+00 0.  1.
          6    2    1    2  501    0  0.47007457840E+02  0.80945101792E+02  0.87231100825E+02  0.21514880512E+03  0.17296801091E+03 0.  0.
         24    2    3    3    0    0  0.10189118055E+02 -0.16516773744E+02  0.47862248591E+01  0.82206505981E+02  0.79739449054E+02 0.  0.
         -6    2    1    2    0  503 -0.47007457840E+02 -0.80945101792E+02  0.56055757671E+02  0.20409779875E+03  0.17248725428E+03 0.  0.
        -24    2    5    5    0    0  0.26722810813E+02 -0.87104430932E+02  0.23314118475E+02  0.12305339865E+03  0.79355530951E+02 0.  0.
          5    1    3    3  501    0  0.36818339785E+02  0.97461875536E+02  0.82444875966E+02  0.13294229914E+03  0.47000000000E+01 0. -1.
        -13    1    4    4    0    0  0.14222837834E+02  0.30724720036E+02 -0.36331305495E+01  0.34051390206E+02  0.00000000000E+00 0.  1.
         14    1    4    4    0    0 -0.40337197792E+01 -0.47241493780E+02  0.84193554086E+01  0.48155115775E+02  0.00000000000E+00 0. -1.
         -5    1    5    5    0  503 -0.73730268653E+02  0.61593291401E+01  0.32741639195E+02  0.81044400105E+02  0.47000000000E+01 0.  1.
         11    1    6    6    0    0  0.60147383749E+01 -0.34489654876E+02  0.49589892089E+02  0.60703136398E+02  0.00000000000E+00 0. -1.
        -12    1    6    6    0    0  0.20708072438E+02 -0.52614776056E+02 -0.26275773613E+02  0.62350262249E+02  0.00000000000E+00 0.  1.
</event>
<event>
12    1  0.9246030E-003  0.1802655E+03  0.7818608E-02  0.1167852E+00
         21   -1    0    0  503  502  0.00000000000E+00  0.00000000000E+00  0.15200291991E+03  0.15200291991E+03  0.00000000000E+00 0. -1.
         21   -1    0    0  501  503 -0.00000000000E+00 -0.00000000000E+00 -0.22006271386E+03  0.22006271386E+03  0.00000000000E+00 0.  1.
          6    2    1    2  501    0 -0.39359447947E+01 -0.52697483512E+02 -0.68877620570E+02  0.19179827702E+03  0.17102612673E+03 0.  0.
         24    2    3    3    0    0  0.44689884952E+02 -0.41988610303E+02 -0.92102155310E+02  0.13665645716E+03  0.80199445498E+02 0.  0.
         -6    2    1    2    0  502  0.39359447947E+01  0.52697483512E+02  0.81782662070E+00  0.18026735675E+03  0.17234597367E+03 0.  0.
        -24    2    5    5    0    0  0.22536166162E+02  0.76069634197E+02 -0.46890665751E+02  0.12378359000E+03  0.82638820086E+02 0.  0.
          5    1    3    3  501    0 -0.48625829747E+02 -0.10708873209E+02  0.23224534740E+02  0.55141819864E+02  0.47000000000E+01 0. -1.
        -13    1    4    4    0    0  0.44512098470E+02 -0.62329602494E+02 -0.86544219280E+02  0.11556906224E+03  0.00000000000E+00 0.  1.
         14    1    4    4    0    0  0.17778648274E+00  0.20340992191E+02 -0.55579360298E+01  0.21087394914E+02  0.00000000000E+00 0. -1.
         -5    1    5    5    0  502 -0.18600221367E+02 -0.23372150686E+02  0.47708492372E+02  0.56483766756E+02  0.47000000000E+01 0.  1.
         11    1    6    6    0    0 -0.22754668746E+02 -0.17689392410E+01 -0.13390607853E+01  0.22862571587E+02  0.00000000000E+00 0. -1.
        -12    1    6    6    0    0  0.45290834908E+02  0.77838573438E+02 -0.45551604966E+02  0.10092101841E+03  0.00000000000E+00 0.  1.
</event>
<event>
12    1  0.9246030E-003  0.1696714E+03  0.7818608E-02  0.1179454E+00
         21   -1    0    0  503  502  0.00000000000E+00  0.00000000000E+00  0.15455688570E+03  0.15455688570E+03  0.00000000000E+00 0. -1.
         21   -1    0    0  501  503 -0.00000000000E+00 -0.00000000000E+00 -0.23347491995E+03  0.23347491995E+03  0.00000000000E+00 0. -1.
          6    2    1    2  501    0  0.25579270167E+02 -0.88754174396E+00 -0.13180210200E+03  0.21484921511E+03  0.16772985527E+03 0.  0.
         24    2    3    3    0    0 -0.16322897103E+02 -0.28093507486E+02 -0.14123155176E+02  0.86918058938E+02  0.79370040473E+02 0.  0.
         -6    2    1    2    0  502 -0.25579270167E+02  0.88754174396E+00  0.52884067747E+02  0.17318259055E+03  0.16291224096E+03 0.  0.
        -24    2    5    5    0    0 -0.59307654072E-01  0.47000234684E+02  0.72244526643E+02  0.11683930075E+03  0.78886785914E+02 0.  0.
          5    1    3    3  501    0  0.41902167270E+02  0.27205965743E+02 -0.11767894682E+03  0.12793115617E+03  0.47000000000E+01 0. -1.
        -11    1    4    4    0    0 -0.33196646794E+02  0.14997588450E+02 -0.17706149685E+02  0.40502503062E+02  0.00000000000E+00 0.  1.
         12    1    4    4    0    0  0.16873749690E+02 -0.43091095936E+02  0.35829945083E+01  0.46415555876E+02  0.00000000000E+00 0. -1.
         -5    1    5    5    0  502 -0.25519962513E+02 -0.46112692940E+02 -0.19360458896E+02  0.56343289800E+02  0.47000000000E+01 0.  1.
         13    1    6    6    0    0 -0.30121812149E+01  0.63332821994E+02  0.27491885389E+02  0.69108055534E+02  0.00000000000E+00 0. -1.
        -14    1    6    6    0    0  0.29528735608E+01 -0.16332587311E+02  0.44752641254E+02  0.47731245215E+02  0.00000000000E+00 0.  1.
</event>
<event>
12    1  0.9246030E-003  0.1983013E+03  0.7818608E-02  0.1151379E+00
         21   -1    0    0  503  502  0.00000000000E+00  0.00000000000E+00  0.10148298401E+04  0.10148298401E+04  0.00000000000E+00 0. -1.
         21   -1    0    0  501  503 -0.00000000000E+00 -0.00000000000E+00 -0.40963171359E+02  0.40963171359E+02  0.00000000000E+00 0.  1.
          6    2    1    2  501    0  0.96849511334E+02 -0.79252369666E+01  0.35818516911E+03  0.40896449673E+03  0.17179262786E+03 0.  0.
         24    2    3    3    0    0 -0.60146762644E+01  0.21986778712E+02  0.20989074094E+03  0.22596423116E+03  0.80536425690E+02 0.  0.
         -6    2    1    2    0  502 -0.96849511334E+02  0.79252369666E+01  0.61568149966E+03  0.64682851475E+03  0.17286058329E+03 0.  0.
        -24    2    5    5    0    0 -0.70545410059E+02  0.72881866209E+02  0.36366079849E+03  0.38520322308E+03  0.76445571565E+02 0.  0.
          5    1    3    3  501    0  0.10286418760E+03 -0.29912015678E+02  0.14829442817E+03  0.18300026557E+03  0.47000000000E+01 0. -1.
        -13    1    4    4    0    0 -0.33506402940E+02  0.32040731100E+02  0.76930062302E+02  0.89819385287E+02  0.00000000000E+00 0.  1.
         14    1    4    4    0    0  0.27491726676E+02 -0.10053952389E+02  0.13296067864E+03  0.13614484587E+03  0.00000000000E+00 0. -1.
         -5    1    5    5    0  502 -0.26304101275E+02 -0.64956629242E+02  0.25202070116E+03  0.26162529167E+03  0.47000000000E+01 0.  1.
         13    1    6    6    0    0  0.13224487315E+02  0.29940838731E+02  0.10214305556E+03  0.10725924057E+03  0.00000000000E+00 0. -1.
        -14    1    6    6    0    0 -0.83769897374E+02  0.42941027478E+02  0.26151774293E+03  0.27794398251E+03  0.00000000000E+00 0.  1.
</event>
<event>
12    1  0.9246030E-003  0.2428105E+03  0.7818608E-02  0.1119089E+00
         21   -1    0    0  503  502  0.00000000000E+00  0.00000000000E+00  0.60034592238E+02  0.60034592238E+02  0.00000000000E+00 0.  1.
         21   -1    0    0  501  503 -0.00000000000E+00 -0.00000000000E+00 -0.10444506062E+04  0.10444506062E+04  0.00000000000E+00 0. -1.
          6    2    1    2  501    0 -0.18069159599E+02  0.16040873083E+03 -0.66101507629E+03  0.70420017388E+03  0.18138218866E+03 0.  0.
         24    2    3    3    0    0 -0.30403075368E+02  0.18874069178E+03 -0.61083389759E+03  0.64508108910E+03  0.80400033271E+02 0.  0.
         -6    2    1    2    0  502  0.18069159599E+02 -0.16040873083E+03 -0.32340093766E+03  0.40028502454E+03  0.17199557825E+03 0.  0.
        -24    2    5    5    0    0  0.23400128466E+02 -0.78376684140E+02 -0.28937700012E+03  0.31119296969E+03  0.80072127210E+02 0.  0.
          5    1    3    3  501    0  0.12333915769E+02 -0.28331960950E+02 -0.50181178696E+02  0.59119084776E+02  0.47000000000E+01 0. -1.
        -13    1    4    4    0    0 -0.53152907969E+02  0.10907753901E+03 -0.41673225454E+03  0.43403791668E+03  0.00000000000E+00 0.  1.
         14    1    4    4    0    0  0.22749832601E+02  0.79663152763E+02 -0.19410164305E+03  0.21104317242E+03  0.00000000000E+00 0. -1.
         -5    1    5    5    0  502 -0.53309688678E+01 -0.82032046687E+02 -0.34023937546E+02  0.89092054858E+02  0.47000000000E+01 0.  1.
         13    1    6    6    0    0  0.10195863357E+02 -0.89761802922E+02 -0.27186562376E+03  0.28648220587E+03  0.00000000000E+00 0. -1.
        -14    1    6    6    0    0  0.13204265109E+02  0.11385118782E+02 -0.17511376354E+02  0.24710763820E+02  0.00000000000E+00 0.  1.
</event>
<event>
12    1  0.9246030E-003  0.2248527E+03  0.7818608E-02  0.1130813E+00
         21   -1    0    0  503  502  0.00000000000E+00  0.00000000000E+00  0.32246551925E+03  0.32246551925E+03  0.00000000000E+00 0.  1.
         21   -1    0    0  501  503 -0.00000000000E+00 -0.00000000000E+00 -0.23107472831E+03  0.23107472831E+03  0.00000000000E+00 0.  1.
          6    2    1    2  501    0 -0.10498345452E+03 -0.95611007942E+02 -0.11340317217E+03  0.24940323173E+03  0.17081774491E+03 0.  0.
         24    2    3    3    0    0 -0.10468188090E+03 -0.45503303933E+02 -0.13574604977E+03  0.19433811458E+03  0.79444734828E+02 0.  0.
         -6    2    1    2    0  502  0.10498345452E+03  0.95611007942E+02  0.20479396311E+03  0.30413701583E+03  0.17434381695E+03 0.  0.
        -24    2    5    5    0    0  0.29723815587E+02  0.72400925162E+01  0.15638807461E+03  0.17828530950E+03  0.79953095933E+02 0.  0.
          5    1    3    3  501    0 -0.30157362136E+00 -0.50107704009E+02  0.22342877599E+02  0.55065117153E+02  0.47000000000E+01 0. -1.
        -11    1    4    4    0    0 -0.22461398633E+02 -0.51554369181E+01 -0.88168689690E+02  0.91130734662E+02  0.00000000000E+00 0.  1.
         12    1    4    4    0    0 -0.82220482267E+02 -0.40347867015E+02 -0.47577360080E+02  0.10320737992E+03  0.00000000000E+00 0. -1.
         -5    1    5    5    0  502  0.75259638935E+02  0.88370915425E+02  0.48405888500E+02  0.12585170633E+03  0.47000000000E+01 0.  1.
         13    1    6    6    0    0 -0.19775658776E+02 -0.18289846194E+02  0.30899644827E+02  0.40992477411E+02  0.00000000000E+00 0. -1.
        -14    1    6    6    0    0  0.49499474363E+02  0.25529938710E+02  0.12548842978E+03  0.13729283209E+03  0.00000000000E+00 0.  1.
</event>
<event>
12    1  0.9246030E-003  0.4825292E+03  0.7818608E-02  0.1018458E+00
         21   -1    0    0  501  502  0.00000000000E+00  0.00000000000E+00  0.58468237768E+03  0.58468237768E+03  0.00000000000E+00 0.  1.
         21   -1    0    0  502  503 -0.00000000000E+00 -0.00000000000E+00 -0.54776601467E+03  0.54776601467E+03  0.00000000000E+00 0.  1.
          6    2    1    2  501    0 -0.29941325767E+02  0.44974314236E+03  0.31449283768E+03  0.57596891835E+03  0.17224712732E+03 0.  0.
         24    2    3    3    0    0  0.37160511218E+01  0.15714537766E+03  0.58170699198E+02  0.18549561632E+03  0.79475245658E+02 0.  0.
         -6    2    1    2    0  503  0.29941325767E+02 -0.44974314236E+03 -0.27757647468E+03  0.55647947400E+03  0.17162554766E+03 0.  0.
        -24    2    5    5    0    0  0.30326011885E+02 -0.33508751565E+03 -0.27466851258E+03  0.44169007135E+03  0.80274635979E+02 0.  0.
          5    1    3    3  501    0 -0.33657376889E+02  0.29259776470E+03  0.25632213848E+03  0.39047330203E+03  0.47000000000E+01 0. -1.
        -13    1    4    4    0    0 -0.86599629928E+01  0.16207401479E+03  0.57385026031E+02  0.17215116160E+03  0.00000000000E+00 0.  1.
         14    1    4    4    0    0  0.12376014115E+02 -0.49286371291E+01  0.78567316723E+00  0.13344454715E+02  0.00000000000E+00 0. -1.
         -5    1    5    5    0  503 -0.38468611829E+00 -0.11465562670E+03 -0.29079620932E+01  0.11478940265E+03  0.47000000000E+01 0.  1.
         11    1    6    6    0    0 -0.15143762558E+02 -0.48472293035E+02 -0.70413236447E+02  0.86815439891E+02  0.00000000000E+00 0. -1.
        -12    1    6    6    0    0  0.45469774443E+02 -0.28661522262E+03 -0.20425527614E+03  0.35487463146E+03  0.00000000000E+00 0.  1.
</event>
<event>
12    1  0.9246030E-003  0.2366259E+03  0.7818608E-02  0.1123122E+00
         21   -1    0    0  501  502  0.00000000000E+00  0.00000000000E+00  0.24346328761E+03  0.24346328761E+03  0.00000000000E+00 0. -1.
         21   -1    0    0  502  503 -0.00000000000E+00 -0.00000000000E+00 -0.22445884391E+03  0.22445884391E+03  0.00000000000E+00 0. -1.
          6    2    1    2  501    0  0.10272371088E+03  0.11364151522E+03  0.19872169806E+02  0.23745892114E+03  0.18034766795E+03 0.  0.
         24    2    3    3    0    0  0.10167284170E+02  0.30753833988E+01  0.40602601676E+02  0.91707754974E+02  0.81540845035E+02 0.  0.
         -6    2    1    2    0  503 -0.10272371088E+03 -0.11364151522E+03 -0.86772611336E+00  0.23046321038E+03  0.17218009069E+03 0.  0.
        -24    2    5    5    0    0  0.30410382683E+01 -0.71387990278E+02  0.21195967606E+02  0.11435791716E+03  0.86735062719E+02 0.  0.
          5    1    3    3  501    0  0.92556426714E+02  0.11056613183E+03 -0.20730431871E+02  0.14575116616E+03  0.47000000000E+01 0. -1.
        -11    1    4    4    0    0  0.17878440970E+02 -0.25412312450E+02  0.51583170305E+02  0.60218333871E+02  0.00000000000E+00 0.  1.
         12    1    4    4    0    0 -0.77111567998E+01  0.28487695849E+02 -0.10980568628E+02  0.31489421102E+02  0.00000000000E+00 0. -1.
         -5    1    5    5    0  503 -0.10576474915E+03 -0.42253524946E+02 -0.22063693719E+02  0.11610529322E+03  0.47000000000E+01 0.  1.
         13    1    6    6    0    0 -0.35866965064E+02 -0.47679755915E+02  0.31754858603E+02  0.67588233827E+02  0.00000000000E+00 0. -1.
        -14    1    6    6    0    0  0.38908003332E+02 -0.23708234363E+02 -0.10558890998E+02  0.46769683333E+02  0.00000000000E+00 0.  1.
</event>
<event>
12    1  0.9246030E-003  0.1880136E+03  0.7818608E-02  0.1160341E+00
         21   -1    0    0  501  502  0.00000000000E+00  0.00000000000E+00  0.49187251191E+03  0.49187251191E+03  0.00000000000E+00 0. -1.
         21   -1    0    0  502  503 -0.00000000000E+00 -0.00000000000E+00 -0.75618262978E+02  0.75618262978E+02  0.00000000000E+00 0. -1.
          6    2    1    2  501    0  0.69710224936E+02  0.22539528323E+02  0.27255412377E+03  0.33111157898E+03  0.17315190312E+03 0.  0.
         24    2    3    3    0    0  0.38513344106E+02 -0.16631898946E+00  0.43563624329E+02  0.98845482209E+02  0.79933313782E+02 0.  0.
         -6    2    1    2    0  503 -0.69710224936E+02 -0.22539528323E+02  0.14370012516E+03  0.23637919590E+03  0.17279424900E+03 0.  0.
        -24    2    5    5    0    0 -0.11165708933E+02 -0.51926981661E+02  0.19958806937E+02  0.96289629545E+02  0.77796235790E+02 0.  0.
          5    1    3    3  501    0  0.31196880831E+02  0.22705847312E+02  0.22899049944E+03  0.23226609677E+03  0.47000000000E+01 0. -1.
        -13    1    4    4    0    0 -0.24047583910E+02  0.11597277474E+01  0.29729065644E+01  0.24258388937E+02  0.00000000000E+00 0.  1.
         14    1    4    4    0    0  0.62560928016E+02 -0.13260467369E+01  0.40590717765E+02  0.74587093272E+02  0.00000000000E+00 0. -1.
         -5    1    5    5    0  503 -0.58544516003E+02  0.29387453338E+02  0.12374131822E+03  0.14008956636E+03  0.47000000000E+01 0.  1.
         11    1    6    6    0    0 -0.23545207003E+02  0.10496216212E+02 -0.76938655734E+01  0.26902470055E+02  0.00000000000E+00 0. -1.
        -12    1    6    6    0    0  0.12379498070E+02 -0.62423197872E+02  0.27652672511E+02  0.69387159490E+02  0.00000000000E+00 0.  1.
</event>
<event>
12    1  0.9246030E-003  0.1824905E+03  0.7818608E-02  0.1166304E+00
         21   -1    0    0  503  502  0.00000000000E+00  0.00000000000E+00  0.28508271102E+03  0.28508271102E+03  0.00000000000E+00 0. -1.
         21   -1    0    0  501  503 -0.00000000000E+00 -0.00000000000E+00 -0.16760453361E+03  0.16760453361E+03  0.00000000000E+00 0. -1.
          6    2    1    2  501    0 -0.50958610355E+02  0.24632297565E+02 -0.68299593667E+02  0.19485277232E+03  0.17349132063E+03 0.  0.
         24    2    3    3    0    0  0.16602657832E+02  0.58072119086E+02 -0.12494106245E+02  0.10094276727E+03  0.79908199272E+02 0.  0.
         -6    2    1    2    0  502  0.50958610355E+02 -0.24632297565E+02  0.18577777108E+03  0.25783447231E+03  0.16959276173E+03 0.  0.
        -24    2    5    5    0    0  0.38732300297E+02 -0.46643412428E+02  0.20319236271E+03  0.22686142215E+03  0.80642232036E+02 0.  0.
          5    1    3    3  501    0 -0.67561268187E+02 -0.33439821520E+02 -0.55805487423E+02  0.93910005052E+02  0.47000000000E+01 0. -1.
        -11    1    4    4    0    0 -0.12024907871E+02  0.13606906578E+02  0.28662870592E+02  0.33930907246E+02  0.00000000000E+00 0.  1.
         12    1    4    4    0    0  0.28627565703E+02  0.44465212507E+02 -0.41156976837E+02  0.67011860023E+02  0.00000000000E+00 0. -1.
         -5    1    5    5    0  502  0.12226310059E+02  0.22011114862E+02 -0.17414591620E+02  0.30973050164E+02  0.47000000000E+01 0.  1.
         13    1    6    6    0    0 -0.16162969703E+02 -0.93528015948E+01  0.11491032005E+03  0.11641777416E+03  0.00000000000E+00 0. -1.
        -14    1    6    6    0    0  0.54895269999E+02 -0.37290610833E+02  0.88282042658E+02  0.11044364799E+03  0.00000000000E+00 0.  1.
</event>
<event>
12    1  0.9246030E-003  0.2181088E+03  0.7818608E-02  0.1136416E+00
         21   -1    0    0  503  502  0.00000000000E+00  0.00000000000E+00  0.88369945325E+02  0.88369945325E+02  0.00000000000E+00 0. -1.
         21   -1    0    0  501  503 -0.00000000000E+00 -0.00000000000E+00 -0.65683563371E+03  0.65683563371E+03  0.00000000000E+00 0.  1.
          6    2    1    2  501    0 -0.92894896913E+02 -0.83417868904E+02 -0.45483297175E+03  0.50442491553E+03  0.17883920289E+03 0.  0.
         24    2    3    3    0    0 -0.92127915896E+02 -0.26291128459E+02 -0.41811966405E+03  0.43635135461E+03  0.79997967997E+02 0.  0.
         -6    2    1    2    0  502  0.92894896913E+02  0.83417868904E+02 -0.11363271663E+03  0.24078066350E+03  0.17168264590E+03 0.  0.
        -24    2    5    5    0    0  0.89935734147E+02  0.37860579521E+02 -0.80281019075E+01  0.12563446117E+03  0.78725520995E+02 0.  0.
          5    1    3    3  501    0 -0.76698101628E+00 -0.57126740445E+02 -0.36713307708E+02  0.68073560922E+02  0.47000000000E+01 0. -1.
        -13    1    4    4    0    0 -0.42098962116E+02 -0.49426221682E+02 -0.28440724102E+03  0.29172376103E+03  0.00000000000E+00 0.  1.
         14    1    4    4    0    0 -0.50028953780E+02  0.23135093222E+02 -0.13371242302E+03  0.14462759358E+03  0.00000000000E+00 0. -1.
         -5    1    5    5    0  502  0.29591627659E+01  0.45557289384E+02 -0.10560461472E+03  0.11514620233E+03  0.47000000000E+01 0.  1.
         13    1    6    6    0    0  0.49053507267E+02  0.59625870981E+02  0.54366410958E+01  0.77401861294E+02  0.00000000000E+00 0. -1.
        -14    1    6    6    0    0  0.40882226879E+02 -0.21765291460E+02 -0.13464743003E+02  0.48232599879E+02  0.00000000000E+00 0.  1.
</event>
<event>
12    1  0.9246030E-003  0.2153193E+03  0.7818608E-02  0.1137720E+00
         21   -1    0    0  503  502  0.00000000000E+00  0.00000000000E+00  0.52273497084E+03  0.52273497084E+03  0.00000000000E+00 0. -1.
         21   -1    0    0  501  503 -0.00000000000E+00 -0.00000000000E+00 -0.92910763413E+02  0.92910763413E+02  0.00000000000E+00 0.  1.
          6    2    1    2  501    0  0.13503131745E+02  0.12797095772E+03  0.14380479666E+03  0.25763802484E+03  0.17070041510E+03 0.  0.
         24    2    3    3    0    0  0.58244056501E+02  0.27588550272E+02  0.54058116024E+02  0.11566994830E+03  0.79396214060E+02 0.  0.
         -6    2    1    2    0  502 -0.13503131745E+02 -0.12797095772E+03  0.28601941076E+03  0.35800770941E+03  0.17263694875E+03 0.  0.
        -24    2    5    5    0    0 -0.46865761282E+02 -0.16241456807E+02  0.16948207071E+03  0.19308473329E+03  0.78085577655E+02 0.  0.
          5    1    3    3  501    0 -0.44740924755E+02  0.10038240745E+03  0.89746680637E+02  0.14196807655E+03  0.47000000000E+01 0. -1.
        -13    1    4    4    0    0  0.15133512164E+02 -0.23213238342E+01 -0.19826229893E+02  0.25049772984E+02  0.00000000000E+00 0.  1.
         14    1    4    4    0    0  0.43110544336E+02  0.29909874106E+02  0.73884345917E+02  0.90620175312E+02  0.00000000000E+00 0. -1.
         -5    1    5    5    0  502  0.33362629537E+02 -0.11172950092E+03  0.11653734005E+03  0.16492297612E+03  0.47000000000E+01 0.  1.
         11    1    6    6    0    0  0.70403511524E+01 -0.20483074597E+00  0.11354285992E+03  0.11376110732E+03  0.00000000000E+00 0. -1.
        -12    1    6    6    0    0 -0.53906112435E+02 -0.16036626061E+02  0.55939210794E+02  0.79323625973E+02  0.00000000000E+00 0.  1.
</event>
<event>
12    1  0.9246030E-003  0.1849914E+03  0.7818608E-02  0.1163187E+00
         21   -1    0    0  503  502  0.00000000000E+00  0.00000000000E+00  0.86877233203E+03  0.86877233203E+03  0.00000000000E+00 0.  1.
         21   -1    0    0  501  503 -0.00000000000E+00 -0.00000000000E+00 -0.48526491700E+02  0.48526491700E+02  0.00000000000E+00 0.  1.
          6    2    1    2  501    0 -0.50468396329E+02 -0.43333945552E+02  0.20935132054E+03  0.27900896131E+03  0.17202655380E+03 0.  0.
         24    2    3    3    0    0 -0.84537104113E+02 -0.90245105532E+01  0.17967620512E+03  0.22208342526E+03  0.99043148794E+02 0.  0.
         -6    2    1    2    0  502  0.50468396329E+02  0.43333945552E+02  0.61089451979E+03  0.63828986242E+03  0.17261791418E+03 0.  0.
        -24    2    5    5    0    0  0.76483050195E+02  0.58358034663E+02  0.28768539367E+03  0.31365358182E+03  0.79751905844E+02 0.  0.
          5    1    3    3  501    0  0.34068707784E+02 -0.34309434999E+02  0.29675115416E+02  0.56925536054E+02  0.47000000000E+01 0. -1.
        -11    1    4    4    0    0  0.21008944678E+02 -0.13047619474E+02  0.29735789034E+02  0.38676003929E+02  0.00000000000E+00 0.  1.
         12    1    4    4    0    0 -0.10554604879E+03  0.40231089206E+01  0.14994041609E+03  0.18340742133E+03  0.00000000000E+00 0. -1.
         -5    1    5    5    0  502 -0.26014653866E+02 -0.15024089111E+02  0.32320912613E+03  0.32463628060E+03  0.47000000000E+01 0.  1.
         13    1    6    6    0    0  0.25394637401E+02 -0.14854349572E+02  0.35349061628E+02  0.45990167079E+02  0.00000000000E+00 0. -1.
        -14    1    6    6    0    0  0.51088412794E+02  0.73212384235E+02  0.25233633204E+03  0.26766341474E+03  0.00000000000E+00 0.  1.
</event>
<event>
12    1  0.9246030E-003  0.1767902E+03  0.7818608E-02  0.1171055E+00
         21   -1    0    0  503  502  0.00000000000E+00  0.00000000000E+00  0.88023280079E+02  0.88023280079E+02  0.00000000000E+00 0. -1.
         21   -1    0    0  501  503 -0.00000000000E+00 -0.00000000000E+00 -0.35981655001E+03  0.35981655001E+03  0.00000000000E+00 0. -1.
          6    2    1    2  501    0  0.19579552044E+02  0.39385806343E+02 -0.10772725550E+03  0.20665021111E+03  0.17077630859E+03 0.  0.
         24    2    3    3    0    0  0.51857119716E+02  0.96933419637E+01 -0.12542322001E+03  0.15912420796E+03  0.82500955727E+02 0.  0.
         -6    2    1    2    0  502 -0.19579552044E+02 -0.39385806343E+02 -0.16406601443E+03  0.24118961897E+03  0.17123134821E+03 0.  0.
        -24    2    5    5    0    0 -0.19609293468E+02 -0.85784295483E+02 -0.73492596996E+02  0.13931491836E+03  0.79145530023E+02 0.  0.
          5    1    3    3  501    0 -0.32277567673E+02  0.29692464379E+02  0.17695964517E+02  0.47526003156E+02  0.47000000000E+01 0. -1.
        -13    1    4    4    0    0 -0.19773673792E+02 -0.38454209240E+01 -0.51514436606E+02  0.55312951613E+02  0.00000000000E+00 0.  1.
         14    1    4    4    0    0  0.71630793508E+02  0.13538762888E+02 -0.73908783409E+02  0.10381125635E+03  0.00000000000E+00 0. -1.
         -5    1    5    5    0  502  0.29741424570E-01  0.46398489140E+02 -0.90573417434E+02  0.10187470061E+03  0.47000000000E+01 0.  1.
         13    1    6    6    0    0 -0.32393811237E+02 -0.69041619739E+02 -0.85898247211E+02  0.11486780722E+03  0.00000000000E+00 0. -1.
        -14    1    6    6    0    0  0.12784517768E+02 -0.16742675744E+02  0.12405650214E+02  0.24447111136E+02  0.00000000000E+00 0.  1.
</event>
<event>
12    1  0.9246030E-003  0.2589565E+03  0.7818608E-02  0.1107852E+00
         21   -1    0    0  503  502  0.00000000000E+00  0.00000000000E+00  0.39411381725E+03  0.39411381725E+03  0.00000000000E+00 0. -1.
         21   -1    0    0  501  503 -0.00000000000E+00 -0.00000000000E+00 -0.21390809898E+03  0.21390809898E+03  0.00000000000E+00 0.  1.
          6    2    1    2  501    0  0.78141686259E+02  0.17679487153E+03 -0.48015882634E+02  0.26285011271E+03  0.17152873531E+03 0.  0.
         24    2    3    3    0    0  0.11612572664E+03  0.15293002481E+03 -0.15920202942E+02  0.20749181715E+03  0.76984572793E+02 0.  0.
         -6    2    1    2    0  502 -0.78141686259E+02 -0.17679487153E+03  0.22822160091E+03  0.34517180352E+03  0.17232505650E+03 0.  0.
        -24    2    5    5    0    0 -0.11203783613E+03 -0.10491388643E+03  0.19095748272E+03  0.25727112378E+03  0.78512869232E+02 0.  0.
          5    1    3    3  501    0 -0.37984040378E+02  0.23864846723E+02 -0.32095679692E+02  0.55358295561E+02  0.47000000000E+01 0. -1.
        -13    1    4    4    0    0  0.61802880901E+02  0.87078052272E+02 -0.46968543011E+02  0.11665430685E+03  0.00000000000E+00 0.  1.
         14    1    4    4    0    0  0.54322845736E+02  0.65851972533E+02  0.31048340069E+02  0.90837510294E+02  0.00000000000E+00 0. -1.
         -5    1    5    5    0  502  0.33896149869E+02 -0.71880985102E+02  0.37264118187E+02  0.87900679743E+02  0.47000000000E+01 0.  1.
         13    1    6    6    0    0 -0.10077781895E+03 -0.10373279683E+03  0.12747282708E+03  0.19278481158E+03  0.00000000000E+00 0. -1.
        -14    1    6    6    0    0 -0.11260017173E+02 -0.11810895927E+01  0.63484655641E+02  0.64486312200E+02  0.00000000000E+00 0.  1.
</event>
<event>
12    1  0.9246030E-003  0.1779298E+03  0.7818608E-02  0.1170049E+00
         21   -1    0    0  501  502  0.00000000000E+00  0.00000000000E+00  0.13325068661E+04  0.13325068661E+04  0.00000000000E+00 0. -1.
         21   -1    0    0  502  503 -0.00000000000E+00 -0.00000000000E+00 -0.16248474105E+03  0.16248474105E+03  0.00000000000E+00 0. -1.
          6    2    1    2  501    0 -0.19312676888E+02  0.41697609032E+02  0.12762248847E+04  0.12885685739E+04  0.17189340648E+03 0.  0.
         24    2    3    3    0    0 -0.66718439913E+02  0.22131840882E+02  0.10941320919E+04  0.10993332684E+04  0.80420345004E+02 0.  0.
         -6    2    1    2    0  503  0.19312676888E+02 -0.41697609032E+02 -0.10620275972E+03  0.20642303320E+03  0.17093791965E+03 0.  0.
        -24    2    5    5    0    0  0.26847123581E+02  0.18270768597E+02 -0.50361024301E+01  0.88483401397E+02  0.82154494492E+02 0.  0.
          5    1    3    3  501    0  0.47405763024E+02  0.19565768150E+02  0.18209279284E+03  0.18923530553E+03  0.47000000000E+01 0. -1.
        -13    1    4    4    0    0 -0.77426127254E+02  0.20249981895E+01  0.64668852120E+03  0.65131017898E+03  0.00000000000E+00 0.  1.
         14    1    4    4    0    0  0.10707687341E+02  0.20106842693E+02  0.44744357070E+03  0.44802308942E+03  0.00000000000E+00 0. -1.
         -5    1    5    5    0  503 -0.75344466923E+01 -0.59968377630E+02 -0.10116665729E+03  0.11793963180E+03  0.47000000000E+01 0.  1.
         13    1    6    6    0    0  0.47325728285E+02  0.15193796205E+02 -0.28413447205E+02  0.57252947373E+02  0.00000000000E+00 0. -1.
        -14    1    6    6    0    0 -0.20478604704E+02  0.30769723919E+01  0.23377344775E+02  0.31230454023E+02  0.00000000000E+00 0.  1.
</event>
<event>
12    1  0.9246030E-003  0.1836373E+03  0.7818608E-02  0.1166219E+00
         21   -1    0    0  501  502  0.00000000000E+00  0.00000000000E+00  0.16909519583E+02  0.16909519583E+02  0.00000000000E+00 0.  1.
         21   -1    0    0  502  503 -0.00000000000E+00 -0.00000000000E+00 -0.19189564017E+04  0.19189564017E+04  0.00000000000E+00 0.  1.
          6    2    1    2  501    0 -0.25704444568E+02 -0.61934432661E+02 -0.99607120538E+03  0.10114663396E+04  0.16251066890E+03 0.  0.
         24    2    3    3    0    0  0.18264106167E+02 -0.62539050713E+01 -0.77437061844E+03  0.77864281230E+03  0.79133340288E+02 0.  0.
         -6    2    1    2    0  503  0.25704444568E+02  0.61934432661E+02 -0.90597567670E+03  0.92439958167E+03  0.17095633181E+03 0.  0.
        -24    2    5    5    0    0 -0.44808157454E+02  0.27524896365E+01 -0.42028169733E+03  0.43003609088E+03  0.79240060406E+02 0.  0.
          5    1    3    3  501    0 -0.43968550735E+02 -0.55680527589E+02 -0.22170058694E+03  0.23282352728E+03  0.47000000000E+01 0. -1.
        -13    1    4    4    0    0 -0.55673419064E+01 -0.28727780669E+02 -0.62669539698E+03  0.62737819636E+03  0.00000000000E+00 0.  1.
         14    1    4    4    0    0  0.23831448073E+02  0.22473875598E+02 -0.14767522146E+03  0.15126461594E+03  0.00000000000E+00 0. -1.
         -5    1    5    5    0  503  0.70512602022E+02  0.59181943024E+02 -0.48569397937E+03  0.49436349079E+03  0.47000000000E+01 0.  1.
         13    1    6    6    0    0 -0.58320440292E+02  0.96566462368E+01 -0.40179065656E+03  0.40611606256E+03  0.00000000000E+00 0. -1.
        -14    1    6    6    0    0  0.13512282838E+02 -0.69041566003E+01 -0.18491040772E+02  0.23920028317E+02  0.00000000000E+00 0.  1.
</event>
<event>
12    1  0.9246030E-003  0.2117436E+03  0.7818608E-02  0.1142055E+00
         21   -1    0    0  501  502  0.00000000000E+00  0.00000000000E+00  0.51821372935E+02  0.51821372935E+02  0.00000000000E+00 0. -1.
         21   -1    0    0  502  503 -0.00000000000E+00 -0.00000000000E+00 -0.82798195882E+03  0.82798195882E+03  0.00000000000E+00 0.  1.
          6    2    1    2  501    0  0.10651806046E+03 -0.50355871355E+00 -0.38818007149E+03  0.44217546034E+03  0.18300005205E+03 0.  0.
         24    2    3    3    0    0  0.19287095361E+02 -0.55369407473E+02 -0.25652723160E+03  0.27492097495E+03  0.79608784592E+02 0.  0.
         -6    2    1    2    0  503 -0.10651806046E+03  0.50355871355E+00 -0.38798051439E+03  0.43762787141E+03  0.17217120407E+03 0.  0.
        -24    2    5    5    0    0  0.90211844855E+01  0.25289937524E+02 -0.15028952661E+03  0.17214194453E+03  0.79529519988E+02 0.  0.
          5    1    3    3  501    0  0.87230965100E+02  0.54865848759E+02 -0.13165283989E+03  0.16725448539E+03  0.47000000000E+01 0. -1.
        -13    1    4    4    0    0 -0.19672499704E+02 -0.50531922208E+01 -0.14581662266E+03  0.14722441863E+03  0.00000000000E+00 0.  1.
         14    1    4    4    0    0  0.38959595064E+02 -0.50316215252E+02 -0.11071060894E+03  0.12769655632E+03  0.00000000000E+00 0. -1.
         -5    1    5    5    0  503 -0.11553924495E+03 -0.24786378810E+02 -0.23769098778E+03  0.26548592687E+03  0.47000000000E+01 0.  1.
         13    1    6    6    0    0  0.12035935521E+02  0.44440534077E+02 -0.42616154935E+02  0.62737241527E+02  0.00000000000E+00 0. -1.
        -14    1    6    6    0    0 -0.30147510353E+01 -0.19150596553E+02 -0.10767337168E+03  0.10940470301E+03  0.00000000000E+00 0.  1.
</event>
<event>
12    1  0.9246030E-003  0.2652274E+03  0.7818608E-02  0.1104075E+00
         21   -1    0    0  501  502  0.00000000000E+00  0.00000000000E+00  0.71912134804E+03  0.71912134804E+03  0.00000000000E+00 0. -1.
         21   -1    0    0  502  503 -0.00000000000E+00 -0.00000000000E+00 -0.10285685161E+03  0.10285685161E+03  0.00000000000E+00 0.  1.
          6    2    1    2  501    0 -0.16796637142E+02 -0.20120787475E+03  0.39991598970E+03  0.47987330753E+03  0.17198504755E+03 0.  0.
         24    2    3    3    0    0  0.34941230683E+02 -0.18374257378E+03  0.26909183982E+03  0.33803222781E+03  0.82904437511E+02 0.  0.
         -6    2    1    2    0  503  0.16796637142E+02  0.20120787475E+03  0.21634850674E+03  0.34210489212E+03  0.17164598732E+03 0.  0.
        -24    2    5    5    0    0  0.46685106508E+02  0.42249194101E+02  0.82309481032E+02  0.13198651318E+03  0.81737968059E+02 0.  0.
          5    1    3    3  501    0 -0.51737867826E+02 -0.17465300976E+02  0.13082414988E+03  0.14184107972E+03  0.47000000000E+01 0. -1.
        -11    1    4    4    0    0 -0.73734076782E+01 -0.67291552314E+02  0.42941774122E+02  0.80165554438E+02  0.00000000000E+00 0.  1.
         12    1    4    4    0    0  0.42314638361E+02 -0.11645102146E+03  0.22615006570E+03  0.25786667337E+03  0.00000000000E+00 0. -1.
         -5    1    5    5    0  503 -0.29888469365E+02  0.15895868065E+03  0.13403902571E+03  0.21011837894E+03  0.47000000000E+01 0.  1.
         13    1    6    6    0    0 -0.20011174551E+02 -0.45912515968E+01  0.25015834620E+02  0.32362303377E+02  0.00000000000E+00 0. -1.
        -14    1    6    6    0    0  0.66696281058E+02  0.46840445698E+02  0.57293646412E+02  0.99624209805E+02  0.00000000000E+00 0.  1.
</event>
<event>
12    1  0.9246030E-003  0.2427159E+03  0.7818608E-02  0.1118061E+00
         21   -1    0    0  501  502  0.00000000000E+00  0.00000000000E+00  0.12376259869E+03  0.12376259869E+03  0.00000000000E+00 0.  1.
         21   -1    0    0  502  503 -0.00000000000E+00 -0.00000000000E+00 -0.47913635651E+03  0.47913635651E+03  0.00000000000E+00 0.  1.
          6    2    1    2  501    0  0.32114195748E+02 -0.16897392897E+03 -0.20475257966E+03  0.31724578636E+03  0.17069786128E+03 0.  0.
         24    2    3    3    0    0  0.40292751153E+02 -0.84195278306E+02 -0.36484451747E+02  0.12859117802E+03  0.80574345547E+02 0.  0.
         -6    2    1    2    0  503 -0.32114195748E+02  0.16897392897E+03 -0.15062117816E+03  0.28565316884E+03  0.17125268849E+03 0.  0.
        -24    2    5    5    0    0 -0.83852122679E+02  0.12437446015E+03 -0.13040281890E+03  0.21426130829E+03  0.80017674516E+02 0.  0.
          5    1    3    3  501    0 -0.81785554044E+01 -0.84778650661E+02 -0.16826812791E+03  0.18865460834E+03  0.47000000000E+01 0. -1.
        -11    1    4    4    0    0 -0.12827858889E+02 -0.56086413042E+02 -0.37153841515E+02  0.68488302877E+02  0.00000000000E+00 0.  1.
         12    1    4    4    0    0  0.53120610041E+02 -0.28108865264E+02  0.66938976820E+00  0.60102875141E+02  0.00000000000E+00 0. -1.
         -5    1    5    5    0  503  0.51737926930E+02  0.44599468817E+02 -0.20218359261E+02  0.71391860551E+02  0.47000000000E+01 0.  1.
         11    1    6    6    0    0 -0.30045780822E+02  0.71082188934E+02 -0.18865683332E+02  0.79443945877E+02  0.00000000000E+00 0. -1.
        -12    1    6    6    0    0 -0.53806341857E+02  0.53292271216E+02 -0.11153713557E+03  0.13481736241E+03  0.00000000000E+00 0.  1.
</event>
<event>
12    1  0.9246030E-003  0.1837329E+03  0.7818608E-02  0.1164553E+00
         21   -1    0    0  501  502  0.00000000000E+00  0.00000000000E+00  0.23136508857E+03  0.23136508857E+03  0.00000000000E+00 0.  1.
         21   -1    0    0  502  503 -0.00000000000E+00 -0.00000000000E+00 -0.19469011067E+03  0.19469011067E+03  0.00000000000E+00 0.  1.
          6    2    1    2  501    0  0.26142887529E+02 -0.55297553270E+02  0.12606909929E+03  0.22172929984E+03  0.17184060826E+03 0.  0.
         24    2    3    3    0    0 -0.19722815559E+02  0.25726025224E+02  0.40325261309E+02  0.95069997998E+02  0.79758134332E+02 0.  0.
         -6    2    1    2    0  503 -0.26142887529E+02  0.55297553270E+02 -0.89394121396E+02  0.20432589940E+03  0.17325268904E+03 0.  0.
        -24    2    5    5    0    0 -0.12541071288E+02  0.70145176989E+01 -0.11462832979E+03  0.14797772993E+03  0.92473091422E+02 0.  0.
          5    1    3    3  501    0  0.45865703089E+02 -0.81023578495E+02  0.85743837983E+02  0.12665930185E+03  0.47000000000E+01 0. -1.
        -13    1    4    4    0    0 -0.21231621915E+02 -0.24914750275E+02  0.27640264843E+02  0.42842861611E+02  0.00000000000E+00 0.  1.
         14    1    4    4    0    0  0.15088063554E+01  0.50640775500E+02  0.12684996467E+02  0.52227136387E+02  0.00000000000E+00 0. -1.
         -5    1    5    5    0  503 -0.13601816241E+02  0.48283035571E+02  0.25234208395E+02  0.56348169468E+02  0.47000000000E+01 0.  1.
         11    1    6    6    0    0 -0.28263702506E+02  0.28408854674E+02 -0.11796822207E+02  0.41773974163E+02  0.00000000000E+00 0. -1.
        -12    1    6    6    0    0  0.15722631217E+02 -0.21394336975E+02 -0.10283150758E+03  0.10620375577E+03  0.00000000000E+00 0.  1.
</event>
<event>
12    1  0.9246030E-003  0.1836907E+03  0.7818608E-02  0.1164712E+00
         21   -1    0    0  503  502  0.00000000000E+00  0.00000000000E+00  0.11000577606E+04  0.11000577606E+04  0.00000000000E+00 0.  1.
         21   -1    0    0  501  503 -0.00000000000E+00 -0.00000000000E+00 -0.38788293854E+02  0.38788293854E+02  0.00000000000E+00 0. -1.
          6    2    1    2  501    0  0.31350637608E+02  0.60884246314E+02  0.26741645441E+03  0.32442844682E+03  0.17044794833E+03 0.  0.
         24    2    3    3    0    0  0.11209883694E+02 -0.52233399739E+01  0.46210366353E+02  0.92630935346E+02  0.79323057503E+02 0.  0.
         -6    2    1    2    0  502 -0.31350637608E+02 -0.60884246314E+02  0.79385301229E+03  0.81441760758E+03  0.16847456929E+03 0.  0.
        -24    2    5    5    0    0 -0.64580171762E+02  0.96840447484E+01  0.48780412323E+03  0.49855039159E+03  0.79594290064E+02 0.  0.
          5    1    3    3  501    0  0.20140753914E+02  0.66107586288E+02  0.22120608806E+03  0.23179751148E+03  0.47000000000E+01 0. -1.
        -11    1    4    4    0    0 -0.32001979868E+02  0.10289724638E+02  0.13342617270E+02  0.36166705466E+02  0.00000000000E+00 0.  1.
         12    1    4    4    0    0  0.43211863562E+02 -0.15513064612E+02  0.32867749083E+02  0.56464229880E+02  0.00000000000E+00 0. -1.
         -5    1    5    5    0  502  0.33229534154E+02 -0.70568291063E+02  0.30604888906E+03  0.31586721599E+03  0.47000000000E+01 0.  1.
         11    1    6    6    0    0 -0.82868780518E+02  0.33025468881E+01  0.41553665972E+03  0.42373205823E+03  0.00000000000E+00 0. -1.
        -12    1    6    6    0    0  0.18288608756E+02  0.63814978603E+01  0.72267463508E+02  0.74818333362E+02  0.00000000000E+00 0.  1.
</event>
<event>
12    1  0.9246030E-003  0.2195935E+03  0.7818608E-02  0.1134349E+00
         21   -1    0    0  501  502  0.00000000000E+00  0.00000000000E+00  0.13666006490E+03  0.13666006490E+03  0.00000000000E+00 0. -1.
         21   -1    0    0  502  503 -0.00000000000E+00 -0.00000000000E+00 -0.38802947792E+03  0.38802947792E+03  0.00000000000E+00 0.  1.
          6    2    1    2  501    0  0.26949702990E+02  0.13355324841E+03 -0.44919108255E+02  0.22328776899E+03  0.17110506960E+03 0.  0.
         24    2    3    3    0    0 -0.28334049277E+02  0.13062714237E+03 -0.58050975543E+02  0.16619669000E+03  0.79907166984E+02 0.  0.
         -6    2    1    2    0  503 -0.26949702990E+02 -0.13355324841E+03 -0.20645030477E+03  0.30140177382E+03  0.17221656214E+03 0.  0.
        -24    2    5    5    0    0  0.41602803097E+02 -0.10970269278E+03 -0.10606429779E+03  0.17743510294E+03  0.80424538909E+02 0.  0.
          5    1    3    3  501    0  0.55283752267E+02  0.29261060446E+01  0.13131867287E+02  0.57091078986E+02  0.47000000000E+01 0. -1.
        -11    1    4    4    0    0  0.20339823648E+02  0.72962423233E+02 -0.48959177651E+02  0.90189936835E+02  0.00000000000E+00 0.  1.
         12    1    4    4    0    0 -0.48673872925E+02  0.57664719134E+02 -0.90917978917E+01  0.76006753169E+02  0.00000000000E+00 0. -1.
         -5    1    5    5    0  503 -0.68552506087E+02 -0.23850555628E+02 -0.10038600698E+03  0.12396667089E+03  0.47000000000E+01 0.  1.
         13    1    6    6    0    0  0.36175319744E+02 -0.12246830538E+03 -0.10044147547E+03  0.16246731848E+03  0.00000000000E+00 0. -1.
        -14    1    6    6    0    0  0.54274833539E+01  0.12765612597E+02 -0.56228223212E+01  0.14967784451E+02  0.00000000000E+00 0.  1.
</event>
<event>
12    1  0.9246030E-003  0.2014779E+03  0.7818608E-02  0.1148607E+00
         21   -1    0    0  503  502  0.00000000000E+00  0.00000000000E+00  0.16443016703E+03  0.16443016703E+03  0.00000000000E+00 0.  1.
         21   -1    0    0  501  503 -0.00000000000E+00 -0.00000000000E+00 -0.32086162453E+03  0.32086162453E+03  0.00000000000E+00 0.  1.
          6    2    1    2  501    0  0.75498268347E+02 -0.71769980563E+02 -0.19531420522E+03  0.28060827270E+03  0.17245998178E+03 0.  0.
         24    2    3    3    0    0  0.74191777097E+02 -0.18961918693E+02 -0.39801218396E+02  0.11630131184E+03  0.77960785016E+02 0.  0.
         -6    2    1    2    0  502 -0.75498268347E+02  0.71769980563E+02  0.38882747724E+02  0.20468351886E+03  0.17185038897E+03 0.  0.
        -24    2    5    5    0    0 -0.36546285233E+02 -0.10608697050E+02  0.65020582484E+02  0.10976892609E+03  0.79833361270E+02 0.  0.
          5    1    3    3  501    0  0.13064912494E+01 -0.52808061870E+02 -0.15551298682E+03  0.16430696086E+03  0.47000000000E+01 0. -1.
        -13    1    4    4    0    0  0.31571939771E+02 -0.34844888690E+02  0.10818523321E+02  0.48249291141E+02  0.00000000000E+00 0.  1.
         14    1    4    4    0    0  0.42619837326E+02  0.15882969998E+02 -0.50619741717E+02  0.68052020698E+02  0.00000000000E+00 0. -1.
         -5    1    5    5    0  502 -0.38951983114E+02  0.82378677613E+02 -0.26137834761E+02  0.94914592765E+02  0.47000000000E+01 0.  1.
         11    1    6    6    0    0  0.64743551249E+01  0.29072139409E+02  0.24759301063E+02  0.38731505951E+02  0.00000000000E+00 0. -1.
        -12    1    6    6    0    0 -0.43020640358E+02 -0.39680836459E+02  0.40261281421E+02  0.71037420143E+02  0.00000000000E+00 0.  1.
</event>
<event>
12    1  0.9246030E-003  0.1752692E+03  0.7818608E-02  0.1173035E+00
         21   -1    0    0  501  502  0.00000000000E+00  0.00000000000E+00  0.11824437593E+03  0.11824437593E+03  0.00000000000E+00 0.  1.
         21   -1    0    0  502  503 -0.00000000000E+00 -0.00000000000E+00 -0.28012129313E+03  0.28012129313E+03  0.00000000000E+00 0.  1.
          6    2    1    2  501    0  0.35338440995E+02  0.29000168066E+01 -0.23507859827E+02  0.17683864593E+03  0.17164519134E+03 0.  0.
         24    2    3    3    0    0  0.53964856902E+02  0.37465897270E+02  0.32795862242E+02  0.10803499355E+03  0.79247031574E+02 0.  0.
         -6    2    1    2    0  503 -0.35338440995E+02 -0.29000168066E+01 -0.13836905738E+03  0.22152702313E+03  0.16932516183E+03 0.  0.
        -24    2    5    5    0    0  0.14070891519E+02  0.51786303763E+02 -0.80642825703E+02  0.12779184499E+03  0.83352738789E+02 0.  0.
          5    1    3    3  501    0 -0.18626415907E+02 -0.34565880463E+02 -0.56303722068E+02  0.68803652378E+02  0.47000000000E+01 0. -1.
        -13    1    4    4    0    0 -0.14009302429E+02 -0.10809556436E+02 -0.17653255162E+01  0.17782672439E+02  0.00000000000E+00 0.  1.
         14    1    4    4    0    0  0.67974159331E+02  0.48275453706E+02  0.34561187758E+02  0.90252321114E+02  0.00000000000E+00 0. -1.
         -5    1    5    5    0  503 -0.49409332514E+02 -0.54686320570E+02 -0.57726231674E+02  0.93735178136E+02  0.47000000000E+01 0.  1.
         13    1    6    6    0    0 -0.45033449567E+01  0.26227191256E+02  0.12525845212E+02  0.29411604432E+02  0.00000000000E+00 0. -1.
        -14    1    6    6    0    0  0.18574236476E+02  0.25559112508E+02 -0.93168670915E+02  0.98380240561E+02  0.00000000000E+00 0.  1.
</event>
<event>
12    1  0.9246030E-003  0.2028415E+03  0.7818608E-02  0.1147916E+00
         21   -1    0    0  501  502  0.00000000000E+00  0.00000000000E+00  0.20189786908E+02  0.20189786908E+02  0.00000000000E+00 0.  1.
         21   -1    0    0  502  503 -0.00000000000E+00 -0.00000000000E+00 -0.20118494205E+04  0.20118494205E+04  0.00000000000E+00 0. -1.
          6    2    1    2  501    0 -0.93281618852E+02 -0.50113632767E+02 -0.97387673072E+03  0.99424024168E+03  0.16989683616E+03 0.  0.
         24    2    3    3    0    0 -0.75871607415E+02 -0.79017695366E+02 -0.46973486490E+03  0.48894857917E+03  0.80122236459E+02 0.  0.
         -6    2    1    2    0  503  0.93281618852E+02  0.50113632767E+02 -0.10177829029E+04  0.10377989657E+04  0.17300814801E+03 0.  0.
        -24    2    5    5    0    0  0.11405621541E+03  0.20589513045E+01 -0.86560028647E+03  0.87679438502E+03  0.80569709652E+02 0.  0.
          5    1    3    3  501    0 -0.17410011437E+02  0.28904062599E+02 -0.50414186582E+03  0.50529166251E+03  0.47000000000E+01 0. -1.
        -11    1    4    4    0    0 -0.81384966827E+02 -0.46612461538E+02 -0.41173319322E+03  0.42228006914E+03  0.00000000000E+00 0.  1.
         12    1    4    4    0    0  0.55133594118E+01 -0.32405233828E+02 -0.58001671687E+02  0.66668510033E+02  0.00000000000E+00 0. -1.
         -5    1    5    5    0  503 -0.20774596560E+02  0.48054681462E+02 -0.15218261639E+03  0.16100458069E+03  0.47000000000E+01 0.  1.
         13    1    6    6    0    0  0.36932014822E+02 -0.48341977875E+01 -0.57016953548E+03  0.57138484612E+03  0.00000000000E+00 0. -1.
        -14    1    6    6    0    0  0.77124200589E+02  0.68931490920E+01 -0.29543075100E+03  0.30540953891E+03  0.00000000000E+00 0.  1.
</event>
<event>
12    1  0.9246030E-003  0.1850178E+03  0.7818608E-02  0.1163386E+00
         21   -1    0    0  503  502  0.00000000000E+00  0.00000000000E+00  0.12915037691E+03  0.12915037691E+03  0.00000000000E+00 0. -1.
         21   -1    0    0  501  503 -0.00000000000E+00 -0.00000000000E+00 -0.26289901177E+03  0.26289901177E+03  0.00000000000E+00 0. -1.
          6    2    1    2  501    0 -0.12115790122E+02  0.61488266109E+02 -0.66638570392E+02  0.19523640940E+03  0.17247886030E+03 0.  0.
         24    2    3    3    0    0  0.54129203284E+02  0.59754447004E+02 -0.20757446082E+02  0.11449873017E+03  0.78603581704E+02 0.  0.
         -6    2    1    2    0  502  0.12115790122E+02 -0.61488266109E+02 -0.67110064466E+02  0.19681297928E+03  0.17408040906E+03 0.  0.
        -24    2    5    5    0    0  0.72027271907E+02 -0.13849656272E+02 -0.33740789088E+02  0.11318032216E+03  0.79319629344E+02 0.  0.
          5    1    3    3  501    0 -0.66244993406E+02  0.17338191048E+01 -0.45881124310E+02  0.80737679233E+02  0.47000000000E+01 0. -1.
        -13    1    4    4    0    0 -0.10304526436E+02  0.15345638455E+02 -0.30475031834E+02  0.35642663340E+02  0.00000000000E+00 0.  1.
         14    1    4    4    0    0  0.64433729720E+02  0.44408808549E+02  0.97175857518E+01  0.78856066826E+02  0.00000000000E+00 0. -1.
         -5    1    5    5    0  502 -0.59911481785E+02 -0.47638609837E+02 -0.33369275377E+02  0.83632657115E+02  0.47000000000E+01 0.  1.
         13    1    6    6    0    0 -0.93668657724E+01 -0.23999861420E+02 -0.11365889392E+02  0.28158745786E+02  0.00000000000E+00 0. -1.
        -14    1    6    6    0    0  0.81394137679E+02  0.10150205148E+02 -0.22374899697E+02  0.85021576377E+02  0.00000000000E+00 0.  1.
</event>
<event>
12    1  0.9246030E-003  0.1965923E+03  0.7818608E-02  0.1152678E+00
         21   -1    0    0  503  502  0.00000000000E+00  0.00000000000E+00  0.32091707596E+03  0.32091707596E+03  0.00000000000E+00 0.  1.
         21   -1    0    0  501  503 -0.00000000000E+00 -0.00000000000E+00 -0.12046236832E+03  0.12046236832E+03  0.00000000000E+00 0.  1.
          6    2    1    2  501    0 -0.80299995622E+02  0.51017916080E+02  0.10718809361E+03  0.22378536348E+03  0.17187112741E+03 0.  0.
         24    2    3    3    0    0 -0.35837826553E+02  0.98202847531E+02  0.64902109789E+02  0.14623862492E+03  0.79027226241E+02 0.  0.
         -6    2    1    2    0  502  0.80299995622E+02 -0.51017916080E+02  0.93266614026E+02  0.21759408080E+03  0.17203954676E+03 0.  0.
        -24    2    5    5    0    0  0.11200063642E+03 -0.67363768438E+02  0.91717213867E+02  0.18158563516E+03  0.86482805931E+02 0.  0.
          5    1    3    3  501    0 -0.44462169069E+02 -0.47184931451E+02  0.42285983823E+02  0.77546738566E+02  0.47000000000E+01 0. -1.
        -11    1    4    4    0    0 -0.51689494647E+02  0.93716993956E+02  0.71260823818E+02  0.12857987332E+03  0.00000000000E+00 0.  1.
         12    1    4    4    0    0  0.15851668094E+02  0.44858535748E+01 -0.63587140294E+01  0.17658751592E+02  0.00000000000E+00 0. -1.
         -5    1    5    5    0  502 -0.31700640799E+02  0.16345852358E+02  0.15494001585E+01  0.36008445638E+02  0.47000000000E+01 0.  1.
         13    1    6    6    0    0 -0.51295808875E+01 -0.70203159914E+01  0.38523898347E+02  0.39492887721E+02  0.00000000000E+00 0. -1.
        -14    1    6    6    0    0  0.11713021731E+03 -0.60343452447E+02  0.53193315520E+02  0.14209274744E+03  0.00000000000E+00 0.  1.
</event>
<event>
12    1  0.9246030E-003  0.2445277E+03  0.7818608E-02  0.1117111E+00
         21   -1    0    0  503  502  0.00000000000E+00  0.00000000000E+00  0.73065701199E+02  0.73065701199E+02  0.00000000000E+00 0.  1.
         21   -1    0    0  501  503 -0.00000000000E+00 -0.00000000000E+00 -0.15595784961E+04  0.15595784961E+04  0.00000000000E+00 0. -1.
          6    2    1    2  501    0 -0.62359761211E+02  0.16167609294E+03 -0.13097904320E+04  0.13324206350E+04  0.17252789357E+03 0.  0.
         24    2    3    3    0    0  0.69487321860E+01  0.11501373891E+02 -0.36098158796E+03  0.36929217734E+03  0.76736164327E+02 0.  0.
         -6    2    1    2    0  502  0.62359761211E+02 -0.16167609294E+03 -0.17672236287E+03  0.30022356223E+03  0.16992791099E+03 0.  0.
        -24    2    5    5    0    0  0.16164091858E+02 -0.12371802846E+02 -0.30971908448E+02  0.86468805858E+02  0.78123337758E+02 0.  0.
          5    1    3    3  501    0 -0.69308493397E+02  0.15017471905E+03 -0.94880884405E+03  0.96312845771E+03  0.47000000000E+01 0. -1.
        -11    1    4    4    0    0 -0.28293520054E+02 -0.82698042673E+01 -0.23854800396E+03  0.24036235798E+03  0.00000000000E+00 0.  1.
         12    1    4    4    0    0  0.35242252240E+02  0.19771178158E+02 -0.12243358400E+03  0.12892981936E+03  0.00000000000E+00 0. -1.
         -5    1    5    5    0  502  0.46195669353E+02 -0.14930429010E+03 -0.14575045442E+03  0.21375475637E+03  0.47000000000E+01 0.  1.
         11    1    6    6    0    0 -0.23116638785E+02  0.18997622333E+02 -0.16443571591E+02  0.34142051633E+02  0.00000000000E+00 0. -1.
        -12    1    6    6    0    0  0.39280730643E+02 -0.31369425179E+02 -0.14528336857E+02  0.52326754225E+02  0.00000000000E+00 0.  1.
</event>
<event>
12    1  0.9246030E-003  0.2125995E+03  0.7818608E-02  0.1139596E+00
         21   -1    0    0  501  502  0.00000000000E+00  0.00000000000E+00  0.52558727319E+03  0.52558727319E+03  0.00000000000E+00 0.  1.
         21   -1    0    0  502  503 -0.00000000000E+00 -0.00000000000E+00 -0.11061826794E+03  0.11061826794E+03  0.00000000000E+00 0.  1.
          6    2    1    2  501    0  0.14377692686E+02 -0.12539342901E+03  0.35815621249E+03  0.41650261323E+03  0.17107987666E+03 0.  0.
         24    2    3    3    0    0 -0.19157709501E+02 -0.71878405252E+02  0.32949020291E+03  0.34698778695E+03  0.79392742132E+02 0.  0.
         -6    2    1    2    0  503 -0.14377692686E+02  0.12539342901E+03  0.56812792759E+02  0.21970292790E+03  0.17062078719E+03 0.  0.
        -24    2    5    5    0    0 -0.38861563595E+02  0.14444258797E+03  0.75502199274E+02  0.18318287440E+03  0.74037159833E+02 0.  0.
          5    1    3    3  501    0  0.33535402187E+02 -0.53515023762E+02  0.28666009583E+02  0.69514826285E+02  0.47000000000E+01 0. -1.
        -13    1    4    4    0    0  0.20516747040E+02 -0.43463230419E+01  0.14573684081E+03  0.14723808680E+03  0.00000000000E+00 0.  1.
         14    1    4    4    0    0 -0.39674456540E+02 -0.67532082210E+02  0.18375336209E+03  0.19974970015E+03  0.00000000000E+00 0. -1.
         -5    1    5    5    0  503  0.24483870909E+02 -0.19049158953E+02 -0.18689406515E+02  0.36520053496E+02  0.47000000000E+01 0.  1.
         13    1    6    6    0    0  0.11889143339E+02  0.34938890932E+02  0.45929198199E+02  0.58920022710E+02  0.00000000000E+00 0. -1.
        -14    1    6    6    0    0 -0.50750706934E+02  0.10950369703E+03  0.29573001075E+02  0.12426285169E+03  0.00000000000E+00 0.  1.
</event>
<event>
12    1  0.9246030E-003  0.3089671E+03  0.7818608E-02  0.1080923E+00
         21   -1    0    0  503  502  0.00000000000E+00  0.00000000000E+00  0.78755429699E+03  0.78755429699E+03  0.00000000000E+00 0. -1.
         21   -1    0    0  501  503 -0.00000000000E+00 -0.00000000000E+00 -0.14475203045E+03  0.14475203045E+03  0.00000000000E+00 0.  1.
          6    2    1    2  501    0  0.16433104070E+03  0.19595522846E+03  0.13265815346E+03  0.33624221485E+03  0.17337098622E+03 0.  0.
         24    2    3    3    0    0  0.53462055015E+02  0.14361914508E+03  0.29704537347E+02  0.17607812811E+03  0.81464700926E+02 0.  0.
         -6    2    1    2    0  502 -0.16433104070E+03 -0.19595522846E+03  0.51014411309E+03  0.59606411260E+03  0.17216929954E+03 0.  0.
        -24    2    5    5    0    0 -0.53010558229E+02 -0.41096372723E+02  0.10629026246E+03  0.14941711811E+03  0.80801139563E+02 0.  0.
          5    1    3    3  501    0  0.11086898569E+03  0.52336083381E+02  0.10295361611E+03  0.16016408674E+03  0.47000000000E+01 0. -1.
        -11    1    4    4    0    0  0.37746350170E+01 -0.32658816347E+01 -0.14092335482E+02  0.14950176310E+02  0.00000000000E+00 0.  1.
         12    1    4    4    0    0  0.49687419998E+02  0.14688502672E+03  0.43796872828E+02  0.16112795180E+03  0.00000000000E+00 0. -1.
         -5    1    5    5    0  502 -0.11132048247E+03 -0.15485885574E+03  0.40385385063E+03  0.44664699449E+03  0.47000000000E+01 0.  1.
         11    1    6    6    0    0  0.32064166494E+01 -0.31467083588E+02  0.81131305445E+02  0.87078970943E+02  0.00000000000E+00 0. -1.
        -12    1    6    6    0    0 -0.56216974879E+02 -0.96292891345E+01  0.25158957016E+02  0.62338147164E+02  0.00000000000E+00 0.  1.
</event>
<event>
12    1  0.9246030E-003  0.1903112E+03  0.7818608E-02  0.1158703E+00
         21   -1    0    0  503  502  0.00000000000E+00  0.00000000000E+00  0.42935453541E+03  0.42935453541E+03  0.00000000000E+00 0. -1.
         21   -1    0    0  501  503 -0.00000000000E+00 -0.00000000000E+00 -0.83585306963E+02  0.83585306963E+02  0.00000000000E+00 0.  1.
          6    2    1    2  501    0  0.88451897309E+02  0.13157653142E+02  0.18582622985E+03  0.26434353572E+03  0.16537610227E+03 0.  0.
         24    2    3    3    0    0  0.18922848800E+02  0.59393264911E+02  0.11663361027E+03  0.15579986254E+03  0.82368464843E+02 0.  0.
         -6    2    1    2    0  502 -0.88451897309E+02 -0.13157653142E+02  0.15994299859E+03  0.24859630665E+03  0.16799255611E+03 0.  0.
        -24    2    5    5    0    0 -0.56345699920E+02 -0.47669420817E+02  0.16898113789E+03  0.20037133407E+03  0.78401753642E+02 0.  0.
          5    1    3    3  501    0  0.69529048510E+02 -0.46235611770E+02  0.69192619582E+02  0.10854367318E+03  0.47000000000E+01 0. -1.
        -11    1    4    4    0    0  0.14837152536E+02  0.53761551622E+02  0.20507442989E+02  0.59422224345E+02  0.00000000000E+00 0.  1.
         12    1    4    4    0    0  0.40856962638E+01  0.56317132894E+01  0.96126167282E+02  0.96377638200E+02  0.00000000000E+00 0. -1.
         -5    1    5    5    0  502 -0.32106197389E+02  0.34511767675E+02 -0.90381392921E+01  0.48224972584E+02  0.47000000000E+01 0.  1.
         13    1    6    6    0    0 -0.62198661793E+02 -0.27511933984E+01  0.93150343272E+02  0.11204119352E+03  0.00000000000E+00 0. -1.
        -14    1    6    6    0    0  0.58529618728E+01 -0.44918227419E+02  0.75830794615E+02  0.88330140547E+02  0.00000000000E+00 0.  1.
</event>
<event>
12    1  0.9246030E-003  0.1907404E+03  0.7818608E-02  0.1157874E+00
         21   -1    0    0  501  502  0.00000000000E+00  0.00000000000E+00  0.12084086981E+03  0.12084086981E+03  0.00000000000E+00 0. -1.
         21   -1    0    0  502  503 -0.00000000000E+00 -0.00000000000E+00 -0.45822497622E+03  0.45822497622E+03  0.00000000000E+00 0. -1.
          6    2    1    2  501    0 -0.41494452455E+01  0.82046776895E+02  0.10629185266E+01  0.19074338867E+03  0.17214243821E+03 0.  0.
         24    2    3    3    0    0  0.22027639160E+02  0.10175154557E+03 -0.53106422973E+02  0.12726169671E+03  0.50365200042E+02 0.  0.
         -6    2    1    2    0  503  0.41494452455E+01 -0.82046776895E+02 -0.33844702494E+03  0.38832245736E+03  0.17175287685E+03 0.  0.
        -24    2    5    5    0    0 -0.56064664761E+02 -0.68474222177E+02 -0.27395357405E+03  0.29892755542E+03  0.80468359726E+02 0.  0.
          5    1    3    3  501    0 -0.26177084405E+02 -0.19704768673E+02  0.54169341500E+02  0.63481691967E+02  0.47000000000E+01 0. -1.
        -11    1    4    4    0    0  0.58728808355E+01  0.63070813496E+02 -0.51284252856E+01  0.63550916518E+02  0.00000000000E+00 0.  1.
         12    1    4    4    0    0  0.16154758324E+02  0.38680732071E+02 -0.47977997688E+02  0.63710780188E+02  0.00000000000E+00 0. -1.
         -5    1    5    5    0  503  0.60214110006E+02 -0.13572554717E+02 -0.64493450883E+02  0.89394901936E+02  0.47000000000E+01 0.  1.
         13    1    6    6    0    0 -0.20732769485E+02 -0.63359454590E+02 -0.24200450917E+03  0.25101882534E+03  0.00000000000E+00 0. -1.
        -14    1    6    6    0    0 -0.35331895275E+02 -0.51147675874E+01 -0.31949064882E+02  0.47908730082E+02  0.00000000000E+00 0.  1.
</event>
<event>
12    1  0.9246030E-003  0.1855183E+03  0.7818608E-02  0.1162927E+00
         21   -1    0    0  501  502  0.00000000000E+00  0.00000000000E+00  0.18856964496E+04  0.18856964496E+04  0.00000000000E+00 0. -1.
         21   -1    0    0  502  503 -0.00000000000E+00 -0.00000000000E+00 -0.18348351755E+02  0.18348351755E+02  0.00000000000E+00 0. -1.
          6    2    1    2  501    0  0.11291051200E+02  0.66893105762E+02  0.81917531866E+03  0.83958098726E+03  0.17101419831E+03 0.  0.
         24    2    3    3    0    0 -0.43308202106E+00  0.74110595532E+02  0.29298604187E+03  0.31319064495E+03  0.82188754864E+02 0.  0.
         -6    2    1    2    0  503 -0.11291051200E+02 -0.66893105762E+02  0.10481727792E+04  0.10644638141E+04  0.17266980358E+03 0.  0.
        -24    2    5    5    0    0 -0.40952586544E+02 -0.71237650556E+01  0.85951385437E+03  0.86429773136E+03  0.80738096377E+02 0.  0.
          5    1    3    3  501    0  0.11724133222E+02 -0.72174897708E+01  0.52618927679E+03  0.52639034230E+03  0.47000000000E+01 0. -1.
        -13    1    4    4    0    0 -0.53947776851E+01 -0.17812577471E+02  0.49439274409E+02  0.52826445996E+02  0.00000000000E+00 0.  1.
         14    1    4    4    0    0  0.49616956640E+01  0.91923173003E+02  0.24354676746E+03  0.26036419896E+03  0.00000000000E+00 0. -1.
         -5    1    5    5    0  503  0.29661535344E+02 -0.59769340706E+02  0.18865892481E+03  0.20016608274E+03  0.47000000000E+01 0.  1.
         11    1    6    6    0    0 -0.36690816348E+02  0.23741362168E+02  0.23641246981E+03  0.24041781166E+03  0.00000000000E+00 0. -1.
        -12    1    6    6    0    0 -0.42617701964E+01 -0.30865127223E+02  0.62310138456E+03  0.62387991970E+03  0.00000000000E+00 0.  1.
</event>
<event>
12    1  0.9246030E-003  0.1910131E+03  0.7818608E-02  0.1158153E+00
         21   -1    0    0  503  502  0.00000000000E+00  0.00000000000E+00  0.92861008765E+03  0.92861008765E+03  0.00000000000E+00 0.  1.
         21   -1    0    0  501  503 -0.00000000000E+00 -0.00000000000E+00 -0.61062239252E+02  0.61062239252E+02  0.00000000000E+00 0.  1.
          6    2    1    2  501    0 -0.67510926027E+02  0.43146388378E+02  0.13655430680E+03  0.23480435969E+03  0.17339744133E+03 0.  0.
         24    2    3    3    0    0 -0.84913213662E+02  0.79651323645E+02  0.13349938091E+03  0.19397700996E+03  0.79059524886E+02 0.  0.
         -6    2    1    2    0  502  0.67510926027E+02 -0.43146388378E+02  0.73099354160E+03  0.75486796722E+03  0.17045455145E+03 0.  0.
        -24    2    5    5    0    0  0.16902455984E+02 -0.60628489307E+02  0.23288641593E+03  0.25386932477E+03  0.79069871639E+02 0.  0.
          5    1    3    3  501    0  0.17402287635E+02 -0.36504935267E+02  0.30549258922E+01  0.40827349730E+02  0.47000000000E+01 0. -1.
        -13    1    4    4    0    0 -0.63574753131E+02  0.48793131606E+02  0.13436500804E+03  0.15644959033E+03  0.00000000000E+00 0.  1.
         14    1    4    4    0    0 -0.21338460531E+02  0.30858192039E+02 -0.86562712935E+00  0.37527419630E+02  0.00000000000E+00 0. -1.
         -5    1    5    5    0  502  0.50608470043E+02  0.17482100929E+02  0.49810712566E+03  0.50099864244E+03  0.47000000000E+01 0.  1.
         13    1    6    6    0    0 -0.84917857725E+01 -0.69728693769E+02  0.19573263688E+03  0.20795544306E+03  0.00000000000E+00 0. -1.
        -14    1    6    6    0    0  0.25394241757E+02  0.91002044627E+01  0.37153779056E+02  0.45913881712E+02  0.00000000000E+00 0.  1.
</event>
<event>
12    1  0.9246030E-003  0.2702881E+03  0.7818608E-02  0.1101210E+00
         21   -1    0    0  501  502  0.00000000000E+00  0.00000000000E+00  0.65996967441E+03  0.65996967441E+03  0.00000000000E+00 0.  1.
         21   -1    0    0  502  503 -0.00000000000E+00 -0.00000000000E+00 -0.11255329322E+03  0.11255329322E+03  0.00000000000E+00 0. -1.
          6    2    1    2  501    0 -0.14506717228E+02  0.20872412573E+03  0.32652133134E+03  0.42345240728E+03  0.17005750762E+03 0.  0.
         24    2    3    3    0    0  0.17606548420E+02  0.11733525011E+03  0.28279066855E+03  0.31706796628E+03  0.80523174032E+02 0.  0.
         -6    2    1    2    0  503  0.14506717228E+02 -0.20872412573E+03  0.22089504985E+03  0.34907056036E+03  0.17111232437E+03 0.  0.
        -24    2    5    5    0    0 -0.37543932777E+02 -0.16464013986E+03  0.10466902082E+03  0.21422528680E+03  0.80130812079E+02 0.  0.
          5    1    3    3  501    0 -0.32113265648E+02  0.91388875625E+02  0.43730662796E+02  0.10638444100E+03  0.47000000000E+01 0. -1.
        -11    1    4    4    0    0 -0.25956070783E+02  0.33319610168E+02  0.13606061162E+03  0.14246544867E+03  0.00000000000E+00 0.  1.
         12    1    4    4    0    0  0.43562619203E+02  0.84015639941E+02  0.14673005693E+03  0.17460251760E+03  0.00000000000E+00 0. -1.
         -5    1    5    5    0  503  0.52050650005E+02 -0.44083985879E+02  0.11622602903E+03  0.13484527356E+03  0.47000000000E+01 0.  1.
         11    1    6    6    0    0 -0.26772051019E+01  0.92041415498E+01  0.46512837447E+01  0.10654486815E+02  0.00000000000E+00 0. -1.
        -12    1    6    6    0    0 -0.34866727675E+02 -0.17384428141E+03  0.10001773707E+03  0.20357079998E+03  0.00000000000E+00 0.  1.
</event>
<event>
12    1  0.9246030E-003  0.1751125E+03  0.7818608E-02  0.1172648E+00
         21   -1    0    0  503  502  0.00000000000E+00  0.00000000000E+00  0.46443552120E+02  0.46443552120E+02  0.00000000000E+00 0. -1.
         21   -1    0    0  501  503 -0.00000000000E+00 -0.00000000000E+00 -0.66986839485E+03  0.66986839485E+03  0.00000000000E+00 0. -1.
          6    2    1    2  501    0 -0.23459085306E+02 -0.13651280421E+02 -0.26791721045E+03  0.32006874685E+03  0.17299619913E+03 0.  0.
         24    2    3    3    0    0 -0.27282222890E+02 -0.66558916152E+02 -0.11110420411E+03  0.15446004159E+03  0.79620043151E+02 0.  0.
         -6    2    1    2    0  502  0.23459085306E+02  0.13651280421E+02 -0.35550763228E+03  0.39624320012E+03  0.17287657705E+03 0.  0.
        -24    2    5    5    0    0  0.39135734554E+01 -0.51792009931E+02 -0.27418735453E+03  0.28994207662E+03  0.78676388185E+02 0.  0.
          5    1    3    3  501    0  0.38231375838E+01  0.52907635732E+02 -0.15681300634E+03  0.16560870526E+03  0.47000000000E+01 0. -1.
        -13    1    4    4    0    0  0.93387838968E+01 -0.26314091743E+02 -0.93020765457E+02  0.97121095109E+02  0.00000000000E+00 0.  1.
         14    1    4    4    0    0 -0.36621006787E+02 -0.40244824409E+02 -0.18083438652E+02  0.57338946478E+02  0.00000000000E+00 0. -1.
         -5    1    5    5    0  502  0.19545511851E+02  0.65443290351E+02 -0.81320277746E+02  0.10630112350E+03  0.47000000000E+01 0.  1.
         11    1    6    6    0    0  0.22654884939E+02 -0.66549268654E+02 -0.21093526955E+03  0.22234148715E+03  0.00000000000E+00 0. -1.
        -12    1    6    6    0    0 -0.18741311483E+02  0.14757258723E+02 -0.63252084984E+02  0.67600589465E+02  0.00000000000E+00 0.  1.
</event>
<event>
12    1  0.9246030E-003  0.2264856E+03  0.7818608E-02  0.1129179E+00
         21   -1    0    0  501  502  0.00000000000E+00  0.00000000000E+00  0.64226429535E+03  0.64226429535E+03  0.00000000000E+00 0. -1.
         21   -1    0    0  502  503 -0.00000000000E+00 -0.00000000000E+00 -0.10854240899E+03  0.10854240899E+03  0.00000000000E+00 0.  1.
          6    2    1    2  501    0  0.12252235992E+03 -0.85627923482E+02  0.45998667026E+03  0.51262064369E+03  0.16984792479E+03 0.  0.
         24    2    3    3    0    0  0.23739626259E+02 -0.62886011897E+02  0.33903592738E+03  0.35473969101E+03  0.79854041734E+02 0.  0.
         -6    2    1    2    0  503 -0.12252235992E+03  0.85627923482E+02  0.73735216100E+02  0.23818606066E+03  0.17015242413E+03 0.  0.
        -24    2    5    5    0    0 -0.12108831341E+03  0.46723085551E+01  0.45858972924E+02  0.15242451327E+03  0.80286840363E+02 0.  0.
          5    1    3    3  501    0  0.98782733666E+02 -0.22741911584E+02  0.12095074288E+03  0.15788095267E+03  0.47000000000E+01 0. -1.
        -11    1    4    4    0    0 -0.29146165224E+01  0.91692983653E+01  0.15517366229E+03  0.15547165816E+03  0.00000000000E+00 0.  1.
         12    1    4    4    0    0  0.26654242781E+02 -0.72055310263E+02  0.18386226508E+03  0.19926803285E+03  0.00000000000E+00 0. -1.
         -5    1    5    5    0  503 -0.14340465125E+01  0.80955614926E+02  0.27876243176E+02  0.85761547392E+02  0.47000000000E+01 0.  1.
         13    1    6    6    0    0 -0.51937750902E+02 -0.11500691091E+02  0.59816983976E+02  0.80049156375E+02  0.00000000000E+00 0. -1.
        -14    1    6    6    0    0 -0.69150562510E+02  0.16172999646E+02 -0.13958011053E+02  0.72375356894E+02  0.00000000000E+00 0.  1.
</event>
<event>
12    1  0.9246030E-003  0.2671729E+03  0.7818608E-02  0.1102945E+00
         21   -1    0    0  503  502  0.00000000000E+00  0.00000000000E+00  0.15486650800E+03  0.15486650800E+03  0.00000000000E+00 0.  1.
         21   -1    0    0  501  503 -0.00000000000E+00 -0.00000000000E+00 -0.56327487731E+03  0.56327487731E+03  0.00000000000E+00 0. -1.
          6    2    1    2  501    0  0.16783706820E+03 -0.11563897512E+03 -0.35767036467E+03  0.44644088294E+03  0.17274176729E+03 0.  0.
         24    2    3    3    0    0  0.58251239620E+02  0.11535203747E+02 -0.11704072057E+03  0.15300086996E+03  0.78641389192E+02 0.  0.
         -6    2    1    2    0  502 -0.16783706820E+03  0.11563897512E+03 -0.50738004643E+02  0.27170050237E+03  0.17235186057E+03 0.  0.
        -24    2    5    5    0    0 -0.12455217675E+03  0.15024630684E+03 -0.36440956086E+02  0.21427450796E+03  0.80612803143E+02 0.  0.
          5    1    3    3  501    0  0.10958582858E+03 -0.12717417887E+03 -0.24062964410E+03  0.29344001298E+03  0.47000000000E+01 0. -1.
        -11    1    4    4    0    0 -0.16035902690E+02  0.93825969096E+00 -0.49504263106E+02  0.52045197396E+02  0.00000000000E+00 0.  1.
         12    1    4    4    0    0  0.74287142311E+02  0.10596944056E+02 -0.67536457467E+02  0.10095567257E+03  0.00000000000E+00 0. -1.
         -5    1    5    5    0  502 -0.43284891449E+02 -0.34607331714E+02 -0.14297048557E+02  0.57425994406E+02  0.47000000000E+01 0.  1.
         11    1    6    6    0    0  0.76910539148E+01  0.33853844801E+02 -0.20259018777E+01  0.34775557459E+02  0.00000000000E+00 0. -1.
        -12    1    6    6    0    0 -0.13224323067E+03  0.11639246204E+03 -0.34415054208E+02  0.17949895051E+03  0.00000000000E+00 0.  1.
</event>
<event>
12    1  0.9246030E-003  0.1852153E+03  0.7818608E-02  0.1163243E+00
         21   -1    0    0  501  502  0.00000000000E+00  0.00000000000E+00  0.28283786238E+03  0.28283786238E+03  0.00000000000E+00 0.  1.
         21   -1    0    0  502  503 -0.00000000000E+00 -0.00000000000E+00 -0.12578826044E+03  0.12578826044E+03  0.00000000000E+00 0.  1.
          6    2    1    2  501    0  0.11782493710E+02 -0.63242969110E+02  0.12197776114E+03  0.22177307034E+03  0.17368425437E+03 0.  0.
         24    2    3    3    0    0 -0.30211716918E+02 -0.95844727270E+02  0.71118480524E+02  0.14804963590E+03  0.82230753569E+02 0.  0.
         -6    2    1    2    0  503 -0.11782493710E+02  0.63242969110E+02  0.35071840813E+02  0.18685305248E+03  0.17188812904E+03 0.  0.
        -24    2    5    5    0    0 -0.47701248043E+02  0.92471053290E+02  0.18909759221E+02  0.13758094375E+03  0.88003592700E+02 0.  0.
          5    1    3    3  501    0  0.41994210628E+02  0.32601758160E+02  0.50859280612E+02  0.73723434441E+02  0.47000000000E+01 0. -1.
        -13    1    4    4    0    0 -0.27790352014E+02 -0.29592813923E+02 -0.11430570425E+02  0.42174592365E+02  0.00000000000E+00 0.  1.
         14    1    4    4    0    0 -0.24213649039E+01 -0.66251913347E+02  0.82549050949E+02  0.10587504353E+03  0.00000000000E+00 0. -1.
         -5    1    5    5    0  503  0.35918754332E+02 -0.29228084180E+02  0.16162081592E+02  0.49272108733E+02  0.47000000000E+01 0.  1.
         13    1    6    6    0    0 -0.10986193154E+02  0.73747708630E+02 -0.23761765569E+02  0.78256261546E+02  0.00000000000E+00 0. -1.
        -14    1    6    6    0    0 -0.36715054889E+02  0.18723344660E+02  0.42671524790E+02  0.59324682204E+02  0.00000000000E+00 0.  1.
</event>
<event>
12    1  0.9246030E-003  0.1739258E+03  0.7818608E-02  0.1174321E+00
         21   -1    0    0  501  502  0.00000000000E+00  0.00000000000E+00  0.15341608305E+03  0.15341608305E+03  0.00000000000E+00 0. -1.
         21   -1    0    0  502  503 -0.00000000000E+00 -0.00000000000E+00 -0.23262293252E+03  0.23262293252E+03  0.00000000000E+00 0. -1.
          6    2    1    2  501    0 -0.18864201389E+02 -0.16723139548E+01  0.37903512758E+02  0.17800803397E+03  0.17289166883E+03 0.  0.
         24    2    3    3    0    0  0.40145600103E-01  0.66502065651E+02  0.24986419965E+02  0.10593819523E+03  0.78587872339E+02 0.  0.
         -6    2    1    2    0  503  0.18864201389E+02  0.16723139548E+01 -0.11711036222E+03  0.20803098160E+03  0.17089001620E+03 0.  0.
        -24    2    5    5    0    0 -0.20216985090E+02 -0.50997992261E+02 -0.49301285295E+02  0.11357643588E+03  0.86368213798E+02 0.  0.
          5    1    3    3  501    0 -0.18904346989E+02 -0.68174379606E+02  0.12917092793E+02  0.72069838740E+02  0.47000000000E+01 0. -1.
        -11    1    4    4    0    0  0.16608588158E+02 -0.12765956289E+02 -0.76339399286E+00  0.20961813160E+02  0.00000000000E+00 0.  1.
         12    1    4    4    0    0 -0.16568442558E+02  0.79268021940E+02  0.25749813958E+02  0.84976382072E+02  0.00000000000E+00 0. -1.
         -5    1    5    5    0  503  0.39081186479E+02  0.52670306216E+02 -0.67809076924E+02  0.94454545718E+02  0.47000000000E+01 0.  1.
         13    1    6    6    0    0 -0.26349244438E+02 -0.57413361689E+02 -0.68038978185E+02  0.92843305280E+02  0.00000000000E+00 0. -1.
        -14    1    6    6    0    0  0.61322593481E+01  0.64153694278E+01  0.18737692890E+02  0.20733130600E+02  0.00000000000E+00 0.  1.
</event>
<event>
12    1  0.9246030E-003  0.2229114E+03  0.7818608E-02  0.1132451E+00
         21   -1    0    0  501  502  0.00000000000E+00  0.00000000000E+00  0.53078959548E+03  0.53078959548E+03  0.00000000000E+00 0. -1.
         21   -1    0    0  502  503 -0.00000000000E+00 -0.00000000000E+00 -0.97298183944E+02  0.97298183944E+02  0.00000000000E+00 0.  1.
          6    2    1    2  501    0 -0.12672461934E+03 -0.53348615412E+02  0.29193197133E+03  0.36730612566E+03  0.17545458143E+03 0.  0.
         24    2    3    3    0    0 -0.69926880428E+02 -0.52384127525E+02  0.28650326560E+03  0.31004816352E+03  0.80074197322E+02 0.  0.
         -6    2    1    2    0  503  0.12672461934E+03  0.53348615412E+02  0.14155944020E+03  0.26078165376E+03  0.17047812738E+03 0.  0.
        -24    2    5    5    0    0  0.15184273720E+03  0.52637138154E+02  0.85034674315E+02  0.19874484853E+03  0.80260412598E+02 0.  0.
          5    1    3    3  501    0 -0.56797738914E+02 -0.96448788636E+00  0.54287057309E+01  0.57257962141E+02  0.47000000000E+01 0. -1.
        -11    1    4    4    0    0  0.81631308879E+00 -0.25756889606E+02  0.16464820998E+03  0.16665268308E+03  0.00000000000E+00 0.  1.
         12    1    4    4    0    0 -0.70743193517E+02 -0.26627237919E+02  0.12185505562E+03  0.14339548043E+03  0.00000000000E+00 0. -1.
         -5    1    5    5    0  503 -0.25118117856E+02  0.71147725761E+00  0.56524765886E+02  0.62036805228E+02  0.47000000000E+01 0.  1.
         13    1    6    6    0    0  0.11040566116E+02  0.45182332017E+01  0.42274240244E+02  0.43925162716E+02  0.00000000000E+00 0. -1.
        -14    1    6    6    0    0  0.14080217108E+03  0.48118904952E+02  0.42760434072E+02  0.15481968582E+03  0.00000000000E+00 0.  1.
</event>
<event>
12    1  0.9246030E-003  0.1785985E+03  0.7818608E-02  0.1169773E+00
         21   -1    0    0  501  502  0.00000000000E+00  0.00000000000E+00  0.19331177255E+03  0.19331177255E+03  0.00000000000E+00 0.  1.
         21   -1    0    0  502  503 -0.00000000000E+00 -0.00000000000E+00 -0.21420842479E+03  0.21420842479E+03  0.00000000000E+00 0.  1.
          6    2    1    2  501    0  0.26028721276E+02  0.35867368881E+02  0.89486408250E+02  0.19756338820E+03  0.17046850916E+03 0.  0.
         24    2    3    3    0    0 -0.17092610619E+02 -0.28634899586E+02  0.82609784835E+02  0.11952897367E+03  0.79691180091E+02 0.  0.
         -6    2    1    2    0  503 -0.26028721276E+02 -0.35867368881E+02 -0.11038306049E+03  0.20995680913E+03  0.17301294511E+03 0.  0.
        -24    2    5    5    0    0  0.84103454910E+01 -0.35978332770E+02  0.48064332330E+01  0.89637354773E+02  0.81526555367E+02 0.  0.
          5    1    3    3  501    0  0.43121331894E+02  0.64502268467E+02  0.68766234147E+01  0.78034414531E+02  0.47000000000E+01 0. -1.
        -11    1    4    4    0    0  0.11982988266E+02  0.17046647764E+02  0.54857915158E+02  0.58681948360E+02  0.00000000000E+00 0.  1.
         12    1    4    4    0    0 -0.29075598884E+02 -0.45681547349E+02  0.27751869677E+02  0.60847025311E+02  0.00000000000E+00 0. -1.
         -5    1    5    5    0  503 -0.34439066767E+02  0.11096388937E+00 -0.11518949372E+03  0.12031945436E+03  0.47000000000E+01 0.  1.
         11    1    6    6    0    0  0.37420737825E+02  0.48930172337E+01 -0.64029901419E+01  0.38278603942E+02  0.00000000000E+00 0. -1.
        -12    1    6    6    0    0 -0.29010392334E+02 -0.40871350004E+02  0.11209423375E+02  0.51358750831E+02  0.00000000000E+00 0.  1.
</event>
<event>
12    1  0.9246030E-003  0.1772452E+03  0.7818608E-02  0.1170632E+00
         21   -1    0    0  501  502  0.00000000000E+00  0.00000000000E+00  0.15039981572E+03  0.15039981572E+03  0.00000000000E+00 0. -1.
         21   -1    0    0  502  503 -0.00000000000E+00 -0.00000000000E+00 -0.23933334394E+03  0.23933334394E+03  0.00000000000E+00 0. -1.
          6    2    1    2  501    0  0.84708671642E+01  0.43066961637E+02  0.25717311711E+02  0.17910119807E+03  0.17172460585E+03 0.  0.
         24    2    3    3    0    0 -0.29242614237E+02  0.82424320986E+02  0.34686484058E+02  0.12365893561E+03  0.80246376875E+02 0.  0.
         -6    2    1    2    0  503 -0.84708671642E+01 -0.43066961637E+02 -0.11465083993E+03  0.21063196159E+03  0.17115633021E+03 0.  0.
        -24    2    5    5    0    0  0.34062489101E+02 -0.71864198278E+02 -0.44201178769E+02  0.12331866369E+03  0.83240810010E+02 0.  0.
          5    1    3    3  501    0  0.37713481401E+02 -0.39357359349E+02 -0.89691723477E+01  0.55442262462E+02  0.47000000000E+01 0. -1.
        -13    1    4    4    0    0  0.20078692229E+02  0.39187300407E+02  0.37748219963E+02  0.57997642238E+02  0.00000000000E+00 0.  1.
         14    1    4    4    0    0 -0.49321306466E+02  0.43237020579E+02 -0.30617359044E+01  0.65661293368E+02  0.00000000000E+00 0. -1.
         -5    1    5    5    0  503 -0.42533356265E+02  0.28797236640E+02 -0.70449661159E+02  0.87313297903E+02  0.47000000000E+01 0.  1.
         13    1    6    6    0    0  0.59522514765E+01  0.18567437047E+02 -0.13692610994E+02  0.23825755224E+02  0.00000000000E+00 0. -1.
        -14    1    6    6    0    0  0.28110237625E+02 -0.90431635325E+02 -0.30508567775E+02  0.99492908463E+02  0.00000000000E+00 0.  1.
</event>
<event>
12    1  0.9246030E-003  0.2760683E+03  0.7818608E-02  0.1097858E+00
         21   -1    0    0  503  502  0.00000000000E+00  0.00000000000E+00  0.11676292633E+04  0.11676292633E+04  0.00000000000E+00 0.  1.
         21   -1    0    0  501  503 -0.00000000000E+00 -0.00000000000E+00 -0.75030024100E+02  0.75030024100E+02  0.00000000000E+00 0. -1.
          6    2    1    2  501    0  0.19765823878E+03  0.86923922713E+02  0.32216976737E+03  0.42426128464E+03  0.17198758948E+03 0.  0.
         24    2    3    3    0    0  0.63776147674E+02 -0.49836545761E+01  0.17628729299E+03  0.20591476322E+03  0.85037910473E+02 0.  0.
         -6    2    1    2    0  502 -0.19765823878E+03 -0.86923922713E+02  0.77042947178E+03  0.81839800272E+03  0.17201503471E+03 0.  0.
        -24    2    5    5    0    0 -0.53373097281E+02 -0.68254848832E+02  0.23314724164E+03  0.26174638707E+03  0.81523757016E+02 0.  0.
          5    1    3    3  501    0  0.13388209111E+03  0.91907577289E+02  0.14588247438E+03  0.21834652141E+03  0.47000000000E+01 0. -1.
        -11    1    4    4    0    0  0.55250498173E+02  0.13159002935E+02  0.43283870491E+02  0.71409175540E+02  0.00000000000E+00 0.  1.
         12    1    4    4    0    0  0.85256495012E+01 -0.18142657511E+02  0.13300342250E+03  0.13450558768E+03  0.00000000000E+00 0. -1.
         -5    1    5    5    0  502 -0.14428514150E+03 -0.18669073881E+02  0.53728223014E+03  0.55665161565E+03  0.47000000000E+01 0.  1.
         13    1    6    6    0    0 -0.38581746045E+02 -0.12142156839E+02  0.29687436863E+02  0.50172970892E+02  0.00000000000E+00 0. -1.
        -14    1    6    6    0    0 -0.14791351236E+02 -0.56112691993E+02  0.20345980477E+03  0.21157341618E+03  0.00000000000E+00 0.  1.
</event>
<event>
12    1  0.9246030E-003  0.2131758E+03  0.7818608E-02  0.1139225E+00
         21   -1    0    0  501  502  0.00000000000E+00  0.00000000000E+00  0.55388286894E+03  0.55388286894E+03  0.00000000000E+00 0.  1.
         21   -1    0    0  502  503 -0.00000000000E+00 -0.00000000000E+00 -0.83211940039E+02  0.83211940039E+02  0.00000000000E+00 0.  1.
          6    2    1    2  501    0 -0.27150296973E+01 -0.12414158109E+03  0.27714483280E+03  0.34917768725E+03  0.17232903233E+03 0.  0.
         24    2    3    3    0    0  0.46237134368E+02 -0.76706019953E+02  0.24721696614E+03  0.27458402780E+03  0.79110516899E+02 0.  0.
         -6    2    1    2    0  503  0.27150296973E+01  0.12414158109E+03  0.19352609610E+03  0.28791712173E+03  0.17327843366E+03 0.  0.
        -24    2    5    5    0    0 -0.50087711769E+02  0.57385081656E+02  0.16562082443E+03  0.19822122489E+03  0.77843240198E+02 0.  0.
          5    1    3    3  501    0 -0.48952164065E+02 -0.47435561137E+02  0.29927866657E+02  0.74593659447E+02  0.47000000000E+01 0. -1.
        -11    1    4    4    0    0  0.18448235610E+02 -0.74341967279E+02  0.22849943700E+03  0.24099597135E+03  0.00000000000E+00 0.  1.
         12    1    4    4    0    0  0.27788898758E+02 -0.23640526742E+01  0.18717529140E+02  0.33588056454E+02  0.00000000000E+00 0. -1.
         -5    1    5    5    0  503  0.52802741467E+02  0.66756499434E+02  0.27905271672E+02  0.89695896842E+02  0.47000000000E+01 0.  1.
         13    1    6    6    0    0 -0.51612795661E+02  0.70129543987E+02  0.16345912810E+03  0.18520507599E+03  0.00000000000E+00 0. -1.
        -14    1    6    6    0    0  0.15250838922E+01 -0.12744462331E+02  0.21616963319E+01  0.13016148893E+02  0.00000000000E+00 0.  1.
</event>
<event>
12    1  0.9246030E-003  0.1766660E+03  0.7818608E-02  0.1171126E+00
         21   -1    0    0  501  502  0.00000000000E+00  0.00000000000E+00  0.27720177348E+03  0.27720177348E+03  0.00000000000E+00 0. -1.
         21   -1    0    0  502  503 -0.00000000000E+00 -0.00000000000E+00 -0.11247011163E+03  0.11247011163E+03  0.00000000000E+00 0. -1.
          6    2    1    2  501    0 -0.14755136177E+02  0.37444014059E+02  0.79496497940E+02  0.19351908914E+03  0.17178526259E+03 0.  0.
         24    2    3    3    0    0 -0.44303162813E+02  0.42500288911E+02  0.11062467878E+03  0.15004834684E+03  0.80669957484E+02 0.  0.
         -6    2    1    2    0  503  0.14755136177E+02 -0.37444014059E+02  0.85235163910E+02  0.19615279598E+03  0.17202069053E+03 0.  0.
        -24    2    5    5    0    0 -0.19777867723E+02 -0.84088839442E+02  0.46740096006E+02  0.12635144680E+03  0.79485561988E+02 0.  0.
          5    1    3    3  501    0  0.29548026636E+02 -0.50562748526E+01 -0.31128180844E+02  0.43470742300E+02  0.47000000000E+01 0. -1.
        -11    1    4    4    0    0  0.80385981873E+01  0.39779533692E+02  0.79052314295E+02  0.88861120615E+02  0.00000000000E+00 0.  1.
         12    1    4    4    0    0 -0.52341761000E+02  0.27207552190E+01  0.31572364489E+02  0.61187226224E+02  0.00000000000E+00 0. -1.
         -5    1    5    5    0  503  0.34533003900E+02  0.46644825383E+02  0.38495067904E+02  0.69801349173E+02  0.47000000000E+01 0.  1.
         13    1    6    6    0    0 -0.49571537423E+02 -0.65961090321E+02  0.33140779419E+02  0.88918580844E+02  0.00000000000E+00 0. -1.
        -14    1    6    6    0    0  0.29793669700E+02 -0.18127749121E+02  0.13599316587E+02  0.37432865960E+02  0.00000000000E+00 0.  1.
</event>
<event>
12    1  0.9246030E-003  0.2108612E+03  0.7818608E-02  0.1141138E+00
         21   -1    0    0  501  502  0.00000000000E+00  0.00000000000E+00  0.18786534959E+02  0.18786534959E+02  0.00000000000E+00 0. -1.
         21   -1    0    0  502  503 -0.00000000000E+00 -0.00000000000E+00 -0.23820256618E+04  0.23820256618E+04  0.00000000000E+00 0.  1.
          6    2    1    2  501    0 -0.12062235943E+03  0.14526513945E+02 -0.13189455445E+04  0.13356945022E+04  0.17234175499E+03 0.  0.
         24    2    3    3    0    0 -0.12752588154E+03  0.60049946366E+02 -0.93318084681E+03  0.94716325051E+03  0.80142895763E+02 0.  0.
         -6    2    1    2    0  503  0.12062235943E+03 -0.14526513945E+02 -0.10442935823E+04  0.10651176946E+04  0.17078010438E+03 0.  0.
        -24    2    5    5    0    0  0.12510375136E+02 -0.24144718464E+02 -0.67279524564E+03  0.67805979819E+03  0.79825875860E+02 0.  0.
          5    1    3    3  501    0  0.69035221102E+01 -0.45523432421E+02 -0.38576469773E+03  0.38853125168E+03  0.47000000000E+01 0. -1.
        -13    1    4    4    0    0 -0.13982384085E+02 -0.16259742691E+02 -0.70079212330E+02  0.73286985870E+02  0.00000000000E+00 0.  1.
         14    1    4    4    0    0 -0.11354349746E+03  0.76309689057E+02 -0.86310163448E+03  0.87387626464E+03  0.00000000000E+00 0. -1.
         -5    1    5    5    0  503  0.10811198429E+03  0.96182045187E+01 -0.37149833671E+03  0.38705789642E+03  0.47000000000E+01 0.  1.
         13    1    6    6    0    0  0.37861890363E+02  0.12374180517E+02 -0.32864331321E+03  0.33104844118E+03  0.00000000000E+00 0. -1.
        -14    1    6    6    0    0 -0.25351515227E+02 -0.36518898981E+02 -0.34415193242E+03  0.34701135701E+03  0.00000000000E+00 0.  1.
</event>
<event>
12    1  0.9246030E-003  0.1947494E+03  0.7818608E-02  0.1155432E+00
         21   -1    0    0  503  502  0.00000000000E+00  0.00000000000E+00  0.56697601182E+02  0.56697601182E+02  0.00000000000E+00 0.  1.
         21   -1    0    0  501  503 -0.00000000000E+00 -0.00000000000E+00 -0.65079753249E+03  0.65079753249E+03  0.00000000000E+00 0. -1.
          6    2    1    2  501    0 -0.80465862130E+02 -0.42232880909E+02 -0.29650611306E+03  0.35474386463E+03  0.17224680900E+03 0.  0.
         24    2    3    3    0    0 -0.99317914046E+02 -0.41453290659E+02 -0.13071762434E+03  0.18781896949E+03  0.81280038336E+02 0.  0.
         -6    2    1    2    0  502  0.80465862130E+02  0.42232880909E+02 -0.29759381825E+03  0.35275126904E+03  0.16617161597E+03 0.  0.
        -24    2    5    5    0    0  0.18228763352E+02 -0.34120085067E+02 -0.11328392906E+03  0.14371668547E+03  0.79528416816E+02 0.  0.
          5    1    3    3  501    0  0.18852051917E+02 -0.77959024905E+00 -0.16578848873E+03  0.16692489514E+03  0.47000000000E+01 0. -1.
        -11    1    4    4    0    0  0.13921922594E+02 -0.41458302954E+01 -0.22625911552E+02  0.26887538212E+02  0.00000000000E+00 0.  1.
         12    1    4    4    0    0 -0.11323983664E+03 -0.37307460364E+02 -0.10809171278E+03  0.16093143128E+03  0.00000000000E+00 0. -1.
         -5    1    5    5    0  502  0.62237098778E+02  0.76352965975E+02 -0.18430988919E+03  0.20903458357E+03  0.47000000000E+01 0.  1.
         13    1    6    6    0    0  0.27671062013E+02 -0.45211401102E+02 -0.33704674250E+02  0.62815312853E+02  0.00000000000E+00 0. -1.
        -14    1    6    6    0    0 -0.94422986616E+01  0.11091316035E+02 -0.79579254810E+02  0.80901372618E+02  0.00000000000E+00 0.  1.
</event>
<event>
12    1  0.9246030E-003  0.2092965E+03  0.7818608E-02  0.1142626E+00
         21   -1    0    0  503  502  0.00000000000E+00  0.00000000000E+00  0.26234670296E+03  0.26234670296E+03  0.00000000000E+00 0. -1.
         21   -1    0    0  501  503 -0.00000000000E+00 -0.00000000000E+00 -0.17580212210E+03  0.17580212210E+03  0.00000000000E+00 0.  1.
          6    2    1    2  501    0  0.10828912339E+03  0.48115297941E+02  0.97875796541E+02  0.23105127038E+03  0.17252072877E+03 0.  0.
         24    2    3    3    0    0  0.78468983592E+02  0.90802281814E+02  0.10450485762E+03  0.17834971651E+03  0.80529003126E+02 0.  0.
         -6    2    1    2    0  502 -0.10828912339E+03 -0.48115297941E+02 -0.11331215680E+02  0.20709755468E+03  0.16946794555E+03 0.  0.
        -24    2    5    5    0    0 -0.10742087408E+03  0.17745414044E+02 -0.46559122113E+02  0.13225450135E+03  0.58901251001E+02 0.  0.
          5    1    3    3  501    0  0.29820139793E+02 -0.42686983874E+02 -0.66290610754E+01  0.52701553869E+02  0.47000000000E+01 0. -1.
        -11    1    4    4    0    0  0.39139806682E+02 -0.90125514800E+00  0.88783833593E+01  0.40144270065E+02  0.00000000000E+00 0.  1.
         12    1    4    4    0    0  0.39329176910E+02  0.91703536962E+02  0.95626474257E+02  0.13820544644E+03  0.00000000000E+00 0. -1.
         -5    1    5    5    0  502 -0.86824930906E+00 -0.65860711985E+02  0.35227906433E+02  0.74843053330E+02  0.47000000000E+01 0.  1.
         13    1    6    6    0    0 -0.45555672578E+02  0.30933745781E+02 -0.41200150229E+02  0.68772584007E+02  0.00000000000E+00 0. -1.
        -14    1    6    6    0    0 -0.61865201498E+02 -0.13188331736E+02 -0.53589718837E+01  0.63481917346E+02  0.00000000000E+00 0.  1.
</event>
<event>
12    1  0.9246030E-003  0.1930614E+03  0.7818608E-02  0.1156064E+00
         21   -1    0    0  503  502  0.00000000000E+00  0.00000000000E+00  0.94591119530E+03  0.94591119530E+03  0.00000000000E+00 0. -1.
         21   -1    0    0  501  503 -0.00000000000E+00 -0.00000000000E+00 -0.72068847808E+02  0.72068847808E+02  0.00000000000E+00 0. -1.
          6    2    1    2  501    0 -0.77829163792E+02  0.29198110792E+02  0.91707327297E+02  0.21236977819E+03  0.17257108795E+03 0.  0.
         24    2    3    3    0    0 -0.66913232339E+02 -0.51820309077E+02  0.29315874299E+02  0.10942355279E+03  0.62859910305E+02 0.  0.
         -6    2    1    2    0  502  0.77829163792E+02 -0.29198110792E+02  0.78213502019E+03  0.80561026492E+03  0.17424924883E+03 0.  0.
        -24    2    5    5    0    0  0.87738252186E+02 -0.55056892098E+02  0.75711066770E+03  0.76799145551E+03  0.76583616584E+02 0.  0.
          5    1    3    3  501    0 -0.10915931454E+02  0.81018419869E+02  0.62391452998E+02  0.10294622540E+03  0.47000000000E+01 0. -1.
        -13    1    4    4    0    0 -0.45479351404E+01 -0.31552849575E+02  0.30098832608E+02  0.43842966993E+02  0.00000000000E+00 0.  1.
         14    1    4    4    0    0 -0.62365297198E+02 -0.20267459501E+02 -0.78295830875E+00  0.65580585793E+02  0.00000000000E+00 0. -1.
         -5    1    5    5    0  502 -0.99090883934E+01  0.25858781306E+02  0.25024352491E+02  0.37618809404E+02  0.47000000000E+01 0.  1.
         13    1    6    6    0    0 -0.77648342615E+01 -0.10011427420E+02  0.22427085460E+02  0.25758406245E+02  0.00000000000E+00 0. -1.
        -14    1    6    6    0    0  0.95503086447E+02 -0.45045464679E+02  0.73468358224E+03  0.74223304927E+03  0.00000000000E+00 0.  1.
</event>
<event>
12    1  0.9246030E-003  0.2404790E+03  0.7818608E-02  0.1119515E+00
         21   -1    0    0  503  502  0.00000000000E+00  0.00000000000E+00  0.28381707628E+03  0.28381707628E+03  0.00000000000E+00 0.  1.
         21   -1    0    0  501  503 -0.00000000000E+00 -0.00000000000E+00 -0.24701193165E+03  0.24701193165E+03  0.00000000000E+00 0.  1.
          6    2    1    2  501    0 -0.59949639181E+02  0.15686209481E+03 -0.92936390465E+02  0.25758362727E+03  0.17179195656E+03 0.  0.
         24    2    3    3    0    0 -0.69931749339E+01  0.27382579692E+02 -0.50803313124E+02  0.11141038024E+03  0.95039918113E+02 0.  0.
         -6    2    1    2    0  502  0.59949639181E+02 -0.15686209481E+03  0.12974153509E+03  0.27324538066E+03  0.17213511001E+03 0.  0.
        -24    2    5    5    0    0  0.15701474536E+02 -0.90388555560E+02  0.14098584988E+01  0.12202454641E+03  0.80444856556E+02 0.  0.
          5    1    3    3  501    0 -0.52956464247E+02  0.12947951512E+03 -0.42133077340E+02  0.14617324703E+03  0.47000000000E+01 0. -1.
        -13    1    4    4    0    0 -0.17695439323E+02  0.39147784196E+02 -0.72641302226E+02  0.84394528078E+02  0.00000000000E+00 0.  1.
         14    1    4    4    0    0  0.10702264389E+02 -0.11765204505E+02  0.21837989102E+02  0.27015852163E+02  0.00000000000E+00 0. -1.
         -5    1    5    5    0  502  0.44248164645E+02 -0.66473539251E+02  0.12833167659E+03  0.15122083425E+03  0.47000000000E+01 0.  1.
         11    1    6    6    0    0 -0.21893441240E+02 -0.78328399760E+02  0.89752334043E+01  0.81824298305E+02  0.00000000000E+00 0. -1.
        -12    1    6    6    0    0  0.37594915777E+02 -0.12060155800E+02 -0.75653749054E+01  0.40200248104E+02  0.00000000000E+00 0.  1.
</event>
<event>
12    1  0.9246030E-003  0.1798958E+03  0.7818608E-02  0.1168134E+00
         21   -1    0    0  501  502  0.00000000000E+00  0.00000000000E+00  0.14260843819E+03  0.14260843819E+03  0.00000000000E+00 0. -1.
         21   -1    0    0  502  503 -0.00000000000E+00 -0.00000000000E+00 -0.25058109019E+03  0.25058109019E+03  0.00000000000E+00 0. -1.
          6    2    1    2  501    0 -0.54396992263E+01  0.47434947695E+02  0.80393517733E+01  0.17913048637E+03  0.17246285217E+03 0.  0.
         24    2    3    3    0    0  0.45044799684E+02  0.22863272496E+02  0.44381756998E+02  0.11208339643E+03  0.89672650194E+02 0.  0.
         -6    2    1    2    0  503  0.54396992263E+01 -0.47434947695E+02 -0.11601200377E+03  0.21405904200E+03  0.17344400784E+03 0.  0.
        -24    2    5    5    0    0  0.20997764128E+02 -0.76182163209E+02 -0.13543350247E+03  0.17574794185E+03  0.79375546504E+02 0.  0.
          5    1    3    3  501    0 -0.50484498910E+02  0.24571675200E+02 -0.36342405224E+02  0.67047089943E+02  0.47000000000E+01 0. -1.
        -11    1    4    4    0    0  0.12331611797E+02 -0.16800033904E+02 -0.20545678596E+02  0.29264905563E+02  0.00000000000E+00 0.  1.
         12    1    4    4    0    0  0.32713187887E+02  0.39663306400E+02  0.64927435593E+02  0.82818490864E+02  0.00000000000E+00 0. -1.
         -5    1    5    5    0  503 -0.15558064902E+02  0.28747215513E+02  0.19421498701E+02  0.38311100155E+02  0.47000000000E+01 0.  1.
         13    1    6    6    0    0 -0.31159439065E+01 -0.69970094834E+02 -0.48180070095E+02  0.85010837144E+02  0.00000000000E+00 0. -1.
        -14    1    6    6    0    0  0.24113708035E+02 -0.62120683740E+01 -0.87253432378E+02  0.90737104706E+02  0.00000000000E+00 0.  1.
</event>
<event>
12    1  0.9246030E-003  0.1799417E+03  0.7818608E-02  0.1167976E+00
         21   -1    0    0  501  502  0.00000000000E+00  0.00000000000E+00  0.89924737799E+03  0.89924737799E+03  0.00000000000E+00 0.  1.
         21   -1    0    0  502  503 -0.00000000000E+00 -0.00000000000E+00 -0.37223530722E+02  0.37223530722E+02  0.00000000000E+00 0.  1.
          6    2    1    2  501    0  0.18543720698E+02  0.48637755155E+02  0.51839758627E+03  0.54858171471E+03  0.17174498382E+03 0.  0.
         24    2    3    3    0    0 -0.57062572682E+02  0.32107349585E+02  0.30906472345E+03  0.32535110892E+03  0.77751666843E+02 0.  0.
         -6    2    1    2    0  503 -0.18543720698E+02 -0.48637755155E+02  0.34362626100E+03  0.38788919400E+03  0.17224842167E+03 0.  0.
        -24    2    5    5    0    0  0.19636336515E+02 -0.56051380948E+02  0.33322780201E+03  0.34735653352E+03  0.78028522530E+02 0.  0.
          5    1    3    3  501    0  0.75606293381E+02  0.16530405569E+02  0.20933286282E+03  0.22323060580E+03  0.47000000000E+01 0. -1.
        -11    1    4    4    0    0  0.14984680070E+02  0.35218845775E+01  0.12046954499E+03  0.12144898344E+03  0.00000000000E+00 0.  1.
         12    1    4    4    0    0 -0.72047252752E+02  0.28585465008E+02  0.18859517845E+03  0.20390212548E+03  0.00000000000E+00 0. -1.
         -5    1    5    5    0  503 -0.38180057213E+02  0.74136257930E+01  0.10398458994E+02  0.40532660481E+02  0.47000000000E+01 0.  1.
         11    1    6    6    0    0 -0.29201661056E+02 -0.15865412723E+02  0.86871640757E+02  0.93011452505E+02  0.00000000000E+00 0. -1.
        -12    1    6    6    0    0  0.48837997571E+02 -0.40185968225E+02  0.24635616125E+03  0.25434508101E+03  0.00000000000E+00 0.  1.
</event>
<event>
12    1  0.9246030E-003  0.3607843E+03  0.7818608E-02  0.1058343E+00
         21   -1    0    0  503  502  0.00000000000E+00  0.00000000000E+00  0.53697778221E+03  0.53697778221E+03  0.00000000000E+00 0.  1.
         21   -1    0    0  501  503 -0.00000000000E+00 -0.00000000000E+00 -0.24196363209E+03  0.24196363209E+03  0.00000000000E+00 0. -1.
          6    2    1    2  501    0 -0.27837299539E+02  0.31603745657E+03  0.14342111522E+03  0.38824595479E+03  0.17178683277E+03 0.  0.
         24    2    3    3    0    0 -0.73965493508E+02  0.28374502682E+03  0.11278675148E+03  0.32397181115E+03  0.79086968816E+02 0.  0.
         -6    2    1    2    0  502  0.27837299539E+02 -0.31603745657E+03  0.15159303490E+03  0.39069545951E+03  0.17031707093E+03 0.  0.
        -24    2    5    5    0    0  0.62371345339E+02 -0.11027914983E+03  0.44721199862E+02  0.15623275408E+03  0.79730873098E+02 0.  0.
          5    1    3    3  501    0  0.46128193969E+02  0.32292429753E+02  0.30634363743E+02  0.64274143636E+02  0.47000000000E+01 0. -1.
        -13    1    4    4    0    0 -0.74600780596E+02  0.17626313649E+03  0.44098040251E+02  0.19641437550E+03  0.00000000000E+00 0.  1.
         14    1    4    4    0    0  0.63528708794E+00  0.10748189033E+03  0.68688711229E+02  0.12755743565E+03  0.00000000000E+00 0. -1.
         -5    1    5    5    0  502 -0.34534045799E+02 -0.20575830674E+03  0.10687183504E+03  0.23446270543E+03  0.47000000000E+01 0.  1.
         11    1    6    6    0    0 -0.13783982081E+02 -0.16895828878E+02 -0.98810775882E+01  0.23939567452E+02  0.00000000000E+00 0. -1.
        -12    1    6    6    0    0  0.76155327420E+02 -0.93383320951E+02  0.54602277450E+02  0.13229318663E+03  0.00000000000E+00 0.  1.
</event>
<event>
12    1  0.9246030E-003  0.1898777E+03  0.7818608E-02  0.1158655E+00
         21   -1    0    0  501  502  0.00000000000E+00  0.00000000000E+00  0.12033655775E+03  0.12033655775E+03  0.00000000000E+00 0. -1.
         21   -1    0    0  502  503 -0.00000000000E+00 -0.00000000000E+00 -0.33136288724E+03  0.33136288724E+03  0.00000000000E+00 0. -1.
          6    2    1    2  501    0  0.16508308527E+02 -0.74898519574E+02 -0.17616227563E+03  0.25901100303E+03  0.17369870422E+03 0.  0.
         24    2    3    3    0    0 -0.35404889661E+02 -0.42337828089E+02 -0.31208415053E+02  0.10156612228E+03  0.79345536269E+02 0.  0.
         -6    2    1    2    0  503 -0.16508308527E+02  0.74898519574E+02 -0.34864053852E+02  0.19268844196E+03  0.17329460733E+03 0.  0.
        -24    2    5    5    0    0 -0.60833021483E+02  0.71012406913E+02  0.16231385352E+02  0.12477219974E+03  0.81001392075E+02 0.  0.
          5    1    3    3  501    0  0.51913198188E+02 -0.32560691486E+02 -0.14495386058E+03  0.15744488075E+03  0.47000000000E+01 0. -1.
        -13    1    4    4    0    0 -0.48766791826E+02  0.35043047967E+01 -0.15050433561E+02  0.51156580100E+02  0.00000000000E+00 0.  1.
         14    1    4    4    0    0  0.13361902166E+02 -0.45842132885E+02 -0.16157981492E+02  0.50409542181E+02  0.00000000000E+00 0. -1.
         -5    1    5    5    0  503  0.44324712956E+02  0.38861126612E+01 -0.51095439204E+02  0.67916242223E+02  0.47000000000E+01 0.  1.
         13    1    6    6    0    0 -0.31895689943E+01 -0.71158317289E+01  0.26043606891E+02  0.27185986674E+02  0.00000000000E+00 0. -1.
        -14    1    6    6    0    0 -0.57643452488E+02  0.78128238642E+02 -0.98122215386E+01  0.97586213061E+02  0.00000000000E+00 0.  1.
</event>
<event>
12    1  0.9246030E-003  0.3376351E+03  0.7818608E-02  0.1067819E+00
         21   -1    0    0  503  502  0.00000000000E+00  0.00000000000E+00  0.21283078518E+03  0.21283078518E+03  0.00000000000E+00 0. -1.
         21   -1    0    0  501  503 -0.00000000000E+00 -0.00000000000E+00 -0.53552334696E+03  0.53552334696E+03  0.00000000000E+00 0.  1.
          6    2    1    2  501    0  0.28674964770E+03  0.46436646797E+02 -0.15726752736E+03  0.37246548982E+03  0.17209225237E+03 0.  0.
         24    2    3    3    0    0  0.26212246132E+03  0.60054291695E+02 -0.82504633247E+02  0.29244349974E+03  0.80009270417E+02 0.  0.
         -6    2    1    2    0  502 -0.28674964770E+03 -0.46436646797E+02 -0.16542503443E+03  0.37588864232E+03  0.17188690116E+03 0.  0.
        -24    2    5    5    0    0 -0.14075581789E+03 -0.62449918134E+02 -0.41919856942E+02  0.18393489251E+03  0.91447130804E+02 0.  0.
          5    1    3    3  501    0  0.24627186382E+02 -0.13617644898E+02 -0.74762894110E+02  0.80021990087E+02  0.47000000000E+01 0. -1.
        -13    1    4    4    0    0  0.26567612702E+03  0.59383469285E+02 -0.87791855604E+02  0.28603777863E+03  0.00000000000E+00 0.  1.
         14    1    4    4    0    0 -0.35536657043E+01  0.67082241030E+00  0.52872223561E+01  0.64057211059E+01  0.00000000000E+00 0. -1.
         -5    1    5    5    0  502 -0.14599382980E+03  0.16013271337E+02 -0.12350517748E+03  0.19195374981E+03  0.47000000000E+01 0.  1.
         11    1    6    6    0    0 -0.45442518870E+02 -0.33265577556E+01  0.26345417983E+02  0.52632400254E+02  0.00000000000E+00 0. -1.
        -12    1    6    6    0    0 -0.95313299024E+02 -0.59123360378E+02 -0.68265274925E+02  0.13130249226E+03  0.00000000000E+00 0.  1.
</event>
<event>
12    1  0.9246030E-003  0.2165089E+03  0.7818608E-02  0.1136634E+00
         21   -1    0    0  503  502  0.00000000000E+00  0.00000000000E+00  0.81413853807E+02  0.81413853807E+02  0.00000000000E+00 0. -1.
         21   -1    0    0  501  503 -0.00000000000E+00 -0.00000000000E+00 -0.74648763722E+03  0.74648763722E+03  0.00000000000E+00 0. -1.
          6    2    1    2  501    0  0.64032710543E+00  0.13186713847E+03 -0.53109180590E+03  0.57328950903E+03  0.17091811676E+03 0.  0.
         24    2    3    3    0    0 -0.62415552750E+02  0.43517941646E+02 -0.20801880083E+03  0.23243780936E+03  0.70469860567E+02 0.  0.
         -6    2    1    2    0  502 -0.64032710543E+00 -0.13186713847E+03 -0.13398197751E+03  0.25461198200E+03  0.17171703134E+03 0.  0.
        -24    2    5    5    0    0 -0.44433297380E+02 -0.31038893949E+02 -0.10018955002E+03  0.13951125527E+03  0.80546344171E+02 0.  0.
          5    1    3    3  501    0  0.63055879855E+02  0.88349196824E+02 -0.32307300507E+03  0.34085169967E+03  0.47000000000E+01 0. -1.
        -11    1    4    4    0    0 -0.37900429168E+02 -0.19613664240E+01 -0.34146537929E+02  0.51051694799E+02  0.00000000000E+00 0.  1.
         12    1    4    4    0    0 -0.24515123582E+02  0.45479308070E+02 -0.17387226290E+03  0.18138611456E+03  0.00000000000E+00 0. -1.
         -5    1    5    5    0  502  0.43792970275E+02 -0.10082824452E+03 -0.33792427491E+02  0.11510072673E+03  0.47000000000E+01 0.  1.
         11    1    6    6    0    0 -0.58591455002E+02 -0.38515775147E+02 -0.48133599343E+02  0.85048615039E+02  0.00000000000E+00 0. -1.
        -12    1    6    6    0    0  0.14158157621E+02  0.74768811979E+01 -0.52055950678E+02  0.54462640228E+02  0.00000000000E+00 0.  1.
</event>
<event>
12    1  0.9246030E-003  0.2437563E+03  0.7818608E-02  0.1117479E+00
         21   -1    0    0  503  502  0.00000000000E+00  0.00000000000E+00  0.27186713461E+03  0.27186713461E+03  0.00000000000E+00 0. -1.
         21   -1    0    0  501  503 -0.00000000000E+00 -0.00000000000E+00 -0.26716520144E+03  0.26716520144E+03  0.00000000000E+00 0. -1.
          6    2    1    2  501    0 -0.14764844453E+03  0.86127283974E+02 -0.11367414525E+03  0.26805260204E+03  0.17237289214E+03 0.  0.
         24    2    3    3    0    0 -0.12926029562E+02 -0.27285606151E+01 -0.33925298703E+02  0.87976343923E+02  0.80089849012E+02 0.  0.
         -6    2    1    2    0  502  0.14764844453E+03 -0.86127283974E+02  0.11837607843E+03  0.27097973401E+03  0.17377902084E+03 0.  0.
        -24    2    5    5    0    0  0.23319818802E+02  0.10762358100E+02  0.77518217719E+02  0.10807895225E+03  0.70797906327E+02 0.  0.
          5    1    3    3  501    0 -0.13472241497E+03  0.88855844589E+02 -0.79748846549E+02  0.18007625812E+03  0.47000000000E+01 0. -1.
        -11    1    4    4    0    0  0.17138110673E+02  0.21741129423E+02 -0.40096108226E+02  0.48724628689E+02  0.00000000000E+00 0.  1.
         12    1    4    4    0    0 -0.30064140235E+02 -0.24469690038E+02  0.61708095230E+01  0.39251715234E+02  0.00000000000E+00 0. -1.
         -5    1    5    5    0  502  0.12432862573E+03 -0.96889642075E+02  0.40857860708E+02  0.16290078176E+03  0.47000000000E+01 0.  1.
         11    1    6    6    0    0  0.37933118066E+02 -0.13074734809E+02  0.67217549746E+02  0.78281984712E+02  0.00000000000E+00 0. -1.
        -12    1    6    6    0    0 -0.14613299264E+02  0.23837092910E+02  0.10300667973E+02  0.29796967538E+02  0.00000000000E+00 0.  1.
</event>
<event>
12    1  0.9246030E-003  0.2312511E+03  0.7818608E-02  0.1127732E+00
         21   -1    0    0  503  502  0.00000000000E+00  0.00000000000E+00  0.16626353498E+04  0.16626353498E+04  0.00000000000E+00 0. -1.
         21   -1    0    0  501  503 -0.00000000000E+00 -0.00000000000E+00 -0.32680298675E+02  0.32680298675E+02  0.00000000000E+00 0. -1.
          6    2    1    2  501    0  0.95236855327E+02  0.10166416621E+03  0.58537347804E+03  0.62544287389E+03  0.17061951354E+03 0.  0.
         24    2    3    3    0    0  0.12998255119E+03  0.72939394044E+02  0.51234078500E+03  0.53948800102E+03  0.79615353148E+02 0.  0.
         -6    2    1    2    0  502 -0.95236855327E+02 -0.10166416621E+03  0.10445815731E+04  0.10698727746E+04  0.18458447841E+03 0.  0.
        -24    2    5    5    0    0 -0.13308096490E+03 -0.96438784748E+02  0.85088305658E+03  0.87238685980E+03  0.10022911136E+03 0.  0.
          5    1    3    3  501    0 -0.34745695859E+02  0.28724772164E+02  0.73032693042E+02  0.85954872867E+02  0.47000000000E+01 0. -1.
        -13    1    4    4    0    0  0.34869899321E+01  0.11983416413E+02  0.56483656011E+01  0.13699102222E+02  0.00000000000E+00 0.  1.
         14    1    4    4    0    0  0.12649556125E+03  0.60955977631E+02  0.50669241940E+03  0.52578889880E+03  0.00000000000E+00 0. -1.
         -5    1    5    5    0  502  0.37844109570E+02 -0.52253814600E+01  0.19369851650E+03  0.19748591478E+03  0.47000000000E+01 0.  1.
         13    1    6    6    0    0 -0.32213746989E+02 -0.47157071744E+02  0.11958308991E+03  0.13252030148E+03  0.00000000000E+00 0. -1.
        -14    1    6    6    0    0 -0.10086721791E+03 -0.49281713005E+02  0.73129996667E+03  0.73986655833E+03  0.00000000000E+00 0.  1.
</event>
<event>
12    1  0.9246030E-003  0.1838396E+03  0.7818608E-02  0.1165561E+00
         21   -1    0    0  501  502  0.00000000000E+00  0.00000000000E+00  0.63120360526E+03  0.63120360526E+03  0.00000000000E+00 0.  1.
         21   -1    0    0  502  503 -0.00000000000E+00 -0.00000000000E+00 -0.52879656812E+02  0.52879656812E+02  0.00000000000E+00 0.  1.
          6    2    1    2  501    0 -0.36510979750E+02 -0.58987421323E+02  0.23627176263E+03  0.29575776358E+03  0.16381618169E+03 0.  0.
         24    2    3    3    0    0 -0.12647652206E+02 -0.87069544910E+01  0.22411879640E+03  0.23859686493E+03  0.80395614868E+02 0.  0.
         -6    2    1    2    0  503  0.36510979750E+02  0.58987421323E+02  0.34205218582E+03  0.38832549849E+03  0.17024813492E+03 0.  0.
        -24    2    5    5    0    0  0.87055077919E+02  0.21311367139E+02  0.21094878923E+03  0.24277694469E+03  0.80053058865E+02 0.  0.
          5    1    3    3  501    0 -0.23863327545E+02 -0.50280466832E+02  0.12152966230E+02  0.57160898650E+02  0.47000000000E+01 0. -1.
        -11    1    4    4    0    0 -0.44987299678E+02 -0.47278148287E+01  0.16505732088E+03  0.17114359042E+03  0.00000000000E+00 0.  1.
         12    1    4    4    0    0  0.32339647473E+02 -0.39791396624E+01  0.59061475517E+02  0.67453274504E+02  0.00000000000E+00 0. -1.
         -5    1    5    5    0  503 -0.50544098169E+02  0.37676054183E+02  0.13110339658E+03  0.14554855380E+03  0.47000000000E+01 0.  1.
         13    1    6    6    0    0  0.62031947927E+02 -0.75181681508E+01  0.58413437240E+02  0.85537214510E+02  0.00000000000E+00 0. -1.
        -14    1    6    6    0    0  0.25023129992E+02  0.28829535290E+02  0.15253535199E+03  0.15723973018E+03  0.00000000000E+00 0.  1.
</event>
<event>
12    1  0.9246030E-003  0.2397587E+03  0.7818608E-02  0.1120013E+00
         21   -1    0    0  503  502  0.00000000000E+00  0.00000000000E+00  0.24859401685E+03  0.24859401685E+03  0.00000000000E+00 0. -1.
         21   -1    0    0  501  503 -0.00000000000E+00 -0.00000000000E+00 -0.27851303793E+03  0.27851303793E+03  0.00000000000E+00 0.  1.
          6    2    1    2  501    0 -0.14169143771E+03 -0.88324906322E+02 -0.12394808990E+03  0.26990254226E+03  0.17206539667E+03 0.  0.
         24    2    3    3    0    0 -0.21975368997E+02 -0.64835681096E+02 -0.95282476935E+02  0.14449325960E+03  0.84338421105E+02 0.  0.
         -6    2    1    2    0  502  0.14169143771E+03  0.88324906322E+02  0.94029068823E+02  0.25720451253E+03  0.17156614725E+03 0.  0.
        -24    2    5    5    0    0  0.15770038592E+03  0.42099235771E+02  0.10124323376E+03  0.20753326112E+03  0.78600920594E+02 0.  0.
          5    1    3    3  501    0 -0.11971606871E+03 -0.23489225226E+02 -0.28665612967E+02  0.12540928266E+03  0.47000000000E+01 0. -1.
        -11    1    4    4    0    0  0.93978715642E+01  0.16640122791E+02 -0.70593602164E+01  0.20372732833E+02  0.00000000000E+00 0.  1.
         12    1    4    4    0    0 -0.31373240561E+02 -0.81475803887E+02 -0.88223116719E+02  0.12412052677E+03  0.00000000000E+00 0. -1.
         -5    1    5    5    0  502 -0.16008948207E+02  0.46225670551E+02 -0.72141649374E+01  0.49671251407E+02  0.47000000000E+01 0.  1.
         11    1    6    6    0    0  0.13938257844E+03  0.51087233422E+02  0.11056560617E+03  0.18510041021E+03  0.00000000000E+00 0. -1.
        -12    1    6    6    0    0  0.18317807477E+02 -0.89879976510E+01 -0.93223724139E+01  0.22432850910E+02  0.00000000000E+00 0.  1.
</event>
<event>
12    1  0.9246030E-003  0.3112074E+03  0.7818608E-02  0.1079805E+00
         21   -1    0    0  503  502  0.00000000000E+00  0.00000000000E+00  0.81670707752E+02  0.81670707752E+02  0.00000000000E+00 0. -1.
         21   -1    0    0  501  503 -0.00000000000E+00 -0.00000000000E+00 -0.12110969280E+04  0.12110969280E+04  0.00000000000E+00 0.  1.
          6    2    1    2  501    0  0.19591082938E+03 -0.17048666777E+03 -0.66040457315E+03  0.73005770207E+03  0.17147387894E+03 0.  0.
         24    2    3    3    0    0  0.16388673131E+03 -0.15541331418E+03 -0.64662981080E+03  0.69178783241E+03  0.97098578443E+02 0.  0.
         -6    2    1    2    0  502 -0.19591082938E+03  0.17048666777E+03 -0.46902164707E+03  0.56270993366E+03  0.17092222517E+03 0.  0.
        -24    2    5    5    0    0 -0.17571787597E+02  0.52226858559E+02 -0.16099280925E+03  0.18761787665E+03  0.79027656764E+02 0.  0.
          5    1    3    3  501    0  0.32024098074E+02 -0.15073353597E+02 -0.13774762355E+02  0.38269869664E+02  0.47000000000E+01 0. -1.
        -13    1    4    4    0    0  0.28495937802E+02 -0.81007423932E+02 -0.16532890087E+03  0.18630047414E+03  0.00000000000E+00 0.  1.
         14    1    4    4    0    0  0.13539079351E+03 -0.74405890245E+02 -0.48130090993E+03  0.50548735827E+03  0.00000000000E+00 0. -1.
         -5    1    5    5    0  502 -0.17833904179E+03  0.11825980921E+03 -0.30802883782E+03  0.37509205701E+03  0.47000000000E+01 0.  1.
         13    1    6    6    0    0 -0.83456087157E+00  0.14399287640E+01  0.91343693792E+01  0.92847504355E+01  0.00000000000E+00 0. -1.
        -14    1    6    6    0    0 -0.16737226726E+02  0.50786929795E+02 -0.17012717863E+03  0.17833312622E+03  0.00000000000E+00 0.  1.
</event>
<event>
12    1  0.9246030E-003  0.1823626E+03  0.7818608E-02  0.1165724E+00
         21   -1    0    0  501  502  0.00000000000E+00  0.00000000000E+00  0.61750056601E+03  0.61750056601E+03  0.00000000000E+00 0.  1.
         21   -1    0    0  502  503 -0.00000000000E+00 -0.00000000000E+00 -0.88630221729E+02  0.88630221729E+02  0.00000000000E+00 0.  1.
          6    2    1    2  501    0  0.61907817815E+02  0.16415513051E+01  0.48667077740E+03  0.51971584577E+03  0.17152504824E+03 0.  0.
         24    2    3    3    0    0 -0.18453048745E+02  0.38523259605E+02  0.19671250594E+03  0.21653929907E+03  0.79805397747E+02 0.  0.
         -6    2    1    2    0  503 -0.61907817815E+02 -0.16415513051E+01  0.42199566881E+02  0.18641494197E+03  0.17068817928E+03 0.  0.
        -24    2    5    5    0    0 -0.21188376046E+02  0.22061647181E+02 -0.36954884627E+02  0.94179201878E+02  0.81045635372E+02 0.  0.
          5    1    3    3  501    0  0.80360866561E+02 -0.36881708300E+02  0.28995827146E+03  0.30317654670E+03  0.47000000000E+01 0. -1.
        -11    1    4    4    0    0  0.14062114555E+02 -0.18961640242E+02  0.39479977980E+02  0.45999516603E+02  0.00000000000E+00 0.  1.
         12    1    4    4    0    0 -0.32515163300E+02  0.57484899847E+02  0.15723252796E+03  0.17053978247E+03  0.00000000000E+00 0. -1.
         -5    1    5    5    0  503 -0.40719441769E+02 -0.23703198486E+02  0.79154451509E+02  0.92235740091E+02  0.47000000000E+01 0.  1.
         13    1    6    6    0    0  0.17970783433E+02 -0.12858347342E+01  0.16145177153E+02  0.24192337082E+02  0.00000000000E+00 0. -1.
        -14    1    6    6    0    0 -0.39159159479E+02  0.23347481915E+02 -0.53100061781E+02  0.69986864796E+02  0.00000000000E+00 0.  1.
</event>
<event>
12    1  0.9246030E-003  0.3408644E+03  0.7818608E-02  0.1066473E+00
         21   -1    0    0  501  502  0.00000000000E+00  0.00000000000E+00  0.42681949138E+03  0.42681949138E+03  0.00000000000E+00 0. -1.
         21   -1    0    0  502  503 -0.00000000000E+00 -0.00000000000E+00 -0.28583136261E+03  0.28583136261E+03  0.00000000000E+00 0. -1.
          6    2    1    2  501    0 -0.17993821164E+03 -0.23216282502E+03  0.14924318032E+03  0.37210494307E+03  0.17294861795E+03 0.  0.
         24    2    3    3    0    0 -0.97161187431E+02 -0.70158674355E+02  0.11978829003E+03  0.18774914269E+03  0.80857715912E+02 0.  0.
         -6    2    1    2    0  503  0.17993821164E+03  0.23216282502E+03 -0.82550515534E+01  0.34054591092E+03  0.17212214917E+03 0.  0.
        -24    2    5    5    0    0  0.11355708839E+03  0.51301453998E+02 -0.57101422435E-01  0.14765582449E+03  0.79216082587E+02 0.  0.
          5    1    3    3  501    0 -0.82777024210E+02 -0.16200415067E+03  0.29454890295E+02  0.18435580038E+03  0.47000000000E+01 0. -1.
        -13    1    4    4    0    0 -0.24138745248E+02 -0.68462584465E+01 -0.90648647678E+01  0.26678119314E+02  0.00000000000E+00 0.  1.
         14    1    4    4    0    0 -0.73022442183E+02 -0.63312415908E+02  0.12885315479E+03  0.16107102337E+03  0.00000000000E+00 0. -1.
         -5    1    5    5    0  503  0.66381123251E+02  0.18086137103E+03 -0.81979501310E+01  0.19289008642E+03  0.47000000000E+01 0.  1.
         11    1    6    6    0    0  0.10065339270E+03  0.48995479353E+02 -0.29208700588E+02  0.11569274243E+03  0.00000000000E+00 0. -1.
        -12    1    6    6    0    0  0.12903695687E+02  0.23059746452E+01  0.29151599166E+02  0.31963082069E+02  0.00000000000E+00 0.  1.
</event>
<event>
12    1  0.9246030E-003  0.1738617E+03  0.7818608E-02  0.1174259E+00
         21   -1    0    0  503  502  0.00000000000E+00  0.00000000000E+00  0.14039869490E+03  0.14039869490E+03  0.00000000000E+00 0. -1.
         21   -1    0    0  501  503 -0.00000000000E+00 -0.00000000000E+00 -0.22097169610E+03  0.22097169610E+03  0.00000000000E+00 0. -1.
          6    2    1    2  501    0 -0.91051685621E+01  0.19873917863E+02 -0.73440812517E+02  0.18736249410E+03  0.17097740947E+03 0.  0.
         24    2    3    3    0    0  0.14760804841E+02  0.42515539531E+02 -0.10651180861E+03  0.14047957077E+03  0.79776512643E+02 0.  0.
         -6    2    1    2    0  502  0.91051685621E+01 -0.19873917863E+02 -0.71321886843E+01  0.17400789690E+03  0.17248189286E+03 0.  0.
        -24    2    5    5    0    0 -0.37709375703E+02  0.16979963835E+02 -0.47746386656E+02  0.10174854991E+03  0.79766746092E+02 0.  0.
          5    1    3    3  501    0 -0.23865973403E+02 -0.22641621669E+02  0.33070996088E+02  0.46882923336E+02  0.47000000000E+01 0. -1.
        -11    1    4    4    0    0  0.11466394850E+02 -0.48793642607E+01  0.91371605632E+01  0.15452317289E+02  0.00000000000E+00 0.  1.
         12    1    4    4    0    0  0.32944099908E+01  0.47394903792E+02 -0.11564896917E+03  0.12502725348E+03  0.00000000000E+00 0. -1.
         -5    1    5    5    0  502  0.46814544265E+02 -0.36853881698E+02  0.40614197972E+02  0.72259346993E+02  0.47000000000E+01 0.  1.
         11    1    6    6    0    0  0.88991230097E+01  0.27552960924E+02 -0.45464298785E+02  0.53901414731E+02  0.00000000000E+00 0. -1.
        -12    1    6    6    0    0 -0.46608498712E+02 -0.10572997089E+02 -0.22820878710E+01  0.47847135178E+02  0.00000000000E+00 0.  1.
</event>
<event>
12    1  0.9246030E-003  0.2075235E+03  0.7818608E-02  0.1145349E+00
         21   -1    0    0  503  502  0.00000000000E+00  0.00000000000E+00  0.12672406034E+03  0.12672406034E+03  0.00000000000E+00 0. -1.
         21   -1    0    0  501  503 -0.00000000000E+00 -0.00000000000E+00 -0.33164630394E+03  0.33164630394E+03  0.00000000000E+00 0.  1.
          6    2    1    2  501    0  0.11418242868E+03 -0.22209444281E+02 -0.13553951776E+03  0.24786479725E+03  0.17185782032E+03 0.  0.
         24    2    3    3    0    0 -0.10225468589E+02 -0.23416278230E+01 -0.63808703821E+02  0.10281496201E+03  0.79933236523E+02 0.  0.
         -6    2    1    2    0  502 -0.11418242868E+03  0.22209444281E+02 -0.69382725832E+02  0.21050556703E+03  0.16114510439E+03 0.  0.
        -24    2    5    5    0    0 -0.33204978310E+02  0.36822768361E+02 -0.85039453369E+02  0.12661206414E+03  0.79626749913E+02 0.  0.
          5    1    3    3  501    0  0.12440789727E+03 -0.19867816458E+02 -0.71730813942E+02  0.14504983524E+03  0.47000000000E+01 0. -1.
        -11    1    4    4    0    0  0.40242159507E+01 -0.39478774140E+01 -0.80564051725E+02  0.80761045563E+02  0.00000000000E+00 0.  1.
         12    1    4    4    0    0 -0.14249684540E+02  0.16062495910E+01  0.16755347905E+02  0.22053916446E+02  0.00000000000E+00 0. -1.
         -5    1    5    5    0  502 -0.80977450373E+02 -0.14613324080E+02  0.15656727537E+02  0.83893502888E+02  0.47000000000E+01 0.  1.
         11    1    6    6    0    0  0.22531769294E+02 -0.22308914485E+01 -0.84843427114E+01  0.24179362593E+02  0.00000000000E+00 0. -1.
        -12    1    6    6    0    0 -0.55736747604E+02  0.39053659809E+02 -0.76555110657E+02  0.10243270154E+03  0.00000000000E+00 0.  1.
</event>
<event>
12    1  0.9246030E-003  0.1746546E+03  0.7818608E-02  0.1173696E+00
         21   -1    0    0  503  502  0.00000000000E+00  0.00000000000E+00  0.46996207583E+03  0.46996207583E+03  0.00000000000E+00 0. -1.
         21   -1    0    0  501  503 -0.00000000000E+00 -0.00000000000E+00 -0.65607829552E+02  0.65607829552E+02  0.00000000000E+00 0. -1.
          6    2    1    2  501    0 -0.11355956800E+02 -0.27626224544E+02  0.16172914647E+03  0.23803475579E+03  0.17208155656E+03 0.  0.
         24    2    3    3    0    0 -0.32134300427E+02 -0.56132279180E+01  0.18172690055E+03  0.20145181232E+03  0.80585635894E+02 0.  0.
         -6    2    1    2    0  502  0.11355956800E+02  0.27626224544E+02  0.24262509980E+03  0.29753514959E+03  0.16961149770E+03 0.  0.
        -24    2    5    5    0    0  0.42292453521E+02  0.20028577962E+02  0.24866487166E+03  0.26477297770E+03  0.77978944376E+02 0.  0.
          5    1    3    3  501    0  0.20778343627E+02 -0.22012996626E+02 -0.19997754079E+02  0.36582943464E+02  0.47000000000E+01 0. -1.
        -13    1    4    4    0    0 -0.42757712769E+02  0.19466605338E+02  0.57393156260E+02  0.74169704800E+02  0.00000000000E+00 0.  1.
         14    1    4    4    0    0  0.10623412342E+02 -0.25079833256E+02  0.12433374429E+03  0.12728210752E+03  0.00000000000E+00 0. -1.
         -5    1    5    5    0  502 -0.30936496721E+02  0.75976465815E+01 -0.60397718531E+01  0.32762171890E+02  0.47000000000E+01 0.  1.
         11    1    6    6    0    0 -0.22050538813E+01 -0.17421144273E+02  0.12506649684E+02  0.21558636708E+02  0.00000000000E+00 0. -1.
        -12    1    6    6    0    0  0.44497507402E+02  0.37449722235E+02  0.23615822197E+03  0.24321434100E+03  0.00000000000E+00 0.  1.
</event>
<event>
12    1  0.9246030E-003  0.1771122E+03  0.7818608E-02  0.1170807E+00
         21   -1    0    0  503  502  0.00000000000E+00  0.00000000000E+00  0.11108708912E+03  0.11108708912E+03  0.00000000000E+00 0. -1.
         21   -1    0    0  501  503 -0.00000000000E+00 -0.00000000000E+00 -0.34746110705E+03  0.34746110705E+03  0.00000000000E+00 0. -1.
          6    2    1    2  501    0  0.19853321015E+02 -0.27839671154E+02 -0.21809440179E+03  0.28049519601E+03  0.17304099296E+03 0.  0.
         24    2    3    3    0    0 -0.20786828125E+02  0.20765513683E+02 -0.19740978465E+03  0.21368180587E+03  0.76328188126E+02 0.  0.
         -6    2    1    2    0  502 -0.19853321015E+02  0.27839671154E+02 -0.18279616135E+02  0.17805300016E+03  0.17378010489E+03 0.  0.
        -24    2    5    5    0    0  0.44630502622E+01  0.47326555821E+01  0.55670484564E+02  0.96714648355E+02  0.78817533001E+02 0.  0.
          5    1    3    3  501    0  0.40640149140E+02 -0.48605184837E+02 -0.20684617142E+02  0.66813390136E+02  0.47000000000E+01 0. -1.
        -11    1    4    4    0    0  0.11126272594E+02  0.30922565438E+02 -0.35628734703E+02  0.48470668777E+02  0.00000000000E+00 0.  1.
         12    1    4    4    0    0 -0.31913100719E+02 -0.10157051756E+02 -0.16178104995E+03  0.16521113710E+03  0.00000000000E+00 0. -1.
         -5    1    5    5    0  502 -0.24316371277E+02  0.23107015572E+02 -0.73950100699E+02  0.81338351804E+02  0.47000000000E+01 0.  1.
         13    1    6    6    0    0  0.10482503930E+02  0.39001549081E+02  0.44678694091E+02  0.60226152334E+02  0.00000000000E+00 0. -1.
        -14    1    6    6    0    0 -0.60194536673E+01 -0.34268893498E+02  0.10991790474E+02  0.36488496021E+02  0.00000000000E+00 0.  1.
</event>
<event>
12    1  0.9246030E-003  0.1836163E+03  0.7818608E-02  0.1164370E+00
         21   -1    0    0  503  502  0.00000000000E+00  0.00000000000E+00  0.82149421146E+02  0.82149421146E+02  0.00000000000E+00 0. -1.
         21   -1    0    0  501  503 -0.00000000000E+00 -0.00000000000E+00 -0.65492321447E+03  0.65492321447E+03  0.00000000000E+00 0. -1.
          6    2    1    2  501    0  0.49110669932E+02  0.41186683829E+02 -0.51162079819E+03  0.54354064421E+03  0.17196624653E+03 0.  0.
         24    2    3    3    0    0 -0.27742659239E+02  0.16257973447E+02 -0.37830957360E+03  0.38758601168E+03  0.77915378023E+02 0.  0.
         -6    2    1    2    0  502 -0.49110669932E+02 -0.41186683829E+02 -0.61152995130E+02  0.19353199140E+03  0.17206609793E+03 0.  0.
        -24    2    5    5    0    0 -0.37639170804E+02 -0.63570304874E+02 -0.10003967084E+03  0.14698217582E+03  0.78344964264E+02 0.  0.
          5    1    3    3  501    0  0.76853329171E+02  0.24928710382E+02 -0.13331122459E+03  0.15595463253E+03  0.47000000000E+01 0. -1.
        -13    1    4    4    0    0 -0.33635004355E+02  0.44149308787E+02 -0.23455718893E+03  0.24103433337E+03  0.00000000000E+00 0.  1.
         14    1    4    4    0    0  0.58923451157E+01 -0.27891335340E+02 -0.14375238467E+03  0.14655167831E+03  0.00000000000E+00 0. -1.
         -5    1    5    5    0  502 -0.11471499129E+02  0.22383621045E+02  0.38886675707E+02  0.46549815584E+02  0.47000000000E+01 0.  1.
         13    1    6    6    0    0 -0.52764237630E+02 -0.12860187972E+02 -0.43897606637E+02  0.69831576495E+02  0.00000000000E+00 0. -1.
        -14    1    6    6    0    0  0.15125066826E+02 -0.50710116903E+02 -0.56142064201E+02  0.77150599320E+02  0.00000000000E+00 0.  1.
</event>
<event>
12    1  0.9246030E-003  0.2530010E+03  0.7818608E-02  0.1111586E+00
         21   -1    0    0  503  502  0.00000000000E+00  0.00000000000E+00  0.18207679356E+03  0.18207679356E+03  0.00000000000E+00 0. -1.
         21   -1    0    0  501  503 -0.00000000000E+00 -0.00000000000E+00 -0.38039252891E+03  0.38039252891E+03  0.00000000000E+00 0. -1.
          6    2    1    2  501    0 -0.63434680741E+02  0.17378378454E+03 -0.17871442465E+03  0.30975531951E+03  0.17258258862E+03 0.  0.
         24    2    3    3    0    0 -0.95477881845E+02  0.10285867574E+03 -0.70001473590E+02  0.17597290839E+03  0.79814316305E+02 0.  0.
         -6    2    1    2    0  502  0.63434680741E+02 -0.17378378454E+03 -0.19601310699E+02  0.25271400296E+03  0.17104208085E+03 0.  0.
        -24    2    5    5    0    0  0.16904252748E+02 -0.28997661969E+02 -0.46125964598E+02  0.98267412572E+02  0.80014133769E+02 0.  0.
          5    1    3    3  501    0  0.32043201104E+02  0.70925108800E+02 -0.10871295106E+03  0.13378241111E+03  0.47000000000E+01 0. -1.
        -13    1    4    4    0    0 -0.35482216402E+02 -0.25659808354E+01  0.68050086447E+00  0.35581385862E+02  0.00000000000E+00 0.  1.
         14    1    4    4    0    0 -0.59995665443E+02  0.10542465658E+03 -0.70681974454E+02  0.14039152253E+03  0.00000000000E+00 0. -1.
         -5    1    5    5    0  502  0.46530427993E+02 -0.14478612257E+03  0.26524653899E+02  0.15444659039E+03  0.47000000000E+01 0.  1.
         11    1    6    6    0    0  0.42263664222E+02 -0.74434083319E+01 -0.48671076135E+02  0.64888329407E+02  0.00000000000E+00 0. -1.
        -12    1    6    6    0    0 -0.25359411474E+02 -0.21554253637E+02  0.25451115365E+01  0.33379083165E+02  0.00000000000E+00 0.  1.
</event>
<event>
12    1  0.9246030E-003  0.1887460E+03  0.7818608E-02  0.1159842E+00
         21   -1    0    0  503  502  0.00000000000E+00  0.00000000000E+00  0.20113632939E+03  0.20113632939E+03  0.00000000000E+00 0. -1.
         21   -1    0    0  501  503 -0.00000000000E+00 -0.00000000000E+00 -0.19169777326E+03  0.19169777326E+03  0.00000000000E+00 0. -1.
          6    2    1    2  501    0 -0.47751238369E+02 -0.61106538097E+02 -0.51297059463E+02  0.19455685040E+03  0.17089994139E+03 0.  0.
         24    2    3    3    0    0 -0.29322598435E+02 -0.83499044188E+02 -0.86706966895E+02  0.14854608380E+03  0.81950812966E+02 0.  0.
         -6    2    1    2    0  502  0.47751238369E+02  0.61106538097E+02  0.60735615592E+02  0.19827725225E+03  0.17207807528E+03 0.  0.
        -24    2    5    5    0    0  0.96671936486E+02  0.55758607835E+02  0.31426348182E+02  0.14080588356E+03  0.79901162910E+02 0.  0.
          5    1    3    3  501    0 -0.18428639934E+02  0.22392506091E+02  0.35409907433E+02  0.46010766601E+02  0.47000000000E+01 0. -1.
        -13    1    4    4    0    0 -0.34549290677E+02 -0.78671240233E+02 -0.29422250123E+02  0.90821177753E+02  0.00000000000E+00 0.  1.
         14    1    4    4    0    0  0.52266922416E+01 -0.48278039543E+01 -0.57284716772E+02  0.57724906050E+02  0.00000000000E+00 0. -1.
         -5    1    5    5    0  502 -0.48920698117E+02  0.53479302624E+01  0.29309267409E+02  0.57471368684E+02  0.47000000000E+01 0.  1.
         13    1    6    6    0    0  0.88815130239E+02  0.84982023863E+01  0.23294668493E+02  0.92211649933E+02  0.00000000000E+00 0. -1.
        -14    1    6    6    0    0  0.78568062467E+01  0.47260405448E+02  0.81316796895E+01  0.48594233630E+02  0.00000000000E+00 0.  1.
</event>
<event>
12    1  0.9246030E-003  0.2638241E+03  0.7818608E-02  0.1106217E+00
         21   -1    0    0  503  502  0.00000000000E+00  0.00000000000E+00  0.46451133409E+03  0.46451133409E+03  0.00000000000E+00 0. -1.
         21   -1    0    0  501  503 -0.00000000000E+00 -0.00000000000E+00 -0.14953156440E+03  0.14953156440E+03  0.00000000000E+00 0.  1.
          6    2    1    2  501    0 -0.77086794302E+02 -0.18406239706E+03  0.21485043879E+03  0.34024091462E+03  0.17257412630E+03 0.  0.
         24    2    3    3    0    0  0.21660880410E+02 -0.93328965730E+02  0.65537383000E+02  0.13949197328E+03  0.77352262114E+02 0.  0.
         -6    2    1    2    0  502  0.77086794302E+02  0.18406239706E+03  0.10012933091E+03  0.27380198386E+03  0.15849385979E+03 0.  0.
        -24    2    5    5    0    0  0.87906029636E+02  0.96832247289E+02  0.18556676873E+02  0.15379222272E+03  0.78763845467E+02 0.  0.
          5    1    3    3  501    0 -0.98747674711E+02 -0.90733431332E+02  0.14931305579E+03  0.20074894134E+03  0.47000000000E+01 0. -1.
        -11    1    4    4    0    0 -0.15651869303E+02 -0.76026060812E+02  0.24510062511E+02  0.81398317547E+02  0.00000000000E+00 0.  1.
         12    1    4    4    0    0  0.37312749712E+02 -0.17302904919E+02  0.41027320489E+02  0.58093655731E+02  0.00000000000E+00 0. -1.
         -5    1    5    5    0  502 -0.10819235334E+02  0.87230149773E+02  0.81572654033E+02  0.12000976114E+03  0.47000000000E+01 0.  1.
         13    1    6    6    0    0  0.57627677169E+02  0.10356975310E+03  0.27175210113E+02  0.12159825236E+03  0.00000000000E+00 0. -1.
        -14    1    6    6    0    0  0.30278352467E+02 -0.67375058077E+01 -0.86185332401E+01  0.32193970365E+02  0.00000000000E+00 0.  1.
</event>
<event>
12    1  0.9246030E-003  0.2173380E+03  0.7818608E-02  0.1135983E+00
         21   -1    0    0  501  502  0.00000000000E+00  0.00000000000E+00  0.31257153294E+03  0.31257153294E+03  0.00000000000E+00 0.  1.
         21   -1    0    0  502  503 -0.00000000000E+00 -0.00000000000E+00 -0.15446095791E+03  0.15446095791E+03  0.00000000000E+00 0.  1.
          6    2    1    2  501    0  0.10580554110E+03 -0.79117186906E+02  0.11531764979E+03  0.24603652179E+03  0.17257307992E+03 0.  0.
         24    2    3    3    0    0  0.78497646113E+02 -0.86550247197E+02  0.14588064826E+03  0.20411804866E+03  0.82037726175E+02 0.  0.
         -6    2    1    2    0  503 -0.10580554110E+03  0.79117186906E+02  0.42792925241E+02  0.22099596906E+03  0.17191172763E+03 0.  0.
        -24    2    5    5    0    0 -0.44534941564E+02 -0.13601341598E+02 -0.18424002914E+02  0.94029775967E+02  0.79585157986E+02 0.  0.
          5    1    3    3  501    0  0.27307894988E+02  0.74330602908E+01 -0.30562998476E+02  0.41918473133E+02  0.47000000000E+01 0. -1.
        -11    1    4    4    0    0  0.72334015603E+02 -0.97705528513E+02  0.10284422744E+03  0.15923415222E+03  0.00000000000E+00 0.  1.
         12    1    4    4    0    0  0.61636305103E+01  0.11155281316E+02  0.43036420829E+02  0.44883896444E+02  0.00000000000E+00 0. -1.
         -5    1    5    5    0  503 -0.61270599537E+02  0.92718528504E+02  0.61216928155E+02  0.12696619309E+03  0.47000000000E+01 0.  1.
         11    1    6    6    0    0 -0.11602369014E+02  0.33075074456E+02 -0.81966410734E+01  0.35996672650E+02  0.00000000000E+00 0. -1.
        -12    1    6    6    0    0 -0.32932572551E+02 -0.46676416054E+02 -0.10227361841E+02  0.58033103317E+02  0.00000000000E+00 0.  1.
</event>
<event>
12    1  0.9246030E-003  0.2689618E+03  0.7818608E-02  0.1101944E+00
         21   -1    0    0  501  502  0.00000000000E+00  0.00000000000E+00  0.23330559073E+03  0.23330559073E+03  0.00000000000E+00 0.  1.
         21   -1    0    0  502  503 -0.00000000000E+00 -0.00000000000E+00 -0.64823995502E+03  0.64823995502E+03  0.00000000000E+00 0. -1.
          6    2    1    2  501    0 -0.10671022432E+03  0.17715727377E+03  0.11106145885E+03  0.29098982301E+03  0.17195539487E+03 0.  0.
         24    2    3    3    0    0 -0.96616876512E+02  0.15502928640E+03  0.25349093996E+02  0.20176974127E+03  0.81850787770E+02 0.  0.
         -6    2    1    2    0  503  0.10671022432E+03 -0.17715727377E+03 -0.52599582314E+03  0.59055572274E+03  0.17120947424E+03 0.  0.
        -24    2    5    5    0    0  0.59453686515E+02 -0.16858560814E+03 -0.29206537971E+03  0.35169970715E+03  0.80216269390E+02 0.  0.
          5    1    3    3  501    0 -0.10093347805E+02  0.22127987377E+02  0.85712364858E+02  0.89220081735E+02  0.47000000000E+01 0. -1.
        -13    1    4    4    0    0 -0.86400563817E+02  0.10852484863E+03  0.50865871831E+02  0.14774991410E+03  0.00000000000E+00 0.  1.
         14    1    4    4    0    0 -0.10216312696E+02  0.46504437763E+02 -0.25516777835E+02  0.54019827174E+02  0.00000000000E+00 0. -1.
         -5    1    5    5    0  503  0.47256537802E+02 -0.85716656398E+01 -0.23393044343E+03  0.23885601558E+03  0.47000000000E+01 0.  1.
         11    1    6    6    0    0  0.40899050391E+02 -0.27554070203E+02 -0.45789754701E+02  0.67295324825E+02  0.00000000000E+00 0. -1.
        -12    1    6    6    0    0  0.18554636124E+02 -0.14103153793E+03 -0.24627562501E+03  0.28440438233E+03  0.00000000000E+00 0.  1.
</event>
<event>
12    1  0.9246030E-003  0.1865902E+03  0.7818608E-02  0.1163044E+00
         21   -1    0    0  501  502  0.00000000000E+00  0.00000000000E+00  0.33827514260E+03  0.33827514260E+03  0.00000000000E+00 0. -1.
         21   -1    0    0  502  503 -0.00000000000E+00 -0.00000000000E+00 -0.27987629072E+03  0.27987629072E+03  0.00000000000E+00 0. -1.
          6    2    1    2  501    0  0.50328278472E+02  0.24544116975E+02  0.27748882633E+03  0.33438893095E+03  0.17799033432E+03 0.  0.
         24    2    3    3    0    0 -0.23733403303E+02  0.29555781680E+02  0.76552810349E+02  0.12012829058E+03  0.84460965914E+02 0.  0.
         -6    2    1    2    0  503 -0.50328278472E+02 -0.24544116975E+02 -0.21908997445E+03  0.28376250237E+03  0.17142167761E+03 0.  0.
        -24    2    5    5    0    0  0.21404440923E+02 -0.16641109156E+01 -0.45695792821E+02  0.94668055249E+02  0.80081307724E+02 0.  0.
          5    1    3    3  501    0  0.74061681775E+02 -0.50116647052E+01  0.20093601598E+03  0.21426064037E+03  0.47000000000E+01 0. -1.
        -13    1    4    4    0    0 -0.52901333190E+02  0.20961173855E+02  0.67741871980E+02  0.88469673233E+02  0.00000000000E+00 0.  1.
         14    1    4    4    0    0  0.29167929888E+02  0.85946078253E+01  0.88109383695E+01  0.31658617351E+02  0.00000000000E+00 0. -1.
         -5    1    5    5    0  503 -0.71732719396E+02 -0.22880006060E+02 -0.17339418163E+03  0.18909444712E+03  0.47000000000E+01 0.  1.
         13    1    6    6    0    0  0.18687559751E+02 -0.39500826968E+02 -0.32666850057E+02  0.54558806010E+02  0.00000000000E+00 0. -1.
        -14    1    6    6    0    0  0.27168811726E+01  0.37836716053E+02 -0.13028942764E+02  0.40109249239E+02  0.00000000000E+00 0.  1.
</event>
<event>
12    1  0.9246030E-003  0.1789791E+03  0.7818608E-02  0.1168825E+00
         21   -1    0    0  501  502  0.00000000000E+00  0.00000000000E+00  0.34524908970E+03  0.34524908970E+03  0.00000000000E+00 0.  1.
         21   -1    0    0  502  503 -0.00000000000E+00 -0.00000000000E+00 -0.10294168825E+03  0.10294168825E+03  0.00000000000E+00 0.  1.
          6    2    1    2  501    0 -0.20170584590E+02 -0.43062417770E+02  0.19173480335E+03  0.26220390244E+03  0.17241643579E+03 0.  0.
         24    2    3    3    0    0  0.42769606980E+02 -0.23639083537E+02  0.16587172907E+03  0.19128336776E+03  0.81779280545E+02 0.  0.
         -6    2    1    2    0  503  0.20170584590E+02  0.43062417770E+02  0.50572598098E+02  0.18598687551E+03  0.17254653249E+03 0.  0.
        -24    2    5    5    0    0 -0.14552252774E+02  0.50003526866E+02  0.90903532410E+02  0.13211175423E+03  0.80485667304E+02 0.  0.
          5    1    3    3  501    0 -0.62940191570E+02 -0.19423334233E+02  0.25863074279E+02  0.70920534676E+02  0.47000000000E+01 0. -1.
        -13    1    4    4    0    0  0.28875512969E+02 -0.40440849778E+02  0.40714024029E+02  0.64240869644E+02  0.00000000000E+00 0.  1.
         14    1    4    4    0    0  0.13894094010E+02  0.16801766241E+02  0.12515770504E+03  0.12704249812E+03  0.00000000000E+00 0. -1.
         -5    1    5    5    0  503  0.34722837364E+02 -0.69411090959E+01 -0.40330934312E+02  0.53875121277E+02  0.47000000000E+01 0.  1.
         13    1    6    6    0    0 -0.16192789169E+02 -0.15615936707E+02  0.49850039195E+02  0.54690861285E+02  0.00000000000E+00 0. -1.
        -14    1    6    6    0    0  0.16405363954E+01  0.65619463574E+02  0.41053493215E+02  0.77420892946E+02  0.00000000000E+00 0.  1.
</event>
<event>
12    1  0.9246030E-003  0.3345099E+03  0.7818608E-02  0.1069187E+00
         21   -1    0    0  503  502  0.00000000000E+00  0.00000000000E+00  0.39083829316E+03  0.39083829316E+03  0.00000000000E+00 0. -1.
         21   -1    0    0  501  503 -0.00000000000E+00 -0.00000000000E+00 -0.29023089568E+03  0.29023089568E+03  0.00000000000E+00 0. -1.
          6    2    1    2  501    0  0.23598833653E+03 -0.16224485044E+03  0.91027885838E+02  0.34642218622E+03  0.17236115756E+03 0.  0.
         24    2    3    3    0    0  0.13258641398E+03 -0.22979076733E+02  0.68363973835E+02  0.17142888287E+03  0.81283662697E+02 0.  0.
         -6    2    1    2    0  502 -0.23598833653E+03  0.16224485044E+03  0.95795116411E+01  0.33464700262E+03  0.17286689344E+03 0.  0.
        -24    2    5    5    0    0 -0.24938326927E+03  0.15266445672E+03 -0.16405629488E+02  0.30352585665E+03  0.79751800235E+02 0.  0.
          5    1    3    3  501    0  0.10340192254E+03 -0.13926577371E+03  0.22663912003E+02  0.17499330336E+03  0.47000000000E+01 0. -1.
        -11    1    4    4    0    0  0.31020003455E+01 -0.21002255329E+02  0.29266933266E+02  0.36156196120E+02  0.00000000000E+00 0.  1.
         12    1    4    4    0    0  0.12948441364E+03 -0.19768214042E+01  0.39097040569E+02  0.13527268675E+03  0.00000000000E+00 0. -1.
         -5    1    5    5    0  502  0.13394932739E+02  0.95803937286E+01  0.25985141130E+02  0.31121145972E+02  0.47000000000E+01 0.  1.
         11    1    6    6    0    0 -0.54042066557E+02  0.30466918155E+02  0.29321396105E+02  0.68618673327E+02  0.00000000000E+00 0. -1.
        -12    1    6    6    0    0 -0.19534120271E+03  0.12219753856E+03 -0.45727025593E+02  0.23490718332E+03  0.00000000000E+00 0.  1.
</event>
<event>
12    1  0.9246030E-003  0.2352110E+03  0.7818608E-02  0.1123157E+00
         21   -1    0    0  503  502  0.00000000000E+00  0.00000000000E+00  0.16606399259E+03  0.16606399259E+03  0.00000000000E+00 0.  1.
         21   -1    0    0  501  503 -0.00000000000E+00 -0.00000000000E+00 -0.37084513785E+03  0.37084513785E+03  0.00000000000E+00 0.  1.
          6    2    1    2  501    0 -0.89976122272E+01 -0.15954257531E+03 -0.18935633148E+03  0.30196035740E+03  0.17259619581E+03 0.  0.
         24    2    3    3    0    0 -0.25121186949E+02 -0.15895540175E+03 -0.88542094119E+02  0.19975509878E+03  0.78514350798E+02 0.  0.
         -6    2    1    2    0  502  0.89976122272E+01  0.15954257531E+03 -0.15424813780E+02  0.23494877305E+03  0.17154652639E+03 0.  0.
        -24    2    5    5    0    0 -0.19816494056E+02  0.17653503019E+03 -0.38751595160E+02  0.19389728132E+03  0.67358438627E+02 0.  0.
          5    1    3    3  501    0  0.16123574722E+02 -0.58717356217E+00 -0.10081423736E+03  0.10220525862E+03  0.47000000000E+01 0. -1.
        -11    1    4    4    0    0  0.18791546582E+02 -0.77515584534E+02 -0.68378453216E+02  0.10505903547E+03  0.00000000000E+00 0.  1.
         12    1    4    4    0    0 -0.43912733531E+02 -0.81439817211E+02 -0.20163640903E+02  0.94696063318E+02  0.00000000000E+00 0. -1.
         -5    1    5    5    0  502  0.28814106283E+02 -0.16992454881E+02  0.23326781380E+02  0.41051491731E+02  0.47000000000E+01 0.  1.
         11    1    6    6    0    0 -0.30713176325E+02  0.56966040305E+02 -0.35441773173E+02  0.73787182041E+02  0.00000000000E+00 0. -1.
        -12    1    6    6    0    0  0.10896682270E+02  0.11956898988E+03 -0.33098219875E+01  0.12011009928E+03  0.00000000000E+00 0.  1.
</event>
<event>
12    1  0.9246030E-003  0.2510628E+03  0.7818608E-02  0.1112834E+00
         21   -1    0    0  501  502  0.00000000000E+00  0.00000000000E+00  0.40864656743E+03  0.40864656743E+03  0.00000000000E+00 0. -1.
         21   -1    0    0  502  503 -0.00000000000E+00 -0.00000000000E+00 -0.20023227049E+03  0.20023227049E+03  0.00000000000E+00 0.  1.
          6    2    1    2  501    0 -0.88637008515E+02  0.15851996511E+03  0.25152698997E+03  0.35538481190E+03  0.17334197190E+03 0.  0.
         24    2    3    3    0    0 -0.54653784290E+02  0.11659370126E+02  0.99192753465E+02  0.14102365986E+03  0.83219548494E+02 0.  0.
         -6    2    1    2    0  503  0.88637008515E+02 -0.15851996511E+03 -0.43112693033E+02  0.25349402603E+03  0.17150923681E+03 0.  0.
        -24    2    5    5    0    0  0.12855096092E+03 -0.13239338273E+03 -0.31350533885E+02  0.20413655150E+03  0.81458690989E+02 0.  0.
          5    1    3    3  501    0 -0.33983224224E+02  0.14686059499E+03  0.15233423651E+03  0.21436115203E+03  0.47000000000E+01 0. -1.
        -11    1    4    4    0    0 -0.50880404022E+01  0.34276566220E+02  0.92480862922E+01  0.35865000307E+02  0.00000000000E+00 0.  1.
         12    1    4    4    0    0 -0.49565743888E+02 -0.22617196094E+02  0.89944667173E+02  0.10515865955E+03  0.00000000000E+00 0. -1.
         -5    1    5    5    0  503 -0.39913952409E+02 -0.26126582379E+02 -0.11762159149E+02  0.49357474526E+02  0.47000000000E+01 0.  1.
         11    1    6    6    0    0  0.78971506433E+02 -0.99158613921E+02  0.16238614629E+02  0.12779914768E+03  0.00000000000E+00 0. -1.
        -12    1    6    6    0    0  0.49579454491E+02 -0.33234768814E+02 -0.47589148514E+02  0.76337403820E+02  0.00000000000E+00 0.  1.
</event>
<event>
12    1  0.9246030E-003  0.2294305E+03  0.7818608E-02  0.1127108E+00
         21   -1    0    0  501  502  0.00000000000E+00  0.00000000000E+00  0.47706628244E+03  0.47706628244E+03  0.00000000000E+00 0. -1.
         21   -1    0    0  502  503 -0.00000000000E+00 -0.00000000000E+00 -0.15315338424E+03  0.15315338424E+03  0.00000000000E+00 0. -1.
          6    2    1    2  501    0  0.15000837535E+03 -0.19744548863E+02  0.32901816088E+03  0.40111259707E+03  0.17247030311E+03 0.  0.
         24    2    3    3    0    0  0.13321072520E+03  0.41699999384E+02  0.19547950781E+03  0.25308470975E+03  0.79722299769E+02 0.  0.
         -6    2    1    2    0  503 -0.15000837535E+03  0.19744548863E+02 -0.51052626836E+01  0.22910706960E+03  0.17196402458E+03 0.  0.
        -24    2    5    5    0    0 -0.78796606310E+02 -0.57490156145E+02  0.12583926652E+02  0.12247071029E+03  0.72984220555E+02 0.  0.
          5    1    3    3  501    0  0.16797650157E+02 -0.61444548247E+02  0.13353865307E+03  0.14802788732E+03  0.47000000000E+01 0. -1.
        -13    1    4    4    0    0  0.13946737451E+03  0.27247979244E+02  0.18796299998E+03  0.23563465426E+03  0.00000000000E+00 0.  1.
         14    1    4    4    0    0 -0.62566493158E+01  0.14452020139E+02  0.75165078321E+01  0.17450055494E+02  0.00000000000E+00 0. -1.
         -5    1    5    5    0  503 -0.71211769044E+02  0.77234705008E+02 -0.17689189336E+02  0.10663635931E+03  0.47000000000E+01 0.  1.
         13    1    6    6    0    0 -0.92561821754E+02 -0.52432146023E+02  0.64543338083E+01  0.10657616623E+03  0.00000000000E+00 0. -1.
        -14    1    6    6    0    0  0.13765215443E+02 -0.50580101215E+01  0.61295928436E+01  0.15894544064E+02  0.00000000000E+00 0.  1.
</event>
<event>
12    1  0.9246030E-003  0.2356567E+03  0.7818608E-02  0.1123061E+00
         21   -1    0    0  501  502  0.00000000000E+00  0.00000000000E+00  0.10320827994E+04  0.10320827994E+04  0.00000000000E+00 0.  1.
         21   -1    0    0  502  503 -0.00000000000E+00 -0.00000000000E+00 -0.89836871555E+02  0.89836871555E+02  0.00000000000E+00 0.  1.
          6    2    1    2  501    0 -0.15927832727E+03 -0.60517777057E+01  0.82740955396E+03  0.85977190680E+03  0.17086530424E+03 0.  0.
         24    2    3    3    0    0 -0.11001142252E+03 -0.31127474300E+02  0.76007284098E+03  0.77252317399E+03  0.77523531950E+02 0.  0.
         -6    2    1    2    0  503  0.15927832727E+03  0.60517777057E+01  0.11483637393E+03  0.26214776419E+03  0.17357375361E+03 0.  0.
        -24    2    5    5    0    0  0.90997314986E+02  0.67880955898E+02  0.43543294998E+02  0.14557187896E+03  0.80042600506E+02 0.  0.
          5    1    3    3  501    0 -0.49266904752E+02  0.25075696594E+02  0.67336712973E+02  0.87248732813E+02  0.47000000000E+01 0. -1.
        -13    1    4    4    0    0 -0.77536174150E+02  0.16222215835E+02  0.38322722805E+03  0.39132866865E+03  0.00000000000E+00 0.  1.
         14    1    4    4    0    0 -0.32475248372E+02 -0.47349690135E+02  0.37684561294E+03  0.38119450534E+03  0.00000000000E+00 0. -1.
         -5    1    5    5    0  503  0.68281012287E+02 -0.61829178192E+02  0.71293078929E+02  0.11657588523E+03  0.47000000000E+01 0.  1.
         11    1    6    6    0    0 -0.61158601087E+01  0.98358295685E+00  0.25540489158E+02  0.26280939229E+02  0.00000000000E+00 0. -1.
        -12    1    6    6    0    0  0.97113175095E+02  0.66897372941E+02  0.18002805840E+02  0.11929093973E+03  0.00000000000E+00 0.  1.
</event>
<event>
12    1  0.9246030E-003  0.2166474E+03  0.7818608E-02  0.1136436E+00
         21   -1    0    0  503  502  0.00000000000E+00  0.00000000000E+00  0.10401871288E+03  0.10401871288E+03  0.00000000000E+00 0. -1.
         21   -1    0    0  501  503 -0.00000000000E+00 -0.00000000000E+00 -0.72794498587E+03  0.72794498587E+03  0.00000000000E+00 0.  1.
          6    2    1    2  501    0  0.82816838721E+02 -0.10360605104E+03 -0.56851586941E+03  0.60834255682E+03  0.17110677977E+03 0.  0.
         24    2    3    3    0    0  0.11838742452E+03 -0.90246884747E+02 -0.51981274936E+03  0.54639243333E+03  0.78608614741E+02 0.  0.
         -6    2    1    2    0  502 -0.82816838721E+02  0.10360605104E+03 -0.55410403587E+02  0.22362114193E+03  0.17129874403E+03 0.  0.
        -24    2    5    5    0    0 -0.96784140332E+02  0.62698405408E+02 -0.91237417223E+02  0.16728122809E+03  0.79752637009E+02 0.  0.
          5    1    3    3  501    0 -0.35570585801E+02 -0.13359166292E+02 -0.48703120047E+02  0.61950123491E+02  0.47000000000E+01 0. -1.
        -13    1    4    4    0    0  0.50417301353E+02  0.54885009354E+01 -0.16981583118E+03  0.17722709849E+03  0.00000000000E+00 0.  1.
         14    1    4    4    0    0  0.67970123170E+02 -0.95735385682E+02 -0.34999691818E+03  0.36916533484E+03  0.00000000000E+00 0. -1.
         -5    1    5    5    0  502  0.13967301611E+02  0.40907645631E+02  0.35827013636E+02  0.56339913839E+02  0.47000000000E+01 0.  1.
         11    1    6    6    0    0 -0.72951980781E+02  0.80467500298E+02 -0.82193679370E+02  0.13620870395E+03  0.00000000000E+00 0. -1.
        -12    1    6    6    0    0 -0.23832159551E+02 -0.17769094889E+02 -0.90437378534E+01  0.31072524139E+02  0.00000000000E+00 0.  1.
</event>
<event>
12    1  0.9246030E-003  0.2627721E+03  0.7818608E-02  0.1105728E+00
         21   -1    0    0  501  502  0.00000000000E+00  0.00000000000E+00  0.12636589739E+03  0.12636589739E+03  0.00000000000E+00 0. -1.
         21   -1    0    0  502  503 -0.00000000000E+00 -0.00000000000E+00 -0.56665858003E+03  0.56665858003E+03  0.00000000000E+00 0.  1.
          6    2    1    2  501    0  0.40009428796E+02  0.19440373548E+03 -0.29016731811E+03  0.39039137934E+03  0.16974919678E+03 0.  0.
         24    2    3    3    0    0  0.13867788545E+01  0.20492743668E+03 -0.23274508223E+03  0.32023540634E+03  0.79895335964E+02 0.  0.
         -6    2    1    2    0  503 -0.40009428796E+02 -0.19440373548E+03 -0.15012536453E+03  0.30263309807E+03  0.17220801436E+03 0.  0.
        -24    2    5    5    0    0 -0.77320868713E+02 -0.18916980431E+03 -0.14914772818E+03  0.26465174268E+03  0.77664460868E+02 0.  0.
          5    1    3    3  501    0  0.38622649942E+02 -0.10523701202E+02 -0.57422235876E+02  0.70155973006E+02  0.47000000000E+01 0. -1.
        -13    1    4    4    0    0  0.26123828396E+02  0.13475577429E+03 -0.19009765006E+03  0.23447534982E+03  0.00000000000E+00 0.  1.
         14    1    4    4    0    0 -0.24737049542E+02  0.70171662394E+02 -0.42647432166E+02  0.85760056516E+02  0.00000000000E+00 0. -1.
         -5    1    5    5    0  503  0.37311439916E+02 -0.52339311670E+01 -0.97763635799E+00  0.37981355386E+02  0.47000000000E+01 0.  1.
         13    1    6    6    0    0 -0.24099626989E+02 -0.62519074020E+02 -0.76560688204E+01  0.67439172794E+02  0.00000000000E+00 0. -1.
        -14    1    6    6    0    0 -0.53221241723E+02 -0.12665073029E+03 -0.14149165936E+03  0.19721256989E+03  0.00000000000E+00 0.  1.
</event>
<event>
12    1  0.9246030E-003  0.1772465E+03  0.7818608E-02  0.1171132E+00
         21   -1    0    0  503  502  0.00000000000E+00  0.00000000000E+00  0.30544206357E+03  0.30544206357E+03  0.00000000000E+00 0. -1.
         21   -1    0    0  501  503 -0.00000000000E+00 -0.00000000000E+00 -0.11525852545E+03  0.11525852545E+03  0.00000000000E+00 0. -1.
          6    2    1    2  501    0 -0.39687959175E+02 -0.12172052583E+02  0.22693931236E+02  0.17869344606E+03  0.17231668573E+03 0.  0.
         24    2    3    3    0    0 -0.89092449321E+02 -0.17906296454E+02 -0.58472983114E+01  0.12115757044E+03  0.79917870327E+02 0.  0.
         -6    2    1    2    0  502  0.39687959175E+02  0.12172052583E+02  0.16748960688E+03  0.24200714296E+03  0.16968027542E+03 0.  0.
        -24    2    5    5    0    0  0.79053304792E+02  0.37927096334E+02  0.15995191473E+03  0.19413377336E+03  0.66448606453E+02 0.  0.
          5    1    3    3  501    0  0.49404490147E+02  0.57342438705E+01  0.28541229547E+02  0.57535875621E+02  0.47000000000E+01 0. -1.
        -13    1    4    4    0    0  0.90195914021E+01  0.85808716712E+01  0.12778533116E+02  0.17840271755E+02  0.00000000000E+00 0.  1.
         14    1    4    4    0    0 -0.98112040723E+02 -0.26487168125E+02 -0.18625831428E+02  0.10331729868E+03  0.00000000000E+00 0. -1.
         -5    1    5    5    0  502 -0.39365345617E+02 -0.25755043751E+02  0.75376921528E+01  0.47873369603E+02  0.47000000000E+01 0.  1.
         13    1    6    6    0    0 -0.86470542365E+01 -0.66280853212E+01  0.23685050695E+02  0.26070763096E+02  0.00000000000E+00 0. -1.
        -14    1    6    6    0    0  0.87700359028E+02  0.44555181656E+02  0.13626686403E+03  0.16806301027E+03  0.00000000000E+00 0.  1.
</event>
<event>
12    1  0.9246030E-003  0.1921409E+03  0.7818608E-02  0.1156576E+00
         21   -1    0    0  503  502  0.00000000000E+00  0.00000000000E+00  0.79101191528E+03  0.79101191528E+03  0.00000000000E+00 0. -1.
         21   -1    0    0  501  503 -0.00000000000E+00 -0.00000000000E+00 -0.47852319420E+02  0.47852319420E+02  0.00000000000E+00 0.  1.
          6    2    1    2  501    0  0.78570957525E+02  0.30925237704E+02  0.30487675926E+03  0.36037198591E+03  0.17259305953E+03 0.  0.
         24    2    3    3    0    0  0.47219441376E+01  0.60660071107E+02  0.10660714858E+03  0.14666478992E+03  0.80271635666E+02 0.  0.
         -6    2    1    2    0  502 -0.78570957525E+02 -0.30925237704E+02  0.43828283660E+03  0.47849224879E+03  0.17243323809E+03 0.  0.
        -24    2    5    5    0    0 -0.11912136185E+02 -0.77310972903E+02  0.27680691278E+03  0.29768406627E+03  0.76647575491E+02 0.  0.
          5    1    3    3  501    0  0.73849013387E+02 -0.29734833403E+02  0.19826961069E+03  0.21370719599E+03  0.47000000000E+01 0. -1.
        -11    1    4    4    0    0  0.42581524156E+01  0.30725909113E+02 -0.47252878530E+01  0.31377407447E+02  0.00000000000E+00 0.  1.
         12    1    4    4    0    0  0.46379172199E+00  0.29934161994E+02  0.11133243643E+03  0.11528738248E+03  0.00000000000E+00 0. -1.
         -5    1    5    5    0  502 -0.66658821339E+02  0.46385735199E+02  0.16147592382E+03  0.18080818251E+03  0.47000000000E+01 0.  1.
         13    1    6    6    0    0  0.16985438409E+02 -0.22275893013E+01  0.11974405760E+02  0.20901044600E+02  0.00000000000E+00 0. -1.
        -14    1    6    6    0    0 -0.28897574595E+02 -0.75083383601E+02  0.26483250702E+03  0.27678302167E+03  0.00000000000E+00 0.  1.
</event>
<event>
12    1  0.9246030E-003  0.2183367E+03  0.7818608E-02  0.1135418E+00
         21   -1    0    0  501  502  0.00000000000E+00  0.00000000000E+00  0.30598762911E+03  0.30598762911E+03  0.00000000000E+00 0. -1.
         21   -1    0    0  502  503 -0.00000000000E+00 -0.00000000000E+00 -0.22042928769E+03  0.22042928769E+03  0.00000000000E+00 0.  1.
          6    2    1    2  501    0  0.10832095423E+03 -0.75162318240E+02  0.18639572476E+03  0.28591933562E+03  0.17211535975E+03 0.  0.
         24    2    3    3    0    0  0.29489238103E+02 -0.39692164384E+02  0.17476074683E+03  0.19856926982E+03  0.80270500248E+02 0.  0.
         -6    2    1    2    0  503 -0.10832095423E+03  0.75162318240E+02 -0.10083738334E+03  0.24049758118E+03  0.17403478235E+03 0.  0.
        -24    2    5    5    0    0  0.10366511080E+02  0.83247131674E+01 -0.29954053054E+02  0.86872985540E+02  0.80454365456E+02 0.  0.
          5    1    3    3  501    0  0.78831716131E+02 -0.35470153856E+02  0.11634977936E+02  0.87350065795E+02  0.47000000000E+01 0. -1.
        -13    1    4    4    0    0 -0.21124339897E+02 -0.36738177394E+02  0.95497360516E+02  0.10447811867E+03  0.00000000000E+00 0.  1.
         14    1    4    4    0    0  0.50613578001E+02 -0.29539869910E+01  0.79263386310E+02  0.94091151159E+02  0.00000000000E+00 0. -1.
         -5    1    5    5    0  503 -0.11868746531E+03  0.66837605073E+02 -0.70883330283E+02  0.15362459564E+03  0.47000000000E+01 0.  1.
         11    1    6    6    0    0  0.37835104780E+01  0.39783028945E+02  0.39488459569E+01  0.40157162847E+02  0.00000000000E+00 0. -1.
        -12    1    6    6    0    0  0.65830006021E+01 -0.31458315777E+02 -0.33902899011E+02  0.46715822693E+02  0.00000000000E+00 0.  1.
</event>
<event>
12    1  0.9246030E-003  0.1985499E+03  0.7818608E-02  0.1152510E+00
         21   -1    0    0  501  502  0.00000000000E+00  0.00000000000E+00  0.89514773865E+02  0.89514773865E+02  0.00000000000E+00 0. -1.
         21   -1    0    0  502  503 -0.00000000000E+00 -0.00000000000E+00 -0.43116868469E+03  0.43116868469E+03  0.00000000000E+00 0. -1.
          6    2    1    2  501    0 -0.62676563383E+02 -0.66223205692E+02 -0.19942392498E+03  0.27644700546E+03  0.16834244980E+03 0.  0.
         24    2    3    3    0    0 -0.12960384085E+01  0.32543235529E+01 -0.15415987439E+03  0.17317251591E+03  0.78811059226E+02 0.  0.
         -6    2    1    2    0  503  0.62676563383E+02  0.66223205692E+02 -0.14222998585E+03  0.24423645310E+03  0.17637520114E+03 0.  0.
        -24    2    5    5    0    0  0.61718010096E+02 -0.11387867849E+02 -0.25661122259E+02  0.10411226704E+03  0.79006801276E+02 0.  0.
          5    1    3    3  501    0 -0.61380524975E+02 -0.69477529245E+02 -0.45264050586E+02  0.10327448955E+03  0.47000000000E+01 0. -1.
        -11    1    4    4    0    0  0.30010324500E+02  0.23239221979E+02 -0.51320106741E+02  0.63831296169E+02  0.00000000000E+00 0.  1.
         12    1    4    4    0    0 -0.31306362908E+02 -0.19984898426E+02 -0.10283976765E+03  0.10934121974E+03  0.00000000000E+00 0. -1.
         -5    1    5    5    0  503  0.95855328774E+00  0.77611073541E+02 -0.11656886359E+03  0.14012418606E+03  0.47000000000E+01 0.  1.
         11    1    6    6    0    0  0.82485480602E+01 -0.27864953025E+02  0.17076797517E+02  0.33706248169E+02  0.00000000000E+00 0. -1.
        -12    1    6    6    0    0  0.53469462035E+02  0.16477085175E+02 -0.42737919777E+02  0.70406018869E+02  0.00000000000E+00 0.  1.
</event>
<event>
12    1  0.9246030E-003  0.1844649E+03  0.7818608E-02  0.1163954E+00
         21   -1    0    0  501  502  0.00000000000E+00  0.00000000000E+00  0.35775311314E+03  0.35775311314E+03  0.00000000000E+00 0. -1.
         21   -1    0    0  502  503 -0.00000000000E+00 -0.00000000000E+00 -0.97775919447E+02  0.97775919447E+02  0.00000000000E+00 0. -1.
          6    2    1    2  501    0  0.27077217725E+02 -0.56781257268E+02  0.17392828825E+03  0.25353176161E+03  0.17340708692E+03 0.  0.
         24    2    3    3    0    0 -0.48005522152E+01 -0.33281514410E+02  0.12100930367E+02  0.86862586619E+02  0.79170524410E+02 0.  0.
         -6    2    1    2    0  503 -0.27077217725E+02  0.56781257268E+02  0.86048905441E+02  0.20199727098E+03  0.17158437126E+03 0.  0.
        -24    2    5    5    0    0 -0.60260259398E+02  0.37124659637E+01  0.64856211932E+01  0.10065716507E+03  0.80279015516E+02 0.  0.
          5    1    3    3  501    0  0.31877769941E+02 -0.23499742857E+02  0.16182735789E+03  0.16666917499E+03  0.47000000000E+01 0. -1.
        -11    1    4    4    0    0 -0.21625131923E+02  0.20397952684E+02  0.30282659733E+01  0.29881318565E+02  0.00000000000E+00 0.  1.
         12    1    4    4    0    0  0.16824579708E+02 -0.53679467094E+02  0.90726643938E+01  0.56981268054E+02  0.00000000000E+00 0. -1.
         -5    1    5    5    0  503  0.33183041672E+02  0.53068791304E+02  0.79563284248E+02  0.10134010591E+03  0.47000000000E+01 0.  1.
         13    1    6    6    0    0 -0.49223388394E+01  0.17898126217E+00 -0.32501397916E+02  0.32872516186E+02  0.00000000000E+00 0. -1.
        -14    1    6    6    0    0 -0.55337920558E+02  0.35334847015E+01  0.38987019109E+02  0.67784648888E+02  0.00000000000E+00 0.  1.
</event>
<event>
12    1  0.9246030E-003  0.3393274E+03  0.7818608E-02  0.1067115E+00
         21   -1    0    0  501  502  0.00000000000E+00  0.00000000000E+00  0.72406526662E+03  0.72406526662E+03  0.00000000000E+00 0. -1.
         21   -1    0    0  502  503 -0.00000000000E+00 -0.00000000000E+00 -0.19821788200E+03  0.19821788200E+03  0.00000000000E+00 0.  1.
          6    2    1    2  501    0  0.78441666062E+02 -0.28116605797E+03  0.46826155565E+03  0.57810410052E+03  0.17241815279E+03 0.  0.
         24    2    3    3    0    0  0.15047340619E+02 -0.66500046441E+02  0.10010082655E+03  0.14721577455E+03  0.83687694227E+02 0.  0.
         -6    2    1    2    0  503 -0.78441666062E+02  0.28116605797E+03  0.57585828967E+02  0.34417904809E+03  0.17301919638E+03 0.  0.
        -24    2    5    5    0    0  0.20827866104E+02  0.68525809889E+02 -0.12579357768E+02  0.99198317113E+02  0.67472062727E+02 0.  0.
          5    1    3    3  501    0  0.63394325443E+02 -0.21466601153E+03  0.36816072910E+03  0.43088832597E+03  0.47000000000E+01 0. -1.
        -13    1    4    4    0    0  0.19911214707E+02 -0.67823012050E+02  0.29760181707E+02  0.76694757643E+02  0.00000000000E+00 0.  1.
         14    1    4    4    0    0 -0.48638740880E+01  0.13229656097E+01  0.70340644844E+02  0.70521016911E+02  0.00000000000E+00 0. -1.
         -5    1    5    5    0  503 -0.99269532166E+02  0.21264024808E+03  0.70165186735E+02  0.24498073098E+03  0.47000000000E+01 0.  1.
         11    1    6    6    0    0  0.80983386927E+01  0.16402855609E+02 -0.36211371341E+02  0.40569695292E+02  0.00000000000E+00 0. -1.
        -12    1    6    6    0    0  0.12729527411E+02  0.52122954280E+02  0.23632013573E+02  0.58628621820E+02  0.00000000000E+00 0.  1.
</event>
<event>
12    1  0.9246030E-003  0.2662410E+03  0.7818608E-02  0.1103746E+00
         21   -1    0    0  501  502  0.00000000000E+00  0.00000000000E+00  0.10782241586E+03  0.10782241586E+03  0.00000000000E+00 0.  1.
         21   -1    0    0  502  503 -0.00000000000E+00 -0.00000000000E+00 -0.68870387620E+03  0.68870387620E+03  0.00000000000E+00 0. -1.
          6    2    1    2  501    0  0.16780841672E+03 -0.11660910544E+03 -0.20009765701E+03  0.33305154144E+03  0.17066607373E+03 0.  0.
         24    2    3    3    0    0  0.41658214197E+02 -0.62801105540E+02 -0.31686952469E+02  0.11581105292E+03  0.82028966556E+02 0.  0.
         -6    2    1    2    0  503 -0.16780841672E+03  0.11660910544E+03 -0.38078380333E+03  0.46347475063E+03  0.16749683997E+03 0.  0.
        -24    2    5    5    0    0 -0.13085864803E+03  0.13159843868E+03 -0.37035923014E+03  0.42199310115E+03  0.80436827682E+02 0.  0.
          5    1    3    3  501    0  0.12615020252E+03 -0.53807999900E+02 -0.16841070454E+03  0.21724048852E+03  0.47000000000E+01 0. -1.
        -11    1    4    4    0    0  0.87045396081E+01  0.20044599131E+02 -0.24969844431E+01  0.21995224378E+02  0.00000000000E+00 0.  1.
         12    1    4    4    0    0  0.32953674589E+02 -0.82845704672E+02 -0.29189968026E+02  0.93815828541E+02  0.00000000000E+00 0. -1.
         -5    1    5    5    0  503 -0.36949768689E+02 -0.14989333235E+02 -0.10424573193E+02  0.41481649476E+02  0.47000000000E+01 0.  1.
         11    1    6    6    0    0  0.68364954648E+01  0.30814644507E+02 -0.53988966198E+02  0.62538695681E+02  0.00000000000E+00 0. -1.
        -12    1    6    6    0    0 -0.13769514349E+03  0.10078379417E+03 -0.31637026394E+03  0.35945440547E+03  0.00000000000E+00 0.  1.
</event>
<event>
12    1  0.9246030E-003  0.1769865E+03  0.7818608E-02  0.1171088E+00
         21   -1    0    0  503  502  0.00000000000E+00  0.00000000000E+00  0.13925200490E+03  0.13925200490E+03  0.00000000000E+00 0. -1.
         21   -1    0    0  501  503 -0.00000000000E+00 -0.00000000000E+00 -0.23004786351E+03  0.23004786351E+03  0.00000000000E+00 0. -1.
          6    2    1    2  501    0 -0.15463609571E+02 -0.29417789478E+02 -0.77019461765E+02  0.19177802644E+03  0.17245951518E+03 0.  0.
         24    2    3    3    0    0  0.11309920731E+02 -0.16776649389E+02  0.23665809353E+02  0.86724544025E+02  0.80942607645E+02 0.  0.
         -6    2    1    2    0  502  0.15463609571E+02  0.29417789478E+02 -0.13776396844E+02  0.17752184197E+03  0.17383810200E+03 0.  0.
        -24    2    5    5    0    0  0.64966424413E+02 -0.22949540028E+02 -0.93435154491E+01  0.10517126274E+03  0.78907385822E+02 0.  0.
          5    1    3    3  501    0 -0.26773530302E+02 -0.12641140089E+02 -0.10068527112E+03  0.10505348242E+03  0.47000000000E+01 0. -1.
        -13    1    4    4    0    0  0.25471131332E+02  0.22292377237E+02 -0.76348360305E+01  0.34698981763E+02  0.00000000000E+00 0.  1.
         14    1    4    4    0    0 -0.14161210600E+02 -0.39069026626E+02  0.31300645384E+02  0.52025562262E+02  0.00000000000E+00 0. -1.
         -5    1    5    5    0  502 -0.49502814842E+02  0.52367329506E+02 -0.44328813952E+01  0.72350579226E+02  0.47000000000E+01 0.  1.
         13    1    6    6    0    0  0.47893965481E+02 -0.52160795786E+02 -0.85455067624E+01  0.71327457772E+02  0.00000000000E+00 0. -1.
        -14    1    6    6    0    0  0.17072458932E+02  0.29211255758E+02 -0.79800868669E+00  0.33843804970E+02  0.00000000000E+00 0.  1.
</event>
<event>
12    1  0.9246030E-003  0.1867857E+03  0.7818608E-02  0.1161757E+00
         21   -1    0    0  503  502  0.00000000000E+00  0.00000000000E+00  0.21591312838E+03  0.21591312838E+03  0.00000000000E+00 0. -1.
         21   -1    0    0  501  503 -0.00000000000E+00 -0.00000000000E+00 -0.18278630780E+03  0.18278630780E+03  0.00000000000E+00 0. -1.
          6    2    1    2  501    0 -0.73717423760E+02  0.10626541845E+01 -0.53527851336E+02  0.19279186358E+03  0.16990610347E+03 0.  0.
         24    2    3    3    0    0 -0.53355775214E+02 -0.49330093771E+02  0.11243079627E+02  0.10810780797E+03  0.79250201284E+02 0.  0.
         -6    2    1    2    0  502  0.73717423760E+02 -0.10626541845E+01  0.86654671913E+02  0.20590757261E+03  0.17162024499E+03 0.  0.
        -24    2    5    5    0    0  0.11663253040E+03 -0.10502800828E+02  0.75169684586E+02  0.16024776883E+03  0.79469553670E+02 0.  0.
          5    1    3    3  501    0 -0.20361648546E+02  0.50392747955E+02 -0.64770930962E+02  0.84684055617E+02  0.47000000000E+01 0. -1.
        -13    1    4    4    0    0 -0.55071537000E+02 -0.43235201396E+01  0.25532391295E+02  0.60856142000E+02  0.00000000000E+00 0.  1.
         14    1    4    4    0    0  0.17157617862E+01 -0.45006573631E+02 -0.14289311669E+02  0.47251665965E+02  0.00000000000E+00 0. -1.
         -5    1    5    5    0  502 -0.42915106644E+02  0.94401466435E+01  0.11484987328E+02  0.45659803776E+02  0.47000000000E+01 0.  1.
         13    1    6    6    0    0  0.46794913796E+02  0.18041277160E+02 -0.47080650574E+01  0.50372785463E+02  0.00000000000E+00 0. -1.
        -14    1    6    6    0    0  0.69837616608E+02 -0.28544077988E+02  0.79877749643E+02  0.10987498337E+03  0.00000000000E+00 0.  1.
</event>
<event>
12    1  0.9246030E-003  0.1992576E+03  0.7818608E-02  0.1150668E+00
         21   -1    0    0  501  502  0.00000000000E+00  0.00000000000E+00  0.21406797314E+03  0.21406797314E+03  0.00000000000E+00 0.  1.
         21   -1    0    0  502  503 -0.00000000000E+00 -0.00000000000E+00 -0.30033104311E+03  0.30033104311E+03  0.00000000000E+00 0.  1.
          6    2    1    2  501    0 -0.97910455942E+02 -0.27969591451E+02  0.11692673085E+03  0.22981212667E+03  0.16962605268E+03 0.  0.
         24    2    3    3    0    0 -0.12292048496E+03 -0.17008571102E+02  0.13179724078E+03  0.19836586164E+03  0.81115752335E+02 0.  0.
         -6    2    1    2    0  503  0.97910455942E+02  0.27969591451E+02 -0.20318980082E+03  0.28458688957E+03  0.17127418700E+03 0.  0.
        -24    2    5    5    0    0  0.93956370164E+02 -0.53537466878E+01 -0.60889331183E+02  0.13830772729E+03  0.81025025019E+02 0.  0.
          5    1    3    3  501    0  0.25010029014E+02 -0.10961020348E+02 -0.14870509928E+02  0.31446265023E+02  0.47000000000E+01 0. -1.
        -11    1    4    4    0    0 -0.99807661830E+02 -0.95002997112E+01  0.14045564706E+03  0.17256770800E+03  0.00000000000E+00 0.  1.
         12    1    4    4    0    0 -0.23112823126E+02 -0.75082713911E+01 -0.86584062799E+01  0.25798153644E+02  0.00000000000E+00 0. -1.
         -5    1    5    5    0  503  0.39540857779E+01  0.33323338138E+02 -0.14230046964E+03  0.14627916228E+03  0.47000000000E+01 0.  1.
         11    1    6    6    0    0 -0.11169292550E+02 -0.14877731097E+02 -0.10090721556E+02  0.21164182956E+02  0.00000000000E+00 0. -1.
        -12    1    6    6    0    0  0.10512566271E+03  0.95239844087E+01 -0.50798609627E+02  0.11714354434E+03  0.00000000000E+00 0.  1.
</event>
